  -16.0000000       0.00000000    
  -15.9899998       0.00000000    
  -15.9799995       0.00000000    
  -15.9700003       0.00000000    
  -15.9600000       0.00000000    
  -15.9499998       0.00000000    
  -15.9399996       0.00000000    
  -15.9300003       0.00000000    
  -15.9200001       0.00000000    
  -15.9099998       0.00000000    
  -15.8999996       0.00000000    
  -15.8900003       0.00000000    
  -15.8800001       0.00000000    
  -15.8699999       0.00000000    
  -15.8599997       0.00000000    
  -15.8500004       0.00000000    
  -15.8400002       0.00000000    
  -15.8299999      -4.20389539E-45
  -15.8199997      -1.68155816E-44
  -15.8100004      -7.00649232E-44
  -15.8000002      -2.45227231E-43
  -15.7900000      -7.63707663E-43
  -15.7799997      -2.13838146E-42
  -15.7700005      -5.43003155E-42
  -15.7600002      -1.25598381E-41
  -15.7500000      -2.64214825E-41
  -15.7399998      -5.01468668E-41
  -15.7299995      -8.38971404E-41
  -15.7200003      -1.16309174E-40
  -15.7100000      -1.05852685E-40
  -15.6999998       5.46898765E-41
  -15.6899996       5.98573047E-40
  -15.6800003       1.97689162E-39
  -15.6700001       4.98221159E-39
  -15.6599998       1.08897328E-38
  -15.6499996       2.15759074E-38
  -15.6400003       3.95357108E-38
  -15.6300001       6.76699864E-38
  -15.6199999       1.08660394E-37
  -15.6099997       1.63705841E-37
  -15.6000004       2.30382795E-37
  -15.5900002       2.99440644E-37
  -15.5799999       3.50480014E-37
  -15.5699997       3.46711060E-37
  -15.5600004       2.29353255E-37
  -15.5500002      -8.73021443E-38
  -15.5400000      -7.18650783E-37
  -15.5299997      -1.80841078E-36
  -15.5200005      -3.52095534E-36
  -15.5100002      -6.02526807E-36
  -15.5000000      -9.46906904E-36
  -15.4899998      -1.39427836E-35
  -15.4799995      -1.94348619E-35
  -15.4700003      -2.57821354E-35
  -15.4600000      -3.26213285E-35
  -15.4499998      -3.93501067E-35
  -15.4399996      -4.51077332E-35
  -15.4300003      -4.87857477E-35
  -15.4200001      -4.90776468E-35
  -15.4099998      -4.45738332E-35
  -15.3999996      -3.39021726E-35
  -15.3900003      -1.59077217E-35
  -15.3800001       1.01430024E-35
  -15.3699999       4.43562404E-35
  -15.3599997       8.60343454E-35
  -15.3500004       1.33562951E-34
  -15.3400002       1.84398513E-34
  -15.3299999       2.35187239E-34
  -15.3199997       2.82038150E-34
  -15.3100004       3.20957230E-34
  -15.3000002       3.48428786E-34
  -15.2900000       3.62109772E-34
  -15.2799997       3.61578045E-34
  -15.2700005       3.49053726E-34
  -15.2600002       3.30003256E-34
  -15.2500000       3.13521861E-34
  -15.2399998       3.12404544E-34
  -15.2299995       3.42825558E-34
  -15.2200003       4.23581859E-34
  -15.2100000       5.74898379E-34
  -15.1999998       8.16837525E-34
  -15.1899996       1.16741485E-33
  -15.1800003       1.64056069E-33
  -15.1700001       2.24412671E-33
  -15.1599998       2.97815204E-33
  -15.1499996       3.83360116E-33
  -15.1400003       4.79180280E-33
  -15.1300001       5.82473247E-33
  -15.1199999       6.89627859E-33
  -15.1099997       7.96452304E-33
  -15.1000004       8.98495425E-33
  -15.0900002       9.91450727E-33
  -15.0799999       1.07161856E-32
  -15.0699997       1.13639146E-32
  -15.0600004       1.18473565E-32
  -15.0500002       1.21761187E-32
  -15.0400000       1.23831556E-32
  -15.0299997       1.25267834E-32
  -15.0200005       1.26910220E-32
  -15.0100002       1.29842035E-32
  -15.0000000       1.35353619E-32
  -14.9899998       1.44888113E-32
  -14.9799995       1.59965768E-32
  -14.9700003       1.82094889E-32
  -14.9600000       2.12668616E-32
  -14.9499998       2.52855770E-32
  -14.9399996       3.03493745E-32
  -14.9300003       3.64984354E-32
  -14.9200001       4.37208814E-32
  -14.9099998       5.19463649E-32
  -14.8999996       6.10427986E-32
  -14.8900003       7.08163641E-32
  -14.8800001       8.10165988E-32
  -14.8699999       9.13451798E-32
  -14.8599997       1.01470271E-31
  -14.8500004       1.11045096E-31
  -14.8400002       1.19731000E-31
  -14.8299999       1.27223707E-31
  -14.8199997       1.33282416E-31
  -14.8100004       1.37758945E-31
  -14.8000002       1.40626540E-31
  -14.7900000       1.42005525E-31
  -14.7799997       1.42183012E-31
  -14.7700005       1.41626839E-31
  -14.7600002       1.40988910E-31
  -14.7500000       1.41099865E-31
  -14.7399998       1.42951363E-31
  -14.7299995       1.47668962E-31
  -14.7200003       1.56474449E-31
  -14.7100000       1.70641543E-31
  -14.6999998       1.91446711E-31
  -14.6899996       2.20120368E-31
  -14.6800003       2.57802815E-31
  -14.6700001       3.05511240E-31
  -14.6599998       3.64122188E-31
  -14.6499996       4.34376337E-31
  -14.6400003       5.16911933E-31
  -14.6300001       6.12330054E-31
  -14.6199999       7.21298192E-31
  -14.6099997       8.44694348E-31
  -14.6000004       9.83790218E-31
  -14.5900002       1.14047835E-30
  -14.5799999       1.31753808E-30
  -14.5699997       1.51892810E-30
  -14.5600004       1.75011154E-30
  -14.5500002       2.01837947E-30
  -14.5400000       2.33313736E-30
  -14.5299997       2.70617476E-30
  -14.5200005       3.15179884E-30
  -14.5100002       3.68679265E-30
  -14.5000000       4.33008221E-30
  -14.4899998       5.10200772E-30
  -14.4799995       6.02291783E-30
  -14.4700003       7.11096895E-30
  -14.4600000       8.37866268E-30
  -14.4499998       9.82784973E-30
  -14.4399996       1.14424110E-29
  -14.4300003       1.31781756E-29
  -14.4200001       1.49491073E-29
  -14.4099998       1.66086375E-29
  -14.3999996       1.79249445E-29
  -14.3900003       1.85485982E-29
  -14.3800001       1.79707169E-29
  -14.3699999       1.54693537E-29
  -14.3599997       1.00410720E-29
  -14.3500004       3.16549414E-31
  -14.3400002      -1.55464014E-29
  -14.3299999      -3.99931270E-29
  -14.3199997      -7.62324901E-29
  -14.3100004      -1.28431565E-28
  -14.3000002      -2.01954482E-28
  -14.2900000      -3.03637132E-28
  -14.2799997      -4.42122593E-28
  -14.2700005      -6.28262518E-28
  -14.2600002      -8.75580427E-28
  -14.2500000      -1.20083687E-27
  -14.2399998      -1.62463130E-27
  -14.2299995      -2.17214064E-27
  -14.2200003      -2.87400729E-27
  -14.2100000      -3.76724069E-27
  -14.1999998      -4.89636527E-27
  -14.1899996      -6.31468402E-27
  -14.1800003      -8.08573260E-27
  -14.1700001      -1.02846793E-26
  -14.1599998      -1.30003414E-26
  -14.1499996      -1.63372184E-26
  -14.1400003      -2.04174489E-26
  -14.1300001      -2.53832267E-26
  -14.1199999      -3.13998318E-26
  -14.1099997      -3.86584769E-26
  -14.1000004      -4.73795406E-26
  -14.0900002      -5.78161581E-26
  -14.0799999      -7.02571910E-26
  -14.0699997      -8.50339424E-26
  -14.0600004      -1.02521596E-25
  -14.0500002      -1.23144959E-25
  -14.0400000      -1.47385829E-25
  -14.0299997      -1.75785216E-25
  -14.0200005      -2.08951800E-25
  -14.0100002      -2.47564200E-25
  -14.0000000      -2.92383061E-25
  -13.9899998      -3.44257075E-25
  -13.9799995      -4.04124222E-25
  -13.9700003      -4.73025946E-25
  -13.9600000      -5.52108611E-25
  -13.9499998      -6.42643959E-25
  -13.9399996      -7.46017278E-25
  -13.9300003      -8.63746386E-25
  -13.9200001      -9.97510177E-25
  -13.9099998      -1.14911504E-24
  -13.8999996      -1.32054063E-24
  -13.8900003      -1.51393452E-24
  -13.8800001      -1.73161753E-24
  -13.8699999      -1.97608454E-24
  -13.8599997      -2.25005199E-24
  -13.8500004      -2.55641815E-24
  -13.8400002      -2.89828897E-24
  -13.8299999      -3.27898082E-24
  -13.8199997      -3.70206072E-24
  -13.8100004      -4.17129491E-24
  -13.8000002      -4.69075587E-24
  -13.7900000      -5.26457487E-24
  -13.7799997      -5.89731626E-24
  -13.7700005      -6.59369388E-24
  -13.7600002      -7.35867675E-24
  -13.7500000      -8.19750963E-24
  -13.7399998      -9.11562539E-24
  -13.7299995      -1.01187709E-23
  -13.7200003      -1.12127719E-23
  -13.7100000      -1.24038619E-23
  -13.6999998      -1.36983109E-23
  -13.6899996      -1.51026584E-23
  -13.6800003      -1.66236864E-23
  -13.6700001      -1.82682846E-23
  -13.6599998      -2.00434031E-23
  -13.6499996      -2.19561699E-23
  -13.6400003      -2.40139704E-23
  -13.6300001      -2.62240337E-23
  -13.6199999      -2.85936866E-23
  -13.6099997      -3.11302278E-23
  -13.6000004      -3.38410758E-23
  -13.5900002      -3.67331250E-23
  -13.5799999      -3.98136963E-23
  -13.5699997      -4.30896715E-23
  -13.5600004      -4.65672513E-23
  -13.5500002      -5.02532133E-23
  -13.5400000      -5.41534899E-23
  -13.5299997      -5.82732876E-23
  -13.5200005      -6.26179737E-23
  -13.5100002      -6.71920038E-23
  -13.5000000      -7.19993538E-23
  -13.4899998      -7.70424153E-23
  -13.4799995      -8.23244007E-23
  -13.4700003      -8.78464271E-23
  -13.4600000      -9.36089361E-23
  -13.4499998      -9.96114418E-23
  -13.4399996      -1.05852165E-22
  -13.4300003      -1.12328265E-22
  -13.4200001      -1.19035198E-22
  -13.4099998      -1.25967051E-22
  -13.3999996      -1.33116920E-22
  -13.3900003      -1.40476349E-22
  -13.3800001      -1.48034646E-22
  -13.3699999      -1.55779115E-22
  -13.3599997      -1.63695870E-22
  -13.3500004      -1.71767242E-22
  -13.3400002      -1.79977013E-22
  -13.3299999      -1.88304418E-22
  -13.3199997      -1.96725754E-22
  -13.3100004      -2.05217091E-22
  -13.3000002      -2.13751114E-22
  -13.2900000      -2.22297166E-22
  -13.2799997      -2.30825396E-22
  -13.2700005      -2.39297156E-22
  -13.2600002      -2.47676349E-22
  -13.2500000      -2.55923971E-22
  -13.2399998      -2.63996303E-22
  -13.2299995      -2.71847350E-22
  -13.2200003      -2.79431648E-22
  -13.2100000      -2.86695100E-22
  -13.1999998      -2.93585832E-22
  -13.1899996      -3.00046742E-22
  -13.1800003      -3.06020577E-22
  -13.1700001      -3.11444179E-22
  -13.1599998      -3.16253428E-22
  -13.1499996      -3.20382667E-22
  -13.1400003      -3.23763914E-22
  -13.1300001      -3.26322474E-22
  -13.1199999      -3.27987135E-22
  -13.1099997      -3.28682948E-22
  -13.1000004      -3.28331709E-22
  -13.0900002      -3.26853598E-22
  -13.0799999      -3.24168139E-22
  -13.0699997      -3.20190816E-22
  -13.0600004      -3.14839764E-22
  -13.0500002      -3.08028575E-22
  -13.0400000      -2.99670360E-22
  -13.0299997      -2.89679645E-22
  -13.0200005      -2.77966739E-22
  -13.0100002      -2.64443770E-22
  -13.0000000      -2.49021779E-22
  -12.9899998      -2.31611480E-22
  -12.9799995      -2.12124294E-22
  -12.9700003      -1.90470112E-22
  -12.9600000      -1.66561429E-22
  -12.9499998      -1.40310070E-22
  -12.9399996      -1.11626885E-22
  -12.9300003      -8.04248678E-23
  -12.9200001      -4.66172777E-23
  -12.9099998      -1.01175332E-23
  -12.8999996       2.91602654E-23
  -12.8900003       7.13010667E-23
  -12.8800001       1.16388929E-22
  -12.8699999       1.64510177E-22
  -12.8599997       2.15748283E-22
  -12.8500004       2.70188697E-22
  -12.8400002       3.27918295E-22
  -12.8299999       3.89024950E-22
  -12.8199997       4.53595021E-22
  -12.8100004       5.21723876E-22
  -12.8000002       5.93501837E-22
  -12.7900000       6.69031343E-22
  -12.7799997       7.48420386E-22
  -12.7700005       8.31770899E-22
  -12.7600002       9.19209605E-22
  -12.7500000       1.01086570E-21
  -12.7399998       1.10686692E-21
  -12.7299995       1.20736946E-21
  -12.7200003       1.31254358E-21
  -12.7100000       1.42256244E-21
  -12.6999998       1.53763606E-21
  -12.6899996       1.65798186E-21
  -12.6800003       1.78383922E-21
  -12.6700001       1.91549584E-21
  -12.6599998       2.05325454E-21
  -12.6499996       2.19746023E-21
  -12.6400003       2.34847784E-21
  -12.6300001       2.50674681E-21
  -12.6199999       2.67273789E-21
  -12.6099997       2.84697008E-21
  -12.6000004       3.03001630E-21
  -12.5900002       3.22252785E-21
  -12.5799999       3.42520507E-21
  -12.5699997       3.63882648E-21
  -12.5600004       3.86429540E-21
  -12.5500002       4.10254604E-21
  -12.5400000       4.35462771E-21
  -12.5299997       4.62173071E-21
  -12.5200005       4.90510268E-21
  -12.5100002       5.20613785E-21
  -12.5000000       5.52636863E-21
  -12.4899998       5.86748006E-21
  -12.4799995       6.23129171E-21
  -12.4700003       6.61974590E-21
  -12.4600000       7.03504671E-21
  -12.4499998       7.47953512E-21
  -12.4399996       7.95567611E-21
  -12.4300003       8.46632443E-21
  -12.4200001       9.01443175E-21
  -12.4099998       9.60319613E-21
  -12.3999996       1.02360887E-20
  -12.3900003       1.09168704E-20
  -12.3800001       1.16495440E-20
  -12.3699999       1.24384910E-20
  -12.3599997       1.32883795E-20
  -12.3500004       1.42040611E-20
  -12.3400002       1.51909264E-20
  -12.3299999       1.62547065E-20
  -12.3199997       1.74015294E-20
  -12.3100004       1.86378623E-20
  -12.3000002       1.99707168E-20
  -12.2900000       2.14073551E-20
  -12.2799997       2.29558162E-20
  -12.2700005       2.46243493E-20
  -12.2600002       2.64219308E-20
  -12.2500000       2.83579131E-20
  -12.2399998       3.04423436E-20
  -12.2299995       3.26859224E-20
  -12.2200003       3.50995223E-20
  -12.2100000       3.76953928E-20
  -12.1999998       4.04856959E-20
  -12.1899996       4.34836828E-20
  -12.1800003       4.67035867E-20
  -12.1700001       5.01598511E-20
  -12.1599998       5.38676332E-20
  -12.1499996       5.78433961E-20
  -12.1400003       6.21043003E-20
  -12.1300001       6.66678105E-20
  -12.1199999       7.15528290E-20
  -12.1099997       7.67791436E-20
  -12.1000004       8.23672785E-20
  -12.0900002       8.83386178E-20
  -12.0799999       9.47153144E-20
  -12.0699997       1.01521143E-19
  -12.0600004       1.08780532E-19
  -12.0500002       1.16519246E-19
  -12.0400000       1.24763238E-19
  -12.0299997       1.33540129E-19
  -12.0200005       1.42879153E-19
  -12.0100002       1.52809973E-19
  -12.0000000       1.63363919E-19
  -11.9899998       1.74572772E-19
  -11.9799995       1.86469839E-19
  -11.9700003       1.99090043E-19
  -11.9600000       2.12468462E-19
  -11.9499998       2.26643249E-19
  -11.9399996       2.41652337E-19
  -11.9300003       2.57533869E-19
  -11.9200001       2.74329875E-19
  -11.9099998       2.92081067E-19
  -11.8999996       3.10832761E-19
  -11.8900003       3.30625642E-19
  -11.8800001       3.51509574E-19
  -11.8699999       3.73529148E-19
  -11.8599997       3.96731021E-19
  -11.8500004       4.21166660E-19
  -11.8400002       4.46888100E-19
  -11.8299999       4.73942955E-19
  -11.8199997       5.02387008E-19
  -11.8100004       5.32271647E-19
  -11.8000002       5.63655500E-19
  -11.7900000       5.96589800E-19
  -11.7799997       6.31132759E-19
  -11.7700005       6.67343107E-19
  -11.7600002       7.05283969E-19
  -11.7500000       7.45009214E-19
  -11.7399998       7.86581244E-19
  -11.7299995       8.30064940E-19
  -11.7200003       8.75516084E-19
  -11.7100000       9.22992323E-19
  -11.6999998       9.72566497E-19
  -11.6899996       1.02429682E-18
  -11.6800003       1.07824957E-18
  -11.6700001       1.13448731E-18
  -11.6599998       1.19306814E-18
  -11.6499996       1.25406102E-18
  -11.6400003       1.31752987E-18
  -11.6300001       1.38354105E-18
  -11.6199999       1.45214689E-18
  -11.6099997       1.52341367E-18
  -11.6000004       1.59740467E-18
  -11.5900002       1.67417768E-18
  -11.5799999       1.75379226E-18
  -11.5699997       1.83630498E-18
  -11.5600004       1.92178624E-18
  -11.5500002       2.01026726E-18
  -11.5400000       2.10181196E-18
  -11.5299997       2.19646066E-18
  -11.5200005       2.29428014E-18
  -11.5100002       2.39529213E-18
  -11.5000000       2.49956714E-18
  -11.4899998       2.60713246E-18
  -11.4799995       2.71799597E-18
  -11.4700003       2.83222154E-18
  -11.4600000       2.94983546E-18
  -11.4499998       3.07085943E-18
  -11.4399996       3.19529800E-18
  -11.4300003       3.32317619E-18
  -11.4200001       3.45449773E-18
  -11.4099998       3.58928805E-18
  -11.3999996       3.72750828E-18
  -11.3900003       3.86916875E-18
  -11.3800001       4.01425623E-18
  -11.3699999       4.16275789E-18
  -11.3599997       4.31461130E-18
  -11.3500004       4.46979576E-18
  -11.3400002       4.62829018E-18
  -11.3299999       4.79002384E-18
  -11.3199997       4.95491361E-18
  -11.3100004       5.12293385E-18
  -11.3000002       5.29395385E-18
  -11.2900000       5.46790332E-18
  -11.2799997       5.64465651E-18
  -11.2700005       5.82410507E-18
  -11.2600002       6.00612079E-18
  -11.2500000       6.19058869E-18
  -11.2399998       6.37734580E-18
  -11.2299995       6.56618410E-18
  -11.2200003       6.75696256E-18
  -11.2100000       6.94953310E-18
  -11.1999998       7.14358967E-18
  -11.1899996       7.33901688E-18
  -11.1800003       7.53550785E-18
  -11.1700001       7.73280118E-18
  -11.1599998       7.93066774E-18
  -11.1499996       8.12876923E-18
  -11.1400003       8.32685582E-18
  -11.1300001       8.52451973E-18
  -11.1199999       8.72149956E-18
  -11.1099997       8.91740157E-18
  -11.1000004       9.11184443E-18
  -11.0900002       9.30441539E-18
  -11.0799999       9.49470333E-18
  -11.0699997       9.68221773E-18
  -11.0600004       9.86659463E-18
  -11.0500002       1.00472864E-17
  -11.0400000       1.02238084E-17
  -11.0299997       1.03955394E-17
  -11.0200005       1.05620170E-17
  -11.0100002       1.07226976E-17
  -11.0000000       1.08768783E-17
  -10.9899998       1.10239750E-17
  -10.9799995       1.11632648E-17
  -10.9700003       1.12941553E-17
  -10.9600000       1.14158725E-17
  -10.9499998       1.15277702E-17
  -10.9399996       1.16290129E-17
  -10.9300003       1.17188141E-17
  -10.9200001       1.17964798E-17
  -10.9099998       1.18610892E-17
  -10.8999996       1.19118169E-17
  -10.8900003       1.19477000E-17
  -10.8800001       1.19678567E-17
  -10.8699999       1.19713028E-17
  -10.8599997       1.19571133E-17
  -10.8500004       1.19242494E-17
  -10.8400002       1.18717383E-17
  -10.8299999       1.17985072E-17
  -10.8199997       1.17034683E-17
  -10.8100004       1.15855132E-17
  -10.8000002       1.14434722E-17
  -10.7900000       1.12762659E-17
  -10.7799997       1.10826626E-17
  -10.7700005       1.08614547E-17
  -10.7600002       1.06113426E-17
  -10.7500000       1.03311235E-17
  -10.7399998       1.00195139E-17
  -10.7299995       9.67517594E-18
  -10.7200003       9.29682022E-18
  -10.7100000       8.88306117E-18
  -10.6999998       8.43249754E-18
  -10.6899996       7.94379344E-18
  -10.6800003       7.41550545E-18
  -10.6700001       6.84618474E-18
  -10.6599998       6.23438707E-18
  -10.6499996       5.57863716E-18
  -10.6400003       4.87748703E-18
  -10.6300001       4.12939811E-18
  -10.6199999       3.33286372E-18
  -10.6099997       2.48637299E-18
  -10.6000004       1.58841890E-18
  -10.5900002       6.37440528E-19
  -10.5799999      -3.68098319E-19
  -10.5699997      -1.42974354E-18
  -10.5600004      -2.54903626E-18
  -10.5500002      -3.72752358E-18
  -10.5400000      -4.96676959E-18
  -10.5299997      -6.26828369E-18
  -10.5200005      -7.63364952E-18
  -10.5100002      -9.06438412E-18
  -10.5000000      -1.05619433E-17
  -10.4899998      -1.21279071E-17
  -10.4799995      -1.37637601E-17
  -10.4700003      -1.54708880E-17
  -10.4600000      -1.72508153E-17
  -10.4499998      -1.91049042E-17
  -10.4399996      -2.10346289E-17
  -10.4300003      -2.30411954E-17
  -10.4200001      -2.51259916E-17
  -10.4099998      -2.72903709E-17
  -10.3999996      -2.95355856E-17
  -10.3900003      -3.18628682E-17
  -10.3800001      -3.42731765E-17
  -10.3699999      -3.67678440E-17
  -10.3599997      -3.93476583E-17
  -10.3500004      -4.20139625E-17
  -10.3400002      -4.47674647E-17
  -10.3299999      -4.76089294E-17
  -10.3199997      -5.05392961E-17
  -10.3100004      -5.35590083E-17
  -10.3000002      -5.66689195E-17
  -10.2900000      -5.98697710E-17
  -10.2799997      -6.31614999E-17
  -10.2700005      -6.65450855E-17
  -10.2600002      -7.00204484E-17
  -10.2500000      -7.35876814E-17
  -10.2399998      -7.72469497E-17
  -10.2299995      -8.09981609E-17
  -10.2200003      -8.48410765E-17
  -10.2100000      -8.87755578E-17
  -10.1999998      -9.28012076E-17
  -10.1899996      -9.69167554E-17
  -10.1800003      -1.01122585E-16
  -10.1700001      -1.05417313E-16
  -10.1599998      -1.09799498E-16
  -10.1499996      -1.14268742E-16
  -10.1400003      -1.18823569E-16
  -10.1300001      -1.23462450E-16
  -10.1199999      -1.28183309E-16
  -10.1099997      -1.32984993E-16
  -10.1000004      -1.37865240E-16
  -10.0900002      -1.42821785E-16
  -10.0799999      -1.47852327E-16
  -10.0699997      -1.52954417E-16
  -10.0600004      -1.58125143E-16
  -10.0500002      -1.63361249E-16
  -10.0400000      -1.68659745E-16
  -10.0299997      -1.74017466E-16
  -10.0200005      -1.79429967E-16
  -10.0100002      -1.84894507E-16
  -10.0000000      -1.90405436E-16
  -9.98999977      -1.95960715E-16
  -9.97999954      -2.01553951E-16
  -9.97000027      -2.07180540E-16
  -9.96000004      -2.12835742E-16
  -9.94999981      -2.18514198E-16
  -9.93999958      -2.24210018E-16
  -9.93000031      -2.29917432E-16
  -9.92000008      -2.35630325E-16
  -9.90999985      -2.41342768E-16
  -9.89999962      -2.47047165E-16
  -9.89000034      -2.52736870E-16
  -9.88000011      -2.58404924E-16
  -9.86999989      -2.64044601E-16
  -9.85999966      -2.69645580E-16
  -9.85000038      -2.75202222E-16
  -9.84000015      -2.80704786E-16
  -9.82999992      -2.86145014E-16
  -9.81999969      -2.91514303E-16
  -9.81000042      -2.96801695E-16
  -9.80000019      -3.01998189E-16
  -9.78999996      -3.07094786E-16
  -9.77999973      -3.12079946E-16
  -9.77000046      -3.16943821E-16
  -9.76000023      -3.21675135E-16
  -9.75000000      -3.26263486E-16
  -9.73999977      -3.30695850E-16
  -9.72999954      -3.34961455E-16
  -9.72000027      -3.39047569E-16
  -9.71000004      -3.42942517E-16
  -9.69999981      -3.46633781E-16
  -9.68999958      -3.50108416E-16
  -9.68000031      -3.53351202E-16
  -9.67000008      -3.56349249E-16
  -9.65999985      -3.59087601E-16
  -9.64999962      -3.61553261E-16
  -9.64000034      -3.63732862E-16
  -9.63000011      -3.65611184E-16
  -9.61999989      -3.67171763E-16
  -9.60999966      -3.68399219E-16
  -9.60000038      -3.69277936E-16
  -9.59000015      -3.69792350E-16
  -9.57999992      -3.69925811E-16
  -9.56999969      -3.69661934E-16
  -9.56000042      -3.68984545E-16
  -9.55000019      -3.67876679E-16
  -9.53999996      -3.66322241E-16
  -9.52999973      -3.64302438E-16
  -9.52000046      -3.61801283E-16
  -9.51000023      -3.58798233E-16
  -9.50000000      -3.55278070E-16
  -9.48999977      -3.51221497E-16
  -9.47999954      -3.46612288E-16
  -9.47000027      -3.41430299E-16
  -9.46000004      -3.35656658E-16
  -9.44999981      -3.29272226E-16
  -9.43999958      -3.22259429E-16
  -9.43000031      -3.14599127E-16
  -9.42000008      -3.06271629E-16
  -9.40999985      -2.97260892E-16
  -9.39999962      -2.87546457E-16
  -9.39000034      -2.77108417E-16
  -9.38000011      -2.65927476E-16
  -9.36999989      -2.53985900E-16
  -9.35999966      -2.41266006E-16
  -9.35000038      -2.27748684E-16
  -9.34000015      -2.13414027E-16
  -9.32999992      -1.98244541E-16
  -9.31999969      -1.82222542E-16
  -9.31000042      -1.65327504E-16
  -9.30000019      -1.47543663E-16
  -9.28999996      -1.28851936E-16
  -9.27999973      -1.09236214E-16
  -9.27000046      -8.86776527E-17
  -9.26000023      -6.71599917E-17
  -9.25000000      -4.46664660E-17
  -9.23999977      -2.11817248E-17
  -9.22999954       3.31090331E-18
  -9.22000027       2.88267480E-17
  -9.21000004       5.53803442E-17
  -9.19999981       8.29863656E-17
  -9.18999958       1.11659007E-16
  -9.18000031       1.41411568E-16
  -9.17000008       1.72256842E-16
  -9.15999985       2.04206740E-16
  -9.14999962       2.37273066E-16
  -9.14000034       2.71466966E-16
  -9.13000011       3.06799119E-16
  -9.11999989       3.43278101E-16
  -9.10999966       3.80911299E-16
  -9.10000038       4.19708875E-16
  -9.09000015       4.59675569E-16
  -9.07999992       5.00819347E-16
  -9.06999969       5.43143943E-16
  -9.06000042       5.86653484E-16
  -9.05000019       6.31350301E-16
  -9.03999996       6.77237728E-16
  -9.02999973       7.24317831E-16
  -9.02000046       7.72585845E-16
  -9.01000023       8.22044099E-16
  -9.00000000       8.72687405E-16
  -8.98999977       9.24514227E-16
  -8.97999954       9.77517420E-16
  -8.97000027       1.03169280E-15
  -8.96000004       1.08702851E-15
  -8.94999981       1.14351915E-15
  -8.93999958       1.20115265E-15
  -8.93000031       1.25991979E-15
  -8.92000008       1.31979232E-15
  -8.90999985       1.38076799E-15
  -8.89999962       1.44282766E-15
  -8.89000034       1.50595099E-15
  -8.88000011       1.57012041E-15
  -8.86999989       1.63531802E-15
  -8.85999966       1.70150221E-15
  -8.85000038       1.76865742E-15
  -8.84000015       1.83675749E-15
  -8.82999992       1.90576399E-15
  -8.81999969       1.97566327E-15
  -8.81000042       2.04640259E-15
  -8.80000019       2.11795866E-15
  -8.78999996       2.19027812E-15
  -8.77999973       2.26334043E-15
  -8.77000046       2.33709964E-15
  -8.76000023       2.41149539E-15
  -8.75000000       2.48650460E-15
  -8.73999977       2.56206142E-15
  -8.72999954       2.63812223E-15
  -8.72000027       2.71464234E-15
  -8.71000004       2.79155441E-15
  -8.69999981       2.86880848E-15
  -8.68999958       2.94633190E-15
  -8.68000031       3.02407406E-15
  -8.67000008       3.10196086E-15
  -8.65999985       3.17992855E-15
  -8.64999962       3.25792567E-15
  -8.64000034       3.33585757E-15
  -8.63000011       3.41364506E-15
  -8.61999989       3.49123666E-15
  -8.60999966       3.56853710E-15
  -8.60000038       3.64545489E-15
  -8.59000015       3.72193223E-15
  -8.57999992       3.79786534E-15
  -8.56999969       3.87316530E-15
  -8.56000042       3.94775036E-15
  -8.55000019       4.02152143E-15
  -8.53999996       4.09435864E-15
  -8.52999973       4.16620821E-15
  -8.52000046       4.23691301E-15
  -8.51000023       4.30640868E-15
  -8.50000000       4.37458043E-15
  -8.48999977       4.44131392E-15
  -8.47999954       4.50648887E-15
  -8.47000027       4.57002524E-15
  -8.46000004       4.63176547E-15
  -8.44999981       4.69162656E-15
  -8.43999958       4.74947044E-15
  -8.43000031       4.80517386E-15
  -8.42000008       4.85860343E-15
  -8.40999985       4.90965750E-15
  -8.39999962       4.95816284E-15
  -8.39000034       5.00401061E-15
  -8.38000011       5.04708520E-15
  -8.36999989       5.08720746E-15
  -8.35999966       5.12425329E-15
  -8.35000038       5.15809649E-15
  -8.34000015       5.18860620E-15
  -8.32999992       5.21564645E-15
  -8.31999969       5.23903854E-15
  -8.31000042       5.25864100E-15
  -8.30000019       5.27431238E-15
  -8.28999996       5.28593748E-15
  -8.27999973       5.29331429E-15
  -8.27000046       5.29627637E-15
  -8.26000023       5.29471274E-15
  -8.25000000       5.28843581E-15
  -8.23999977       5.27733586E-15
  -8.22999954       5.26123504E-15
  -8.22000027       5.23994317E-15
  -8.21000004       5.21335142E-15
  -8.19999981       5.18126708E-15
  -8.18999958       5.14354108E-15
  -8.18000031       5.10003916E-15
  -8.17000008       5.05055423E-15
  -8.15999985       4.99495244E-15
  -8.14999962       4.93308431E-15
  -8.14000034       4.86476263E-15
  -8.13000011       4.78987094E-15
  -8.11999989       4.70821612E-15
  -8.10999966       4.61964908E-15
  -8.10000038       4.52401525E-15
  -8.09000015       4.42115411E-15
  -8.07999992       4.31091066E-15
  -8.06999969       4.19314724E-15
  -8.06000042       4.06768388E-15
  -8.05000019       3.93438503E-15
  -8.03999996       3.79311984E-15
  -8.02999973       3.64371212E-15
  -8.02000046       3.48604160E-15
  -8.01000023       3.31996745E-15
  -8.00000000       3.14533149E-15
  -7.98999977       2.96200074E-15
  -7.98000002       2.76984919E-15
  -7.96999979       2.56873329E-15
  -7.96000004       2.35855159E-15
  -7.94999981       2.13917303E-15
  -7.94000006       1.91047773E-15
  -7.92999983       1.67235358E-15
  -7.92000008       1.42468305E-15
  -7.90999985       1.16734756E-15
  -7.90000010       9.00265474E-16
  -7.88999987       6.23323552E-16
  -7.88000011       3.36450989E-16
  -7.86999989       3.95570342E-17
  -7.86000013      -2.67444989E-16
  -7.84999990      -5.84624575E-16
  -7.84000015      -9.12055008E-16
  -7.82999992      -1.24979531E-15
  -7.82000017      -1.59789981E-15
  -7.80999994      -1.95641381E-15
  -7.80000019      -2.32538221E-15
  -7.78999996      -2.70483666E-15
  -7.78000021      -3.09480237E-15
  -7.76999998      -3.49530327E-15
  -7.76000023      -3.90634401E-15
  -7.75000000      -4.32793263E-15
  -7.73999977      -4.76005115E-15
  -7.73000002      -5.20270167E-15
  -7.71999979      -5.65585286E-15
  -7.71000004      -6.11944586E-15
  -7.69999981      -6.59346286E-15
  -7.69000006      -7.07784585E-15
  -7.67999983      -7.57252706E-15
  -7.67000008      -8.07743832E-15
  -7.65999985      -8.59250212E-15
  -7.65000010      -9.11760071E-15
  -7.63999987      -9.65265872E-15
  -7.63000011      -1.01975432E-14
  -7.61999989      -1.07520888E-14
  -7.61000013      -1.13161899E-14
  -7.59999990      -1.18897261E-14
  -7.59000015      -1.24724865E-14
  -7.57999992      -1.30642940E-14
  -7.57000017      -1.36650318E-14
  -7.55999994      -1.42744364E-14
  -7.55000019      -1.48922555E-14
  -7.53999996      -1.55183026E-14
  -7.53000021      -1.61523474E-14
  -7.51999998      -1.67941375E-14
  -7.51000023      -1.74433984E-14
  -7.50000000      -1.80997964E-14
  -7.48999977      -1.87630486E-14
  -7.48000002      -1.94328857E-14
  -7.46999979      -2.01090230E-14
  -7.46000004      -2.07909980E-14
  -7.44999981      -2.14784940E-14
  -7.44000006      -2.21712178E-14