  -16.0000000       0.00000000    
  -15.9899998       0.00000000    
  -15.9799995       0.00000000    
  -15.9700003       0.00000000    
  -15.9600000       0.00000000    
  -15.9499998       0.00000000    
  -15.9399996       0.00000000    
  -15.9300003       0.00000000    
  -15.9200001       0.00000000    
  -15.9099998       0.00000000    
  -15.8999996       0.00000000    
  -15.8900003      -3.58366668E-40
  -15.8800001      -8.27956217E-39
  -15.8699999      -6.76165465E-38
  -15.8599997      -1.58675964E-37
  -15.8500004       1.80668994E-36
  -15.8400002       2.34273068E-35
  -15.8299999       1.57771879E-34
  -15.8199997       7.78882649E-34
  -15.8100004       3.11929805E-33
  -15.8000002       1.06509728E-32
  -15.7900000       3.19506888E-32
  -15.7799997       8.58543399E-32
  -15.7700005       2.09166101E-31
  -15.7600002       4.64695157E-31
  -15.7500000       9.40663305E-31
  -15.7399998       1.71934236E-30
  -15.7299995       2.77511346E-30
  -15.7200003       3.75403318E-30
  -15.7100000       3.62201595E-30
  -15.6999998       2.94211989E-31
  -15.6899996      -9.40184682E-30
  -15.6800003      -2.87965226E-29
  -15.6700001      -5.87810430E-29
  -15.6599998      -9.34062120E-29
  -15.6499996      -1.15093501E-28
  -15.6400003      -9.32153825E-29
  -15.6300001       8.39726144E-30
  -15.6199999       2.10723843E-28
  -15.6099997       4.88186311E-28
  -15.6000004       7.41653473E-28
  -15.5900002       8.02863331E-28
  -15.5799999       4.96400980E-28
  -15.5699997      -2.42343641E-28
  -15.5600004      -1.25126860E-27
  -15.5500002      -2.14451298E-27
  -15.5400000      -2.55142307E-27
  -15.5299997      -2.57862702E-27
  -15.5200005      -3.20165381E-27
  -15.5100002      -5.97733505E-27
  -15.5000000      -1.14176700E-26
  -15.4899998      -1.59786735E-26
  -15.4799995      -9.11375318E-27
  -15.4700003       2.61723803E-26
  -15.4600000       1.04707702E-25
  -15.4499998       2.19810964E-25
  -15.4399996       3.17396854E-25
  -15.4300003       2.79153568E-25
  -15.4200001      -5.82830590E-26
  -15.4099998      -8.20034568E-25
  -15.3999996      -1.93865999E-24
  -15.3900003      -2.97259079E-24
  -15.3800001      -3.01200386E-24
  -15.3699999      -8.43226635E-25
  -15.3599997       4.47357537E-24
  -15.3500004       1.26084664E-23
  -15.3400002       2.08459019E-23
  -15.3299999       2.35310944E-23
  -15.3199997       1.30268561E-23
  -15.3100004      -1.70185097E-23
  -15.3000002      -6.61269343E-23
  -15.2900000      -1.20772711E-22
  -15.2799997      -1.50986993E-22
  -15.2700005      -1.14529767E-22
  -15.2600002       2.73751300E-23
  -15.2500000       2.82678852E-22
  -15.2399998       5.96684796E-22
  -15.2299995       8.31604494E-22
  -15.2200003       7.79264570E-22
  -15.2100000       2.26199440E-22
  -15.1999998      -9.25609653E-22
  -15.1899996      -2.50917585E-21
  -15.1800003      -3.97807030E-21
  -15.1700001      -4.41892202E-21
  -15.1599998      -2.77879048E-21
  -15.1499996       1.66055539E-21
  -15.1400003       8.64256883E-21
  -15.1300001       1.63586695E-20
  -15.1199999       2.12873767E-20
  -15.1099997       1.88237663E-20
  -15.1000004       4.90951363E-21
  -15.0900002      -2.15069108E-20
  -15.0799999      -5.58887683E-20
  -15.0699997      -8.66355176E-20
  -15.0600004      -9.61633974E-20
  -15.0500002      -6.56279217E-20
  -15.0400000       1.67486820E-20
  -15.0299997       1.45558701E-19
  -15.0200005       2.90059955E-19
  -15.0100002       3.93034377E-19
  -15.0000000       3.81312943E-19
  -14.9899998       1.89847373E-19
  -14.9799995      -2.03983450E-19
  -14.9700003      -7.45656845E-19
  -14.9600000      -1.28375495E-18
  -14.9499998      -1.58212830E-18
  -14.9399996      -1.37577114E-18
  -14.9300003      -4.69197626E-19
  -14.9200001       1.14295785E-18
  -14.9099998       3.17318518E-18
  -14.8999996       5.00862080E-18
  -14.8900003       5.79737060E-18
  -14.8800001       4.67604828E-18
  -14.8699999       1.11330383E-18
  -14.8599997      -4.71503703E-18
  -14.8500004      -1.16551734E-17
  -14.8400002      -1.75644061E-17
  -14.8299999      -1.96817486E-17
  -14.8199997      -1.54050147E-17
  -14.8100004      -3.35211118E-18
  -14.8000002       1.55768714E-17
  -14.7900000       3.75380088E-17
  -14.7799997       5.58961608E-17
  -14.7700005       6.24671777E-17
  -14.7600002       4.98304023E-17
  -14.7500000       1.42927281E-17
  -14.7399998      -4.13096645E-17
  -14.7299995      -1.06030122E-16
  -14.7200003      -1.61462082E-16
  -14.7100000      -1.85209696E-16
  -14.6999998      -1.56991588E-16
  -14.6899996      -6.62195403E-17
  -14.6800003       8.09997755E-17
  -14.6700001       2.57973996E-16
  -14.6599998       4.18960257E-16
  -14.6499996       5.07379882E-16
  -14.6400003       4.70172531E-16
  -14.6300001       2.75600407E-16
  -14.6199999      -7.00828575E-17
  -14.6099997      -5.12648215E-16
  -14.6000004      -9.51613141E-16
  -14.5900002      -1.25645373E-15
  -14.5799999      -1.29640690E-15
  -14.5699997      -9.78632115E-16
  -14.5600004      -2.85677267E-16
  -14.5500002       6.98827381E-16
  -14.5400000       1.78656210E-15
  -14.5299997       2.70936300E-15
  -14.5200005       3.17226798E-15
  -14.5100002       2.92656935E-15
  -14.5000000       1.84743603E-15
  -14.4899998      -3.73688478E-18
  -14.4799995      -2.35192229E-15
  -14.4700003      -4.73021314E-15
  -14.4600000      -6.55479580E-15
  -14.4499998      -7.24433483E-15
  -14.4399996      -6.36230968E-15
  -14.4300003      -3.75164826E-15
  -14.4200001       3.71919753E-16
  -14.4099998       5.39664511E-15
  -14.3999996       1.03783406E-14
  -14.3900003       1.41898856E-14
  -14.3800001       1.57364593E-14
  -14.3699999       1.41992842E-14
  -14.3599997       9.25995730E-15
  -14.3500004       1.25576340E-15
  -14.3400002      -8.77537653E-15
  -14.3299999      -1.91843323E-14
  -14.3199997      -2.79352110E-14
  -14.3100004      -3.29397933E-14
  -14.3000002      -3.24537387E-14
  -14.2900000      -2.54695184E-14
  -14.2799997      -1.20339207E-14
  -14.2700005       6.57760725E-15
  -14.2600002       2.78815379E-14
  -14.2500000       4.84272859E-14
  -14.2399998       6.42503628E-14
  -14.2299995       7.14928266E-14
  -14.2200003       6.71110099E-14
  -14.2100000       4.95636044E-14
  -14.1999998       1.93587449E-14
  -14.1899996      -2.06575344E-14
  -14.1800003      -6.53656613E-14
  -14.1700001      -1.07840264E-13
  -14.1599998      -1.40212101E-13
  -14.1499996      -1.54846405E-13
  -14.1400003      -1.45692405E-13
  -14.1300001      -1.09604993E-13
  -14.1199999      -4.74097893E-14
  -14.1099997       3.55112769E-14
  -14.1000004       1.29293874E-13
  -14.0900002       2.20422530E-13
  -14.0799999       2.93307750E-13
  -14.0699997       3.32471355E-13
  -14.0600004       3.25082707E-13
  -14.0500002       2.63490943E-13
  -14.0400000       1.47347981E-13
  -14.0299997      -1.50800342E-14
  -14.0200005      -2.06742962E-13
  -14.0100002      -4.02979299E-13
  -14.0000000      -5.74052958E-13
  -13.9899998      -6.88870781E-13
  -13.9799995      -7.19494017E-13
  -13.9700003      -6.45885851E-13
  -13.9600000      -4.60225608E-13
  -13.9499998      -1.70091168E-13
  -13.9399996       2.00119232E-13
  -13.9300003       6.09992742E-13
  -13.9200001       1.00634843E-12
  -13.9099998       1.32882778E-12
  -13.8999996       1.51738886E-12
  -13.8900003       1.52093876E-12
  -13.8800001       1.30606853E-12
  -13.8699999       8.64686957E-13
  -13.8599997       2.19323894E-13
  -13.8500004      -5.74993612E-13
  -13.8400002      -1.43308445E-12
  -13.8299999      -2.24650268E-12
  -13.8199997      -2.89472634E-12
  -13.8100004      -3.25976984E-12
  -13.8000002      -3.24272965E-12
  -13.7900000      -2.78030550E-12
  -13.7799997      -1.85902747E-12
  -13.7700005      -5.24950363E-13
  -13.7600002       1.11317325E-12
  -13.7500000       2.88856244E-12
  -13.7399998       4.58942650E-12
  -13.7299995       5.97977484E-12
  -13.7200003       6.82638885E-12
  -13.7100000       6.92935553E-12
  -13.6999998       6.15278618E-12
  -13.6899996       4.45192147E-12
  -13.6800003       1.89279495E-12
  -13.6700001      -1.33896637E-12
  -13.6599998      -4.94276668E-12
  -13.6499996      -8.52247786E-12
  -13.6400003      -1.16205266E-11
  -13.6300001      -1.37647923E-11
  -13.6199999      -1.45246983E-11
  -13.6099997      -1.35712717E-11
  -13.6000004      -1.07345860E-11
  -13.5900002      -6.05122332E-12
  -13.5799999       2.05717930E-13
  -13.5699997       7.52068807E-12
  -13.5600004       1.51586434E-11
  -13.5500002       2.22189524E-11
  -13.5400000       2.77187127E-11
  -13.5299997       3.07000016E-11
  -13.5200005       3.03515893E-11
  -13.5100002       2.61325146E-11
  -13.5000000       1.78824646E-11
  -13.4899998       5.90391191E-12
  -13.4799995      -8.99792046E-12
  -13.4700003      -2.55277327E-11
  -13.4600000      -4.19706978E-11
  -13.4499998      -5.63203581E-11
  -13.4399996      -6.64564584E-11
  -13.4300003      -7.03595238E-11
  -13.4200001      -6.63440067E-11
  -13.4099998      -5.32886756E-11
  -13.3999996      -3.08420928E-11
  -13.3900003       4.17613047E-13
  -13.3800001       3.88862380E-11
  -13.3699999       8.19121923E-11
  -13.3599997       1.25856256E-10
  -13.3500004       1.66230904E-10
  -13.3400002       1.97910383E-10
  -13.3299999       2.15397200E-10
  -13.3199997       2.13124615E-10
  -13.3100004       1.85771287E-10
  -13.3000002       1.28564825E-10
  -13.2900000       3.75490576E-11
  -13.2799997      -9.02030464E-11
  -13.2700005      -2.56445282E-10
  -13.2600002      -4.61690935E-10
  -13.2500000      -7.05218939E-10
  -13.2399998      -9.85146520E-10
  -13.2299995      -1.29854960E-09
  -13.2200003      -1.64161751E-09
  -13.2100000      -2.00980699E-09
  -13.1999998      -2.39798692E-09
  -13.1899996      -2.80055001E-09
  -13.1800003      -3.21147176E-09
  -13.1700001      -3.62432795E-09
  -13.1599998      -4.03226164E-09
  -13.1499996      -4.42790515E-09
  -13.1400003      -4.80330042E-09
  -13.1300001      -5.14979792E-09
  -13.1199999      -5.45800338E-09
  -13.1099997      -5.71775427E-09
  -13.1000004      -5.91817484E-09
  -13.0900002      -6.04780981E-09
  -13.0799999      -6.09484641E-09
  -13.0699997      -6.04741901E-09
  -13.0600004      -5.89399507E-09
  -13.0500002      -5.62380009E-09
  -13.0400000      -5.22729460E-09
  -13.0299997      -4.69661865E-09
  -13.0200005      -4.02603240E-09
  -13.0100002      -3.21225690E-09
  -13.0000000      -2.25474373E-09
  -12.9899998      -1.15582510E-09
  -12.9799995       7.92693758E-11
  -12.9700003       1.44249790E-09
  -12.9600000       2.92322078E-09
  -12.9499998       4.50850068E-09
  -12.9399996       6.18346174E-09
  -12.9300003       7.93169708E-09
  -12.9200001       9.73567360E-09
  -12.9099998       1.15770931E-08
  -12.8999996       1.34372184E-08
  -12.8900003       1.52971271E-08
  -12.8800001       1.71378378E-08
  -12.8699999       1.89404403E-08
  -12.8599997       2.06860236E-08
  -12.8500004       2.23556569E-08
  -12.8400002       2.39302977E-08
  -12.8299999       2.53907011E-08
  -12.8199997       2.67173661E-08
  -12.8100004       2.78905361E-08
  -12.8000002       2.88902644E-08
  -12.7900000       2.96966096E-08
  -12.7799997       3.02899004E-08
  -12.7700005       3.06509840E-08
  -12.7600002       3.07616226E-08
  -12.7500000       3.06048697E-08
  -12.7399998       3.01654453E-08
  -12.7299995       2.94299802E-08
  -12.7200003       2.83873671E-08
  -12.7100000       2.70289462E-08
  -12.6999998       2.53485339E-08
  -12.6899996       2.33425794E-08
  -12.6800003       2.10101589E-08
  -12.6700001       1.83528783E-08
  -12.6599998       1.53748783E-08
  -12.6499996       1.20827277E-08
  -12.6400003       8.48538395E-09
  -12.6300001       4.59421301E-09
  -12.6199999       4.22943375E-10
  -12.6099997      -4.01220790E-09
  -12.6000004      -8.69244232E-09
  -12.5900002      -1.35962166E-08
  -12.5799999      -1.86990903E-08
  -12.5699997      -2.39735378E-08
  -12.5600004      -2.93888345E-08
  -12.5500002      -3.49109577E-08
  -12.5400000      -4.05026626E-08
  -12.5299997      -4.61235423E-08
  -12.5200005      -5.17303391E-08
  -12.5100002      -5.72772656E-08
  -12.5000000      -6.27165164E-08
  -12.4899998      -6.79987835E-08
  -12.4799995      -7.30738847E-08
  -12.4700003      -7.78913929E-08
  -12.4600000      -8.24013426E-08
  -12.4499998      -8.65547705E-08
  -12.4399996      -9.03042121E-08
  -12.4300003      -9.36043278E-08
  -12.4200001      -9.64122293E-08
  -12.4099998      -9.86876927E-08
  -12.3999996      -1.00393422E-07
  -12.3900003      -1.01495054E-07
  -12.3800001      -1.01961206E-07
  -12.3699999      -1.01763078E-07
  -12.3599997      -1.00874495E-07
  -12.3500004      -9.92713964E-08
  -12.3400002      -9.69313234E-08
  -12.3299999      -9.38331937E-08
  -12.3199997      -8.99566430E-08
  -12.3100004      -8.52816768E-08
  -12.3000002      -7.97881228E-08
  -12.2900000      -7.34554533E-08
  -12.2799997      -6.62625723E-08
  -12.2700005      -5.81875632E-08
  -12.2600002      -4.92078343E-08
  -12.2500000      -3.93004527E-08
  -12.2399998      -2.84423134E-08
  -12.2299995      -1.66107448E-08
  -12.2200003      -3.78411302E-09
  -12.2100000       1.00574864E-08
  -12.1999998       2.49315146E-08
  -12.1899996       4.08522354E-08
  -12.1800003       5.78299613E-08
  -12.1700001       7.58703180E-08
  -12.1599998       9.49738492E-08
  -12.1499996       1.15135414E-07
  -12.1400003       1.36344127E-07
  -12.1300001       1.58582864E-07
  -12.1199999       1.81828653E-07
  -12.1099997       2.06052846E-07
  -12.1000004       2.31221549E-07
  -12.0900002       2.57296392E-07
  -12.0799999       2.84235256E-07
  -12.0699997       3.11993460E-07
  -12.0600004       3.40524736E-07
  -12.0500002       3.69782697E-07
  -12.0400000       3.99721955E-07
  -12.0299997       4.30299281E-07
  -12.0200005       4.61474741E-07
  -12.0100002       4.93213008E-07
  -12.0000000       5.25483642E-07
  -11.9899998       5.58262229E-07
  -11.9799995       5.91530181E-07
  -11.9700003       6.25275050E-07
  -11.9600000       6.59490127E-07
  -11.9499998       6.94173536E-07
  -11.9399996       7.29328860E-07
  -11.9300003       7.64961953E-07
  -11.9200001       8.01080830E-07
  -11.9099998       8.37694358E-07
  -11.8999996       8.74810382E-07
  -11.8900003       9.12434530E-07
  -11.8800001       9.50569245E-07
  -11.8699999       9.89211799E-07
  -11.8599997       1.02835384E-06
  -11.8500004       1.06798109E-06
  -11.8400002       1.10807332E-06
  -11.8299999       1.14860200E-06
  -11.8199997       1.18953267E-06
  -11.8100004       1.23082486E-06
  -11.8000002       1.27243072E-06
  -11.7900000       1.31429761E-06
  -11.7799997       1.35636742E-06
  -11.7700005       1.39857912E-06
  -11.7600002       1.44086926E-06
  -11.7500000       1.48317281E-06
  -11.7399998       1.52542123E-06
  -11.7299995       1.56755004E-06
  -11.7200003       1.60949560E-06
  -11.7100000       1.65119548E-06
  -11.6999998       1.69259545E-06
  -11.6899996       1.73364060E-06
  -11.6800003       1.77428410E-06
  -11.6700001       1.81448922E-06
  -11.6599998       1.85422005E-06
  -11.6499996       1.89345224E-06
  -11.6400003       1.93216624E-06
  -11.6300001       1.97035070E-06
  -11.6199999       2.00800173E-06
  -11.6099997       2.04511707E-06
  -11.6000004       2.08170422E-06
  -11.5900002       2.11777274E-06
  -11.5799999       2.15333466E-06
  -11.5699997       2.18840341E-06
  -11.5600004       2.22299627E-06
  -11.5500002       2.25712552E-06
  -11.5400000       2.29080615E-06
  -11.5299997       2.32404705E-06
  -11.5200005       2.35685616E-06
  -11.5100002       2.38923576E-06
  -11.5000000       2.42118540E-06
  -11.4899998       2.45269575E-06
  -11.4799995       2.48375090E-06
  -11.4700003       2.51432812E-06
  -11.4600000       2.54440511E-06
  -11.4499998       2.57393867E-06
  -11.4399996       2.60289403E-06
  -11.4300003       2.63121888E-06
  -11.4200001       2.65886547E-06
  -11.4099998       2.68577423E-06
  -11.3999996       2.71188651E-06
  -11.3900003       2.73714295E-06
  -11.3800001       2.76148080E-06
  -11.3699999       2.78484049E-06
  -11.3599997       2.80716858E-06
  -11.3500004       2.82841074E-06
  -11.3400002       2.84851899E-06
  -11.3299999       2.86745990E-06
  -11.3199997       2.88520187E-06
  -11.3100004       2.90172784E-06
  -11.3000002       2.91702554E-06
  -11.2900000       2.93109929E-06
  -11.2799997       2.94397000E-06
  -11.2700005       2.95566110E-06
  -11.2600002       2.96621874E-06
  -11.2500000       2.97569500E-06
  -11.2399998       2.98415966E-06
  -11.2299995       2.99169005E-06
  -11.2200003       2.99837984E-06
  -11.2100000       3.00433317E-06
  -11.1999998       3.00966462E-06
  -11.1899996       3.01449813E-06
  -11.1800003       3.01896580E-06
  -11.1700001       3.02320564E-06
  -11.1599998       3.02736817E-06
  -11.1499996       3.03160186E-06
  -11.1400003       3.03606566E-06
  -11.1300001       3.04091236E-06
  -11.1199999       3.04630203E-06
  -11.1099997       3.05238700E-06
  -11.1000004       3.05932417E-06
  -11.0900002       3.06726224E-06
  -11.0799999       3.07634309E-06
  -11.0699997       3.08670406E-06
  -11.0600004       3.09847519E-06
  -11.0500002       3.11176564E-06
  -11.0400000       3.12669022E-06
  -11.0299997       3.14333397E-06
  -11.0200005       3.16177398E-06
  -11.0100002       3.18206685E-06
  -11.0000000       3.20425465E-06
  -10.9899998       3.22835490E-06
  -10.9799995       3.25436508E-06
  -10.9700003       3.28226383E-06
  -10.9600000       3.31199567E-06
  -10.9499998       3.34348806E-06
  -10.9399996       3.37664142E-06
  -10.9300003       3.41132591E-06
  -10.9200001       3.44739897E-06
  -10.9099998       3.48468006E-06
  -10.8999996       3.52297366E-06
  -10.8900003       3.56205624E-06
  -10.8800001       3.60168474E-06
  -10.8699999       3.64159473E-06
  -10.8599997       3.68150950E-06
  -10.8500004       3.72113232E-06
  -10.8400002       3.76015987E-06
  -10.8299999       3.79828089E-06
  -10.8199997       3.83516999E-06
  -10.8100004       3.87052114E-06
  -10.8000002       3.90401055E-06
  -10.7900000       3.93533355E-06
  -10.7799997       3.96418864E-06
  -10.7700005       3.99029068E-06
  -10.7600002       4.01336229E-06
  -10.7500000       4.03315744E-06
  -10.7399998       4.04944922E-06
  -10.7299995       4.06203162E-06
  -10.7200003       4.07072594E-06
  -10.7100000       4.07538710E-06
  -10.6999998       4.07590005E-06
  -10.6899996       4.07218704E-06
  -10.6800003       4.06419394E-06
  -10.6700001       4.05192350E-06
  -10.6599998       4.03539843E-06
  -10.6499996       4.01468287E-06
  -10.6400003       3.98989050E-06
  -10.6300001       3.96115729E-06
  -10.6199999       3.92867196E-06
  -10.6099997       3.89266279E-06
  -10.6000004       3.85338353E-06
  -10.5900002       3.81113682E-06
  -10.5799999       3.76626122E-06
  -10.5699997       3.71911847E-06
  -10.5600004       3.67011739E-06
  -10.5500002       3.61968932E-06
  -10.5400000       3.56829469E-06
  -10.5299997       3.51642302E-06
  -10.5200005       3.46458933E-06
  -10.5100002       3.41331884E-06
  -10.5000000       3.36317021E-06
  -10.4899998       3.31471074E-06
  -10.4799995       3.26852296E-06
  -10.4700003       3.22520350E-06
  -10.4600000       3.18535012E-06
  -10.4499998       3.14957219E-06
  -10.4399996       3.11848339E-06
  -10.4300003       3.09269399E-06
  -10.4200001       3.07281312E-06
  -10.4099998       3.05945014E-06
  -10.3999996       3.05320191E-06
  -10.3900003       3.05465369E-06
  -10.3800001       3.06438528E-06
  -10.3699999       3.08295807E-06
  -10.3599997       3.11091003E-06
  -10.3500004       3.14876934E-06
  -10.3400002       3.19703531E-06
  -10.3299999       3.25618862E-06
  -10.3199997       3.32668174E-06
  -10.3100004       3.40894439E-06
  -10.3000002       3.50338200E-06
  -10.2900000       3.61036359E-06
  -10.2799997       3.73024113E-06
  -10.2700005       3.86332658E-06
  -10.2600002       4.00990848E-06
  -10.2500000       4.17024739E-06
  -10.2399998       4.34457161E-06
  -10.2299995       4.53307985E-06
  -10.2200003       4.73594400E-06
  -10.2100000       4.95331324E-06
  -10.1999998       5.18529941E-06
  -10.1899996       5.43199940E-06
  -10.1800003       5.69347458E-06
  -10.1700001       5.96977134E-06
  -10.1599998       6.26090969E-06
  -10.1499996       6.56688826E-06
  -10.1400003       6.88768205E-06
  -10.1300001       7.22325149E-06
  -10.1199999       7.57353246E-06
  -10.1099997       7.93845447E-06
  -10.1000004       8.31792113E-06
  -10.0900002       8.71182328E-06
  -10.0799999       9.12004725E-06
  -10.0699997       9.54245570E-06
  -10.0600004       9.97890129E-06
  -10.0500002       1.04292312E-05
  -10.0400000       1.08932754E-05
  -10.0299997       1.13708538E-05
  -10.0200005       1.18617800E-05
  -10.0100002       1.23658574E-05
  -10.0000000       1.28828715E-05
  -9.98999977       1.34126103E-05
  -9.97999954       1.39548420E-05
  -9.97000027       1.45093336E-05
  -9.96000004       1.50758324E-05
  -9.94999981       1.56540773E-05
  -9.93999958       1.62438100E-05
  -9.93000031       1.68447314E-05
  -9.92000008       1.74565630E-05
  -9.90999985       1.80789993E-05
  -9.89999962       1.87117312E-05
  -9.89000034       1.93544256E-05
  -9.88000011       2.00067407E-05
  -9.86999989       2.06683308E-05
  -9.85999966       2.13388485E-05
  -9.85000038       2.20179008E-05
  -9.84000015       2.27051241E-05
  -9.82999992       2.34001109E-05
  -9.81999969       2.41024609E-05
  -9.81000042       2.48117594E-05
  -9.80000019       2.55275881E-05
  -9.78999996       2.62495014E-05
  -9.77999973       2.69770626E-05
  -9.77000046       2.77098243E-05
  -9.76000023       2.84473244E-05
  -9.75000000       2.91890683E-05
  -9.73999977       2.99346157E-05
  -9.72999954       3.06834627E-05
  -9.72000027       3.14351237E-05
  -9.71000004       3.21891021E-05
  -9.69999981       3.29449067E-05
  -9.68999958       3.37020247E-05
  -9.68000031       3.44599539E-05
  -9.67000008       3.52181669E-05
  -9.65999985       3.59761907E-05
  -9.64999962       3.67335051E-05
  -9.64000034       3.74896226E-05
  -9.63000011       3.82440412E-05
  -9.61999989       3.89962770E-05
  -9.60999966       3.97458643E-05
  -9.60000038       4.04923449E-05
  -9.59000015       4.12352638E-05
  -9.57999992       4.19742209E-05
  -9.56999969       4.27088271E-05
  -9.56000042       4.34386602E-05
  -9.55000019       4.41633892E-05
  -9.53999996       4.48826941E-05
  -9.52999973       4.55962945E-05
  -9.52000046       4.63038887E-05
  -9.51000023       4.70052801E-05
  -9.50000000       4.77002650E-05
  -9.48999977       4.83886579E-05
  -9.47999954       4.90703897E-05
  -9.47000027       4.97453148E-05
  -9.46000004       5.04134186E-05
  -9.44999981       5.10746722E-05
  -9.43999958       5.17290973E-05
  -9.43000031       5.23767631E-05
  -9.42000008       5.30178149E-05
  -9.40999985       5.36523003E-05
  -9.39999962       5.42804955E-05
  -9.39000034       5.49025717E-05
  -9.38000011       5.55187798E-05
  -9.36999989       5.61293746E-05
  -9.35999966       5.67347161E-05
  -9.35000038       5.73351426E-05
  -9.34000015       5.79309999E-05
  -9.32999992       5.85227244E-05
  -9.31999969       5.91107273E-05
  -9.31000042       5.96954487E-05
  -9.30000019       6.02773798E-05
  -9.28999996       6.08569935E-05
  -9.27999973       6.14347955E-05
  -9.27000046       6.20112842E-05
  -9.26000023       6.25870452E-05
  -9.25000000       6.31625662E-05
  -9.23999977       6.37383855E-05
  -9.22999954       6.43150925E-05
  -9.22000027       6.48932401E-05
  -9.21000004       6.54733303E-05
  -9.19999981       6.60559308E-05
  -9.18999958       6.66416163E-05
  -9.18000031       6.72308743E-05
  -9.17000008       6.78242650E-05
  -9.15999985       6.84222614E-05
  -9.14999962       6.90254092E-05
  -9.14000034       6.96341158E-05
  -9.13000011       7.02488469E-05
  -9.11999989       7.08701482E-05
  -9.10999966       7.14983398E-05
  -9.10000038       7.21338365E-05
  -9.09000015       7.27770966E-05
  -9.07999992       7.34284476E-05
  -9.06999969       7.40882024E-05
  -9.06000042       7.47566737E-05
  -9.05000019       7.54342618E-05
  -9.03999996       7.61211704E-05
  -9.02999973       7.68176615E-05
  -9.02000046       7.75239532E-05
  -9.01000023       7.82403004E-05
  -9.00000000       7.89669648E-05
  -8.98999977       7.97040047E-05
  -8.97999954       8.04516749E-05
  -8.97000027       8.12101498E-05
  -8.96000004       8.19795459E-05
  -8.94999981       8.27599288E-05
  -8.93999958       8.35514729E-05
  -8.93000031       8.43542439E-05
  -8.92000008       8.51682998E-05
  -8.90999985       8.59937936E-05
  -8.89999962       8.68306888E-05
  -8.89000034       8.76791382E-05
  -8.88000011       8.85391710E-05
  -8.86999989       8.94107725E-05
  -8.85999966       9.02940301E-05
  -8.85000038       9.11889729E-05
  -8.84000015       9.20956954E-05
  -8.82999992       9.30141468E-05
  -8.81999969       9.39443853E-05
  -8.81000042       9.48864108E-05
  -8.80000019       9.58403471E-05
  -8.78999996       9.68061577E-05
  -8.77999973       9.77839300E-05
  -8.77000046       9.87737731E-05
  -8.76000023       9.97755924E-05
  -8.75000000       1.00789512E-04
  -8.73999977       1.01815640E-04
  -8.72999954       1.02853985E-04
  -8.72000027       1.03904727E-04
  -8.71000004       1.04967934E-04
  -8.69999981       1.06043655E-04
  -8.68999958       1.07132124E-04
  -8.68000031       1.08233289E-04
  -8.67000008       1.09347427E-04
  -8.65999985       1.10474655E-04
  -8.64999962       1.11615067E-04
  -8.64000034       1.12768867E-04
  -8.63000011       1.13936178E-04
  -8.61999989       1.15117269E-04
  -8.60999966       1.16312280E-04
  -8.60000038       1.17521355E-04
  -8.59000015       1.18744785E-04
  -8.57999992       1.19982760E-04
  -8.56999969       1.21235433E-04
  -8.56000042       1.22503086E-04
  -8.55000019       1.23785896E-04
  -8.53999996       1.25084043E-04
  -8.52999973       1.26397877E-04
  -8.52000046       1.27727602E-04
  -8.51000023       1.29073436E-04
  -8.50000000       1.30435626E-04
  -8.48999977       1.31814479E-04
  -8.47999954       1.33210124E-04
  -8.47000027       1.34622998E-04
  -8.46000004       1.36053335E-04
  -8.44999981       1.37501280E-04
  -8.43999958       1.38967283E-04
  -8.43000031       1.40451535E-04
  -8.42000008       1.41954282E-04
  -8.40999985       1.43475932E-04
  -8.39999962       1.45016835E-04
  -8.39000034       1.46577149E-04
  -8.38000011       1.48157385E-04
  -8.36999989       1.49757660E-04
  -8.35999966       1.51378525E-04
  -8.35000038       1.53020213E-04
  -8.34000015       1.54683075E-04
  -8.32999992       1.56367591E-04
  -8.31999969       1.58074108E-04
  -8.31000042       1.59802963E-04
  -8.30000019       1.61554606E-04
  -8.28999996       1.63329416E-04
  -8.27999973       1.65127916E-04
  -8.27000046       1.66950398E-04
  -8.26000023       1.68797211E-04
  -8.25000000       1.70669082E-04
  -8.23999977       1.72566200E-04
  -8.22999954       1.74489076E-04
  -8.22000027       1.76438276E-04
  -8.21000004       1.78414179E-04
  -8.19999981       1.80417352E-04
  -8.18999958       1.82447955E-04
  -8.18000031       1.84506789E-04
  -8.17000008       1.86594276E-04
  -8.15999985       1.88710692E-04
  -8.14999962       1.90856750E-04
  -8.14000034       1.93032742E-04
  -8.13000011       1.95239249E-04
  -8.11999989       1.97476795E-04
  -8.10999966       1.99745817E-04
  -8.10000038       2.02046620E-04
  -8.09000015       2.04379801E-04
  -8.07999992       2.06745899E-04
  -8.06999969       2.09145161E-04
  -8.06000042       2.11578183E-04
  -8.05000019       2.14045227E-04
  -8.03999996       2.16546832E-04
  -8.02999973       2.19083435E-04
  -8.02000046       2.21655282E-04
  -8.01000023       2.24262767E-04
  -8.00000000       2.26906341E-04
  -7.98999977       2.29586280E-04
  -7.98000002       2.32303035E-04
  -7.96999979       2.35056636E-04
  -7.96000004       2.37847518E-04
  -7.94999981       2.40675901E-04
  -7.94000006       2.43542134E-04
  -7.92999983       2.46446172E-04
  -7.92000008       2.49388482E-04
  -7.90999985       2.52369064E-04
  -7.90000010       2.55388062E-04
  -7.88999987       2.58445711E-04
  -7.88000011       2.61541980E-04
  -7.86999989       2.64677277E-04
  -7.86000013       2.67851166E-04
  -7.84999990       2.71063967E-04
  -7.84000015       2.74315855E-04
  -7.82999992       2.77606596E-04
  -7.82000017       2.80936219E-04
  -7.80999994       2.84304813E-04
  -7.80000019       2.87712348E-04
  -7.78999996       2.91158824E-04
  -7.78000021       2.94644269E-04
  -7.76999998       2.98168539E-04
  -7.76000023       3.01731314E-04
  -7.75000000       3.05333000E-04
  -7.73999977       3.08973395E-04
  -7.73000002       3.12652381E-04
  -7.71999979       3.16369958E-04
  -7.71000004       3.20126157E-04
  -7.69999981       3.23920656E-04
  -7.69000006       3.27753631E-04
  -7.67999983       3.31624906E-04
  -7.67000008       3.35534743E-04
  -7.65999985       3.39482969E-04
  -7.65000010       3.43469466E-04
  -7.63999987       3.47494439E-04
  -7.63000011       3.51557595E-04
  -7.61999989       3.55659198E-04
  -7.61000013       3.59799247E-04
  -7.59999990       3.63977888E-04
  -7.59000015       3.68195411E-04
  -7.57999992       3.72451555E-04
  -7.57000017       3.76746524E-04
  -7.55999994       3.81080841E-04
  -7.55000019       3.85454274E-04
  -7.53999996       3.89867258E-04
  -7.53000021       3.94319883E-04
  -7.51999998       3.98812845E-04
  -7.51000023       4.03345883E-04
  -7.50000000       4.07919229E-04
  -7.48999977       4.12533642E-04
  -7.48000002       4.17189731E-04
  -7.46999979       4.21887584E-04
  -7.46000004       4.26627434E-04
  -7.44999981       4.31410183E-04
  -7.44000006       4.36235976E-04