  -16.0000000       0.00000000    
  -15.9899998       0.00000000    
  -15.9799995       0.00000000    
  -15.9700003       0.00000000    
  -15.9600000       0.00000000    
  -15.9499998       0.00000000    
  -15.9399996       0.00000000    
  -15.9300003       0.00000000    
  -15.9200001       0.00000000    
  -15.9099998       0.00000000    
  -15.8999996       0.00000000    
  -15.8900003       0.00000000    
  -15.8800001       0.00000000    
  -15.8699999       0.00000000    
  -15.8599997       0.00000000    
  -15.8500004       0.00000000    
  -15.8400002       0.00000000    
  -15.8299999       0.00000000    
  -15.8199997       0.00000000    
  -15.8100004       0.00000000    
  -15.8000002       0.00000000    
  -15.7900000       0.00000000    
  -15.7799997       0.00000000    
  -15.7700005       0.00000000    
  -15.7600002       0.00000000    
  -15.7500000       0.00000000    
  -15.7399998       0.00000000    
  -15.7299995       0.00000000    
  -15.7200003       0.00000000    
  -15.7100000       0.00000000    
  -15.6999998       0.00000000    
  -15.6899996       0.00000000    
  -15.6800003       0.00000000    
  -15.6700001       0.00000000    
  -15.6599998       0.00000000    
  -15.6499996       0.00000000    
  -15.6400003       0.00000000    
  -15.6300001       0.00000000    
  -15.6199999       0.00000000    
  -15.6099997       0.00000000    
  -15.6000004       0.00000000    
  -15.5900002       0.00000000    
  -15.5799999       0.00000000    
  -15.5699997       0.00000000    
  -15.5600004       0.00000000    
  -15.5500002       0.00000000    
  -15.5400000       0.00000000    
  -15.5299997       0.00000000    
  -15.5200005       0.00000000    
  -15.5100002       0.00000000    
  -15.5000000       0.00000000    
  -15.4899998       0.00000000    
  -15.4799995       0.00000000    
  -15.4700003       0.00000000    
  -15.4600000       0.00000000    
  -15.4499998       0.00000000    
  -15.4399996       0.00000000    
  -15.4300003       0.00000000    
  -15.4200001       0.00000000    
  -15.4099998       0.00000000    
  -15.3999996       0.00000000    
  -15.3900003       0.00000000    
  -15.3800001       0.00000000    
  -15.3699999       0.00000000    
  -15.3599997       0.00000000    
  -15.3500004       0.00000000    
  -15.3400002       0.00000000    
  -15.3299999       0.00000000    
  -15.3199997       0.00000000    
  -15.3100004       0.00000000    
  -15.3000002       0.00000000    
  -15.2900000       0.00000000    
  -15.2799997       0.00000000    
  -15.2700005       0.00000000    
  -15.2600002       0.00000000    
  -15.2500000       0.00000000    
  -15.2399998       0.00000000    
  -15.2299995       0.00000000    
  -15.2200003       0.00000000    
  -15.2100000       0.00000000    
  -15.1999998       0.00000000    
  -15.1899996       0.00000000    
  -15.1800003       0.00000000    
  -15.1700001       0.00000000    
  -15.1599998       0.00000000    
  -15.1499996       0.00000000    
  -15.1400003       0.00000000    
  -15.1300001       0.00000000    
  -15.1199999       0.00000000    
  -15.1099997       0.00000000    
  -15.1000004       0.00000000    
  -15.0900002       0.00000000    
  -15.0799999       0.00000000    
  -15.0699997       0.00000000    
  -15.0600004       0.00000000    
  -15.0500002       0.00000000    
  -15.0400000       0.00000000    
  -15.0299997       0.00000000    
  -15.0200005       0.00000000    
  -15.0100002       0.00000000    
  -15.0000000       0.00000000    
  -14.9899998       0.00000000    
  -14.9799995       0.00000000    
  -14.9700003       0.00000000    
  -14.9600000       0.00000000    
  -14.9499998       0.00000000    
  -14.9399996       0.00000000    
  -14.9300003       0.00000000    
  -14.9200001       0.00000000    
  -14.9099998       0.00000000    
  -14.8999996       0.00000000    
  -14.8900003       0.00000000    
  -14.8800001       0.00000000    
  -14.8699999       0.00000000    
  -14.8599997      -0.00000000    
  -14.8500004       0.00000000    
  -14.8400002      -0.00000000    
  -14.8299999      -0.00000000    
  -14.8199997      -0.00000000    
  -14.8100004      -0.00000000    
  -14.8000002      -0.00000000    
  -14.7900000      -0.00000000    
  -14.7799997      -0.00000000    
  -14.7700005      -0.00000000    
  -14.7600002      -0.00000000    
  -14.7500000       0.00000000    
  -14.7399998       0.00000000    
  -14.7299995       0.00000000    
  -14.7200003       0.00000000    
  -14.7100000       1.40129846E-45
  -14.6999998       2.80259693E-45
  -14.6899996       2.80259693E-45
  -14.6800003       2.80259693E-45
  -14.6700001       2.80259693E-45
  -14.6599998       4.20389539E-45
  -14.6499996       2.80259693E-45
  -14.6400003       1.40129846E-45
  -14.6300001       1.40129846E-45
  -14.6199999       2.80259693E-45
  -14.6099997      -1.40129846E-45
  -14.6000004      -9.80908925E-45
  -14.5900002      -1.40129846E-44
  -14.5799999      -1.68155816E-44
  -14.5699997      -1.68155816E-44
  -14.5600004      -1.82168800E-44
  -14.5500002      -1.82168800E-44
  -14.5400000      -2.24207754E-44
  -14.5299997      -2.38220739E-44
  -14.5200005      -2.52233724E-44
  -14.5100002      -2.38220739E-44
  -14.5000000      -2.10194770E-44
  -14.4899998      -1.68155816E-44
  -14.4799995      -1.26116862E-44
  -14.4700003      -8.40779079E-45
  -14.4600000       8.40779079E-45
  -14.4499998       1.96181785E-44
  -14.4399996       1.68155816E-44
  -14.4300003       4.20389539E-45
  -14.4200001      -2.38220739E-44
  -14.4099998      -6.72623263E-44
  -14.3999996      -1.05097385E-43
  -14.3900003      -1.23314265E-43
  -14.3800001      -1.21912966E-43
  -14.3699999      -8.26766094E-44
  -14.3599997       2.80259693E-45
  -14.3500004       1.28919459E-43
  -14.3400002       2.67648007E-43
  -14.3299999       3.83955779E-43
  -14.3199997       4.27396032E-43
  -14.3100004       3.48923318E-43
  -14.3000002       1.21912966E-43
  -14.2900000      -2.48029828E-43
  -14.2799997      -7.11859620E-43
  -14.2700005      -1.16167643E-42
  -14.2600002      -1.46295560E-42
  -14.2500000      -1.46435690E-42
  -14.2399998      -1.03836216E-42
  -14.2299995      -1.38728548E-43
  -14.2200003       1.16447902E-42
  -14.2100000       2.63163852E-42
  -14.1999998       3.90261622E-42
  -14.1899996       4.53320053E-42
  -14.1800003       4.09039022E-42
  -14.1700001       2.27570871E-42
  -14.1599998      -9.29060882E-43
  -14.1499996      -5.15958095E-42
  -14.1400003      -9.62411785E-42
  -14.1300001      -1.31988302E-41
  -14.1199999      -1.46015300E-41
  -14.1099997      -1.26817511E-41
  -14.1000004      -6.77948197E-42
  -14.0900002       2.93291769E-42
  -14.0799999       1.52363182E-41
  -14.0699997       2.77877485E-41
  -14.0600004       3.74090638E-41
  -14.0500002       4.06236425E-41
  -14.0400000       3.44789487E-41
  -14.0299997       1.74349555E-41
  -14.0200005      -9.83711522E-42
  -14.0100002      -4.39096874E-41
  -14.0000000      -7.86646919E-41
  -13.9899998      -1.06009630E-40
  -13.9799995      -1.17263458E-40
  -13.9700003      -1.05072161E-40
  -13.9600000      -6.55387292E-41
  -13.9499998      -7.00649232E-44
  -13.9399996       8.35552235E-41
  -13.9300003       1.71307336E-40
  -13.9200001       2.44484543E-40
  -13.9099998       2.82744195E-40
  -13.8999996       2.68159481E-40
  -13.8900003       1.89682563E-40
  -13.8800001       4.69729258E-41
  -13.8699999      -1.47214811E-40
  -13.8599997      -3.67001469E-40
  -13.8500004      -5.76041569E-40
  -13.8400002      -7.32852472E-40
  -13.8299999      -7.98131961E-40
  -13.8199997      -7.42801691E-40
  -13.8100004      -5.55347193E-40
  -13.8000002      -2.46998473E-40
  -13.7900000       1.46547793E-40
  -13.7799997       5.67507661E-40
  -13.7700005       9.42355000E-40
  -13.7600002       1.19130828E-39
  -13.7500000       1.23958862E-39
  -13.7399998       1.02867499E-39
  -13.7299995       5.25988589E-40
  -13.7200003      -2.68324834E-40
  -13.7100000      -1.31815803E-39
  -13.6999998      -2.55181915E-39
  -13.6899996      -3.86568500E-39
  -13.6800003      -5.13046477E-39
  -13.6700001      -6.19990493E-39
  -13.6599998      -6.92201364E-39
  -13.6499996      -7.15315082E-39
  -13.6400003      -6.77609083E-39
  -13.6300001      -5.72224572E-39
  -13.6199999      -3.99765509E-39
  -13.6099997      -1.71041650E-39
  -13.6000004       9.04842240E-40
  -13.5900002       3.47184026E-39
  -13.5799999       5.47475959E-39
  -13.5699997       6.28553127E-39
  -13.5600004       5.22210268E-39
  -13.5500002       1.63985271E-39
  -13.5400000      -4.94786156E-39
  -13.5299997      -1.47314990E-38
  -13.5200005      -2.74681180E-38
  -13.5100002      -4.23706889E-38
  -13.5000000      -5.80530488E-38
  -13.4899998      -7.25586628E-38
  -13.4799995      -8.34973219E-38
  -13.4700003      -8.83008049E-38
  -13.4600000      -8.45937763E-38
  -13.4499998      -7.06543542E-38
  -13.4399996      -4.59167307E-38
  -13.4300003      -1.14455915E-38
  -13.4200001       2.97045399E-38
  -13.4099998       7.23409122E-38
  -13.3999996       1.09287906E-37
  -13.3900003       1.31915939E-37
  -13.3800001       1.31078355E-37
  -13.3699999       9.84297265E-38
  -13.3599997       2.80313222E-38
  -13.3500004      -8.19338259E-38
  -13.3400002      -2.27586274E-37
  -13.3299999      -3.98224988E-37
  -13.3199997      -5.75980573E-37
  -13.3100004      -7.36545611E-37
  -13.3000002      -8.51198461E-37
  -13.2900000      -8.90168549E-37
  -13.2799997      -8.27186708E-37
  -13.2700005      -6.44813878E-37
  -13.2600002      -3.39888440E-37
  -13.2500000       7.17791989E-38
  -13.2399998       5.52443333E-37
  -13.2299995       1.04215827E-36
  -13.2200003       1.46198980E-36
  -13.2100000       1.72109370E-36
  -13.1999998       1.72755285E-36
  -13.1899996       1.40218373E-36
  -13.1800003       6.93896902E-37
  -13.1700001      -4.05417439E-37
  -13.1599998      -1.84889248E-36
  -13.1499996      -3.52811277E-36
  -13.1400003      -5.27419147E-36
  -13.1300001      -6.86812780E-36
  -13.1199999      -8.06096112E-36
  -13.1099997      -8.60299216E-36
  -13.1000004      -8.27978932E-36
  -13.0900002      -6.95137954E-36
  -13.0799999      -4.58977344E-36
  -13.0699997      -1.30928450E-36
  -13.0600004       2.61598038E-36
  -13.0500002       6.75244305E-36
  -13.0400000       1.05288894E-35
  -13.0299997       1.32811576E-35
  -13.0200005       1.43186749E-35
  -13.0100002       1.30085827E-35
  -13.0000000       8.87032528E-36
  -12.9899998       1.67084623E-36
  -12.9799995      -8.49143570E-36
  -12.9700003      -2.11266038E-35
  -12.9600000      -3.53294827E-35
  -12.9499998      -4.98024871E-35
  -12.9399996      -6.29316513E-35
  -12.9300003      -7.29176021E-35
  -12.9200001      -7.79567076E-35
  -12.9099998      -7.64607992E-35
  -12.8999996      -6.72970573E-35
  -12.8900003      -5.00235352E-35
  -12.8800001      -2.50918051E-35
  -12.8699999       6.01338147E-36
  -12.8599997       4.07260378E-35
  -12.8500004       7.54651933E-35
  -12.8400002       1.05829699E-34
  -12.8299999       1.26922969E-34
  -12.8199997       1.33795766E-34
  -12.8100004       1.21979143E-34
  -12.8000002       8.80653793E-35
  -12.7900000       3.02841209E-35
  -12.7799997      -5.09879169E-35
  -12.7700005      -1.52845846E-34
  -12.7600002      -2.69663202E-34
  -12.7500000      -3.93133754E-34
  -12.7399998      -5.12579500E-34
  -12.7299995      -6.15535081E-34
  -12.7200003      -6.88595729E-34
  -12.7100000      -7.18488366E-34
  -12.6999998      -6.93308588E-34
  -12.6899996      -6.03838683E-34
  -12.6800003      -4.44855506E-34
  -12.6700001      -2.16325353E-34
  -12.6599998       7.56217901E-35
  -12.6499996       4.18030449E-34
  -12.6400003       7.90868742E-34
  -12.6300001       1.16725423E-33
  -12.6199999       1.51421792E-33
  -12.6099997       1.79404278E-33
  -12.6000004       1.96618714E-33
  -12.5900002       1.98978133E-33
  -12.5799999       1.82665688E-33
  -12.5699997       1.44483317E-33
  -12.5600004       8.22338838E-34
  -12.5500002      -4.87986735E-35
  -12.5400000      -1.15862748E-33
  -12.5299997      -2.47571159E-33
  -12.5200005      -3.94430223E-33
  -12.5100002      -5.48269704E-33
  -12.5000000      -6.98324753E-33
  -12.4899998      -8.31458525E-33
  -12.4799995      -9.32651177E-33
  -12.4700003      -9.85798436E-33
  -12.4600000      -9.74842241E-33
  -12.4499998      -8.85228208E-33
  -12.4399996      -7.05644557E-33
  -12.4300003      -4.29953516E-33
  -12.4200001      -5.91583557E-34
  -12.4099998       3.96804208E-33
  -12.3999996       9.17732978E-33
  -12.3900003       1.47263390E-32
  -12.3800001       2.02038106E-32
  -12.3699999       2.51197618E-32
  -12.3599997       2.89481794E-32
  -12.3500004       3.11930386E-32
  -12.3400002       3.14803970E-32
  -12.3299999       2.96770447E-32
  -12.3199997       2.60344081E-32
  -12.3100004       2.13533897E-32
  -12.3000002       1.71624952E-32
  -12.2900000       1.58981893E-32
  -12.2799997       2.10713401E-32
  -12.2700005       3.74030459E-32
  -12.2600002       7.09034095E-32
  -12.2500000       1.28872796E-31
  -12.2399998       2.19796073E-31
  -12.2299995       3.53103692E-31
  -12.2200003       5.38777632E-31
  -12.2100000       7.86779246E-31
  -12.1999998       1.10628660E-30
  -12.1899996       1.50473819E-30
  -12.1800003       1.98669191E-30
  -12.1700001       2.55252392E-30
  -12.1599998       3.19698691E-30
  -12.1499996       3.90770734E-30
  -12.1400003       4.66366381E-30
  -12.1300001       5.43375931E-30
  -12.1199999       6.17551656E-30
  -12.1099997       6.83405483E-30
  -12.1000004       7.34135230E-30
  -12.0900002       7.61592145E-30
  -12.0799999       7.56279286E-30
  -12.0699997       7.07386320E-30
  -12.0600004       6.02836686E-30
  -12.0500002       4.29320178E-30
  -12.0400000       1.72266309E-30
  -12.0299997      -1.84312887E-30
  -12.0200005      -6.58203410E-30
  -12.0100002      -1.26971746E-29
  -12.0000000      -2.04294674E-29
  -11.9899998      -3.00773954E-29
  -11.9799995      -4.20267254E-29
  -11.9700003      -5.67939949E-29
  -11.9600000      -7.50859419E-29
  -11.9499998      -9.78829339E-29
  -11.9399996      -1.26548884E-28
  -11.9300003      -1.62976164E-28
  -11.9200001      -2.09770893E-28
  -11.9099998      -2.70492864E-28
  -11.8999996      -3.49953267E-28
  -11.8900003      -4.54586104E-28
  -11.8800001      -5.92905237E-28
  -11.8699999      -7.76063630E-28
  -11.8599997      -1.01851881E-27
  -11.8500004      -1.33884207E-27
  -11.8400002      -1.76066975E-27
  -11.8299999      -2.31383727E-27
  -11.8199997      -3.03568410E-27
  -11.8100004      -3.97259451E-27
  -11.8000002      -5.18177576E-27
  -11.7900000      -6.73329529E-27
  -11.7799997      -8.71240402E-27
  -11.7700005      -1.12221650E-26
  -11.7600002      -1.43864871E-26
  -11.7500000      -1.83534391E-26
  -11.7399998      -2.32990423E-26
  -11.7299995      -2.94314420E-26
  -11.7200003      -3.69955612E-26
  -11.7100000      -4.62782014E-26
  -11.6999998      -5.76136674E-26
  -11.6899996      -7.13898042E-26
  -11.6800003      -8.80548236E-26
  -11.6700001      -1.08124443E-25
  -11.6599998      -1.32189730E-25
  -11.6499996      -1.60925135E-25
  -11.6400003      -1.95097874E-25
  -11.6300001      -2.35576965E-25
  -11.6199999      -2.83343504E-25
  -11.6099997      -3.39500909E-25
  -11.6000004      -4.05286682E-25
  -11.5900002      -4.82082908E-25
  -11.5799999      -5.71428702E-25
  -11.5699997      -6.75031284E-25
  -11.5600004      -7.94781405E-25
  -11.5500002      -9.32763531E-25
  -11.5400000      -1.09126856E-24
  -11.5299997      -1.27280912E-24
  -11.5200005      -1.48012828E-24
  -11.5100002      -1.71621699E-24
  -11.5000000      -1.98432340E-24
  -11.4899998      -2.28796405E-24
  -11.4799995      -2.63093770E-24
  -11.4700003      -3.01733064E-24
  -11.4600000      -3.45153152E-24
  -11.4499998      -3.93823621E-24
  -11.4399996      -4.48245321E-24
  -11.4300003      -5.08951007E-24
  -11.4200001      -5.76505505E-24
  -11.4099998      -6.51506180E-24
  -11.3999996      -7.34581911E-24
  -11.3900003      -8.26393803E-24
  -11.3800001      -9.27632977E-24
  -11.3699999      -1.03902108E-23
  -11.3599997      -1.16130786E-23
  -11.3500004      -1.29527016E-23
  -11.3400002      -1.44170831E-23
  -11.3299999      -1.60144554E-23
  -11.3199997      -1.77532342E-23
  -11.3100004      -1.96419897E-23
  -11.3000002      -2.16894103E-23
  -11.2900000      -2.39042399E-23
  -11.2799997      -2.62952520E-23
  -11.2700005      -2.88711826E-23
  -11.2600002      -3.16406619E-23
  -11.2500000      -3.46121494E-23
  -11.2399998      -3.77938874E-23
  -11.2299995      -4.11937832E-23
  -11.2200003      -4.48193090E-23
  -11.2100000      -4.86774983E-23
  -11.1999998      -5.27747535E-23
  -11.1899996      -5.71167923E-23
  -11.1800003      -6.17085244E-23
  -11.1700001      -6.65539668E-23
  -11.1599998      -7.16560730E-23
  -11.1499996      -7.70166479E-23
  -11.1400003      -8.26361964E-23
  -11.1300001      -8.85138286E-23
  -11.1199999      -9.46470770E-23
  -11.1099997      -1.01031814E-22
  -11.1000004      -1.07662045E-22
  -11.0900002      -1.14529792E-22
  -11.0799999      -1.21625035E-22
  -11.0699997      -1.28935402E-22
  -11.0600004      -1.36446153E-22
  -11.0500002      -1.44139983E-22
  -11.0400000      -1.51996987E-22
  -11.0299997      -1.59994295E-22
  -11.0200005      -1.68106183E-22
  -11.0100002      -1.76303862E-22
  -11.0000000      -1.84555309E-22
  -10.9899998      -1.92825272E-22
  -10.9799995      -2.01075053E-22
  -10.9700003      -2.09262395E-22
  -10.9600000      -2.17341580E-22
  -10.9499998      -2.25263283E-22
  -10.9399996      -2.32974430E-22
  -10.9300003      -2.40418248E-22
  -10.9200001      -2.47534253E-22
  -10.9099998      -2.54258301E-22
  -10.8999996      -2.60522437E-22
  -10.8900003      -2.66255146E-22
  -10.8800001      -2.71381253E-22
  -10.8699999      -2.75822148E-22
  -10.8599997      -2.79495817E-22
  -10.8500004      -2.82316910E-22
  -10.8400002      -2.84197074E-22
  -10.8299999      -2.85045056E-22
  -10.8199997      -2.84766796E-22
  -10.8100004      -2.83265916E-22
  -10.8000002      -2.80443864E-22
  -10.7900000      -2.76200095E-22
  -10.7799997      -2.70432550E-22
  -10.7700005      -2.63037906E-22
  -10.7600002      -2.53912162E-22
  -10.7500000      -2.42950580E-22
  -10.7399998      -2.30048677E-22
  -10.7299995      -2.15102174E-22
  -10.7200003      -1.98007722E-22
  -10.7100000      -1.78663364E-22
  -10.6999998      -1.56968906E-22
  -10.6899996      -1.32826569E-22
  -10.6800003      -1.06141285E-22
  -10.6700001      -7.68215216E-23
  -10.6599998      -4.47795126E-23
  -10.6499996      -9.93197258E-24
  -10.6400003       2.77996287E-23
  -10.6300001       6.84882727E-23
  -10.6199999       1.12201113E-22
  -10.6099997       1.58998904E-22
  -10.6000004       2.08936021E-22
  -10.5900002       2.62059492E-22
  -10.5799999       3.18408748E-22
  -10.5699997       3.78015683E-22
  -10.5600004       4.40904483E-22
  -10.5500002       5.07090948E-22
  -10.5400000       5.76583106E-22
  -10.5299997       6.49380351E-22
  -10.5200005       7.25474960E-22
  -10.5100002       8.04850775E-22
  -10.5000000       8.87484725E-22
  -10.4899998       9.73346920E-22
  -10.4799995       1.06240131E-21
  -10.4700003       1.15460620E-21
  -10.4600000       1.24991625E-21
  -10.4499998       1.34828188E-21
  -10.4399996       1.44965311E-21
  -10.4300003       1.55397813E-21
  -10.4200001       1.66120849E-21
  -10.4099998       1.77129762E-21
  -10.3999996       1.88420616E-21
  -10.3900003       1.99990240E-21
  -10.3800001       2.11836694E-21
  -10.3699999       2.23959454E-21
  -10.3599997       2.36359731E-21
  -10.3500004       2.49041040E-21
  -10.3400002       2.62009358E-21
  -10.3299999       2.75273753E-21
  -10.3199997       2.88846805E-21
  -10.3100004       3.02745297E-21
  -10.3000002       3.16990353E-21
  -10.2900000       3.31608630E-21
  -10.2799997       3.46632338E-21
  -10.2700005       3.62100615E-21
  -10.2600002       3.78059466E-21
  -10.2500000       3.94563254E-21
  -10.2399998       4.11675432E-21
  -10.2299995       4.29468781E-21
  -10.2200003       4.48027192E-21
  -10.2100000       4.67446025E-21
  -10.1999998       4.87833321E-21
  -10.1899996       5.09311057E-21
  -10.1800003       5.32016155E-21
  -10.1700001       5.56101369E-21
  -10.1599998       5.81737061E-21
  -10.1499996       6.09112135E-21
  -10.1400003       6.38435162E-21
  -10.1300001       6.69936365E-21
  -10.1199999       7.03868501E-21
  -10.1099997       7.40508644E-21
  -10.1000004       7.80159353E-21
  -10.0900002       8.23151257E-21
  -10.0799999       8.69842937E-21
  -10.0699997       9.20623749E-21
  -10.0600004       9.75916169E-21
  -10.0500002       1.03617628E-20
  -10.0400000       1.10189561E-20
  -10.0299997       1.17360361E-20
  -10.0200005       1.25186919E-20
  -10.0100002       1.33730314E-20
  -10.0000000       1.43055862E-20
  -9.98999977       1.53233464E-20
  -9.97999954       1.64337701E-20
  -9.97000027       1.76448094E-20
  -9.96000004       1.89649282E-20
  -9.94999981       2.04031126E-20
  -9.93999958       2.19689106E-20
  -9.93000031       2.36724212E-20
  -9.92000008       2.55243542E-20
  -9.90999985       2.75360089E-20
  -9.89999962       2.97193328E-20
  -9.89000034       3.20868950E-20
  -9.88000011       3.46519433E-20
  -9.86999989       3.74283911E-20
  -9.85999966       4.04308726E-20
  -9.85000038       4.36747195E-20
  -9.84000015       4.71760070E-20
  -9.82999992       5.09515372E-20
  -9.81999969       5.50188974E-20
  -9.81000042       5.93964083E-20
  -9.80000019       6.41032017E-20
  -9.78999996       6.91592204E-20
  -9.77999973       7.45851892E-20
  -9.77000046       8.04026341E-20
  -9.76000023       8.66339020E-20
  -9.75000000       9.33021991E-20
  -9.73999977       1.00431494E-19
  -9.72999954       1.08046590E-19
  -9.72000027       1.16173213E-19
  -9.71000004       1.24837736E-19
  -9.69999981       1.34067482E-19
  -9.68999958       1.43890523E-19
  -9.68000031       1.54335785E-19
  -9.67000008       1.65432930E-19
  -9.65999985       1.77212331E-19
  -9.64999962       1.89705266E-19
  -9.64000034       2.02943516E-19
  -9.63000011       2.16959755E-19
  -9.61999989       2.31787149E-19
  -9.60999966       2.47459740E-19
  -9.60000038       2.64011908E-19
  -9.59000015       2.81478809E-19
  -9.57999992       2.99895908E-19
  -9.56999969       3.19299368E-19
  -9.56000042       3.39725533E-19
  -9.55000019       3.61211369E-19
  -9.53999996       3.83793735E-19
  -9.52999973       4.07510193E-19
  -9.52000046       4.32398196E-19
  -9.51000023       4.58495253E-19
  -9.50000000       4.85839053E-19
  -9.48999977       5.14466998E-19
  -9.47999954       5.44416572E-19
  -9.47000027       5.75724634E-19
  -9.46000004       6.08428202E-19
  -9.44999981       6.42563206E-19
  -9.43999958       6.78165576E-19
  -9.43000031       7.15269848E-19
  -9.42000008       7.53910298E-19
  -9.40999985       7.94120271E-19
  -9.39999962       8.35931770E-19
  -9.39000034       8.79375502E-19
  -9.38000011       9.24480937E-19
  -9.36999989       9.71275992E-19
  -9.35999966       1.01978672E-18
  -9.35000038       1.07003774E-18
  -9.34000015       1.12205096E-18
  -9.32999992       1.17584665E-18
  -9.31999969       1.23144249E-18
  -9.31000042       1.28885369E-18
  -9.30000019       1.34809254E-18
  -9.28999996       1.40916855E-18
  -9.27999973       1.47208743E-18
  -9.27000046       1.53685195E-18
  -9.26000023       1.60346211E-18
  -9.25000000       1.67191245E-18
  -9.23999977       1.74219436E-18
  -9.22999954       1.81429432E-18
  -9.22000027       1.88819546E-18
  -9.21000004       1.96387525E-18
  -9.19999981       2.04130639E-18
  -9.18999958       2.12045537E-18
  -9.18000031       2.20128436E-18
  -9.17000008       2.28374889E-18
  -9.15999985       2.36779933E-18
  -9.14999962       2.45337882E-18
  -9.14000034       2.54042510E-18
  -9.13000011       2.62886705E-18
  -9.11999989       2.71862793E-18
  -9.10999966       2.80962318E-18
  -9.10000038       2.90176055E-18
  -9.09000015       2.99493934E-18
  -9.07999992       3.08905182E-18
  -9.06999969       3.18397968E-18
  -9.06000042       3.27959783E-18
  -9.05000019       3.37577082E-18
  -9.03999996       3.47235491E-18
  -9.02999973       3.56919377E-18
  -9.02000046       3.66612527E-18
  -9.01000023       3.76297447E-18
  -9.00000000       3.85955691E-18
  -8.98999977       3.95567530E-18
  -8.97999954       4.05112491E-18
  -8.97000027       4.14568696E-18
  -8.96000004       4.23913314E-18
  -8.94999981       4.33121984E-18
  -8.93999958       4.42169521E-18
  -8.93000031       4.51029411E-18
  -8.92000008       4.59673903E-18
  -8.90999985       4.68073839E-18
  -8.89999962       4.76198986E-18
  -8.89000034       4.84017870E-18
  -8.88000011       4.91497278E-18
  -8.86999989       4.98603091E-18
  -8.85999966       5.05299697E-18
  -8.85000038       5.11549873E-18
  -8.84000015       5.17315612E-18
  -8.82999992       5.22556959E-18
  -8.81999969       5.27232763E-18
  -8.81000042       5.31300796E-18
  -8.80000019       5.34716845E-18
  -8.78999996       5.37435829E-18
  -8.77999973       5.39410971E-18
  -8.77000046       5.40594087E-18
  -8.76000023       5.40935837E-18
  -8.75000000       5.40385183E-18
  -8.73999977       5.38890012E-18
  -8.72999954       5.36396725E-18
  -8.72000027       5.32850188E-18
  -8.71000004       5.28194360E-18
  -8.69999981       5.22371629E-18
  -8.68999958       5.15323058E-18
  -8.68000031       5.06988634E-18
  -8.67000008       4.97307105E-18
  -8.65999985       4.86215854E-18
  -8.64999962       4.73651187E-18
  -8.64000034       4.59548502E-18
  -8.63000011       4.43841914E-18
  -8.61999989       4.26464545E-18
  -8.60999966       4.07348815E-18
  -8.60000038       3.86425819E-18
  -8.59000015       3.63626240E-18
  -8.57999992       3.38879560E-18
  -8.56999969       3.12114829E-18
  -8.56000042       2.83260556E-18
  -8.55000019       2.52244302E-18
  -8.53999996       2.18993524E-18
  -8.52999973       1.83435097E-18
  -8.52000046       1.45495652E-18
  -8.51000023       1.05101682E-18
  -8.50000000       6.21794717E-19
  -8.48999977       1.66553463E-19
  -8.47999954      -3.15442793E-19
  -8.47000027      -8.24927528E-19
  -8.46000004      -1.36263086E-18
  -8.44999981      -1.92927801E-18
  -8.43999958      -2.52558858E-18
  -8.43000031      -3.15227592E-18
  -8.42000008      -3.81004271E-18
  -8.40999985      -4.49958253E-18
  -8.39999962      -5.22157596E-18
  -8.39000034      -5.97669550E-18
  -8.38000011      -6.76559295E-18
  -8.36999989      -7.58890566E-18
  -8.35999966      -8.44725444E-18
  -8.35000038      -9.34124147E-18
  -8.34000015      -1.02714466E-17
  -8.32999992      -1.12384224E-17
  -8.31999969      -1.22427007E-17
  -8.31000042      -1.32847837E-17
  -8.30000019      -1.43651510E-17
  -8.28999996      -1.54842453E-17
  -8.27999973      -1.66424719E-17
  -8.27000046      -1.78402112E-17
  -8.26000023      -1.90778008E-17
  -8.25000000      -2.03555451E-17
  -8.23999977      -2.16736905E-17
  -8.22999954      -2.30324637E-17
  -8.22000027      -2.44320235E-17
  -8.21000004      -2.58724973E-17
  -8.19999981      -2.73539480E-17
  -8.18999958      -2.88763921E-17
  -8.18000031      -3.04398065E-17
  -8.17000008      -3.20440670E-17
  -8.15999985      -3.36890447E-17
  -8.14999962      -3.53744947E-17
  -8.14000034      -3.71001490E-17
  -8.13000011      -3.88656568E-17
  -8.11999989      -4.06705847E-17
  -8.10999966      -4.25144464E-17
  -8.10000038      -4.43966661E-17
  -8.09000015      -4.63165954E-17
  -8.07999992      -4.82735194E-17
  -8.06999969      -5.02666012E-17
  -8.06000042      -5.22949771E-17
  -8.05000019      -5.43576611E-17
  -8.03999996      -5.64535482E-17
  -8.02999973      -5.85814868E-17
  -8.02000046      -6.07402363E-17
  -8.01000023      -6.29284070E-17
  -8.00000000      -6.51445628E-17
  -7.98999977      -6.73871355E-17
  -7.98000002      -6.96544574E-17
  -7.96999979      -7.19447551E-17
  -7.96000004      -7.42561426E-17
  -7.94999981      -7.65866478E-17
  -7.94000006      -7.89341401E-17
  -7.92999983      -8.12964157E-17
  -7.92000008      -8.36710991E-17
  -7.90999985      -8.60557615E-17
  -7.90000010      -8.84478156E-17
  -7.88999987      -9.08445681E-17
  -7.88000011      -9.32431603E-17
  -7.86999989      -9.56406606E-17
  -7.86000013      -9.80339720E-17
  -7.84999990      -1.00419872E-16
  -7.84000015      -1.02795038E-16
  -7.82999992      -1.05155971E-16
  -7.82000017      -1.07499062E-16
  -7.80999994      -1.09820588E-16
  -7.80000019      -1.12116616E-16
  -7.78999996      -1.14383170E-16
  -7.78000021      -1.16616121E-16
  -7.76999998      -1.18811101E-16
  -7.76000023      -1.20963756E-16
  -7.75000000      -1.23069480E-16
  -7.73999977      -1.25123588E-16
  -7.73000002      -1.27121222E-16
  -7.71999979      -1.29057421E-16
  -7.71000004      -1.30927047E-16
  -7.69999981      -1.32724875E-16
  -7.69000006      -1.34445503E-16
  -7.67999983      -1.36083440E-16
  -7.67000008      -1.37632994E-16
  -7.65999985      -1.39088382E-16
  -7.65000010      -1.40443714E-16
  -7.63999987      -1.41692968E-16
  -7.63000011      -1.42829938E-16
  -7.61999989      -1.43848350E-16
  -7.61000013      -1.44741771E-16
  -7.59999990      -1.45503730E-16
  -7.59000015      -1.46127543E-16
  -7.57999992      -1.46606461E-16
  -7.57000017      -1.46933641E-16
  -7.55999994      -1.47102068E-16
  -7.55000019      -1.47104768E-16
  -7.53999996      -1.46934488E-16
  -7.53000021      -1.46584041E-16
  -7.51999998      -1.46046056E-16
  -7.51000023      -1.45313148E-16
  -7.50000000      -1.44377772E-16
  -7.48999977      -1.43232371E-16
  -7.48000002      -1.41869323E-16
  -7.46999979      -1.40281004E-16
  -7.46000004      -1.38459579E-16
  -7.44999981      -1.36397305E-16
  -7.44000006      -1.34086388E-16