  -16.0000000       0.00000000    
  -15.9899998       0.00000000    
  -15.9799995       0.00000000    
  -15.9700003       0.00000000    
  -15.9600000       0.00000000    
  -15.9499998       0.00000000    
  -15.9399996       0.00000000    
  -15.9300003       0.00000000    
  -15.9200001       0.00000000    
  -15.9099998       0.00000000    
  -15.8999996       0.00000000    
  -15.8900003       0.00000000    
  -15.8800001       0.00000000    
  -15.8699999       0.00000000    
  -15.8599997       0.00000000    
  -15.8500004       0.00000000    
  -15.8400002       0.00000000    
  -15.8299999       0.00000000    
  -15.8199997       0.00000000    
  -15.8100004       0.00000000    
  -15.8000002       0.00000000    
  -15.7900000       0.00000000    
  -15.7799997       0.00000000    
  -15.7700005       0.00000000    
  -15.7600002       0.00000000    
  -15.7500000       0.00000000    
  -15.7399998       0.00000000    
  -15.7299995       0.00000000    
  -15.7200003       0.00000000    
  -15.7100000       0.00000000    
  -15.6999998       0.00000000    
  -15.6899996       0.00000000    
  -15.6800003       0.00000000    
  -15.6700001       0.00000000    
  -15.6599998       0.00000000    
  -15.6499996       0.00000000    
  -15.6400003       0.00000000    
  -15.6300001       0.00000000    
  -15.6199999       0.00000000    
  -15.6099997       0.00000000    
  -15.6000004       0.00000000    
  -15.5900002       0.00000000    
  -15.5799999       0.00000000    
  -15.5699997       0.00000000    
  -15.5600004       0.00000000    
  -15.5500002       0.00000000    
  -15.5400000       0.00000000    
  -15.5299997       0.00000000    
  -15.5200005       0.00000000    
  -15.5100002       0.00000000    
  -15.5000000       0.00000000    
  -15.4899998       0.00000000    
  -15.4799995       0.00000000    
  -15.4700003       0.00000000    
  -15.4600000       0.00000000    
  -15.4499998       0.00000000    
  -15.4399996       0.00000000    
  -15.4300003       0.00000000    
  -15.4200001       0.00000000    
  -15.4099998       0.00000000    
  -15.3999996       0.00000000    
  -15.3900003       0.00000000    
  -15.3800001       0.00000000    
  -15.3699999       0.00000000    
  -15.3599997       0.00000000    
  -15.3500004       0.00000000    
  -15.3400002       0.00000000    
  -15.3299999       0.00000000    
  -15.3199997       0.00000000    
  -15.3100004       0.00000000    
  -15.3000002       0.00000000    
  -15.2900000       0.00000000    
  -15.2799997       0.00000000    
  -15.2700005       0.00000000    
  -15.2600002       0.00000000    
  -15.2500000       0.00000000    
  -15.2399998       0.00000000    
  -15.2299995       0.00000000    
  -15.2200003       0.00000000    
  -15.2100000       0.00000000    
  -15.1999998       0.00000000    
  -15.1899996       0.00000000    
  -15.1800003       0.00000000    
  -15.1700001       0.00000000    
  -15.1599998       0.00000000    
  -15.1499996       0.00000000    
  -15.1400003       0.00000000    
  -15.1300001       0.00000000    
  -15.1199999       0.00000000    
  -15.1099997       0.00000000    
  -15.1000004       0.00000000    
  -15.0900002       0.00000000    
  -15.0799999       0.00000000    
  -15.0699997       0.00000000    
  -15.0600004       0.00000000    
  -15.0500002       0.00000000    
  -15.0400000       0.00000000    
  -15.0299997       0.00000000    
  -15.0200005       0.00000000    
  -15.0100002       0.00000000    
  -15.0000000       0.00000000    
  -14.9899998       0.00000000    
  -14.9799995       0.00000000    
  -14.9700003       0.00000000    
  -14.9600000       0.00000000    
  -14.9499998       0.00000000    
  -14.9399996       0.00000000    
  -14.9300003       0.00000000    
  -14.9200001       0.00000000    
  -14.9099998       0.00000000    
  -14.8999996       0.00000000    
  -14.8900003       0.00000000    
  -14.8800001       0.00000000    
  -14.8699999       0.00000000    
  -14.8599997       0.00000000    
  -14.8500004       0.00000000    
  -14.8400002       0.00000000    
  -14.8299999       0.00000000    
  -14.8199997       0.00000000    
  -14.8100004       0.00000000    
  -14.8000002       0.00000000    
  -14.7900000       0.00000000    
  -14.7799997       0.00000000    
  -14.7700005       0.00000000    
  -14.7600002       0.00000000    
  -14.7500000       0.00000000    
  -14.7399998       0.00000000    
  -14.7299995       0.00000000    
  -14.7200003       0.00000000    
  -14.7100000       0.00000000    
  -14.6999998       0.00000000    
  -14.6899996       0.00000000    
  -14.6800003       0.00000000    
  -14.6700001       0.00000000    
  -14.6599998       0.00000000    
  -14.6499996       0.00000000    
  -14.6400003       0.00000000    
  -14.6300001       0.00000000    
  -14.6199999       0.00000000    
  -14.6099997       0.00000000    
  -14.6000004       0.00000000    
  -14.5900002       0.00000000    
  -14.5799999       0.00000000    
  -14.5699997       0.00000000    
  -14.5600004       0.00000000    
  -14.5500002       0.00000000    
  -14.5400000       0.00000000    
  -14.5299997       0.00000000    
  -14.5200005       0.00000000    
  -14.5100002       0.00000000    
  -14.5000000       0.00000000    
  -14.4899998       0.00000000    
  -14.4799995       0.00000000    
  -14.4700003       0.00000000    
  -14.4600000       0.00000000    
  -14.4499998       0.00000000    
  -14.4399996       0.00000000    
  -14.4300003       0.00000000    
  -14.4200001       0.00000000    
  -14.4099998       0.00000000    
  -14.3999996       0.00000000    
  -14.3900003       0.00000000    
  -14.3800001       0.00000000    
  -14.3699999       0.00000000    
  -14.3599997       0.00000000    
  -14.3500004       0.00000000    
  -14.3400002       0.00000000    
  -14.3299999       0.00000000    
  -14.3199997       0.00000000    
  -14.3100004       0.00000000    
  -14.3000002       0.00000000    
  -14.2900000       0.00000000    
  -14.2799997       0.00000000    
  -14.2700005       0.00000000    
  -14.2600002       0.00000000    
  -14.2500000       0.00000000    
  -14.2399998       0.00000000    
  -14.2299995       0.00000000    
  -14.2200003       0.00000000    
  -14.2100000       0.00000000    
  -14.1999998       0.00000000    
  -14.1899996       0.00000000    
  -14.1800003       0.00000000    
  -14.1700001       0.00000000    
  -14.1599998       0.00000000    
  -14.1499996       0.00000000    
  -14.1400003       0.00000000    
  -14.1300001       0.00000000    
  -14.1199999       0.00000000    
  -14.1099997       0.00000000    
  -14.1000004       0.00000000    
  -14.0900002       0.00000000    
  -14.0799999       0.00000000    
  -14.0699997       0.00000000    
  -14.0600004       0.00000000    
  -14.0500002       0.00000000    
  -14.0400000       0.00000000    
  -14.0299997       0.00000000    
  -14.0200005       0.00000000    
  -14.0100002       0.00000000    
  -14.0000000       0.00000000    
  -13.9899998       0.00000000    
  -13.9799995       0.00000000    
  -13.9700003       0.00000000    
  -13.9600000       0.00000000    
  -13.9499998       0.00000000    
  -13.9399996       0.00000000    
  -13.9300003       0.00000000    
  -13.9200001       0.00000000    
  -13.9099998       0.00000000    
  -13.8999996       0.00000000    
  -13.8900003       0.00000000    
  -13.8800001       0.00000000    
  -13.8699999       0.00000000    
  -13.8599997       0.00000000    
  -13.8500004       0.00000000    
  -13.8400002       0.00000000    
  -13.8299999       0.00000000    
  -13.8199997       0.00000000    
  -13.8100004       0.00000000    
  -13.8000002       0.00000000    
  -13.7900000       0.00000000    
  -13.7799997       0.00000000    
  -13.7700005       0.00000000    
  -13.7600002       0.00000000    
  -13.7500000       0.00000000    
  -13.7399998       0.00000000    
  -13.7299995       0.00000000    
  -13.7200003       0.00000000    
  -13.7100000       0.00000000    
  -13.6999998       0.00000000    
  -13.6899996       0.00000000    
  -13.6800003       0.00000000    
  -13.6700001       0.00000000    
  -13.6599998       0.00000000    
  -13.6499996       0.00000000    
  -13.6400003      -0.00000000    
  -13.6300001      -0.00000000    
  -13.6199999      -0.00000000    
  -13.6099997       0.00000000    
  -13.6000004       0.00000000    
  -13.5900002       0.00000000    
  -13.5799999       0.00000000    
  -13.5699997      -1.40129846E-45
  -13.5600004      -1.40129846E-45
  -13.5500002      -0.00000000    
  -13.5400000      -0.00000000    
  -13.5299997      -0.00000000    
  -13.5200005      -0.00000000    
  -13.5100002      -4.20389539E-45
  -13.5000000      -5.60519386E-45
  -13.4899998      -7.00649232E-45
  -13.4799995      -7.00649232E-45
  -13.4700003      -2.80259693E-45
  -13.4600000      -2.80259693E-45
  -13.4499998      -7.00649232E-45
  -13.4399996      -1.40129846E-44
  -13.4300003      -1.40129846E-44
  -13.4200001      -1.12103877E-44
  -13.4099998      -1.12103877E-44
  -13.3999996      -1.40129846E-44
  -13.3900003      -1.96181785E-44
  -13.3800001      -2.52233724E-44
  -13.3699999      -2.94272678E-44
  -13.3599997      -3.50324616E-44
  -13.3500004      -4.48415509E-44
  -13.3400002      -5.88545355E-44
  -13.3299999      -6.86636248E-44
  -13.3199997      -7.98740125E-44
  -13.3100004      -9.24856986E-44
  -13.3000002      -1.14906474E-43
  -13.2900000      -1.47136339E-43
  -13.2799997      -1.83570099E-43
  -13.2700005      -2.27010351E-43
  -13.2600002      -2.80259693E-43
  -13.2500000      -3.43318124E-43
  -13.2399998      -4.14784345E-43
  -13.2299995      -5.05868746E-43
  -13.2200003      -6.17972623E-43
  -13.2100000      -7.53898574E-43
  -13.1999998      -9.23455688E-43
  -13.1899996      -1.12664397E-42
  -13.1800003      -1.37046990E-42
  -13.1700001      -1.66474258E-42
  -13.1599998      -2.01786979E-42
  -13.1499996      -2.44386452E-42
  -13.1400003      -2.95393716E-42
  -13.1300001      -3.56210070E-42
  -13.1199999      -4.28517070E-42
  -13.1099997      -5.13996277E-42
  -13.1000004      -6.16291065E-42
  -13.0900002      -7.37503382E-42
  -13.0799999      -8.80435825E-42
  -13.0699997      -1.04915216E-41
  -13.0600004      -1.24757602E-41
  -13.0500002      -1.48215339E-41
  -13.0400000      -1.75806905E-41
  -13.0299997      -2.08120848E-41
  -13.0200005      -2.45871829E-41
  -13.0100002      -2.90110821E-41
  -13.0000000      -3.41720644E-41
  -12.9899998      -4.01822335E-41
  -12.9799995      -4.71817193E-41
  -12.9700003      -5.53092504E-41
  -12.9600000      -6.47413904E-41
  -12.9499998      -7.56715184E-41
  -12.9399996      -8.83084279E-41
  -12.9300003      -1.02908557E-40
  -12.9200001      -1.19756368E-40
  -12.9099998      -1.39167154E-40
  -12.8999996      -1.61496845E-40
  -12.8900003      -1.87156022E-40
  -12.8800001      -2.16598704E-40
  -12.8699999      -2.50337767E-40
  -12.8599997      -2.88956151E-40
  -12.8500004      -3.33111066E-40
  -12.8400002      -3.83525581E-40
  -12.8299999      -4.41006844E-40
  -12.8199997      -5.06462896E-40
  -12.8100004      -5.80922291E-40
  -12.8000002      -6.65536897E-40
  -12.7900000      -7.61570683E-40
  -12.7799997      -8.70426350E-40
  -12.7700005      -9.93669149E-40
  -12.7600002      -1.13305911E-39
  -12.7500000      -1.29053843E-39
  -12.7399998      -1.46825671E-39
  -12.7299995      -1.66860455E-39
  -12.7200003      -1.89420660E-39
  -12.7100000      -2.14797194E-39
  -12.6999998      -2.43312497E-39
  -12.6899996      -2.75321097E-39
  -12.6800003      -3.11213535E-39
  -12.6700001      -3.51421272E-39
  -12.6599998      -3.96417106E-39
  -12.6499996      -4.46720078E-39
  -12.6400003      -5.02901216E-39
  -12.6300001      -5.65585920E-39
  -12.6199999      -6.35460127E-39
  -12.6099997      -7.13274231E-39
  -12.6000004      -7.99847291E-39
  -12.5900002      -8.96074176E-39
  -12.5799999      -1.00293173E-38
  -12.5699997      -1.12148509E-38
  -12.5600004      -1.25289479E-38
  -12.5500002      -1.39842272E-38
  -12.5400000      -1.55944074E-38
  -12.5299997      -1.73743886E-38
  -12.5200005      -1.93403304E-38
  -12.5100002      -2.15097703E-38
  -12.5000000      -2.39016817E-38
  -12.4899998      -2.65366469E-38
  -12.4799995      -2.94368386E-38
  -12.4700003      -3.26262920E-38
  -12.4600000      -3.61308470E-38
  -12.4499998      -3.99784819E-38
  -12.4399996      -4.41992433E-38
  -12.4300003      -4.88255321E-38
  -12.4200001      -5.38921789E-38
  -12.4099998      -5.94366069E-38
  -12.3999996      -6.54989771E-38
  -12.3900003      -7.21223993E-38
  -12.3800001      -7.93530097E-38
  -12.3699999      -8.72402405E-38
  -12.3599997      -9.58370441E-38
  -12.3500004      -1.05199915E-37
  -12.3400002      -1.15389205E-37
  -12.3299999      -1.26469339E-37
  -12.3199997      -1.38509071E-37
  -12.3100004      -1.51581527E-37
  -12.3000002      -1.65764505E-37
  -12.2900000      -1.81140841E-37
  -12.2799997      -1.97798368E-37
  -12.2700005      -2.15830501E-37
  -12.2600002      -2.35336104E-37
  -12.2500000      -2.56419974E-37
  -12.2399998      -2.79193294E-37
  -12.2299995      -3.03773190E-37
  -12.2200003      -3.30283806E-37
  -12.2100000      -3.58855833E-37
  -12.1999998      -3.89627518E-37
  -12.1899996      -4.22744079E-37
  -12.1800003      -4.58358629E-37
  -12.1700001      -4.96632597E-37
  -12.1599998      -5.37734721E-37
  -12.1499996      -5.81842754E-37
  -12.1400003      -6.29143236E-37
  -12.1300001      -6.79830914E-37
  -12.1199999      -7.34109280E-37
  -12.1099997      -7.92191823E-37
  -12.1000004      -8.54302573E-37
  -12.0900002      -9.20673001E-37
  -12.0799999      -9.91545520E-37
  -12.0699997      -1.06717304E-36
  -12.0600004      -1.14781635E-36
  -12.0500002      -1.23374882E-36
  -12.0400000      -1.32525186E-36
  -12.0299997      -1.42261829E-36
  -12.0200005      -1.52615097E-36
  -12.0100002      -1.63616129E-36
  -12.0000000      -1.75297299E-36
  -11.9899998      -1.87691952E-36
  -11.9799995      -2.00834239E-36
  -11.9700003      -2.14759299E-36
  -11.9600000      -2.29503272E-36
  -11.9499998      -2.45103020E-36
  -11.9399996      -2.61596388E-36
  -11.9300003      -2.79022120E-36
  -11.9200001      -2.97419155E-36
  -11.9099998      -3.16827906E-36
  -11.8999996      -3.37288316E-36
  -11.8900003      -3.58841497E-36
  -11.8800001      -3.81528847E-36
  -11.8699999      -4.05392336E-36
  -11.8599997      -4.30473758E-36
  -11.8500004      -4.56815156E-36
  -11.8400002      -4.84458143E-36
  -11.8299999      -5.13444654E-36
  -11.8199997      -5.43815262E-36
  -11.8100004      -5.75611115E-36
  -11.8000002      -6.08871564E-36
  -11.7900000      -6.43635245E-36
  -11.7799997      -6.79939897E-36
  -11.7700005      -7.17822326E-36
  -11.7600002      -7.57315823E-36
  -11.7500000      -7.98452457E-36
  -11.7399998      -8.41262004E-36
  -11.7299995      -8.85772302E-36
  -11.7200003      -9.32005949E-36
  -11.7100000      -9.79984615E-36
  -11.6999998      -1.02972516E-35
  -11.6899996      -1.08123920E-35
  -11.6800003      -1.13453457E-35
  -11.6700001      -1.18961341E-35
  -11.6599998      -1.24647286E-35
  -11.6499996      -1.30510293E-35
  -11.6400003      -1.36548635E-35
  -11.6300001      -1.42759929E-35
  -11.6199999      -1.49140831E-35
  -11.6099997      -1.55687181E-35
  -11.6000004      -1.62393899E-35
  -11.5900002      -1.69254757E-35
  -11.5799999      -1.76262451E-35
  -11.5699997      -1.83408242E-35
  -11.5600004      -1.90682503E-35
  -11.5500002      -1.98073898E-35
  -11.5400000      -2.05569410E-35
  -11.5299997      -2.13154678E-35
  -11.5200005      -2.20813457E-35
  -11.5100002      -2.28527868E-35
  -11.5000000      -2.36277435E-35
  -11.4899998      -2.44039917E-35
  -11.4799995      -2.51790919E-35
  -11.4700003      -2.59503063E-35
  -11.4600000      -2.67146502E-35
  -11.4499998      -2.74688894E-35
  -11.4399996      -2.82094997E-35
  -11.4300003      -2.89325980E-35
  -11.4200001      -2.96339629E-35
  -11.4099998      -3.03090055E-35
  -11.3999996      -3.09527924E-35
  -11.3900003      -3.15599685E-35
  -11.3800001      -3.21246851E-35
  -11.3699999      -3.26406829E-35
  -11.3599997      -3.31012264E-35
  -11.3500004      -3.34990291E-35
  -11.3400002      -3.38262189E-35
  -11.3299999      -3.40743297E-35
  -11.3199997      -3.42343674E-35
  -11.3100004      -3.42965802E-35
  -11.3000002      -3.42505075E-35
  -11.2900000      -3.40848793E-35
  -11.2799997      -3.37877513E-35
  -11.2700005      -3.33462665E-35
  -11.2600002      -3.27466524E-35
  -11.2500000      -3.19742126E-35
  -11.2399998      -3.10131312E-35
  -11.2299995      -2.98465649E-35
  -11.2200003      -2.84565515E-35
  -11.2100000      -2.68238312E-35
  -11.1999998      -2.49279160E-35
  -11.1899996      -2.27468589E-35
  -11.1800003      -2.02573019E-35
  -11.1700001      -1.74342271E-35
  -11.1599998      -1.42510495E-35
  -11.1499996      -1.06793633E-35
  -11.1400003      -6.68887495E-36
  -11.1300001      -2.24731127E-36
  -11.1199999       2.67969826E-36
  -11.1099997       8.12884979E-36
  -11.1000004       1.41392254E-35
  -11.0900002       2.07524401E-35
  -11.0799999       2.80127966E-35
  -11.0699997       3.59675672E-35
  -11.0600004       4.46670519E-35
  -11.0500002       5.41647937E-35
  -11.0400000       6.45178110E-35
  -11.0299997       7.57868586E-35
  -11.0200005       8.80365601E-35
  -11.0100002       1.01335729E-34
  -11.0000000       1.15757633E-34
  -10.9899998       1.31380159E-34
  -10.9799995       1.48286294E-34
  -10.9700003       1.66564358E-34
  -10.9600000       1.86308175E-34
  -10.9499998       2.07617672E-34
  -10.9399996       2.30598954E-34
  -10.9300003       2.55365104E-34
  -10.9200001       2.82036222E-34
  -10.9099998       3.10740393E-34
  -10.8999996       3.41613145E-34
  -10.8900003       3.74799165E-34
  -10.8800001       4.10451954E-34
  -10.8699999       4.48734775E-34
  -10.8599997       4.89820965E-34
  -10.8500004       5.33894427E-34
  -10.8400002       5.81151275E-34
  -10.8299999       6.31799423E-34
  -10.8199997       6.86059232E-34
  -10.8100004       7.44164928E-34
  -10.8000002       8.06365982E-34
  -10.7900000       8.72925687E-34
  -10.7799997       9.44125471E-34
  -10.7700005       1.02026077E-33
  -10.7600002       1.10164796E-33
  -10.7500000       1.18862178E-33
  -10.7399998       1.28153634E-33
  -10.7299995       1.38076670E-33
  -10.7200003       1.48671171E-33
  -10.7100000       1.59979326E-33
  -10.6999998       1.72045812E-33
  -10.6899996       1.84917990E-33
  -10.6800003       1.98645964E-33
  -10.6700001       2.13282760E-33
  -10.6599998       2.28884325E-33
  -10.6499996       2.45510260E-33
  -10.6400003       2.63223013E-33
  -10.6300001       2.82089165E-33
  -10.6199999       3.02178786E-33
  -10.6099997       3.23565620E-33
  -10.6000004       3.46328370E-33
  -10.5900002       3.70549468E-33
  -10.5799999       3.96316304E-33
  -10.5699997       4.23720751E-33
  -10.5600004       4.52859639E-33
  -10.5500002       4.83834981E-33
  -10.5400000       5.16755104E-33
  -10.5299997       5.51733555E-33
  -10.5200005       5.88889829E-33
  -10.5100002       6.28350220E-33
  -10.5000000       6.70247630E-33
  -10.4899998       7.14720769E-33
  -10.4799995       7.61918337E-33
  -10.4700003       8.11993441E-33
  -10.4600000       8.65108521E-33
  -10.4499998       9.21434022E-33
  -10.4399996       9.81149135E-33
  -10.4300003       1.04444319E-32
  -10.4200001       1.11151065E-32
  -10.4099998       1.18256047E-32
  -10.3999996       1.25781084E-32
  -10.3900003       1.33748702E-32
  -10.3800001       1.42182830E-32
  -10.3699999       1.51108374E-32
  -10.3599997       1.60551560E-32
  -10.3500004       1.70539648E-32
  -10.3400002       1.81101406E-32
  -10.3299999       1.92266824E-32
  -10.3199997       2.04066774E-32
  -10.3100004       2.16534200E-32
  -10.3000002       2.29703322E-32
  -10.2900000       2.43609435E-32
  -10.2799997       2.58289699E-32
  -10.2700005       2.73782802E-32
  -10.2600002       2.90129315E-32
  -10.2500000       3.07371172E-32
  -10.2399998       3.25552073E-32
  -10.2299995       3.44717744E-32
  -10.2200003       3.64915177E-32
  -10.2100000       3.86194034E-32
  -10.1999998       4.08605275E-32
  -10.1899996       4.32202530E-32
  -10.1800003       4.57040579E-32
  -10.1700001       4.83177138E-32
  -10.1599998       5.10671069E-32
  -10.1499996       5.39583998E-32
  -10.1400003       5.69979990E-32
  -10.1300001       6.01925107E-32
  -10.1199999       6.35487880E-32
  -10.1099997       6.70738487E-32
  -10.1000004       7.07750925E-32
  -10.0900002       7.46599838E-32
  -10.0799999       7.87363102E-32
  -10.0699997       8.30121885E-32
  -10.0600004       8.74957415E-32
  -10.0500002       9.21956206E-32
  -10.0400000       9.71206833E-32
  -10.0299997       1.02279893E-31
  -10.0200005       1.07682594E-31
  -10.0100002       1.13338450E-31
  -10.0000000       1.19257099E-31
  -9.98999977       1.25448710E-31
  -9.97999954       1.31923509E-31
  -9.97000027       1.38692088E-31
  -9.96000004       1.45765249E-31
  -9.94999981       1.53154254E-31
  -9.93999958       1.60870375E-31
  -9.93000031       1.68925086E-31
  -9.92000008       1.77330364E-31
  -9.90999985       1.86097894E-31
  -9.89999962       1.95240102E-31
  -9.89000034       2.04769353E-31
  -9.88000011       2.14698401E-31
  -9.86999989       2.25039836E-31
  -9.85999966       2.35806753E-31
  -9.85000038       2.47012364E-31
  -9.84000015       2.58669812E-31
  -9.82999992       2.70792568E-31
  -9.81999969       2.83394079E-31
  -9.81000042       2.96488146E-31
  -9.80000019       3.10088216E-31
  -9.78999996       3.24208066E-31
  -9.77999973       3.38861426E-31
  -9.77000046       3.54062237E-31
  -9.76000023       3.69823571E-31
  -9.75000000       3.86159345E-31
  -9.73999977       4.03082608E-31
  -9.72999954       4.20606925E-31
  -9.72000027       4.38745555E-31
  -9.71000004       4.57511570E-31
  -9.69999981       4.76917477E-31
  -9.68999958       4.96974185E-31
  -9.68000031       5.17695094E-31
  -9.67000008       5.39090878E-31
  -9.65999985       5.61173151E-31
  -9.64999962       5.83952209E-31
  -9.64000034       6.07437129E-31
  -9.63000011       6.31636843E-31
  -9.61999989       6.56560521E-31
  -9.60999966       6.82215826E-31
  -9.60000038       7.08608871E-31
  -9.59000015       7.35746005E-31
  -9.57999992       7.63630753E-31
  -9.56999969       7.92267206E-31
  -9.56000042       8.21657386E-31
  -9.55000019       8.51801669E-31
  -9.53999996       8.82699397E-31
  -9.52999973       9.14348313E-31
  -9.52000046       9.46745971E-31
  -9.51000023       9.79884850E-31
  -9.50000000       1.01375733E-30
  -9.48999977       1.04835439E-30
  -9.47999954       1.08366417E-30
  -9.47000027       1.11967229E-30
  -9.46000004       1.15636153E-30
  -9.44999981       1.19371338E-30
  -9.43999958       1.23170630E-30
  -9.43000031       1.27031320E-30
  -9.42000008       1.30950691E-30
  -9.40999985       1.34925771E-30
  -9.39999962       1.38952996E-30
  -9.39000034       1.43028388E-30
  -9.38000011       1.47148073E-30
  -9.36999989       1.51307009E-30
  -9.35999966       1.55500289E-30
  -9.35000038       1.59722430E-30
  -9.34000015       1.63967601E-30
  -9.32999992       1.68229266E-30
  -9.31999969       1.72500561E-30
  -9.31000042       1.76773925E-30
  -9.30000019       1.81041346E-30
  -9.28999996       1.85294096E-30
  -9.27999973       1.89523205E-30
  -9.27000046       1.93718629E-30
  -9.26000023       1.97870042E-30
  -9.25000000       2.01966180E-30
  -9.23999977       2.05995135E-30
  -9.22999954       2.09944476E-30
  -9.22000027       2.13801000E-30
  -9.21000004       2.17549906E-30
  -9.19999981       2.21176729E-30
  -9.18999958       2.24665408E-30
  -9.18000031       2.27999336E-30
  -9.17000008       2.31160494E-30
  -9.15999985       2.34130733E-30
  -9.14999962       2.36890361E-30
  -9.14000034       2.39418727E-30
  -9.13000011       2.41694371E-30
  -9.11999989       2.43694292E-30
  -9.10999966       2.45394734E-30
  -9.10000038       2.46771322E-30
  -9.09000015       2.47797463E-30
  -9.07999992       2.48446110E-30
  -9.06999969       2.48688695E-30
  -9.06000042       2.48495481E-30
  -9.05000019       2.47835154E-30
  -9.03999996       2.46675552E-30
  -9.02999973       2.44982972E-30
  -9.02000046       2.42721866E-30
  -9.01000023       2.39856162E-30
  -9.00000000       2.36347264E-30
  -8.98999977       2.32155771E-30
  -8.97999954       2.27240926E-30
  -8.97000027       2.21560090E-30
  -8.96000004       2.15069105E-30
  -8.94999981       2.07721889E-30
  -8.93999958       1.99471291E-30
  -8.93000031       1.90268374E-30
  -8.92000008       1.80061698E-30
  -8.90999985       1.68799954E-30
  -8.89999962       1.56428346E-30
  -8.89000034       1.42890940E-30
  -8.88000011       1.28130276E-30
  -8.86999989       1.12087054E-30
  -8.85999966       9.46996493E-31
  -8.85000038       7.59054553E-31
  -8.84000015       5.56396271E-31
  -8.82999992       3.38359184E-31
  -8.81999969       1.04253277E-31
  -8.81000042      -1.46622326E-31
  -8.80000019      -4.14986698E-31
  -8.78999996      -7.01576312E-31
  -8.77999973      -1.00715011E-30
  -8.77000046      -1.33248059E-30
  -8.76000023      -1.67836049E-30
  -8.75000000      -2.04559884E-30
  -8.73999977      -2.43502113E-30
  -8.72999954      -2.84747256E-30
  -8.72000027      -3.28381024E-30
  -8.71000004      -3.74491210E-30
  -8.69999981      -4.23166794E-30
  -8.68999958      -4.74498695E-30
  -8.68000031      -5.28578996E-30
  -8.67000008      -5.85501210E-30
  -8.65999985      -6.45360467E-30
  -8.64999962      -7.08252687E-30
  -8.64000034      -7.74275070E-30
  -8.63000011      -8.43526170E-30
  -8.61999989      -9.16105517E-30
  -8.60999966      -9.92113997E-30
  -8.60000038      -1.07165220E-29
  -8.59000015      -1.15482213E-29
  -8.57999992      -1.24172580E-29
  -8.56999969      -1.33246607E-29
  -8.56000042      -1.42714674E-29
  -8.55000019      -1.52587141E-29
  -8.53999996      -1.62874135E-29
  -8.52999973      -1.73586112E-29
  -8.52000046      -1.84733229E-29
  -8.51000023      -1.96325657E-29
  -8.50000000      -2.08373568E-29
  -8.48999977      -2.20887102E-29
  -8.47999954      -2.33875890E-29
  -8.47000027      -2.47349816E-29
  -8.46000004      -2.61318571E-29
  -8.44999981      -2.75791513E-29
  -8.43999958      -2.90777625E-29
  -8.43000031      -3.06285815E-29
  -8.42000008      -3.22324899E-29
  -8.40999985      -3.38903244E-29
  -8.39999962      -3.56028312E-29
  -8.39000034      -3.73708229E-29
  -8.38000011      -3.91949975E-29
  -8.36999989      -4.10760051E-29
  -8.35999966      -4.30144988E-29
  -8.35000038      -4.50110562E-29
  -8.34000015      -4.70661197E-29
  -8.32999992      -4.91802190E-29
  -8.31999969      -5.13536942E-29
  -8.31000042      -5.35869002E-29
  -8.30000019      -5.58800509E-29
  -8.28999996      -5.82333025E-29
  -8.27999973      -6.06467034E-29
  -8.27000046      -6.31203016E-29
  -8.26000023      -6.56540009E-29
  -8.25000000      -6.82474762E-29
  -8.23999977      -7.09005169E-29
  -8.22999954      -7.36126777E-29
  -8.22000027      -7.63834228E-29
  -8.21000004      -7.92120120E-29
  -8.19999981      -8.20976690E-29
  -8.18999958      -8.50395149E-29
  -8.18000031      -8.80363642E-29
  -8.17000008      -9.10871035E-29
  -8.15999985      -9.41902160E-29
  -8.14999962      -9.73443114E-29
  -8.14000034      -1.00547386E-28
  -8.13000011      -1.03797778E-28
  -8.11999989      -1.07093393E-28
  -8.10999966      -1.10431824E-28
  -8.10000038      -1.13810543E-28
  -8.09000015      -1.17226938E-28
  -8.07999992      -1.20678060E-28
  -8.06999969      -1.24160647E-28
  -8.06000042      -1.27671569E-28
  -8.05000019      -1.31206999E-28
  -8.03999996      -1.34763084E-28
  -8.02999973      -1.38335540E-28
  -8.02000046      -1.41920273E-28
  -8.01000023      -1.45512325E-28
  -8.00000000      -1.49106820E-28
  -7.98999977      -1.52698451E-28
  -7.98000002      -1.56281620E-28
  -7.96999979      -1.59850296E-28
  -7.96000004      -1.63398545E-28
  -7.94999981      -1.66919602E-28
  -7.94000006      -1.70406619E-28
  -7.92999983      -1.73852396E-28
  -7.92000008      -1.77249099E-28
  -7.90999985      -1.80589191E-28
  -7.90000010      -1.83863946E-28
  -7.88999987      -1.87064540E-28
  -7.88000011      -1.90182188E-28
  -7.86999989      -1.93207029E-28
  -7.86000013      -1.96128966E-28
  -7.84999990      -1.98938127E-28
  -7.84000015      -2.01623138E-28
  -7.82999992      -2.04172913E-28
  -7.82000017      -2.06575968E-28
  -7.80999994      -2.08819604E-28
  -7.80000019      -2.10891688E-28
  -7.78999996      -2.12778787E-28
  -7.78000021      -2.14467490E-28
  -7.76999998      -2.15943836E-28
  -7.76000023      -2.17192874E-28
  -7.75000000      -2.18199653E-28
  -7.73999977      -2.18948648E-28
  -7.73000002      -2.19423799E-28
  -7.71999979      -2.19608471E-28
  -7.71000004      -2.19485549E-28
  -7.69999981      -2.19037385E-28
  -7.69000006      -2.18245563E-28
  -7.67999983      -2.17091714E-28
  -7.67000008      -2.15556218E-28
  -7.65999985      -2.13619238E-28
  -7.65000010      -2.11260889E-28
  -7.63999987      -2.08460587E-28
  -7.63000011      -2.05196280E-28
  -7.61999989      -2.01446494E-28
  -7.61000013      -1.97188648E-28
  -7.59999990      -1.92399270E-28
  -7.59000015      -1.87055705E-28
  -7.57999992      -1.81133567E-28
  -7.57000017      -1.74608071E-28
  -7.55999994      -1.67454240E-28
  -7.55000019      -1.59646797E-28
  -7.53999996      -1.51159368E-28
  -7.53000021      -1.41965496E-28
  -7.51999998      -1.32038146E-28
  -7.51000023      -1.21350270E-28
  -7.50000000      -1.09873738E-28
  -7.48999977      -9.75803161E-29
  -7.48000002      -8.44414475E-29
  -7.46999979      -7.04277673E-29
  -7.46000004      -5.55098811E-29
  -7.44999981      -3.96578256E-29
  -7.44000006      -2.28414283E-29