  -16.0000000       0.00000000    
  -15.9899998       0.00000000    
  -15.9799995       0.00000000    
  -15.9700003       0.00000000    
  -15.9600000       0.00000000    
  -15.9499998       0.00000000    
  -15.9399996       0.00000000    
  -15.9300003       0.00000000    
  -15.9200001       0.00000000    
  -15.9099998       0.00000000    
  -15.8999996       0.00000000    
  -15.8900003       0.00000000    
  -15.8800001       0.00000000    
  -15.8699999       0.00000000    
  -15.8599997       0.00000000    
  -15.8500004       0.00000000    
  -15.8400002       0.00000000    
  -15.8299999       0.00000000    
  -15.8199997       0.00000000    
  -15.8100004       0.00000000    
  -15.8000002       0.00000000    
  -15.7900000       0.00000000    
  -15.7799997       0.00000000    
  -15.7700005       0.00000000    
  -15.7600002       0.00000000    
  -15.7500000       0.00000000    
  -15.7399998       0.00000000    
  -15.7299995       0.00000000    
  -15.7200003       0.00000000    
  -15.7100000       0.00000000    
  -15.6999998       0.00000000    
  -15.6899996       0.00000000    
  -15.6800003       0.00000000    
  -15.6700001       0.00000000    
  -15.6599998       0.00000000    
  -15.6499996       0.00000000    
  -15.6400003       0.00000000    
  -15.6300001       0.00000000    
  -15.6199999       0.00000000    
  -15.6099997       0.00000000    
  -15.6000004       0.00000000    
  -15.5900002       0.00000000    
  -15.5799999       0.00000000    
  -15.5699997       0.00000000    
  -15.5600004       0.00000000    
  -15.5500002       0.00000000    
  -15.5400000       0.00000000    
  -15.5299997       0.00000000    
  -15.5200005       0.00000000    
  -15.5100002       0.00000000    
  -15.5000000       0.00000000    
  -15.4899998       0.00000000    
  -15.4799995       0.00000000    
  -15.4700003       0.00000000    
  -15.4600000       0.00000000    
  -15.4499998       0.00000000    
  -15.4399996       0.00000000    
  -15.4300003       0.00000000    
  -15.4200001       0.00000000    
  -15.4099998       0.00000000    
  -15.3999996       0.00000000    
  -15.3900003       0.00000000    
  -15.3800001       0.00000000    
  -15.3699999       0.00000000    
  -15.3599997       0.00000000    
  -15.3500004       0.00000000    
  -15.3400002       0.00000000    
  -15.3299999       0.00000000    
  -15.3199997       0.00000000    
  -15.3100004       0.00000000    
  -15.3000002       0.00000000    
  -15.2900000       0.00000000    
  -15.2799997       0.00000000    
  -15.2700005       0.00000000    
  -15.2600002       0.00000000    
  -15.2500000       0.00000000    
  -15.2399998       0.00000000    
  -15.2299995       0.00000000    
  -15.2200003       0.00000000    
  -15.2100000       0.00000000    
  -15.1999998       0.00000000    
  -15.1899996       0.00000000    
  -15.1800003       0.00000000    
  -15.1700001       0.00000000    
  -15.1599998       0.00000000    
  -15.1499996       0.00000000    
  -15.1400003       0.00000000    
  -15.1300001       0.00000000    
  -15.1199999       0.00000000    
  -15.1099997       0.00000000    
  -15.1000004       0.00000000    
  -15.0900002       0.00000000    
  -15.0799999       0.00000000    
  -15.0699997       0.00000000    
  -15.0600004       0.00000000    
  -15.0500002       0.00000000    
  -15.0400000       0.00000000    
  -15.0299997       0.00000000    
  -15.0200005       0.00000000    
  -15.0100002       0.00000000    
  -15.0000000       0.00000000    
  -14.9899998       0.00000000    
  -14.9799995       0.00000000    
  -14.9700003       0.00000000    
  -14.9600000       0.00000000    
  -14.9499998       0.00000000    
  -14.9399996       0.00000000    
  -14.9300003       0.00000000    
  -14.9200001       0.00000000    
  -14.9099998       0.00000000    
  -14.8999996       0.00000000    
  -14.8900003       0.00000000    
  -14.8800001       0.00000000    
  -14.8699999       0.00000000    
  -14.8599997       0.00000000    
  -14.8500004       0.00000000    
  -14.8400002       0.00000000    
  -14.8299999       0.00000000    
  -14.8199997       0.00000000    
  -14.8100004       0.00000000    
  -14.8000002       0.00000000    
  -14.7900000       0.00000000    
  -14.7799997       0.00000000    
  -14.7700005       0.00000000    
  -14.7600002       0.00000000    
  -14.7500000       0.00000000    
  -14.7399998       0.00000000    
  -14.7299995       0.00000000    
  -14.7200003       0.00000000    
  -14.7100000       0.00000000    
  -14.6999998       0.00000000    
  -14.6899996       0.00000000    
  -14.6800003       0.00000000    
  -14.6700001       0.00000000    
  -14.6599998       0.00000000    
  -14.6499996       0.00000000    
  -14.6400003       0.00000000    
  -14.6300001       0.00000000    
  -14.6199999       0.00000000    
  -14.6099997       0.00000000    
  -14.6000004       0.00000000    
  -14.5900002       0.00000000    
  -14.5799999       0.00000000    
  -14.5699997       0.00000000    
  -14.5600004       0.00000000    
  -14.5500002       0.00000000    
  -14.5400000       0.00000000    
  -14.5299997       0.00000000    
  -14.5200005       0.00000000    
  -14.5100002       0.00000000    
  -14.5000000       0.00000000    
  -14.4899998       0.00000000    
  -14.4799995       0.00000000    
  -14.4700003       0.00000000    
  -14.4600000       0.00000000    
  -14.4499998       0.00000000    
  -14.4399996       0.00000000    
  -14.4300003       0.00000000    
  -14.4200001       0.00000000    
  -14.4099998       0.00000000    
  -14.3999996       0.00000000    
  -14.3900003       0.00000000    
  -14.3800001       0.00000000    
  -14.3699999       0.00000000    
  -14.3599997       0.00000000    
  -14.3500004       0.00000000    
  -14.3400002       0.00000000    
  -14.3299999       0.00000000    
  -14.3199997       0.00000000    
  -14.3100004       0.00000000    
  -14.3000002       0.00000000    
  -14.2900000       0.00000000    
  -14.2799997       0.00000000    
  -14.2700005       0.00000000    
  -14.2600002       0.00000000    
  -14.2500000       0.00000000    
  -14.2399998       0.00000000    
  -14.2299995       0.00000000    
  -14.2200003       0.00000000    
  -14.2100000       0.00000000    
  -14.1999998       0.00000000    
  -14.1899996       0.00000000    
  -14.1800003       0.00000000    
  -14.1700001       0.00000000    
  -14.1599998       0.00000000    
  -14.1499996       0.00000000    
  -14.1400003       0.00000000    
  -14.1300001       0.00000000    
  -14.1199999       0.00000000    
  -14.1099997       0.00000000    
  -14.1000004       0.00000000    
  -14.0900002       0.00000000    
  -14.0799999       0.00000000    
  -14.0699997       0.00000000    
  -14.0600004       0.00000000    
  -14.0500002       0.00000000    
  -14.0400000       0.00000000    
  -14.0299997       0.00000000    
  -14.0200005       0.00000000    
  -14.0100002       0.00000000    
  -14.0000000       0.00000000    
  -13.9899998       0.00000000    
  -13.9799995       0.00000000    
  -13.9700003       0.00000000    
  -13.9600000       0.00000000    
  -13.9499998       0.00000000    
  -13.9399996       0.00000000    
  -13.9300003       0.00000000    
  -13.9200001       0.00000000    
  -13.9099998       0.00000000    
  -13.8999996       0.00000000    
  -13.8900003       0.00000000    
  -13.8800001       0.00000000    
  -13.8699999       0.00000000    
  -13.8599997       0.00000000    
  -13.8500004       0.00000000    
  -13.8400002       0.00000000    
  -13.8299999       0.00000000    
  -13.8199997       0.00000000    
  -13.8100004       0.00000000    
  -13.8000002       0.00000000    
  -13.7900000       0.00000000    
  -13.7799997       0.00000000    
  -13.7700005       0.00000000    
  -13.7600002       0.00000000    
  -13.7500000       0.00000000    
  -13.7399998       0.00000000    
  -13.7299995       0.00000000    
  -13.7200003       0.00000000    
  -13.7100000       0.00000000    
  -13.6999998       0.00000000    
  -13.6899996       0.00000000    
  -13.6800003       0.00000000    
  -13.6700001       0.00000000    
  -13.6599998       0.00000000    
  -13.6499996       0.00000000    
  -13.6400003       0.00000000    
  -13.6300001       0.00000000    
  -13.6199999      -0.00000000    
  -13.6099997      -0.00000000    
  -13.6000004      -0.00000000    
  -13.5900002      -0.00000000    
  -13.5799999      -0.00000000    
  -13.5699997       0.00000000    
  -13.5600004       1.40129846E-45
  -13.5500002       1.40129846E-45
  -13.5400000       2.80259693E-45
  -13.5299997       1.40129846E-45
  -13.5200005       1.40129846E-45
  -13.5100002       1.40129846E-45
  -13.5000000       4.20389539E-45
  -13.4899998       8.40779079E-45
  -13.4799995       1.12103877E-44
  -13.4700003       9.80908925E-45
  -13.4600000       1.12103877E-44
  -13.4499998       1.12103877E-44
  -13.4399996       1.26116862E-44
  -13.4300003       8.40779079E-45
  -13.4200001       1.40129846E-44
  -13.4099998       2.24207754E-44
  -13.3999996       2.94272678E-44
  -13.3900003       3.50324616E-44
  -13.3800001       4.34402524E-44
  -13.3699999       5.74532370E-44
  -13.3599997       7.00649232E-44
  -13.3500004       8.68805048E-44
  -13.3400002       1.07899982E-43
  -13.3299999       1.31722056E-43
  -13.3199997       1.59748025E-43
  -13.3100004       1.94780487E-43
  -13.3000002       2.42424634E-43
  -13.2900000       2.95673976E-43
  -13.2799997       3.61535004E-43
  -13.2700005       4.42810315E-43
  -13.2600002       5.46506401E-43
  -13.2500000       6.69820666E-43
  -13.2399998       8.23963497E-43
  -13.2299995       1.01033619E-42
  -13.2200003       1.23594525E-42
  -13.2100000       1.50499455E-42
  -13.1999998       1.83009579E-42
  -13.1899996       2.22245936E-42
  -13.1800003       2.69469695E-42
  -13.1700001       3.26082153E-42
  -13.1599998       3.94045128E-42
  -13.1499996       4.75180309E-42
  -13.1400003       5.72010033E-42
  -13.1300001       6.88037546E-42
  -13.1199999       8.25364795E-42
  -13.1099997       9.87495028E-42
  -13.1000004       1.17919266E-41
  -13.0900002       1.40606288E-41
  -13.0799999       1.67455166E-41
  -13.0699997       1.99012408E-41
  -13.0600004       2.36062739E-41
  -13.0500002       2.79573057E-41
  -13.0400000       3.30538282E-41
  -13.0299997       3.90037415E-41
  -13.0200005       4.59387676E-41
  -13.0100002       5.40340688E-41
  -13.0000000       6.34606036E-41
  -12.9899998       7.44075472E-41
  -12.9799995       8.71033112E-41
  -12.9700003       1.01809939E-40
  -12.9600000       1.18817498E-40
  -12.9499998       1.38467906E-40
  -12.9399996       1.61129705E-40
  -12.9300003       1.87221883E-40
  -12.9200001       2.17227887E-40
  -12.9099998       2.51687217E-40
  -12.8999996       2.91206636E-40
  -12.8900003       3.36465774E-40
  -12.8800001       3.88240950E-40
  -12.8699999       4.47389758E-40
  -12.8599997       5.14870687E-40
  -12.8500004       5.91766940E-40
  -12.8400002       6.79294845E-40
  -12.8299999       7.78791240E-40
  -12.8199997       8.91747106E-40
  -12.8100004       1.01983980E-39
  -12.8000002       1.16492183E-39
  -12.7900000       1.32904611E-39
  -12.7799997       1.51450656E-39
  -12.7700005       1.72384374E-39
  -12.7600002       1.95984482E-39
  -12.7500000       2.22561649E-39
  -12.7399998       2.52458912E-39
  -12.7299995       2.86054903E-39
  -12.7200003       3.23764966E-39
  -12.7100000       3.66048166E-39
  -12.6999998       4.13409251E-39
  -12.6899996       4.66402856E-39
  -12.6800003       5.25637143E-39
  -12.6700001       5.91778711E-39
  -12.6599998       6.65559037E-39
  -12.6499996       7.47778123E-39
  -12.6400003       8.39309117E-39
  -12.6300001       9.41105463E-39
  -12.6199999       1.05420987E-38
  -12.6099997       1.17975612E-38
  -12.6000004       1.31897877E-38
  -12.5900002       1.47322361E-38
  -12.5799999       1.64394927E-38
  -12.5699997       1.83274004E-38
  -12.5600004       2.04131688E-38
  -12.5500002       2.27154054E-38
  -12.5400000       2.52542906E-38
  -12.5299997       2.80516159E-38
  -12.5200005       3.11309384E-38
  -12.5100002       3.45176890E-38
  -12.5000000       3.82392771E-38
  -12.4899998       4.23252700E-38
  -12.4799995       4.68074297E-38
  -12.4700003       5.17199421E-38
  -12.4600000       5.70995549E-38
  -12.4499998       6.29856923E-38
  -12.4399996       6.94206566E-38
  -12.4300003       7.64496986E-38
  -12.4200001       8.41213145E-38
  -12.4099998       9.24873298E-38
  -12.3999996       1.01603208E-37
  -12.3900003       1.11527966E-37
  -12.3800001       1.22324668E-37
  -12.3699999       1.34060610E-37
  -12.3599997       1.46807101E-37
  -12.3500004       1.60640136E-37
  -12.3400002       1.75640700E-37
  -12.3299999       1.91894372E-37
  -12.3199997       2.09492013E-37
  -12.3100004       2.28529942E-37
  -12.3000002       2.49109971E-37
  -12.2900000       2.71339991E-37
  -12.2799997       2.95333808E-37
  -12.2700005       3.21211419E-37
  -12.2600002       3.49099410E-37
  -12.2500000       3.79131053E-37
  -12.2399998       4.11446923E-37
  -12.2299995       4.46194327E-37
  -12.2200003       4.83527923E-37
  -12.2100000       5.23610485E-37
  -12.1999998       5.66611783E-37
  -12.1899996       6.12709884E-37
  -12.1800003       6.62090879E-37
  -12.1700001       7.14949382E-37
  -12.1599998       7.71488121E-37
  -12.1499996       8.31918568E-37
  -12.1400003       8.96460626E-37
  -12.1300001       9.65342181E-37
  -12.1199999       1.03880071E-36
  -12.1099997       1.11708303E-36
  -12.1000004       1.20044320E-36
  -12.0900002       1.28914526E-36
  -12.0799999       1.38346085E-36
  -12.0699997       1.48367105E-36
  -12.0600004       1.59006382E-36
  -12.0500002       1.70293735E-36
  -12.0400000       1.82259613E-36
  -12.0299997       1.94935298E-36
  -12.0200005       2.08352786E-36
  -12.0100002       2.22544689E-36
  -12.0000000       2.37544349E-36
  -11.9899998       2.53385290E-36
  -11.9799995       2.70102203E-36
  -11.9700003       2.87729667E-36
  -11.9600000       3.06303092E-36
  -11.9499998       3.25857667E-36
  -11.9399996       3.46428926E-36
  -11.9300003       3.68052885E-36
  -11.9200001       3.90764664E-36
  -11.9099998       4.14599706E-36
  -11.8999996       4.39592916E-36
  -11.8900003       4.65779269E-36
  -11.8800001       4.93192488E-36
  -11.8699999       5.21865287E-36
  -11.8599997       5.51829954E-36
  -11.8500004       5.83117052E-36
  -11.8400002       6.15756141E-36
  -11.8299999       6.49774017E-36
  -11.8199997       6.85197121E-36
  -11.8100004       7.22048338E-36
  -11.8000002       7.60348116E-36
  -11.7900000       8.00115254E-36
  -11.7799997       8.41363669E-36
  -11.7700005       8.84104124E-36
  -11.7600002       9.28344583E-36
  -11.7500000       9.74088059E-36
  -11.7399998       1.02133104E-35
  -11.7299995       1.07006713E-35
  -11.7200003       1.12028299E-35
  -11.7100000       1.17195962E-35
  -11.6999998       1.22507017E-35
  -11.6899996       1.27958171E-35
  -11.6800003       1.33545327E-35
  -11.6700001       1.39263422E-35
  -11.6599998       1.45106599E-35
  -11.6499996       1.51067784E-35
  -11.6400003       1.57139172E-35
  -11.6300001       1.63311493E-35
  -11.6199999       1.69574344E-35
  -11.6099997       1.75916073E-35
  -11.6000004       1.82323364E-35
  -11.5900002       1.88781839E-35
  -11.5799999       1.95274924E-35
  -11.5699997       2.01784726E-35
  -11.5600004       2.08291529E-35
  -11.5500002       2.14773537E-35
  -11.5400000       2.21206699E-35
  -11.5299997       2.27564987E-35
  -11.5200005       2.33820047E-35
  -11.5100002       2.39940610E-35
  -11.5000000       2.45893530E-35
  -11.4899998       2.51642059E-35
  -11.4799995       2.57146334E-35
  -11.4700003       2.62363968E-35
  -11.4600000       2.67248899E-35
  -11.4499998       2.71751421E-35
  -11.4399996       2.75818241E-35
  -11.4300003       2.79391532E-35
  -11.4200001       2.82409361E-35
  -11.4099998       2.84805406E-35
  -11.3999996       2.86508639E-35
  -11.3900003       2.87442577E-35
  -11.3800001       2.87525344E-35
  -11.3699999       2.86669581E-35
  -11.3599997       2.84781501E-35
  -11.3500004       2.81760629E-35
  -11.3400002       2.77500782E-35
  -11.3299999       2.71887137E-35
  -11.3199997       2.64797810E-35
  -11.3100004       2.56102165E-35
  -11.3000002       2.45661531E-35
  -11.2900000       2.33327823E-35
  -11.2799997       2.18943213E-35
  -11.2700005       2.02338638E-35
  -11.2600002       1.83335334E-35
  -11.2500000       1.61742039E-35
  -11.2399998       1.37354721E-35
  -11.2299995       1.09956986E-35
  -11.2200003       7.93173925E-36
  -11.2100000       4.51911750E-36
  -11.1999998       7.31601292E-37
  -11.1899996      -3.45869160E-36
  -11.1800003      -8.08139093E-36
  -11.1700001      -1.31680981E-35
  -11.1599998      -1.87523290E-35
  -11.1499996      -2.48698186E-35
  -11.1400003      -3.15585766E-35
  -11.1300001      -3.88590681E-35
  -11.1199999      -4.68143093E-35
  -11.1099997      -5.54700861E-35
  -11.1000004      -6.48750970E-35
  -11.0900002      -7.50811430E-35
  -11.0799999      -8.61432796E-35
  -11.0699997      -9.81201550E-35
  -11.0600004      -1.11074080E-34
  -11.0500002      -1.25071371E-34
  -11.0400000      -1.40182488E-34
  -11.0299997      -1.56482416E-34
  -11.0200005      -1.74050845E-34
  -11.0100002      -1.92972482E-34
  -11.0000000      -2.13337531E-34
  -10.9899998      -2.35241789E-34
  -10.9799995      -2.58787033E-34
  -10.9700003      -2.84081375E-34
  -10.9600000      -3.11240047E-34
  -10.9499998      -3.40385213E-34
  -10.9399996      -3.71646705E-34
  -10.9300003      -4.05162505E-34
  -10.9200001      -4.41079092E-34
  -10.9099998      -4.79552334E-34
  -10.8999996      -5.20747258E-34
  -10.8900003      -5.64839683E-34
  -10.8800001      -6.12015761E-34
  -10.8699999      -6.62473259E-34
  -10.8599997      -7.16422205E-34
  -10.8500004      -7.74084887E-34
  -10.8400002      -8.35697413E-34
  -10.8299999      -9.01511138E-34
  -10.8199997      -9.71790639E-34
  -10.8100004      -1.04681730E-33
  -10.8000002      -1.12688986E-33
  -10.7900000      -1.21232424E-33
  -10.7799997      -1.30345564E-33
  -10.7700005      -1.40063752E-33
  -10.7600002      -1.50424605E-33
  -10.7500000      -1.61467759E-33
  -10.7399998      -1.73235413E-33
  -10.7299995      -1.85771858E-33
  -10.7200003      -1.99124059E-33
  -10.7100000      -2.13341774E-33
  -10.6999998      -2.28477494E-33
  -10.6899996      -2.44586763E-33
  -10.6800003      -2.61728060E-33
  -10.6700001      -2.79963100E-33
  -10.6599998      -2.99357453E-33
  -10.6499996      -3.19979554E-33
  -10.6400003      -3.41902046E-33
  -10.6300001      -3.65202144E-33
  -10.6199999      -3.89959855E-33
  -10.6099997      -4.16260145E-33
  -10.6000004      -4.44192720E-33
  -10.5900002      -4.73851801E-33
  -10.5799999      -5.05336315E-33
  -10.5699997      -5.38750587E-33
  -10.5600004      -5.74203791E-33
  -10.5500002      -6.11811455E-33
  -10.5400000      -6.51694803E-33
  -10.5299997      -6.93980788E-33
  -10.5200005      -7.38802314E-33
  -10.5100002      -7.86300147E-33
  -10.5000000      -8.36621370E-33
  -10.4899998      -8.89918651E-33
  -10.4799995      -9.46353988E-33
  -10.4700003      -1.00609570E-32
  -10.4600000      -1.06932120E-32
  -10.4499998      -1.13621484E-32
  -10.4399996      -1.20697071E-32
  -10.4300003      -1.28179151E-32
  -10.4200001      -1.36088862E-32
  -10.4099998      -1.44448243E-32
  -10.3999996      -1.53280393E-32
  -10.3900003      -1.62609484E-32
  -10.3800001      -1.72460552E-32
  -10.3699999      -1.82859710E-32
  -10.3599997      -1.93834390E-32
  -10.3500004      -2.05412789E-32
  -10.3400002      -2.17624794E-32
  -10.3299999      -2.30500997E-32
  -10.3199997      -2.44073417E-32
  -10.3100004      -2.58375245E-32
  -10.3000002      -2.73441145E-32
  -10.2900000      -2.89307057E-32
  -10.2799997      -3.06010097E-32
  -10.2700005      -3.23588909E-32
  -10.2600002      -3.42083432E-32
  -10.2500000      -3.61535395E-32
  -10.2399998      -3.81987263E-32
  -10.2299995      -4.03483705E-32
  -10.2200003      -4.26071064E-32
  -10.2100000      -4.49796242E-32
  -10.1999998      -4.74708876E-32
  -10.1899996      -5.00858924E-32
  -10.1800003      -5.28298782E-32
  -10.1700001      -5.57081878E-32
  -10.1599998      -5.87263988E-32
  -10.1499996      -6.18901949E-32
  -10.1400003      -6.52055298E-32
  -10.1300001      -6.86782810E-32
  -10.1199999      -7.23147021E-32
  -10.1099997      -7.61211820E-32
  -10.1000004      -8.01042389E-32
  -10.0900002      -8.42704906E-32
  -10.0799999      -8.86267434E-32
  -10.0699997      -9.31800501E-32
  -10.0600004      -9.79375285E-32
  -10.0500002      -1.02906384E-31
  -10.0400000      -1.08094170E-31
  -10.0299997      -1.13508450E-31
  -10.0200005      -1.19156912E-31
  -10.0100002      -1.25047467E-31
  -10.0000000      -1.31187873E-31
  -9.98999977      -1.37586230E-31
  -9.97999954      -1.44250695E-31
  -9.97000027      -1.51189709E-31
  -9.96000004      -1.58411535E-31
  -9.94999981      -1.65924625E-31
  -9.93999958      -1.73737266E-31
  -9.93000031      -1.81858239E-31
  -9.92000008      -1.90295785E-31
  -9.90999985      -1.99058684E-31
  -9.89999962      -2.08155341E-31
  -9.89000034      -2.17594560E-31
  -9.88000011      -2.27384500E-31
  -9.86999989      -2.37533460E-31
  -9.85999966      -2.48050185E-31
  -9.85000038      -2.58942856E-31
  -9.84000015      -2.70219326E-31
  -9.82999992      -2.81887448E-31
  -9.81999969      -2.93955214E-31
  -9.81000042      -3.06430030E-31
  -9.80000019      -3.19318879E-31
  -9.78999996      -3.32628767E-31
  -9.77999973      -3.46366440E-31
  -9.77000046      -3.60537824E-31
  -9.76000023      -3.75148584E-31
  -9.75000000      -3.90204292E-31
  -9.73999977      -4.05709227E-31
  -9.72999954      -4.21667644E-31
  -9.72000027      -4.38082906E-31
  -9.71000004      -4.54958679E-31
  -9.69999981      -4.72296233E-31
  -9.68999958      -4.90097355E-31
  -9.68000031      -5.08362798E-31
  -9.67000008      -5.27091526E-31
  -9.65999985      -5.46282035E-31
  -9.64999962      -5.65932539E-31
  -9.64000034      -5.86038336E-31
  -9.63000011      -6.06596180E-31
  -9.61999989      -6.27597939E-31
  -9.60999966      -6.49036605E-31
  -9.60000038      -6.70903103E-31
  -9.59000015      -6.93185586E-31
  -9.57999992      -7.15873191E-31
  -9.56999969      -7.38952048E-31
  -9.56000042      -7.62404853E-31
  -9.55000019      -7.86213598E-31
  -9.53999996      -8.10358910E-31
  -9.52999973      -8.34818314E-31
  -9.52000046      -8.59567361E-31
  -9.51000023      -8.84578307E-31
  -9.50000000      -9.09820590E-31
  -9.48999977      -9.35263084E-31
  -9.47999954      -9.60868831E-31
  -9.47000027      -9.86601625E-31
  -9.46000004      -1.01241849E-30
  -9.44999981      -1.03827532E-30
  -9.43999958      -1.06412360E-30
  -9.43000031      -1.08990980E-30
  -9.42000008      -1.11558053E-30
  -9.40999985      -1.14107400E-30
  -9.39999962      -1.16632841E-30
  -9.39000034      -1.19127654E-30
  -9.38000011      -1.21584305E-30
  -9.36999989      -1.23995188E-30
  -9.35999966      -1.26352214E-30
  -9.35000038      -1.28646516E-30
  -9.34000015      -1.30869074E-30
  -9.32999992      -1.33009866E-30
  -9.31999969      -1.35059101E-30
  -9.31000042      -1.37005381E-30
  -9.30000019      -1.38837431E-30
  -9.28999996      -1.40542913E-30
  -9.27999973      -1.42109311E-30
  -9.27000046      -1.43523055E-30
  -9.26000023      -1.44769991E-30
  -9.25000000      -1.45835497E-30
  -9.23999977      -1.46703933E-30
  -9.22999954      -1.47358947E-30
  -9.22000027      -1.47783375E-30
  -9.21000004      -1.47959681E-30
  -9.19999981      -1.47869046E-30
  -9.18999958      -1.47491552E-30
  -9.18000031      -1.46807339E-30
  -9.17000008      -1.45794778E-30
  -9.15999985      -1.44431815E-30
  -9.14999962      -1.42695243E-30
  -9.14000034      -1.40560941E-30
  -9.13000011      -1.38004212E-30
  -9.11999989      -1.34998652E-30
  -9.10999966      -1.31517298E-30
  -9.10000038      -1.27532401E-30
  -9.09000015      -1.23014337E-30
  -9.07999992      -1.17932637E-30
  -9.06999969      -1.12256372E-30
  -9.06000042      -1.05953588E-30
  -9.05000019      -9.89899309E-31
  -9.03999996      -9.13311621E-31
  -9.02999973      -8.29412545E-31
  -9.02000046      -7.37830627E-31
  -9.01000023      -6.38185522E-31
  -9.00000000      -5.30086215E-31
  -8.98999977      -4.13124574E-31
  -8.97999954      -2.86878668E-31
  -8.97000027      -1.50922707E-31
  -8.96000004      -4.81172854E-33
  -8.94999981       1.51909887E-31
  -8.93999958       3.19707427E-31
  -8.93000031       4.99061863E-31
  -8.92000008       6.90469583E-31
  -8.90999985       8.94428950E-31
  -8.89999962       1.11145887E-30
  -8.89000034       1.34208776E-30
  -8.88000011       1.58685437E-30
  -8.86999989       1.84631305E-30
  -8.85999966       2.12102872E-30
  -8.85000038       2.41157481E-30
  -8.84000015       2.71853550E-30
  -8.82999992       3.04251021E-30
  -8.81999969       3.38410981E-30
  -8.81000042       3.74394951E-30
  -8.80000019       4.12265354E-30
  -8.78999996       4.52086476E-30
  -8.77999973       4.93922564E-30
  -8.77000046       5.37838958E-30
  -8.76000023       5.83901785E-30
  -8.75000000       6.32178154E-30
  -8.73999977       6.82735244E-30
  -8.72999954       7.35641593E-30
  -8.72000027       7.90965059E-30
  -8.71000004       8.48774855E-30
  -8.69999981       9.09140271E-30
  -8.68999958       9.72130443E-30
  -8.68000031       1.03781496E-29
  -8.67000008       1.10626356E-29
  -8.65999985       1.17754554E-29
  -8.64999962       1.25173011E-29
  -8.64000034       1.32888534E-29
  -8.63000011       1.40907986E-29
  -8.61999989       1.49238115E-29
  -8.60999966       1.57885495E-29
  -8.60000038       1.66856853E-29
  -8.59000015       1.76158568E-29
  -8.57999992       1.85796839E-29
  -8.56999969       1.95777911E-29
  -8.56000042       2.06107771E-29
  -8.55000019       2.16792124E-29
  -8.53999996       2.27836655E-29
  -8.52999973       2.39246526E-29
  -8.52000046       2.51026822E-29
  -8.51000023       2.63182299E-29
  -8.50000000       2.75717575E-29
  -8.48999977       2.88636443E-29
  -8.47999954       3.01942873E-29
  -8.47000027       3.15640117E-29
  -8.46000004       3.29731183E-29
  -8.44999981       3.44218329E-29
  -8.43999958       3.59103541E-29
  -8.43000031       3.74388112E-29
  -8.42000008       3.90072946E-29
  -8.40999985       4.06158493E-29
  -8.39999962       4.22644213E-29
  -8.39000034       4.39528931E-29
  -8.38000011       4.56811053E-29
  -8.36999989       4.74488171E-29
  -8.35999966       4.92556373E-29
  -8.35000038       5.11011687E-29
  -8.34000015       5.29848726E-29
  -8.32999992       5.49062585E-29
  -8.31999969       5.68644899E-29
  -8.31000042       5.88588085E-29
  -8.30000019       6.08882692E-29
  -8.28999996       6.29519332E-29
  -8.27999973       6.50485788E-29
  -8.27000046       6.71769721E-29
  -8.26000023       6.93357289E-29
  -8.25000000       7.15232363E-29
  -8.23999977       7.37379835E-29
  -8.22999954       7.59780025E-29
  -8.22000027       7.82413614E-29
  -8.21000004       8.05259777E-29
  -8.19999981       8.28295464E-29
  -8.18999958       8.51495698E-29
  -8.18000031       8.74835140E-29
  -8.17000008       8.98284481E-29
  -8.15999985       9.21812243E-29
  -8.14999962       9.45387371E-29
  -8.14000034       9.68976522E-29
  -8.13000011       9.92542863E-29
  -8.11999989       1.01604878E-28
  -8.10999966       1.03945232E-28
  -8.10000038       1.06271117E-28
  -8.09000015       1.08578152E-28
  -8.07999992       1.10861246E-28
  -8.06999969       1.13115655E-28
  -8.06000042       1.15335892E-28
  -8.05000019       1.17516526E-28
  -8.03999996       1.19651624E-28
  -8.02999973       1.21735215E-28
  -8.02000046       1.23760884E-28
  -8.01000023       1.25721974E-28
  -8.00000000       1.27611480E-28
  -7.98999977       1.29422155E-28
  -7.98000002       1.31146272E-28
  -7.96999979       1.32775885E-28
  -7.96000004       1.34302727E-28
  -7.94999981       1.35718622E-28
  -7.94000006       1.37014231E-28
  -7.92999983       1.38180514E-28
  -7.92000008       1.39207757E-28
  -7.90999985       1.40086090E-28
  -7.90000010       1.40805147E-28
  -7.88999987       1.41354074E-28
  -7.88000011       1.41722215E-28
  -7.86999989       1.41897956E-28
  -7.86000013       1.41869513E-28
  -7.84999990       1.41624619E-28
  -7.84000015       1.41150671E-28
  -7.82999992       1.40434659E-28
  -7.82000017       1.39463256E-28
  -7.80999994       1.38223162E-28
  -7.80000019       1.36699727E-28
  -7.78999996       1.34878038E-28
  -7.78000021       1.32743626E-28
  -7.76999998       1.30281204E-28
  -7.76000023       1.27474932E-28
  -7.75000000       1.24308775E-28
  -7.73999977       1.20766027E-28
  -7.73000002       1.16829679E-28
  -7.71999979       1.12482446E-28
  -7.71000004       1.07706898E-28
  -7.69999981       1.02484691E-28
  -7.69000006       9.67976422E-29
  -7.67999983       9.06264451E-29
  -7.67000008       8.39521229E-29
  -7.65999985       7.67550731E-29
  -7.65000010       6.90158139E-29
  -7.63999987       6.07134670E-29
  -7.63000011       5.18273044E-29
  -7.61999989       4.23373027E-29
  -7.61000013       3.22217830E-29
  -7.59999990       2.14593584E-29
  -7.59000015       1.00285241E-29
  -7.57999992      -2.09279353E-30
  -7.57000017      -1.49274256E-29
  -7.55999994      -2.84975250E-29
  -7.55000019      -4.28250926E-29
  -7.53999996      -5.79336098E-29
  -7.53000021      -7.38457513E-29
  -7.51999998      -9.05848089E-29
  -7.51000023      -1.08174092E-28
  -7.50000000      -1.26636839E-28
  -7.48999977      -1.45996106E-28
  -7.48000002      -1.66275090E-28
  -7.46999979      -1.87497634E-28
  -7.46000004      -2.09686321E-28
  -7.44999981      -2.32864767E-28
  -7.44000006      -2.57056012E-28