  -16.0000000       0.00000000    
  -15.9899998       0.00000000    
  -15.9799995       0.00000000    
  -15.9700003       0.00000000    
  -15.9600000       0.00000000    
  -15.9499998       0.00000000    
  -15.9399996       0.00000000    
  -15.9300003       0.00000000    
  -15.9200001       2.12654102E-24
  -15.9099998       2.88551593E-23
  -15.8999996       1.98355351E-22
  -15.8900003       9.06958709E-22
  -15.8800001       3.02766724E-21
  -15.8699999       7.49996907E-21
  -15.8599997       1.25807458E-20
  -15.8500004       5.69822065E-21
  -15.8400002      -5.31877651E-20
  -15.8299999      -2.55633939E-19
  -15.8199997      -7.63349049E-19
  -15.8100004      -1.78860230E-18
  -15.8000002      -3.48196137E-18
  -15.7900000      -5.66748380E-18
  -15.7799997      -7.40406637E-18
  -15.7700005      -6.46071196E-18
  -15.7600002       1.02444509E-18
  -15.7500000       2.02256562E-17
  -15.7399998       5.60643299E-17
  -15.7299995       1.09965126E-16
  -15.7200003       1.75084251E-16
  -15.7100000       2.31208946E-16
  -15.6999998       2.41828145E-16
  -15.6899996       1.56894311E-16
  -15.6800003      -7.52519026E-17
  -15.6700001      -4.85223936E-16
  -15.6599998      -1.05173656E-15
  -15.6499996      -1.67085412E-15
  -15.6400003      -2.13931236E-15
  -15.6300001      -2.16870335E-15
  -15.6199999      -1.44425248E-15
  -15.6099997       2.69019808E-16
  -15.6000004       2.98819714E-15
  -15.5900002       6.37935622E-15
  -15.5799999       9.68356102E-15
  -15.5699997       1.17597912E-14
  -15.5600004       1.12853012E-14
  -15.5500002       7.11326834E-15
  -15.5400000      -1.26983812E-15
  -15.5299997      -1.33036113E-14
  -15.5200005      -2.70847492E-14
  -15.5100002      -3.94216554E-14
  -15.5000000      -4.63072709E-14
  -15.4899998      -4.37973835E-14
  -15.4799995      -2.91475252E-14
  -15.4700003      -1.93983547E-15
  -15.4600000       3.51330225E-14
  -15.4499998       7.61324394E-14
  -15.4399996       1.12563645E-13
  -15.4300003       1.34861103E-13
  -15.4200001       1.34410861E-13
  -15.4099998       1.05669698E-13
  -15.3999996       4.78716832E-14
  -15.3900003      -3.41136184E-14
  -15.3800001      -1.30003904E-13
  -15.3699999      -2.25370734E-13
  -15.3599997      -3.03663236E-13
  -15.3500004      -3.48560997E-13
  -15.3400002      -3.46236792E-13
  -15.3299999      -2.87258742E-13
  -15.3199997      -1.68072641E-13
  -15.3100004       7.82677925E-15
  -15.3000002       2.28901181E-13
  -15.2900000       4.74770397E-13
  -15.2799997       7.15921354E-13
  -15.2700005       9.14533423E-13
  -15.2600002       1.02716490E-12
  -15.2500000       1.00987209E-12
  -15.2399998       8.25812942E-13
  -15.2299995       4.54570761E-13
  -15.2200003      -9.84161347E-14
  -15.2100000      -7.94580547E-13
  -15.1999998      -1.55949852E-12
  -15.1899996      -2.28659257E-12
  -15.1800003      -2.84802650E-12
  -15.1700001      -3.11205142E-12
  -15.1599998      -2.96455091E-12
  -15.1499996      -2.33141739E-12
  -15.1400003      -1.19791709E-12
  -15.1300001       3.78445566E-13
  -15.1199999       2.26410514E-12
  -15.1099997       4.25584437E-12
  -15.1000004       6.09726332E-12
  -15.0900002       7.50404079E-12
  -15.0799999       8.19593265E-12
  -15.0699997       7.93296852E-12
  -15.0600004       6.55287543E-12
  -15.0500002       4.00619598E-12
  -15.0400000       3.84911666E-13
  -15.0299997      -4.06035925E-12
  -15.0200005      -8.91970699E-12
  -15.0100002      -1.36443426E-11
  -15.0000000      -1.75907136E-11
  -14.9899998      -2.00876486E-11
  -14.9799995      -2.05218238E-11
  -14.9700003      -1.84322141E-11
  -14.9600000      -1.36007672E-11
  -14.9499998      -6.12458174E-12
  -14.9399996       3.54433952E-12
  -14.9300003       1.46022586E-11
  -14.9200001       2.59446215E-11
  -14.9099998       3.62625589E-11
  -14.8999996       4.41757950E-11
  -14.8900003       4.83871936E-11
  -14.8800001       4.78409291E-11
  -14.8699999       4.18658129E-11
  -14.8599997       3.02873629E-11
  -14.8500004       1.34967723E-11
  -14.8400002      -7.53029583E-12
  -14.8299999      -3.12667114E-11
  -14.8199997      -5.57163829E-11
  -14.8100004      -7.85405838E-11
  -14.8000002      -9.72213976E-11
  -14.7900000      -1.09253925E-10
  -14.7799997      -1.12359094E-10
  -14.7700005      -1.04707139E-10
  -14.7600002      -8.51406792E-11
  -14.7500000      -5.33840819E-11
  -14.7399998      -1.02234098E-11
  -14.7299995       4.23594805E-11
  -14.7200003       1.01114596E-10
  -14.7100000       1.61525973E-10
  -14.6999998       2.17894716E-10
  -14.6899996       2.63501110E-10
  -14.6800003       2.90835689E-10
  -14.6700001       2.91879770E-10
  -14.6599998       2.58411237E-10
  -14.6499996       1.82309931E-10
  -14.6400003       5.58387607E-11
  -14.6300001      -1.28113284E-10
  -14.6199999      -3.75833836E-10
  -14.6099997      -6.92629565E-10
  -14.6000004      -1.08269449E-09
  -14.5900002      -1.54898927E-09
  -14.5799999      -2.09310880E-09
  -14.5699997      -2.71513123E-09
  -14.5600004      -3.41344197E-09
  -14.5500002      -4.18454027E-09
  -14.5400000      -5.02284658E-09
  -14.5299997      -5.92053873E-09
  -14.5200005      -6.86743373E-09
  -14.5100002      -7.85095189E-09
  -14.5000000      -8.85616203E-09
  -14.4899998      -9.86594539E-09
  -14.4799995      -1.08612355E-08
  -14.4700003      -1.18213679E-08
  -14.4600000      -1.27244615E-08
  -14.4499998      -1.35478455E-08
  -14.4399996      -1.42685375E-08
  -14.4300003      -1.48636801E-08
  -14.4200001      -1.53109756E-08
  -14.4099998      -1.55890945E-08
  -14.3999996      -1.56781166E-08
  -14.3900003      -1.55598645E-08
  -14.3800001      -1.52182800E-08
  -14.3699999      -1.46397623E-08
  -14.3599997      -1.38133887E-08
  -14.3500004      -1.27311841E-08
  -14.3400002      -1.13881899E-08
  -14.3299999      -9.78251347E-09
  -14.3199997      -7.91531196E-09
  -14.3100004      -5.79062087E-09
  -14.3000002      -3.41527739E-09
  -14.2900000      -7.98794697E-10
  -14.2799997       2.04673078E-09
  -14.2700005       5.10660669E-09
  -14.2600002       8.36345126E-09
  -14.2500000       1.17971046E-08
  -14.2399998       1.53844315E-08
  -14.2299995       1.90992537E-08
  -14.2200003       2.29123724E-08
  -14.2100000       2.67916942E-08
  -14.1999998       3.07025090E-08
  -14.1899996       3.46079823E-08
  -14.1800003       3.84696541E-08
  -14.1700001       4.22480575E-08
  -14.1599998       4.59033060E-08
  -14.1499996       4.93955845E-08
  -14.1400003       5.26855892E-08
  -14.1300001       5.57347981E-08
  -14.1199999       5.85057229E-08
  -14.1099997       6.09619875E-08
  -14.1000004       6.30684696E-08
  -14.0900002       6.47915712E-08
  -14.0799999       6.60990622E-08
  -14.0699997       6.69606379E-08
  -14.0600004       6.73479832E-08
  -14.0500002       6.72351348E-08
  -14.0400000       6.65988154E-08
  -14.0299997       6.54186820E-08
  -14.0200005       6.36774473E-08
  -14.0100002       6.13613480E-08
  -14.0000000       5.84600457E-08
  -13.9899998       5.49666943E-08
  -13.9799995       5.08783451E-08
  -13.9700003       4.61956056E-08
  -13.9600000       4.09232292E-08
  -13.9499998       3.50698741E-08
  -13.9399996       2.86484898E-08
  -13.9300003       2.16761560E-08
  -13.9200001       1.41744056E-08
  -13.9099998       6.16919493E-09
  -13.8999996      -2.30928121E-09
  -13.8900003      -1.12263709E-08
  -13.8800001      -2.05436095E-08
  -13.8699999      -3.02185370E-08
  -13.8599997      -4.02051406E-08
  -13.8500004      -5.04539841E-08
  -13.8400002      -6.09125550E-08
  -13.8299999      -7.15253918E-08
  -13.8199997      -8.22340027E-08
  -13.8100004      -9.29772597E-08
  -13.8000002      -1.03691150E-07
  -13.7900000      -1.14308648E-07
  -13.7799997      -1.24759879E-07
  -13.7700005      -1.34971771E-07
  -13.7600002      -1.44867982E-07
  -13.7500000      -1.54368834E-07
  -13.7399998      -1.63391064E-07
  -13.7299995      -1.71848129E-07
  -13.7200003      -1.79649987E-07
  -13.7100000      -1.86703701E-07
  -13.6999998      -1.92913248E-07
  -13.6899996      -1.98180587E-07
  -13.6800003      -2.02405772E-07
  -13.6700001      -2.05487481E-07
  -13.6599998      -2.07323978E-07
  -13.6499996      -2.07813358E-07
  -13.6400003      -2.06854480E-07
  -13.6300001      -2.04346932E-07
  -13.6199999      -2.00192446E-07
  -13.6099997      -1.94295026E-07
  -13.6000004      -1.86561024E-07
  -13.5900002      -1.76900315E-07
  -13.5799999      -1.65226410E-07
  -13.5699997      -1.51455595E-07
  -13.5600004      -1.35509509E-07
  -13.5500002      -1.17312894E-07
  -13.5400000      -9.67948139E-08
  -13.5299997      -7.38893249E-08
  -13.5200005      -4.85336500E-08
  -13.5100002      -2.06697148E-08
  -13.5000000       9.75619940E-09
  -13.4899998       4.27943299E-08
  -13.4799995       7.84901815E-08
  -13.4700003       1.16884841E-07
  -13.4600000       1.58016121E-07
  -13.4499998       2.01916777E-07
  -13.4399996       2.48616345E-07
  -13.4300003       2.98139952E-07
  -13.4200001       3.50509282E-07
  -13.4099998       4.05742981E-07
  -13.3999996       4.63856054E-07
  -13.3900003       5.24861775E-07
  -13.3800001       5.88770888E-07
  -13.3699999       6.55593567E-07
  -13.3599997       7.25338850E-07
  -13.3500004       7.98016060E-07
  -13.3400002       8.73634974E-07
  -13.3299999       9.52206960E-07
  -13.3199997       1.03374509E-06
  -13.3100004       1.11826444E-06
  -13.3000002       1.20578295E-06
  -13.2900000       1.29632076E-06
  -13.2799997       1.38990242E-06
  -13.2700005       1.48655727E-06
  -13.2600002       1.58631724E-06
  -13.2500000       1.68921986E-06
  -13.2399998       1.79530946E-06
  -13.2299995       1.90463334E-06
  -13.2200003       2.01724652E-06
  -13.2100000       2.13321141E-06
  -13.1999998       2.25259305E-06
  -13.1899996       2.37546715E-06
  -13.1800003       2.50191442E-06
  -13.1700001       2.63202151E-06
  -13.1599998       2.76588185E-06
  -13.1499996       2.90359958E-06
  -13.1400003       3.04528021E-06
  -13.1300001       3.19103924E-06
  -13.1199999       3.34099559E-06
  -13.1099997       3.49527318E-06
  -13.1000004       3.65400638E-06
  -13.0900002       3.81732980E-06
  -13.0799999       3.98537668E-06
  -13.0699997       4.15829072E-06
  -13.0600004       4.33621381E-06
  -13.0500002       4.51928372E-06
  -13.0400000       4.70765099E-06
  -13.0299997       4.90145521E-06
  -13.0200005       5.10084465E-06
  -13.0100002       5.30595526E-06
  -13.0000000       5.51693074E-06
  -12.9899998       5.73391026E-06
  -12.9799995       5.95703341E-06
  -12.9700003       6.18642343E-06
  -12.9600000       6.42221266E-06
  -12.9499998       6.66451797E-06
  -12.9399996       6.91347395E-06
  -12.9300003       7.16917748E-06
  -12.9200001       7.43174087E-06
  -12.9099998       7.70125553E-06
  -12.8999996       7.97781377E-06
  -12.8900003       8.26148425E-06
  -12.8800001       8.55234794E-06
  -12.8699999       8.85047211E-06
  -12.8599997       9.15589408E-06
  -12.8500004       9.46865748E-06
  -12.8400002       9.78880325E-06
  -12.8299999       1.01163359E-05
  -12.8199997       1.04512510E-05
  -12.8100004       1.07935684E-05
  -12.8000002       1.11432819E-05
  -12.7900000       1.15003413E-05
  -12.7799997       1.18647340E-05
  -12.7700005       1.22363899E-05
  -12.7600002       1.26152636E-05
  -12.7500000       1.30013022E-05
  -12.7399998       1.33944277E-05
  -12.7299995       1.37945653E-05
  -12.7200003       1.42015788E-05
  -12.7100000       1.46154362E-05
  -12.6999998       1.50359674E-05
  -12.6899996       1.54630670E-05
  -12.6800003       1.58966377E-05
  -12.6700001       1.63365148E-05
  -12.6599998       1.67825929E-05
  -12.6499996       1.72346699E-05
  -12.6400003       1.76926442E-05
  -12.6300001       1.81563082E-05
  -12.6199999       1.86254983E-05
  -12.6099997       1.91001072E-05
  -12.6000004       1.95799039E-05
  -12.5900002       2.00647319E-05
  -12.5799999       2.05544275E-05
  -12.5699997       2.10487906E-05
  -12.5600004       2.15476593E-05
  -12.5500002       2.20508446E-05
  -12.5400000       2.25581516E-05
  -12.5299997       2.30694659E-05
  -12.5200005       2.35845491E-05
  -12.5100002       2.41032139E-05
  -12.5000000       2.46252966E-05
  -12.4899998       2.51506772E-05
  -12.4799995       2.56791172E-05
  -12.4700003       2.62105277E-05
  -12.4600000       2.67446558E-05
  -12.4499998       2.72813995E-05
  -12.4399996       2.78205553E-05
  -12.4300003       2.83620175E-05
  -12.4200001       2.89056297E-05
  -12.4099998       2.94512083E-05
  -12.3999996       2.99986714E-05
  -12.3900003       3.05478134E-05
  -12.3800001       3.10985124E-05
  -12.3699999       3.16506339E-05
  -12.3599997       3.22040687E-05
  -12.3500004       3.27586786E-05
  -12.3400002       3.33142598E-05
  -12.3299999       3.38708232E-05
  -12.3199997       3.44281252E-05
  -12.3100004       3.49861402E-05
  -12.3000002       3.55447301E-05
  -12.2900000       3.61037892E-05
  -12.2799997       3.66631866E-05
  -12.2700005       3.72228060E-05
  -12.2600002       3.77825745E-05
  -12.2500000       3.83424340E-05
  -12.2399998       3.89022607E-05
  -12.2299995       3.94619456E-05
  -12.2200003       4.00214813E-05
  -12.2100000       4.05807368E-05
  -12.1999998       4.11396904E-05
  -12.1899996       4.16982075E-05
  -12.1800003       4.22562807E-05
  -12.1700001       4.28139356E-05
  -12.1599998       4.33710666E-05
  -12.1499996       4.39275464E-05
  -12.1400003       4.44835423E-05
  -12.1300001       4.50389525E-05
  -12.1199999       4.55936606E-05
  -12.1099997       4.61478157E-05
  -12.1000004       4.67012724E-05
  -12.0900002       4.72542597E-05
  -12.0799999       4.78066031E-05
  -12.0699997       4.83584554E-05
  -12.0600004       4.89097292E-05
  -12.0500002       4.94606757E-05
  -12.0400000       5.00112255E-05
  -12.0299997       5.05614371E-05
  -12.0200005       5.11114013E-05
  -12.0100002       5.16611872E-05
  -12.0000000       5.22110167E-05
  -11.9899998       5.27608645E-05
  -11.9799995       5.33107886E-05
  -11.9700003       5.38612330E-05
  -11.9600000       5.44120048E-05
  -11.9499998       5.49632568E-05
  -11.9399996       5.55153383E-05
  -11.9300003       5.60683657E-05
  -11.9200001       5.66222407E-05
  -11.9099998       5.71775308E-05
  -11.8999996       5.77342325E-05
  -11.8900003       5.82925750E-05
  -11.8800001       5.88527473E-05
  -11.8699999       5.94150952E-05
  -11.8599997       5.99798768E-05
  -11.8500004       6.05470013E-05
  -11.8400002       6.11171490E-05
  -11.8299999       6.16902689E-05
  -11.8199997       6.22668595E-05
  -11.8100004       6.28470007E-05
  -11.8000002       6.34311218E-05
  -11.7900000       6.40194194E-05
  -11.7799997       6.46123299E-05
  -11.7700005       6.52099334E-05
  -11.7600002       6.58127101E-05
  -11.7500000       6.64208928E-05
  -11.7399998       6.70349182E-05
  -11.7299995       6.76549535E-05
  -11.7200003       6.82812970E-05
  -11.7100000       6.89145090E-05
  -11.6999998       6.95545459E-05
  -11.6899996       7.02020334E-05
  -11.6800003       7.08570660E-05
  -11.6700001       7.15200804E-05
  -11.6599998       7.21913966E-05
  -11.6499996       7.28712257E-05
  -11.6400003       7.35600333E-05
  -11.6300001       7.42581105E-05
  -11.6199999       7.49657047E-05
  -11.6099997       7.56831287E-05
  -11.6000004       7.64107244E-05
  -11.5900002       7.71487175E-05
  -11.5799999       7.78974281E-05
  -11.5699997       7.86573000E-05
  -11.5600004       7.94284497E-05
  -11.5500002       8.02110662E-05
  -11.5400000       8.10056808E-05
  -11.5299997       8.18122135E-05
  -11.5200005       8.26312826E-05
  -11.5100002       8.34630773E-05
  -11.5000000       8.43077651E-05
  -11.4899998       8.51657169E-05
  -11.4799995       8.60369619E-05
  -11.4700003       8.69220676E-05
  -11.4600000       8.78210194E-05
  -11.4499998       8.87340648E-05
  -11.4399996       8.96613492E-05
  -11.4300003       9.06035712E-05
  -11.4200001       9.15604978E-05
  -11.4099998       9.25325512E-05
  -11.3999996       9.35198914E-05
  -11.3900003       9.45227730E-05
  -11.3800001       9.55412470E-05
  -11.3699999       9.65759609E-05
  -11.3599997       9.76268857E-05
  -11.3500004       9.86939631E-05
  -11.3400002       9.97778188E-05
  -11.3299999       1.00878526E-04
  -11.3199997       1.01996491E-04
  -11.3100004       1.03131257E-04
  -11.3000002       1.04283718E-04
  -11.2900000       1.05453932E-04
  -11.2799997       1.06642168E-04
  -11.2700005       1.07848384E-04
  -11.2600002       1.09073022E-04
  -11.2500000       1.10316374E-04
  -11.2399998       1.11578258E-04
  -11.2299995       1.12859329E-04
  -11.2200003       1.14159513E-04
  -11.2100000       1.15479095E-04
  -11.1999998       1.16818323E-04
  -11.1899996       1.18177515E-04
  -11.1800003       1.19556920E-04
  -11.1700001       1.20956676E-04
  -11.1599998       1.22376747E-04
  -11.1499996       1.23817546E-04
  -11.1400003       1.25279461E-04
  -11.1300001       1.26762447E-04
  -11.1199999       1.28267129E-04
  -11.1099997       1.29793421E-04
  -11.1000004       1.31341745E-04
  -11.0900002       1.32912159E-04
  -11.0799999       1.34505040E-04
  -11.0699997       1.36120609E-04
  -11.0600004       1.37759009E-04
  -11.0500002       1.39420401E-04
  -11.0400000       1.41105484E-04
  -11.0299997       1.42813995E-04
  -11.0200005       1.44546095E-04
  -11.0100002       1.46302569E-04
  -11.0000000       1.48083476E-04
  -10.9899998       1.49888816E-04
  -10.9799995       1.51719258E-04
  -10.9700003       1.53574816E-04
  -10.9600000       1.55455433E-04
  -10.9499998       1.57361690E-04
  -10.9399996       1.59293952E-04
  -10.9300003       1.61252145E-04
  -10.9200001       1.63236895E-04
  -10.9099998       1.65248130E-04
  -10.8999996       1.67286169E-04
  -10.8900003       1.69351333E-04
  -10.8800001       1.71444146E-04
  -10.8699999       1.73564331E-04
  -10.8599997       1.75711975E-04
  -10.8500004       1.77888054E-04
  -10.8400002       1.80092116E-04
  -10.8299999       1.82325108E-04
  -10.8199997       1.84586665E-04
  -10.8100004       1.86877078E-04
  -10.8000002       1.89197322E-04
  -10.7900000       1.91546467E-04
  -10.7799997       1.93925924E-04
  -10.7700005       1.96334848E-04
  -10.7600002       1.98774724E-04
  -10.7500000       2.01245028E-04
  -10.7399998       2.03746167E-04
  -10.7299995       2.06278448E-04
  -10.7200003       2.08842030E-04
  -10.7100000       2.11437044E-04
  -10.6999998       2.14064363E-04
  -10.6899996       2.16724220E-04
  -10.6800003       2.19415917E-04
  -10.6700001       2.22140428E-04
  -10.6599998       2.24898467E-04
  -10.6499996       2.27689263E-04
  -10.6400003       2.30513819E-04
  -10.6300001       2.33372368E-04
  -10.6199999       2.36265318E-04
  -10.6099997       2.39192857E-04
  -10.6000004       2.42154856E-04
  -10.5900002       2.45152391E-04
  -10.5799999       2.48184864E-04
  -10.5699997       2.51253572E-04
  -10.5600004       2.54358136E-04
  -10.5500002       2.57498992E-04
  -10.5400000       2.60676985E-04
  -10.5299997       2.63891008E-04
  -10.5200005       2.67143158E-04
  -10.5100002       2.70433229E-04
  -10.5000000       2.73760612E-04
  -10.4899998       2.77126441E-04
  -10.4799995       2.80531327E-04
  -10.4700003       2.83974485E-04
  -10.4600000       2.87457427E-04
  -10.4499998       2.90980068E-04
  -10.4399996       2.94542115E-04
  -10.4300003       2.98144500E-04
  -10.4200001       3.01786786E-04
  -10.4099998       3.05471011E-04
  -10.3999996       3.09196010E-04
  -10.3900003       3.12963646E-04
  -10.3800001       3.16772057E-04
  -10.3699999       3.20622261E-04
  -10.3599997       3.24516383E-04
  -10.3500004       3.28452821E-04
  -10.3400002       3.32433410E-04
  -10.3299999       3.36456636E-04
  -10.3199997       3.40524974E-04
  -10.3100004       3.44636879E-04
  -10.3000002       3.48793488E-04
  -10.2900000       3.52995208E-04
  -10.2799997       3.57242563E-04
  -10.2700005       3.61535116E-04
  -10.2600002       3.65874730E-04
  -10.2500000       3.70260939E-04
  -10.2399998       3.74693976E-04
  -10.2299995       3.79174191E-04
  -10.2200003       3.83703155E-04
  -10.2100000       3.88278684E-04
  -10.1999998       3.92903486E-04
  -10.1899996       3.97577096E-04
  -10.1800003       4.02300502E-04
  -10.1700001       4.07073589E-04
  -10.1599998       4.11897490E-04
  -10.1499996       4.16770403E-04
  -10.1400003       4.21696197E-04
  -10.1300001       4.26671526E-04
  -10.1199999       4.31699766E-04
  -10.1099997       4.36780741E-04
  -10.1000004       4.41913493E-04
  -10.0900002       4.47100261E-04
  -10.0799999       4.52340289E-04
  -10.0699997       4.57635586E-04
  -10.0600004       4.62983968E-04
  -10.0500002       4.68388462E-04
  -10.0400000       4.73849534E-04
  -10.0299997       4.79365117E-04
  -10.0200005       4.84938209E-04
  -10.0100002       4.90569160E-04
  -10.0000000       4.96258319E-04
  -9.98999977       5.02004114E-04
  -9.97999954       5.07810095E-04
  -9.97000027       5.13675332E-04
  -9.96000004       5.19600406E-04
  -9.94999981       5.25585609E-04
  -9.93999958       5.31631755E-04
  -9.93000031       5.37740940E-04
  -9.92000008       5.43912640E-04
  -9.90999985       5.50147437E-04
  -9.89999962       5.56444982E-04
  -9.89000034       5.62808069E-04
  -9.88000011       5.69235883E-04
  -9.86999989       5.75730170E-04
  -9.85999966       5.82289591E-04
  -9.85000038       5.88916067E-04
  -9.84000015       5.95611054E-04
  -9.82999992       6.02374203E-04
  -9.81999969       6.09206851E-04
  -9.81000042       6.16109464E-04
  -9.80000019       6.23080996E-04
  -9.78999996       6.30124880E-04
  -9.77999973       6.37242279E-04
  -9.77000046       6.44433196E-04
  -9.76000023       6.51695940E-04
  -9.75000000       6.59033831E-04
  -9.73999977       6.66448090E-04
  -9.72999954       6.73937669E-04
  -9.72000027       6.81502919E-04
  -9.71000004       6.89146924E-04
  -9.69999981       6.96868286E-04
  -9.68999958       7.04668637E-04
  -9.68000031       7.12550129E-04
  -9.67000008       7.20512297E-04
  -9.65999985       7.28556130E-04
  -9.64999962       7.36682734E-04
  -9.64000034       7.44891760E-04
  -9.63000011       7.53184315E-04
  -9.61999989       7.61563017E-04
  -9.60999966       7.70026643E-04
  -9.60000038       7.78578396E-04
  -9.59000015       7.87215482E-04
  -9.57999992       7.95942557E-04
  -9.56999969       8.04758456E-04
  -9.56000042       8.13663064E-04
  -9.55000019       8.22662667E-04
  -9.53999996       8.31751036E-04
  -9.52999973       8.40933586E-04
  -9.52000046       8.50208860E-04
  -9.51000023       8.59578198E-04
  -9.50000000       8.69042997E-04
  -9.48999977       8.78605351E-04
  -9.47999954       8.88262992E-04
  -9.47000027       8.98020284E-04
  -9.46000004       9.07877460E-04
  -9.44999981       9.17834288E-04
  -9.43999958       9.27892746E-04
  -9.43000031       9.38053534E-04
  -9.42000008       9.48316709E-04
  -9.40999985       9.58682213E-04
  -9.39999962       9.69154295E-04
  -9.39000034       9.79733886E-04
  -9.38000011       9.90418252E-04
  -9.36999989       1.00121007E-03
  -9.35999966       1.01211097E-03
  -9.35000038       1.02312129E-03
  -9.34000015       1.03424175E-03
  -9.32999992       1.04547595E-03
  -9.31999969       1.05681957E-03
  -9.31000042       1.06827926E-03
  -9.30000019       1.07985432E-03
  -9.28999996       1.09154440E-03
  -9.27999973       1.10335206E-03
  -9.27000046       1.11527543E-03
  -9.26000023       1.12732069E-03
  -9.25000000       1.13948470E-03
  -9.23999977       1.15176872E-03
  -9.22999954       1.16417743E-03
  -9.22000027       1.17670849E-03
  -9.21000004       1.18936342E-03
  -9.19999981       1.20214431E-03
  -9.18999958       1.21505233E-03
  -9.18000031       1.22808851E-03
  -9.17000008       1.24125276E-03
  -9.15999985       1.25454844E-03
  -9.14999962       1.26797543E-03
  -9.14000034       1.28153223E-03
  -9.13000011       1.29522383E-03
  -9.11999989       1.30904978E-03
  -9.10999966       1.32300856E-03
  -9.10000038       1.33710692E-03
  -9.09000015       1.35134370E-03
  -9.07999992       1.36571960E-03
  -9.06999969       1.38023705E-03
  -9.06000042       1.39489502E-03
  -9.05000019       1.40969479E-03
  -9.03999996       1.42463809E-03
  -9.02999973       1.43973052E-03
  -9.02000046       1.45496521E-03
  -9.01000023       1.47035019E-03
  -9.00000000       1.48588256E-03
  -8.98999977       1.50156813E-03
  -8.97999954       1.51740329E-03
  -8.97000027       1.53339503E-03
  -8.96000004       1.54953636E-03
  -8.94999981       1.56583579E-03
  -8.93999958       1.58229435E-03
  -8.93000031       1.59890880E-03
  -8.92000008       1.61568145E-03
  -8.90999985       1.63262035E-03
  -8.89999962       1.64971768E-03
  -8.89000034       1.66698138E-03
  -8.88000011       1.68441155E-03
  -8.86999989       1.70200225E-03
  -8.85999966       1.71976711E-03
  -8.85000038       1.73770334E-03
  -8.84000015       1.75580883E-03
  -8.82999992       1.77408813E-03
  -8.81999969       1.79254147E-03
  -8.81000042       1.81116990E-03
  -8.80000019       1.82997482E-03
  -8.78999996       1.84895785E-03
  -8.77999973       1.86812552E-03
  -8.77000046       1.88747374E-03
  -8.76000023       1.90701033E-03
  -8.75000000       1.92672643E-03
  -8.73999977       1.94662903E-03
  -8.72999954       1.96672790E-03
  -8.72000027       1.98701350E-03
  -8.71000004       2.00749259E-03
  -8.69999981       2.02816701E-03
  -8.68999958       2.04903889E-03
  -8.68000031       2.07010354E-03
  -8.67000008       2.09136913E-03
  -8.65999985       2.11283425E-03
  -8.64999962       2.13450729E-03
  -8.64000034       2.15638243E-03
  -8.63000011       2.17846339E-03
  -8.61999989       2.20075971E-03
  -8.60999966       2.22326093E-03
  -8.60000038       2.24597822E-03
  -8.59000015       2.26890668E-03
  -8.57999992       2.29205051E-03
  -8.56999969       2.31541344E-03
  -8.56000042       2.33899732E-03
  -8.55000019       2.36280775E-03
  -8.53999996       2.38683890E-03
  -8.52999973       2.41109356E-03
  -8.52000046       2.43557780E-03
  -8.51000023       2.46029045E-03
  -8.50000000       2.48524197E-03
  -8.48999977       2.51042400E-03
  -8.47999954       2.53584585E-03
  -8.47000027       2.56150798E-03
  -8.46000004       2.58740992E-03
  -8.44999981       2.61355168E-03
  -8.43999958       2.63993884E-03
  -8.43000031       2.66657560E-03
  -8.42000008       2.69346219E-03
  -8.40999985       2.72060698E-03
  -8.39999962       2.74799764E-03
  -8.39000034       2.77564535E-03
  -8.38000011       2.80355406E-03
  -8.36999989       2.83172913E-03
  -8.35999966       2.86015798E-03
  -8.35000038       2.88886158E-03
  -8.34000015       2.91782408E-03
  -8.32999992       2.94705806E-03
  -8.31999969       2.97656935E-03
  -8.31000042       3.00635491E-03
  -8.30000019       3.03642009E-03
  -8.28999996       3.06675700E-03
  -8.27999973       3.09738563E-03
  -8.27000046       3.12829670E-03
  -8.26000023       3.15949554E-03
  -8.25000000       3.19097517E-03
  -8.23999977       3.22275888E-03
  -8.22999954       3.25482665E-03
  -8.22000027       3.28720198E-03
  -8.21000004       3.31987115E-03
  -8.19999981       3.35284020E-03
  -8.18999958       3.38612264E-03
  -8.18000031       3.41971335E-03
  -8.17000008       3.45360651E-03
  -8.15999985       3.48781212E-03
  -8.14999962       3.52234347E-03
  -8.14000034       3.55718005E-03
  -8.13000011       3.59234703E-03
  -8.11999989       3.62782553E-03
  -8.10999966       3.66364210E-03
  -8.10000038       3.69978813E-03
  -8.09000015       3.73625755E-03
  -8.07999992       3.77306691E-03
  -8.06999969       3.81020969E-03
  -8.06000042       3.84768937E-03
  -8.05000019       3.88551666E-03
  -8.03999996       3.92368063E-03
  -8.02999973       3.96219734E-03
  -8.02000046       4.00107307E-03
  -8.01000023       4.04030457E-03
  -8.00000000       4.07988764E-03
  -7.98999977       4.11983859E-03
  -7.98000002       4.16014483E-03
  -7.96999979       4.20081010E-03
  -7.96000004       4.24184510E-03
  -7.94999981       4.28325403E-03
  -7.94000006       4.32504248E-03
  -7.92999983       4.36721416E-03
  -7.92000008       4.40976769E-03
  -7.90999985       4.45269281E-03
  -7.90000010       4.49600816E-03
  -7.88999987       4.53970768E-03
  -7.88000011       4.58381185E-03
  -7.86999989       4.62830998E-03
  -7.86000013       4.67319880E-03
  -7.84999990       4.71849553E-03
  -7.84000015       4.76419879E-03
  -7.82999992       4.81030578E-03
  -7.82000017       4.85682813E-03
  -7.80999994       4.90376819E-03
  -7.80000019       4.95112222E-03
  -7.78999996       4.99890000E-03
  -7.78000021       5.04710944E-03
  -7.76999998       5.09574031E-03
  -7.76000023       5.14478981E-03
  -7.75000000       5.19429613E-03
  -7.73999977       5.24423271E-03
  -7.73000002       5.29461401E-03
  -7.71999979       5.34543768E-03
  -7.71000004       5.39671350E-03
  -7.69999981       5.44844242E-03
  -7.69000006       5.50062163E-03
  -7.67999983       5.55325346E-03
  -7.67000008       5.60636120E-03
  -7.65999985       5.65992575E-03
  -7.65000010       5.71396016E-03
  -7.63999987       5.76846953E-03
  -7.63000011       5.82345575E-03
  -7.61999989       5.87891834E-03
  -7.61000013       5.93486661E-03
  -7.59999990       5.99130988E-03
  -7.59000015       6.04824210E-03
  -7.57999992       6.10566139E-03
  -7.57000017       6.16358500E-03
  -7.55999994       6.22200361E-03
  -7.55000019       6.28093723E-03
  -7.53999996       6.34039100E-03
  -7.53000021       6.40034117E-03
  -7.51999998       6.46081520E-03
  -7.51000023       6.52181543E-03
  -7.50000000       6.58333488E-03
  -7.48999977       6.64538750E-03
  -7.48000002       6.70798076E-03
  -7.46999979       6.77111233E-03
  -7.46000004       6.83477568E-03
  -7.44999981       6.89899456E-03
  -7.44000006       6.96375035E-03