  -16.0000000       0.00000000    
  -15.9899998       0.00000000    
  -15.9799995       0.00000000    
  -15.9700003       0.00000000    
  -15.9600000       0.00000000    
  -15.9499998       0.00000000    
  -15.9399996       0.00000000    
  -15.9300003       0.00000000    
  -15.9200001       0.00000000    
  -15.9099998       0.00000000    
  -15.8999996       0.00000000    
  -15.8900003       0.00000000    
  -15.8800001       0.00000000    
  -15.8699999       0.00000000    
  -15.8599997       0.00000000    
  -15.8500004       0.00000000    
  -15.8400002       0.00000000    
  -15.8299999       0.00000000    
  -15.8199997       0.00000000    
  -15.8100004       0.00000000    
  -15.8000002       0.00000000    
  -15.7900000       0.00000000    
  -15.7799997       0.00000000    
  -15.7700005       0.00000000    
  -15.7600002       0.00000000    
  -15.7500000       0.00000000    
  -15.7399998       0.00000000    
  -15.7299995       0.00000000    
  -15.7200003       0.00000000    
  -15.7100000       0.00000000    
  -15.6999998       0.00000000    
  -15.6899996       0.00000000    
  -15.6800003       0.00000000    
  -15.6700001       0.00000000    
  -15.6599998       0.00000000    
  -15.6499996       0.00000000    
  -15.6400003       0.00000000    
  -15.6300001       0.00000000    
  -15.6199999       0.00000000    
  -15.6099997       0.00000000    
  -15.6000004       0.00000000    
  -15.5900002       0.00000000    
  -15.5799999       0.00000000    
  -15.5699997       0.00000000    
  -15.5600004       0.00000000    
  -15.5500002       0.00000000    
  -15.5400000       0.00000000    
  -15.5299997       0.00000000    
  -15.5200005       0.00000000    
  -15.5100002       0.00000000    
  -15.5000000       0.00000000    
  -15.4899998       0.00000000    
  -15.4799995       0.00000000    
  -15.4700003       0.00000000    
  -15.4600000       0.00000000    
  -15.4499998       0.00000000    
  -15.4399996       0.00000000    
  -15.4300003       0.00000000    
  -15.4200001       0.00000000    
  -15.4099998       0.00000000    
  -15.3999996       0.00000000    
  -15.3900003       0.00000000    
  -15.3800001       0.00000000    
  -15.3699999       0.00000000    
  -15.3599997       0.00000000    
  -15.3500004       0.00000000    
  -15.3400002       0.00000000    
  -15.3299999       0.00000000    
  -15.3199997       0.00000000    
  -15.3100004       0.00000000    
  -15.3000002       0.00000000    
  -15.2900000       0.00000000    
  -15.2799997       0.00000000    
  -15.2700005       0.00000000    
  -15.2600002       0.00000000    
  -15.2500000       0.00000000    
  -15.2399998       0.00000000    
  -15.2299995       0.00000000    
  -15.2200003       0.00000000    
  -15.2100000       0.00000000    
  -15.1999998       0.00000000    
  -15.1899996       0.00000000    
  -15.1800003       0.00000000    
  -15.1700001       0.00000000    
  -15.1599998       0.00000000    
  -15.1499996       0.00000000    
  -15.1400003       0.00000000    
  -15.1300001       0.00000000    
  -15.1199999       0.00000000    
  -15.1099997       0.00000000    
  -15.1000004       0.00000000    
  -15.0900002       0.00000000    
  -15.0799999       0.00000000    
  -15.0699997       0.00000000    
  -15.0600004       0.00000000    
  -15.0500002       0.00000000    
  -15.0400000       0.00000000    
  -15.0299997       0.00000000    
  -15.0200005       0.00000000    
  -15.0100002       0.00000000    
  -15.0000000       0.00000000    
  -14.9899998       0.00000000    
  -14.9799995       0.00000000    
  -14.9700003       0.00000000    
  -14.9600000       0.00000000    
  -14.9499998       0.00000000    
  -14.9399996       0.00000000    
  -14.9300003       0.00000000    
  -14.9200001       0.00000000    
  -14.9099998       0.00000000    
  -14.8999996       0.00000000    
  -14.8900003       0.00000000    
  -14.8800001       0.00000000    
  -14.8699999       0.00000000    
  -14.8599997       0.00000000    
  -14.8500004       0.00000000    
  -14.8400002       0.00000000    
  -14.8299999       0.00000000    
  -14.8199997       0.00000000    
  -14.8100004       0.00000000    
  -14.8000002       0.00000000    
  -14.7900000       0.00000000    
  -14.7799997       0.00000000    
  -14.7700005       0.00000000    
  -14.7600002       0.00000000    
  -14.7500000       0.00000000    
  -14.7399998       0.00000000    
  -14.7299995       0.00000000    
  -14.7200003       0.00000000    
  -14.7100000       0.00000000    
  -14.6999998       0.00000000    
  -14.6899996       0.00000000    
  -14.6800003       0.00000000    
  -14.6700001       0.00000000    
  -14.6599998       0.00000000    
  -14.6499996       0.00000000    
  -14.6400003       0.00000000    
  -14.6300001       0.00000000    
  -14.6199999      -0.00000000    
  -14.6099997      -0.00000000    
  -14.6000004       0.00000000    
  -14.5900002      -0.00000000    
  -14.5799999      -0.00000000    
  -14.5699997      -0.00000000    
  -14.5600004      -0.00000000    
  -14.5500002      -0.00000000    
  -14.5400000       0.00000000    
  -14.5299997       0.00000000    
  -14.5200005       0.00000000    
  -14.5100002      -0.00000000    
  -14.5000000      -0.00000000    
  -14.4899998      -0.00000000    
  -14.4799995      -0.00000000    
  -14.4700003      -0.00000000    
  -14.4600000      -0.00000000    
  -14.4499998      -0.00000000    
  -14.4399996      -0.00000000    
  -14.4300003      -0.00000000    
  -14.4200001      -0.00000000    
  -14.4099998      -0.00000000    
  -14.3999996      -0.00000000    
  -14.3900003       0.00000000    
  -14.3800001       0.00000000    
  -14.3699999       0.00000000    
  -14.3599997       0.00000000    
  -14.3500004       0.00000000    
  -14.3400002       0.00000000    
  -14.3299999       0.00000000    
  -14.3199997       0.00000000    
  -14.3100004       0.00000000    
  -14.3000002       0.00000000    
  -14.2900000       0.00000000    
  -14.2799997      -0.00000000    
  -14.2700005      -0.00000000    
  -14.2600002      -0.00000000    
  -14.2500000       0.00000000    
  -14.2399998       0.00000000    
  -14.2299995       0.00000000    
  -14.2200003       0.00000000    
  -14.2100000       0.00000000    
  -14.1999998       0.00000000    
  -14.1899996       0.00000000    
  -14.1800003       0.00000000    
  -14.1700001       0.00000000    
  -14.1599998       0.00000000    
  -14.1499996       0.00000000    
  -14.1400003       0.00000000    
  -14.1300001       0.00000000    
  -14.1199999       0.00000000    
  -14.1099997       0.00000000    
  -14.1000004       0.00000000    
  -14.0900002      -0.00000000    
  -14.0799999      -0.00000000    
  -14.0699997      -0.00000000    
  -14.0600004      -0.00000000    
  -14.0500002      -0.00000000    
  -14.0400000      -0.00000000    
  -14.0299997      -0.00000000    
  -14.0200005      -0.00000000    
  -14.0100002      -0.00000000    
  -14.0000000      -0.00000000    
  -13.9899998       0.00000000    
  -13.9799995      -0.00000000    
  -13.9700003      -0.00000000    
  -13.9600000       0.00000000    
  -13.9499998      -0.00000000    
  -13.9399996       0.00000000    
  -13.9300003       0.00000000    
  -13.9200001      -1.40129846E-45
  -13.9099998      -1.40129846E-45
  -13.8999996      -1.40129846E-45
  -13.8900003      -1.40129846E-45
  -13.8800001      -2.80259693E-45
  -13.8699999      -1.40129846E-45
  -13.8599997      -4.20389539E-45
  -13.8500004      -7.00649232E-45
  -13.8400002      -5.60519386E-45
  -13.8299999      -4.20389539E-45
  -13.8199997      -5.60519386E-45
  -13.8100004      -7.00649232E-45
  -13.8000002      -5.60519386E-45
  -13.7900000      -7.00649232E-45
  -13.7799997      -5.60519386E-45
  -13.7700005      -4.20389539E-45
  -13.7600002      -4.20389539E-45
  -13.7500000      -8.40779079E-45
  -13.7399998      -1.26116862E-44
  -13.7299995      -2.24207754E-44
  -13.7200003      -2.80259693E-44
  -13.7100000      -3.50324616E-44
  -13.6999998      -4.76441478E-44
  -13.6899996      -6.44597294E-44
  -13.6800003      -8.40779079E-44
  -13.6700001      -1.07899982E-43
  -13.6599998      -1.35925951E-43
  -13.6499996      -1.70958413E-43
  -13.6400003      -2.14398665E-43
  -13.6300001      -2.71851902E-43
  -13.6199999      -3.40515527E-43
  -13.6099997      -4.23192136E-43
  -13.6000004      -5.25486924E-43
  -13.5900002      -6.54406383E-43
  -13.5799999      -8.11351811E-43
  -13.5699997      -1.00332970E-42
  -13.5600004      -1.23314265E-42
  -13.5500002      -1.51340234E-42
  -13.5400000      -1.85391787E-42
  -13.5299997      -2.26029442E-42
  -13.5200005      -2.75775538E-42
  -13.5100002      -3.36171502E-42
  -13.5000000      -4.08758762E-42
  -13.4899998      -4.95919527E-42
  -13.4799995      -6.00176132E-42
  -13.4700003      -7.25312085E-42
  -13.4600000      -8.74270112E-42
  -13.4499998      -1.05167450E-41
  -13.4399996      -1.26271005E-41
  -13.4300003      -1.51382273E-41
  -13.4200001      -1.81173878E-41
  -13.4099998      -2.16472587E-41
  -13.3999996      -2.58231281E-41
  -13.3900003      -3.07444883E-41
  -13.3800001      -3.65416601E-41
  -13.3699999      -4.33659836E-41
  -13.3599997      -5.13842134E-41
  -13.3500004      -6.07841235E-41
  -13.3400002      -7.17899216E-41
  -13.3299999      -8.46566441E-41
  -13.3199997      -9.96701559E-41
  -13.3100004      -1.17166768E-40
  -13.3000002      -1.37529036E-40
  -13.2900000      -1.61192764E-40
  -13.2799997      -1.88654010E-40
  -13.2700005      -2.20466287E-40
  -13.2600002      -2.57276997E-40
  -13.2500000      -2.99816214E-40
  -13.2399998      -3.48910706E-40
  -13.2299995      -4.05489533E-40
  -13.2200003      -4.70599465E-40
  -13.2100000      -5.45441414E-40
  -13.1999998      -6.31353622E-40
  -13.1899996      -7.29843884E-40
  -13.1800003      -8.42621786E-40
  -13.1700001      -9.71601501E-40
  -13.1599998      -1.11892281E-39
  -13.1499996      -1.28698334E-39
  -13.1400003      -1.47848479E-39
  -13.1300001      -1.69644135E-39
  -13.1199999      -1.94421194E-39
  -13.1099997      -2.22555343E-39
  -13.1000004      -2.54465432E-39
  -13.0900002      -2.90617811E-39
  -13.0799999      -3.31530962E-39
  -13.0699997      -3.77779696E-39
  -13.0600004      -4.30002587E-39
  -13.0500002      -4.88909251E-39
  -13.0400000      -5.55285116E-39
  -13.0299997      -6.29997725E-39
  -13.0200005      -7.14005849E-39
  -13.0100002      -8.08369287E-39
  -13.0000000      -9.14256864E-39
  -12.9899998      -1.03295483E-38
  -12.9799995      -1.16588102E-38
  -12.9700003      -1.31459452E-38
  -12.9600000      -1.48080646E-38
  -12.9499998      -1.66639653E-38
  -12.9399996      -1.87342408E-38
  -12.9300003      -2.10414619E-38
  -12.9200001      -2.36103293E-38
  -12.9099998      -2.64678319E-38
  -12.8999996      -2.96434685E-38
  -12.8900003      -3.31694241E-38
  -12.8800001      -3.70807928E-38
  -12.8699999      -4.14158021E-38
  -12.8599997      -4.62160593E-38
  -12.8500004      -5.15267759E-38
  -12.8400002      -5.73970898E-38
  -12.8299999      -6.38802924E-38
  -12.8199997      -7.10342406E-38
  -12.8100004      -7.89215723E-38
  -12.8000002      -8.76100600E-38
  -12.7900000      -9.71730308E-38
  -12.7799997      -1.07689664E-37
  -12.7700005      -1.19245511E-37
  -12.7600002      -1.31932811E-37
  -12.7500000      -1.45850933E-37
  -12.7399998      -1.61106937E-37
  -12.7299995      -1.77815896E-37
  -12.7200003      -1.96101586E-37
  -12.7100000      -2.16096859E-37
  -12.6999998      -2.37944224E-37
  -12.6899996      -2.61796610E-37
  -12.6800003      -2.87817579E-37
  -12.6700001      -3.16182394E-37
  -12.6599998      -3.47078357E-37
  -12.6499996      -3.80705484E-37
  -12.6400003      -4.17277401E-37
  -12.6300001      -4.57021903E-37
  -12.6199999      -5.00181671E-37
  -12.6099997      -5.47014859E-37
  -12.6000004      -5.97796660E-37
  -12.5900002      -6.52818633E-37
  -12.5799999      -7.12391172E-37
  -12.5699997      -7.76843099E-37
  -12.5600004      -8.46523192E-37
  -12.5500002      -9.21800497E-37
  -12.5400000      -1.00306576E-36
  -12.5299997      -1.09073198E-36
  -12.5200005      -1.18523492E-36
  -12.5100002      -1.28703502E-36
  -12.5000000      -1.39661683E-36
  -12.4899998      -1.51449163E-36
  -12.4799995      -1.64119646E-36
  -12.4700003      -1.77729684E-36
  -12.4600000      -1.92338487E-36
  -12.4499998      -2.08008385E-36
  -12.4399996      -2.24804595E-36
  -12.4300003      -2.42795420E-36
  -12.4200001      -2.62052247E-36
  -12.4099998      -2.82649765E-36
  -12.3999996      -3.04665837E-36
  -12.3900003      -3.28181787E-36
  -12.3800001      -3.53282114E-36
  -12.3699999      -3.80054744E-36
  -12.3599997      -4.08591333E-36
  -12.3500004      -4.38986729E-36
  -12.3400002      -4.71339299E-36
  -12.3299999      -5.05750992E-36
  -12.3199997      -5.42326989E-36
  -12.3100004      -5.81176346E-36
  -12.3000002      -6.22410914E-36
  -12.2900000      -6.66146565E-36
  -12.2799997      -7.12502110E-36
  -12.2700005      -7.61599375E-36
  -12.2600002      -8.13563342E-36
  -12.2500000      -8.68522223E-36
  -12.2399998      -9.26606524E-36
  -12.2299995      -9.87949838E-36
  -12.2200003      -1.05268755E-35
  -12.2100000      -1.12095741E-35
  -12.1999998      -1.19289919E-35
  -12.1899996      -1.26865400E-35
  -12.1800003      -1.34836405E-35
  -12.1700001      -1.43217255E-35
  -12.1599998      -1.52022371E-35
  -12.1499996      -1.61266044E-35
  -12.1400003      -1.70962509E-35
  -12.1300001      -1.81126073E-35
  -12.1199999      -1.91770668E-35
  -12.1099997      -2.02910012E-35
  -12.1000004      -2.14557637E-35
  -12.0900002      -2.26726529E-35
  -12.0799999      -2.39429330E-35
  -12.0699997      -2.52678021E-35
  -12.0600004      -2.66484081E-35
  -12.0500002      -2.80857972E-35
  -12.0400000      -2.95809480E-35
  -12.0299997      -3.11347328E-35
  -12.0200005      -3.27479266E-35
  -12.0100002      -3.44211550E-35
  -12.0000000      -3.61549145E-35
  -11.9899998      -3.79495437E-35
  -11.9799995      -3.98052119E-35
  -11.9700003      -4.17218962E-35
  -11.9600000      -4.36993612E-35
  -11.9499998      -4.57371564E-35
  -11.9399996      -4.78345759E-35
  -11.9300003      -4.99906236E-35
  -11.9200001      -5.22040370E-35
  -11.9099998      -5.44731946E-35
  -11.8999996      -5.67961620E-35
  -11.8900003      -5.91706146E-35
  -11.8800001      -6.15938262E-35
  -11.8699999      -6.40626284E-35
  -11.8599997      -6.65733879E-35
  -11.8500004      -6.91219492E-35
  -11.8400002      -7.17036114E-35
  -11.8299999      -7.43131228E-35
  -11.8199997      -7.69445541E-35
  -11.8100004      -7.95913679E-35
  -11.8000002      -8.22462632E-35
  -11.7900000      -8.49011471E-35
  -11.7799997      -8.75471803E-35
  -11.7700005      -9.01746053E-35
  -11.7600002      -9.27727233E-35
  -11.7500000      -9.53298310E-35
  -11.7399998      -9.78332035E-35
  -11.7299995      -1.00268910E-34
  -11.7200003      -1.02621920E-34
  -11.7100000      -1.04875792E-34
  -11.6999998      -1.07012827E-34
  -11.6899996      -1.09013819E-34
  -11.6800003      -1.10857979E-34
  -11.6700001      -1.12522934E-34
  -11.6599998      -1.13984553E-34
  -11.6499996      -1.15216756E-34
  -11.6400003      -1.16191555E-34
  -11.6300001      -1.16878852E-34
  -11.6199999      -1.17246309E-34
  -11.6099997      -1.17259120E-34
  -11.6000004      -1.16880023E-34
  -11.5900002      -1.16069093E-34
  -11.5799999      -1.14783453E-34
  -11.5699997      -1.12977267E-34
  -11.5600004      -1.10601368E-34
  -11.5500002      -1.07603226E-34
  -11.5400000      -1.03926615E-34
  -11.5299997      -9.95114513E-35
  -11.5200005      -9.42934617E-35
  -11.5100002      -8.82039935E-35
  -11.5000000      -8.11697331E-35
  -11.4899998      -7.31123622E-35
  -11.4799995      -6.39483391E-35
  -11.4700003      -5.35883940E-35
  -11.4600000      -4.19372963E-35
  -11.4499998      -2.88934474E-35
  -11.4399996      -1.43485702E-35
  -11.4300003       1.81304040E-36
  -11.4200001       1.97146345E-35
  -11.4099998       3.94875931E-35
  -11.3999996       6.12720691E-35
  -11.3900003       8.52174228E-35
  -11.3800001       1.11482828E-34
  -11.3699999       1.40237968E-34
  -11.3599997       1.71663811E-34
  -11.3500004       2.05952832E-34
  -11.3400002       2.43310502E-34
  -11.3299999       2.83955400E-34
  -11.3199997       3.28120651E-34
  -11.3100004       3.76054349E-34
  -11.3000002       4.28021095E-34
  -11.2900000       4.84302249E-34
  -11.2799997       5.45197724E-34
  -11.2700005       6.11026739E-34
  -11.2600002       6.82129132E-34
  -11.2500000       7.58866827E-34
  -11.2399998       8.41625119E-34
  -11.2299995       9.30814192E-34
  -11.2200003       1.02687054E-33
  -11.2100000       1.13025802E-33
  -11.1999998       1.24147154E-33
  -11.1899996       1.36103658E-33
  -11.1800003       1.48951187E-33
  -11.1700001       1.62749305E-33
  -11.1599998       1.77561269E-33
  -11.1499996       1.93454264E-33
  -11.1400003       2.10499888E-33
  -11.1300001       2.28774160E-33
  -11.1199999       2.48357840E-33
  -11.1099997       2.69336557E-33
  -11.1000004       2.91801761E-33
  -11.0900002       3.15850299E-33
  -11.0799999       3.41584883E-33
  -11.0699997       3.69114814E-33
  -11.0600004       3.98555988E-33
  -11.0500002       4.30031245E-33
  -11.0400000       4.63671359E-33
  -11.0299997       4.99614597E-33
  -11.0200005       5.38007932E-33
  -11.0100002       5.79006971E-33
  -11.0000000       6.22776540E-33
  -10.9899998       6.69491640E-33
  -10.9799995       7.19337597E-33
  -10.9700003       7.72510275E-33
  -10.9600000       8.29217445E-33
  -10.9499998       8.89678630E-33
  -10.9399996       9.54127165E-33
  -10.9300003       1.02280843E-32
  -10.9200001       1.09598310E-32
  -10.9099998       1.17392573E-32
  -10.8999996       1.25692746E-32
  -10.8900003       1.34529598E-32
  -10.8800001       1.43935463E-32
  -10.8699999       1.53944621E-32
  -10.8599997       1.64593277E-32
  -10.8500004       1.75919518E-32
  -10.8400002       1.87963589E-32
  -10.8299999       2.00767896E-32
  -10.8199997       2.14377138E-32
  -10.8100004       2.28838511E-32
  -10.8000002       2.44201502E-32
  -10.7900000       2.60518465E-32
  -10.7799997       2.77844253E-32
  -10.7700005       2.96236743E-32
  -10.7600002       3.15756914E-32
  -10.7500000       3.36468478E-32
  -10.7399998       3.58438732E-32
  -10.7299995       3.81738205E-32
  -10.7200003       4.06441043E-32
  -10.7100000       4.32625179E-32
  -10.6999998       4.60372018E-32
  -10.6899996       4.89767135E-32
  -10.6800003       5.20900456E-32
  -10.6700001       5.53865784E-32
  -10.6599998       5.88761803E-32
  -10.6499996       6.25691545E-32
  -10.6400003       6.64763038E-32
  -10.6300001       7.06089246E-32
  -10.6199999       7.49788014E-32
  -10.6099997       7.95982650E-32
  -10.6000004       8.44802634E-32
  -10.5900002       8.96382092E-32
  -10.5799999       9.50861788E-32
  -10.5699997       1.00838831E-31
  -10.5600004       1.06911458E-31
  -10.5500002       1.13320006E-31
  -10.5400000       1.20081086E-31
  -10.5299997       1.27211999E-31
  -10.5200005       1.34730766E-31
  -10.5100002       1.42656090E-31
  -10.5000000       1.51007449E-31
  -10.4899998       1.59805119E-31
  -10.4799995       1.69070142E-31
  -10.4700003       1.78824323E-31
  -10.4600000       1.89090350E-31
  -10.4499998       1.99891780E-31
  -10.4399996       2.11252933E-31
  -10.4300003       2.23199176E-31
  -10.4200001       2.35756536E-31
  -10.4099998       2.48952165E-31
  -10.3999996       2.62814088E-31
  -10.3900003       2.77371199E-31
  -10.3800001       2.92653495E-31
  -10.3699999       3.08691869E-31
  -10.3599997       3.25518201E-31
  -10.3500004       3.43165404E-31
  -10.3400002       3.61667403E-31
  -10.3299999       3.81059087E-31
  -10.3199997       4.01376402E-31
  -10.3100004       4.22656423E-31
  -10.3000002       4.44937213E-31
  -10.2900000       4.68257704E-31
  -10.2799997       4.92658193E-31
  -10.2700005       5.18179680E-31
  -10.2600002       5.44864483E-31
  -10.2500000       5.72755720E-31
  -10.2399998       6.01897635E-31
  -10.2299995       6.32335510E-31
  -10.2200003       6.64115517E-31
  -10.2100000       6.97284864E-31
  -10.1999998       7.31891794E-31
  -10.1899996       7.67985019E-31
  -10.1800003       8.05614803E-31
  -10.1700001       8.44832022E-31
  -10.1599998       8.85687597E-31
  -10.1499996       9.28234286E-31
  -10.1400003       9.72525221E-31
  -10.1300001       1.01861400E-30
  -10.1199999       1.06655499E-30
  -10.1099997       1.11640291E-30
  -10.1000004       1.16821324E-30
  -10.0900002       1.22204139E-30
  -10.0799999       1.27794348E-30
  -10.0699997       1.33597575E-30
  -10.0600004       1.39619417E-30
  -10.0500002       1.45865477E-30
  -10.0400000       1.52341407E-30
  -10.0299997       1.59052755E-30
  -10.0200005       1.66005061E-30
  -10.0100002       1.73203845E-30
  -10.0000000       1.80654467E-30
  -9.98999977       1.88362381E-30
  -9.97999954       1.96332703E-30
  -9.97000027       2.04570586E-30
  -9.96000004       2.13080996E-30
  -9.94999981       2.21868803E-30
  -9.93999958       2.30938504E-30
  -9.93000031       2.40294668E-30
  -9.92000008       2.49941395E-30
  -9.90999985       2.59882579E-30
  -9.89999962       2.70122038E-30
  -9.89000034       2.80662780E-30
  -9.88000011       2.91508192E-30
  -9.86999989       3.02660756E-30
  -9.85999966       3.14122653E-30
  -9.85000038       3.25895671E-30
  -9.84000015       3.37981220E-30
  -9.82999992       3.50379846E-30
  -9.81999969       3.63092037E-30
  -9.81000042       3.76117379E-30
  -9.80000019       3.89454858E-30
  -9.78999996       4.03102742E-30
  -9.77999973       4.17058738E-30
  -9.77000046       4.31319497E-30
  -9.76000023       4.45881220E-30
  -9.75000000       4.60738979E-30
  -9.73999977       4.75886983E-30
  -9.72999954       4.91318195E-30
  -9.72000027       5.07025019E-30
  -9.71000004       5.22998464E-30
  -9.69999981       5.39228298E-30
  -9.68999958       5.55703087E-30
  -9.68000031       5.72410529E-30
  -9.67000008       5.89336068E-30
  -9.65999985       6.06464544E-30
  -9.64999962       6.23778955E-30
  -9.64000034       6.41260794E-30
  -9.63000011       6.58889372E-30
  -9.61999989       6.76643136E-30
  -9.60999966       6.94497861E-30
  -9.60000038       7.12428269E-30
  -9.59000015       7.30406073E-30
  -9.57999992       7.48401631E-30
  -9.56999969       7.66382895E-30
  -9.56000042       7.84315485E-30
  -9.55000019       8.02162762E-30
  -9.53999996       8.19885530E-30
  -9.52999973       8.37442037E-30
  -9.52000046       8.54787744E-30
  -9.51000023       8.71875558E-30
  -9.50000000       8.88655373E-30
  -9.48999977       9.05074076E-30
  -9.47999954       9.21075545E-30
  -9.47000027       9.36600120E-30
  -9.46000004       9.51585359E-30
  -9.44999981       9.65964834E-30
  -9.43999958       9.79668879E-30
  -9.43000031       9.92623842E-30
  -9.42000008       1.00475254E-29
  -9.40999985       1.01597416E-29
  -9.39999962       1.02620296E-29
  -9.39000034       1.03535000E-29
  -9.38000011       1.04332131E-29
  -9.36999989       1.05001889E-29
  -9.35999966       1.05534017E-29
  -9.35000038       1.05917751E-29
  -9.34000015       1.06141934E-29
  -9.32999992       1.06194829E-29
  -9.31999969       1.06064227E-29
  -9.31000042       1.05737451E-29
  -9.30000019       1.05201222E-29
  -9.28999996       1.04441767E-29
  -9.27999973       1.03444729E-29
  -9.27000046       1.02195207E-29
  -9.26000023       1.00677725E-29
  -9.25000000       9.88761675E-30
  -9.23999977       9.67739473E-30
  -9.22999954       9.43537455E-30
  -9.22000027       9.15976495E-30
  -9.21000004       8.84871447E-30
  -9.19999981       8.50030622E-30
  -9.18999958       8.11256010E-30
  -9.18000031       7.68342680E-30
  -9.17000008       7.21079456E-30
  -9.15999985       6.69248017E-30
  -9.14999962       6.12623495E-30
  -9.14000034       5.50974176E-30
  -9.13000011       4.84061314E-30
  -9.11999989       4.11639351E-30
  -9.10999966       3.33455398E-30
  -9.10000038       2.49249829E-30
  -9.09000015       1.58755910E-30
  -9.07999992       6.16997048E-31
  -9.06999969      -4.21994620E-31
  -9.06000042      -1.53229535E-30
  -9.05000019      -2.71685822E-30
  -9.03999996      -3.97869855E-30
  -9.02999973      -5.32090809E-30
  -9.02000046      -6.74664243E-30
  -9.01000023      -8.25912638E-30
  -9.00000000      -9.86165131E-30
  -8.98999977      -1.15575778E-29
  -8.97999954      -1.33503252E-29
  -8.97000027      -1.52433774E-29
  -8.96000004      -1.72402779E-29
  -8.94999981      -1.93446332E-29
  -8.93999958      -2.15601222E-29
  -8.93000031      -2.38904387E-29
  -8.92000008      -2.63393670E-29
  -8.90999985      -2.89107122E-29
  -8.89999962      -3.16083562E-29
  -8.89000034      -3.44361811E-29
  -8.88000011      -3.73981651E-29
  -8.86999989      -4.04982743E-29
  -8.85999966      -4.37405142E-29
  -8.85000038      -4.71289562E-29
  -8.84000015      -5.06676599E-29
  -8.82999992      -5.43606847E-29
  -8.81999969      -5.82121293E-29
  -8.81000042      -6.22261104E-29
  -8.80000019      -6.64067265E-29
  -8.78999996      -7.07580523E-29
  -8.77999973      -7.52842043E-29
  -8.77000046      -7.99892030E-29
  -8.76000023      -8.48770928E-29
  -8.75000000      -8.99519002E-29
  -8.73999977      -9.52175612E-29
  -8.72999954      -1.00677988E-28
  -8.72000027      -1.06336996E-28
  -8.71000004      -1.12198407E-28
  -8.69999981      -1.18265833E-28
  -8.68999958      -1.24542896E-28
  -8.68000031      -1.31033147E-28
  -8.67000008      -1.37739886E-28
  -8.65999985      -1.44666408E-28
  -8.64999962      -1.51815797E-28
  -8.64000034      -1.59191014E-28
  -8.63000011      -1.66794898E-28
  -8.61999989      -1.74630002E-28
  -8.60999966      -1.82698830E-28
  -8.60000038      -1.91003440E-28
  -8.59000015      -1.99545987E-28
  -8.57999992      -2.08328059E-28
  -8.56999969      -2.17351233E-28
  -8.56000042      -2.26616762E-28
  -8.55000019      -2.36125487E-28
  -8.53999996      -2.45877963E-28
  -8.52999973      -2.55874551E-28
  -8.52000046      -2.66115177E-28
  -8.51000023      -2.76599338E-28
  -8.50000000      -2.87326166E-28
  -8.48999977      -2.98294385E-28
  -8.47999954      -3.09502479E-28
  -8.47000027      -3.20948088E-28
  -8.46000004      -3.32628685E-28
  -8.44999981      -3.44541043E-28
  -8.43999958      -3.56681528E-28
  -8.43000031      -3.69045950E-28
  -8.42000008      -3.81629326E-28
  -8.40999985      -3.94426480E-28
  -8.39999962      -4.07431106E-28
  -8.39000034      -4.20636726E-28
  -8.38000011      -4.34035902E-28
  -8.36999989      -4.47620208E-28
  -8.35999966      -4.61381074E-28
  -8.35000038      -4.75308581E-28
  -8.34000015      -4.89392473E-28
  -8.32999992      -5.03621484E-28
  -8.31999969      -5.17983240E-28
  -8.31000042      -5.32464789E-28
  -8.30000019      -5.47052023E-28
  -8.28999996      -5.61729920E-28
  -8.27999973      -5.76482640E-28
  -8.27000046      -5.91293041E-28
  -8.26000023      -6.06143261E-28
  -8.25000000      -6.21013896E-28
  -8.23999977      -6.35884579E-28
  -8.22999954      -6.50733836E-28
  -8.22000027      -6.65539133E-28
  -8.21000004      -6.80276397E-28
  -8.19999981      -6.94920543E-28
  -8.18999958      -7.09444895E-28
  -8.18000031      -7.23821673E-28
  -8.17000008      -7.38021699E-28
  -8.15999985      -7.52014110E-28
  -8.14999962      -7.65766983E-28
  -8.14000034      -7.79246711E-28
  -8.13000011      -7.92417809E-28
  -8.11999989      -8.05244069E-28
  -8.10999966      -8.17687069E-28
  -8.10000038      -8.29706894E-28
  -8.09000015      -8.41261896E-28
  -8.07999992      -8.52309030E-28
  -8.06999969      -8.62803326E-28
  -8.06000042      -8.72697984E-28
  -8.05000019      -8.81944566E-28
  -8.03999996      -8.90492710E-28
  -8.02999973      -8.98290415E-28
  -8.02000046      -9.05283467E-28
  -8.01000023      -9.11416013E-28
  -8.00000000      -9.16630468E-28
  -7.98999977      -9.20866936E-28
  -7.98000002      -9.24063691E-28
  -7.96999979      -9.26156599E-28
  -7.96000004      -9.27080660E-28
  -7.94999981      -9.26767504E-28
  -7.94000006      -9.25147508E-28
  -7.92999983      -9.22148835E-28
  -7.92000008      -9.17697433E-28
  -7.90999985      -9.11717517E-28
  -7.90000010      -9.04130701E-28
  -7.88999987      -8.94857060E-28
  -7.88000011      -8.83814259E-28
  -7.86999989      -8.70917558E-28
  -7.86000013      -8.56080964E-28
  -7.84999990      -8.39215307E-28
  -7.84000015      -8.20230548E-28
  -7.82999992      -7.99033571E-28
  -7.82000017      -7.75529907E-28
  -7.80999994      -7.49622538E-28
  -7.80000019      -7.21212712E-28
  -7.78999996      -6.90199703E-28
  -7.78000021      -6.56480714E-28
  -7.76999998      -6.19951216E-28
  -7.76000023      -5.80504559E-28
  -7.75000000      -5.38032411E-28
  -7.73999977      -4.92424753E-28
  -7.73000002      -4.43569737E-28
  -7.71999979      -3.91353731E-28
  -7.71000004      -3.35661687E-28
  -7.69999981      -2.76376990E-28
  -7.69000006      -2.13381410E-28
  -7.67999983      -1.46555517E-28
  -7.67000008      -7.57785604E-29
  -7.65999985      -9.28369233E-31
  -7.65000010       7.81179815E-29
  -7.63999987       1.61484447E-28
  -7.63000011       2.49296079E-28
  -7.61999989       3.41678702E-28
  -7.61000013       4.38758571E-28
  -7.59999990       5.40662461E-28
  -7.59000015       6.47517773E-28
  -7.57999992       7.59451666E-28
  -7.57000017       8.76592118E-28
  -7.55999994       9.99065951E-28
  -7.55000019       1.12700047E-27
  -7.53999996       1.26052230E-27
  -7.53000021       1.39975751E-27
  -7.51999998       1.54483116E-27
  -7.51000023       1.69586721E-27
  -7.50000000       1.85298824E-27
  -7.48999977       2.01631673E-27
  -7.48000002       2.18597016E-27
  -7.46999979       2.36206814E-27
  -7.46000004       2.54472392E-27
  -7.44999981       2.73405265E-27
  -7.44000006       2.93016355E-27