  -16.0000000       0.00000000    
  -15.9899998       0.00000000    
  -15.9799995       0.00000000    
  -15.9700003       0.00000000    
  -15.9600000       0.00000000    
  -15.9499998       0.00000000    
  -15.9399996       0.00000000    
  -15.9300003       0.00000000    
  -15.9200001       0.00000000    
  -15.9099998       0.00000000    
  -15.8999996       0.00000000    
  -15.8900003       0.00000000    
  -15.8800001       0.00000000    
  -15.8699999       0.00000000    
  -15.8599997       0.00000000    
  -15.8500004       0.00000000    
  -15.8400002       0.00000000    
  -15.8299999       0.00000000    
  -15.8199997       0.00000000    
  -15.8100004       0.00000000    
  -15.8000002       0.00000000    
  -15.7900000       0.00000000    
  -15.7799997       0.00000000    
  -15.7700005       0.00000000    
  -15.7600002       0.00000000    
  -15.7500000       0.00000000    
  -15.7399998       0.00000000    
  -15.7299995       0.00000000    
  -15.7200003       0.00000000    
  -15.7100000       0.00000000    
  -15.6999998       0.00000000    
  -15.6899996       0.00000000    
  -15.6800003       0.00000000    
  -15.6700001       0.00000000    
  -15.6599998       0.00000000    
  -15.6499996       0.00000000    
  -15.6400003       0.00000000    
  -15.6300001       0.00000000    
  -15.6199999       0.00000000    
  -15.6099997       0.00000000    
  -15.6000004       0.00000000    
  -15.5900002       0.00000000    
  -15.5799999       0.00000000    
  -15.5699997       0.00000000    
  -15.5600004       0.00000000    
  -15.5500002       0.00000000    
  -15.5400000       0.00000000    
  -15.5299997       0.00000000    
  -15.5200005       0.00000000    
  -15.5100002       0.00000000    
  -15.5000000       0.00000000    
  -15.4899998       0.00000000    
  -15.4799995       0.00000000    
  -15.4700003       0.00000000    
  -15.4600000       0.00000000    
  -15.4499998       0.00000000    
  -15.4399996       0.00000000    
  -15.4300003       0.00000000    
  -15.4200001       0.00000000    
  -15.4099998       0.00000000    
  -15.3999996       0.00000000    
  -15.3900003       0.00000000    
  -15.3800001       0.00000000    
  -15.3699999       0.00000000    
  -15.3599997       0.00000000    
  -15.3500004       0.00000000    
  -15.3400002       0.00000000    
  -15.3299999       0.00000000    
  -15.3199997       0.00000000    
  -15.3100004       0.00000000    
  -15.3000002       0.00000000    
  -15.2900000       0.00000000    
  -15.2799997       0.00000000    
  -15.2700005       0.00000000    
  -15.2600002       0.00000000    
  -15.2500000       0.00000000    
  -15.2399998       0.00000000    
  -15.2299995       0.00000000    
  -15.2200003       0.00000000    
  -15.2100000       0.00000000    
  -15.1999998       0.00000000    
  -15.1899996       0.00000000    
  -15.1800003       0.00000000    
  -15.1700001       0.00000000    
  -15.1599998       0.00000000    
  -15.1499996       0.00000000    
  -15.1400003       0.00000000    
  -15.1300001       0.00000000    
  -15.1199999       0.00000000    
  -15.1099997       0.00000000    
  -15.1000004       0.00000000    
  -15.0900002       0.00000000    
  -15.0799999       0.00000000    
  -15.0699997       0.00000000    
  -15.0600004       0.00000000    
  -15.0500002       0.00000000    
  -15.0400000       0.00000000    
  -15.0299997       0.00000000    
  -15.0200005       0.00000000    
  -15.0100002       0.00000000    
  -15.0000000       0.00000000    
  -14.9899998       0.00000000    
  -14.9799995       0.00000000    
  -14.9700003       0.00000000    
  -14.9600000       0.00000000    
  -14.9499998       0.00000000    
  -14.9399996       0.00000000    
  -14.9300003       0.00000000    
  -14.9200001       0.00000000    
  -14.9099998       0.00000000    
  -14.8999996       0.00000000    
  -14.8900003       0.00000000    
  -14.8800001       0.00000000    
  -14.8699999       0.00000000    
  -14.8599997       0.00000000    
  -14.8500004       0.00000000    
  -14.8400002       0.00000000    
  -14.8299999       0.00000000    
  -14.8199997       0.00000000    
  -14.8100004       0.00000000    
  -14.8000002       0.00000000    
  -14.7900000       0.00000000    
  -14.7799997       0.00000000    
  -14.7700005       0.00000000    
  -14.7600002       0.00000000    
  -14.7500000       0.00000000    
  -14.7399998       0.00000000    
  -14.7299995       0.00000000    
  -14.7200003       0.00000000    
  -14.7100000       0.00000000    
  -14.6999998       0.00000000    
  -14.6899996       0.00000000    
  -14.6800003       0.00000000    
  -14.6700001       0.00000000    
  -14.6599998       0.00000000    
  -14.6499996       0.00000000    
  -14.6400003       0.00000000    
  -14.6300001       0.00000000    
  -14.6199999       0.00000000    
  -14.6099997       0.00000000    
  -14.6000004       0.00000000    
  -14.5900002       0.00000000    
  -14.5799999       0.00000000    
  -14.5699997       0.00000000    
  -14.5600004       0.00000000    
  -14.5500002       0.00000000    
  -14.5400000       0.00000000    
  -14.5299997       0.00000000    
  -14.5200005       0.00000000    
  -14.5100002       0.00000000    
  -14.5000000       0.00000000    
  -14.4899998       0.00000000    
  -14.4799995       0.00000000    
  -14.4700003       0.00000000    
  -14.4600000       0.00000000    
  -14.4499998       0.00000000    
  -14.4399996       0.00000000    
  -14.4300003       0.00000000    
  -14.4200001       0.00000000    
  -14.4099998       0.00000000    
  -14.3999996       0.00000000    
  -14.3900003       0.00000000    
  -14.3800001       0.00000000    
  -14.3699999       0.00000000    
  -14.3599997       0.00000000    
  -14.3500004       0.00000000    
  -14.3400002       0.00000000    
  -14.3299999       0.00000000    
  -14.3199997       0.00000000    
  -14.3100004       0.00000000    
  -14.3000002       0.00000000    
  -14.2900000       0.00000000    
  -14.2799997       0.00000000    
  -14.2700005       0.00000000    
  -14.2600002       0.00000000    
  -14.2500000       0.00000000    
  -14.2399998       0.00000000    
  -14.2299995       0.00000000    
  -14.2200003       0.00000000    
  -14.2100000       0.00000000    
  -14.1999998       0.00000000    
  -14.1899996       0.00000000    
  -14.1800003       0.00000000    
  -14.1700001       0.00000000    
  -14.1599998       0.00000000    
  -14.1499996       0.00000000    
  -14.1400003       0.00000000    
  -14.1300001       0.00000000    
  -14.1199999       0.00000000    
  -14.1099997       0.00000000    
  -14.1000004       0.00000000    
  -14.0900002       0.00000000    
  -14.0799999       0.00000000    
  -14.0699997       0.00000000    
  -14.0600004       0.00000000    
  -14.0500002       0.00000000    
  -14.0400000       0.00000000    
  -14.0299997       0.00000000    
  -14.0200005       0.00000000    
  -14.0100002       0.00000000    
  -14.0000000       0.00000000    
  -13.9899998       0.00000000    
  -13.9799995       0.00000000    
  -13.9700003       0.00000000    
  -13.9600000       0.00000000    
  -13.9499998       0.00000000    
  -13.9399996       0.00000000    
  -13.9300003       0.00000000    
  -13.9200001       0.00000000    
  -13.9099998       0.00000000    
  -13.8999996       0.00000000    
  -13.8900003       0.00000000    
  -13.8800001       0.00000000    
  -13.8699999       0.00000000    
  -13.8599997       0.00000000    
  -13.8500004       0.00000000    
  -13.8400002       0.00000000    
  -13.8299999       0.00000000    
  -13.8199997       0.00000000    
  -13.8100004       0.00000000    
  -13.8000002       0.00000000    
  -13.7900000       0.00000000    
  -13.7799997       0.00000000    
  -13.7700005       0.00000000    
  -13.7600002       0.00000000    
  -13.7500000       0.00000000    
  -13.7399998       0.00000000    
  -13.7299995       0.00000000    
  -13.7200003       0.00000000    
  -13.7100000       0.00000000    
  -13.6999998       0.00000000    
  -13.6899996       0.00000000    
  -13.6800003       0.00000000    
  -13.6700001       0.00000000    
  -13.6599998       0.00000000    
  -13.6499996       0.00000000    
  -13.6400003       0.00000000    
  -13.6300001       0.00000000    
  -13.6199999       0.00000000    
  -13.6099997       0.00000000    
  -13.6000004       0.00000000    
  -13.5900002       0.00000000    
  -13.5799999       0.00000000    
  -13.5699997       0.00000000    
  -13.5600004       0.00000000    
  -13.5500002       0.00000000    
  -13.5400000       0.00000000    
  -13.5299997       0.00000000    
  -13.5200005       0.00000000    
  -13.5100002       0.00000000    
  -13.5000000       0.00000000    
  -13.4899998       0.00000000    
  -13.4799995       0.00000000    
  -13.4700003       0.00000000    
  -13.4600000       0.00000000    
  -13.4499998       0.00000000    
  -13.4399996       0.00000000    
  -13.4300003       0.00000000    
  -13.4200001       0.00000000    
  -13.4099998       0.00000000    
  -13.3999996       0.00000000    
  -13.3900003       0.00000000    
  -13.3800001       0.00000000    
  -13.3699999       0.00000000    
  -13.3599997       0.00000000    
  -13.3500004       0.00000000    
  -13.3400002       0.00000000    
  -13.3299999       0.00000000    
  -13.3199997       0.00000000    
  -13.3100004       0.00000000    
  -13.3000002       0.00000000    
  -13.2900000       0.00000000    
  -13.2799997       0.00000000    
  -13.2700005       0.00000000    
  -13.2600002       0.00000000    
  -13.2500000       0.00000000    
  -13.2399998       0.00000000    
  -13.2299995       0.00000000    
  -13.2200003       0.00000000    
  -13.2100000       0.00000000    
  -13.1999998       0.00000000    
  -13.1899996       0.00000000    
  -13.1800003       0.00000000    
  -13.1700001       0.00000000    
  -13.1599998       0.00000000    
  -13.1499996       0.00000000    
  -13.1400003       0.00000000    
  -13.1300001       0.00000000    
  -13.1199999       0.00000000    
  -13.1099997       0.00000000    
  -13.1000004       0.00000000    
  -13.0900002       0.00000000    
  -13.0799999       0.00000000    
  -13.0699997       0.00000000    
  -13.0600004       0.00000000    
  -13.0500002       0.00000000    
  -13.0400000       0.00000000    
  -13.0299997       0.00000000    
  -13.0200005       0.00000000    
  -13.0100002       0.00000000    
  -13.0000000       0.00000000    
  -12.9899998       0.00000000    
  -12.9799995       0.00000000    
  -12.9700003       0.00000000    
  -12.9600000       0.00000000    
  -12.9499998       0.00000000    
  -12.9399996       0.00000000    
  -12.9300003       0.00000000    
  -12.9200001       0.00000000    
  -12.9099998       0.00000000    
  -12.8999996       0.00000000    
  -12.8900003       0.00000000    
  -12.8800001       0.00000000    
  -12.8699999       0.00000000    
  -12.8599997       0.00000000    
  -12.8500004       0.00000000    
  -12.8400002       0.00000000    
  -12.8299999       0.00000000    
  -12.8199997       0.00000000    
  -12.8100004       0.00000000    
  -12.8000002       0.00000000    
  -12.7900000       0.00000000    
  -12.7799997       0.00000000    
  -12.7700005       0.00000000    
  -12.7600002       0.00000000    
  -12.7500000       0.00000000    
  -12.7399998       0.00000000    
  -12.7299995       0.00000000    
  -12.7200003       0.00000000    
  -12.7100000       0.00000000    
  -12.6999998       0.00000000    
  -12.6899996       0.00000000    
  -12.6800003       0.00000000    
  -12.6700001       0.00000000    
  -12.6599998       0.00000000    
  -12.6499996       0.00000000    
  -12.6400003       0.00000000    
  -12.6300001       0.00000000    
  -12.6199999       0.00000000    
  -12.6099997       0.00000000    
  -12.6000004       0.00000000    
  -12.5900002       0.00000000    
  -12.5799999       0.00000000    
  -12.5699997       0.00000000    
  -12.5600004       0.00000000    
  -12.5500002       0.00000000    
  -12.5400000       0.00000000    
  -12.5299997       0.00000000    
  -12.5200005       0.00000000    
  -12.5100002       0.00000000    
  -12.5000000       0.00000000    
  -12.4899998       0.00000000    
  -12.4799995       0.00000000    
  -12.4700003       0.00000000    
  -12.4600000       0.00000000    
  -12.4499998       0.00000000    
  -12.4399996       0.00000000    
  -12.4300003       0.00000000    
  -12.4200001       0.00000000    
  -12.4099998       0.00000000    
  -12.3999996       0.00000000    
  -12.3900003       0.00000000    
  -12.3800001       0.00000000    
  -12.3699999       0.00000000    
  -12.3599997       0.00000000    
  -12.3500004       0.00000000    
  -12.3400002       0.00000000    
  -12.3299999       0.00000000    
  -12.3199997       0.00000000    
  -12.3100004       0.00000000    
  -12.3000002       0.00000000    
  -12.2900000       0.00000000    
  -12.2799997       0.00000000    
  -12.2700005       0.00000000    
  -12.2600002       0.00000000    
  -12.2500000       0.00000000    
  -12.2399998       0.00000000    
  -12.2299995       0.00000000    
  -12.2200003       0.00000000    
  -12.2100000       0.00000000    
  -12.1999998       0.00000000    
  -12.1899996       0.00000000    
  -12.1800003       0.00000000    
  -12.1700001       0.00000000    
  -12.1599998       0.00000000    
  -12.1499996       0.00000000    
  -12.1400003       0.00000000    
  -12.1300001       0.00000000    
  -12.1199999       0.00000000    
  -12.1099997       0.00000000    
  -12.1000004       0.00000000    
  -12.0900002       0.00000000    
  -12.0799999       0.00000000    
  -12.0699997       0.00000000    
  -12.0600004       0.00000000    
  -12.0500002       0.00000000    
  -12.0400000       0.00000000    
  -12.0299997       0.00000000    
  -12.0200005       0.00000000    
  -12.0100002       0.00000000    
  -12.0000000       0.00000000    
  -11.9899998       0.00000000    
  -11.9799995       0.00000000    
  -11.9700003       0.00000000    
  -11.9600000       0.00000000    
  -11.9499998       0.00000000    
  -11.9399996       0.00000000    
  -11.9300003       0.00000000    
  -11.9200001       0.00000000    
  -11.9099998       0.00000000    
  -11.8999996       0.00000000    
  -11.8900003       0.00000000    
  -11.8800001       0.00000000    
  -11.8699999       0.00000000    
  -11.8599997       0.00000000    
  -11.8500004       0.00000000    
  -11.8400002       0.00000000    
  -11.8299999       0.00000000    
  -11.8199997       0.00000000    
  -11.8100004       0.00000000    
  -11.8000002       0.00000000    
  -11.7900000       0.00000000    
  -11.7799997       0.00000000    
  -11.7700005       0.00000000    
  -11.7600002       0.00000000    
  -11.7500000       0.00000000    
  -11.7399998       0.00000000    
  -11.7299995       0.00000000    
  -11.7200003       0.00000000    
  -11.7100000       0.00000000    
  -11.6999998      -3.92363570E-44
  -11.6899996      -3.92363570E-44
  -11.6800003       1.79366203E-43
  -11.6700001       4.00771361E-43
  -11.6599998       5.46506401E-44
  -11.6499996       6.78228457E-43
  -11.6400003       3.59292926E-42
  -11.6300001       8.77212839E-43
  -11.6199999      -1.47977118E-42
  -11.6099997       9.08321665E-42
  -11.6000004       5.24085626E-42
  -11.5900002      -8.43721805E-42
  -11.5799999      -9.22194519E-42
  -11.5699997      -2.43994089E-41
  -11.5600004      -7.22089099E-42
  -11.5500002       1.54549208E-41
  -11.5400000       2.78157745E-42
  -11.5299997       1.44894261E-41
  -11.5200005      -2.66905318E-41
  -11.5100002       7.24471306E-43
  -11.5000000      -3.13890856E-42
  -11.4899998       3.63496822E-41
  -11.4799995      -5.70328475E-42
  -11.4700003      -1.54048944E-40
  -11.4600000      -1.86288618E-41
  -11.4499998      -7.29179669E-41
  -11.4399996      -2.81717043E-41
  -11.4300003      -2.18383958E-40
  -11.4200001      -3.39027348E-40
  -11.4099998       1.65952975E-40
  -11.3999996      -3.94633674E-41
  -11.3900003      -2.12413025E-40
  -11.3800001      -4.97008335E-40
  -11.3699999      -8.27971211E-41
  -11.3599997      -2.04429828E-40
  -11.3500004      -1.16868292E-41
  -11.3400002      -2.45178186E-40
  -11.3299999      -2.66780603E-40
  -11.3199997      -5.03307172E-40
  -11.3100004      -8.59388322E-40
  -11.3000002      -1.10143320E-39
  -11.2900000      -1.39467313E-39
  -11.2799997      -1.34155971E-39
  -11.2700005      -1.80976996E-39
  -11.2600002      -2.06553496E-39
  -11.2500000      -3.07746723E-39
  -11.2399998      -3.43807457E-39
  -11.2299995      -4.86068959E-39
  -11.2200003      -5.29750094E-39
  -11.2100000      -6.87326948E-39
  -11.1999998      -8.50263907E-39
  -11.1899996      -1.02004915E-38
  -11.1800003      -1.21640652E-38
  -11.1700001      -1.51271122E-38
  -11.1599998      -1.83269716E-38
  -11.1499996      -2.22893687E-38
  -11.1400003      -2.62451291E-38
  -11.1300001      -3.16484716E-38
  -11.1199999      -3.83247087E-38
  -11.1099997      -4.60897855E-38
  -11.1000004      -5.49094207E-38
  -11.0900002      -6.57236838E-38
  -11.0799999      -7.85958993E-38
  -11.0699997      -9.33249531E-38
  -11.0600004      -1.10851195E-37
  -11.0500002      -1.31784610E-37
  -11.0400000      -1.55397083E-37
  -11.0299997      -1.83065676E-37
  -11.0200005      -2.16480681E-37
  -11.0100002      -2.54739604E-37
  -11.0000000      -2.99550035E-37
  -10.9899998      -3.52060007E-37
  -10.9799995      -4.11361186E-37
  -10.9700003      -4.80498472E-37
  -10.9600000      -5.61871000E-37
  -10.9499998      -6.54086932E-37
  -10.9399996      -7.62013280E-37
  -10.9300003      -8.84805231E-37
  -10.9200001      -1.02687716E-36
  -10.9099998      -1.18934151E-36
  -10.8999996      -1.37558192E-36
  -10.8900003      -1.58929380E-36
  -10.8800001      -1.83253751E-36
  -10.8699999      -2.11165733E-36
  -10.8599997      -2.42877624E-36
  -10.8500004      -2.79021761E-36
  -10.8400002      -3.20066865E-36
  -10.8299999      -3.66733467E-36
  -10.8199997      -4.19603915E-36
  -10.8100004      -4.79518182E-36
  -10.8000002      -5.47290805E-36
  -10.7900000      -6.23830203E-36
  -10.7799997      -7.10215334E-36
  -10.7700005      -8.07614698E-36
  -10.7600002      -9.17194032E-36
  -10.7500000      -1.04038575E-35
  -10.7399998      -1.17880724E-35
  -10.7299995      -1.33406771E-35
  -10.7200003      -1.50806211E-35
  -10.7100000      -1.70276082E-35
  -10.6999998      -1.92040305E-35
  -10.6899996      -2.16358216E-35
  -10.6800003      -2.43482877E-35
  -10.6700001      -2.73711219E-35
  -10.6599998      -3.07358138E-35
  -10.6499996      -3.44779926E-35
  -10.6400003      -3.86344528E-35
  -10.6300001      -4.32477860E-35
  -10.6199999      -4.83618293E-35
  -10.6099997      -5.40252727E-35
  -10.6000004      -6.02915587E-35
  -10.5900002      -6.72172752E-35
  -10.5799999      -7.48637110E-35
  -10.5699997      -8.32993237E-35
  -10.5600004      -9.25949642E-35
  -10.5500002      -1.02828905E-34
  -10.5400000      -1.14085205E-34
  -10.5299997      -1.26454103E-34
  -10.5200005      -1.40033508E-34
  -10.5100002      -1.54926964E-34
  -10.5000000      -1.71246534E-34
  -10.4899998      -1.89112532E-34
  -10.4799995      -2.08654518E-34
  -10.4700003      -2.30008038E-34
  -10.4600000      -2.53322155E-34
  -10.4499998      -2.78753218E-34
  -10.4399996      -3.06468550E-34
  -10.4300003      -3.36646728E-34
  -10.4200001      -3.69477321E-34
  -10.4099998      -4.05162873E-34
  -10.3999996      -4.43916855E-34
  -10.3900003      -4.85965068E-34
  -10.3800001      -5.31552714E-34
  -10.3699999      -5.80931420E-34
  -10.3599997      -6.34371735E-34
  -10.3500004      -6.92159084E-34
  -10.3400002      -7.54591333E-34
  -10.3299999      -8.21988945E-34
  -10.3199997      -8.94681424E-34
  -10.3100004      -9.73018388E-34
  -10.3000002      -1.05737388E-33
  -10.2900000      -1.14812939E-33
  -10.2799997      -1.24568486E-33
  -10.2700005      -1.35046916E-33
  -10.2600002      -1.46292347E-33
  -10.2500000      -1.58350734E-33
  -10.2399998      -1.71269986E-33
  -10.2299995      -1.85100081E-33
  -10.2200003      -1.99893255E-33
  -10.2100000      -2.15703140E-33
  -10.1999998      -2.32585902E-33
  -10.1899996      -2.50599104E-33
  -10.1800003      -2.69802825E-33
  -10.1700001      -2.90258245E-33
  -10.1599998      -3.12028804E-33
  -10.1499996      -3.35180459E-33
  -10.1400003      -3.59779478E-33
  -10.1300001      -3.85894114E-33
  -10.1199999      -4.13594381E-33
  -10.1099997      -4.42952830E-33
  -10.1000004      -4.74039880E-33
  -10.0900002      -5.06931608E-33
  -10.0799999      -5.41702694E-33
  -10.0699997      -5.78427599E-33
  -10.0600004      -6.17180378E-33
  -10.0500002      -6.58039313E-33
  -10.0400000      -7.01080333E-33
  -10.0299997      -7.46380212E-33
  -10.0200005      -7.94013741E-33
  -10.0100002      -8.44053727E-33
  -10.0000000      -8.96573859E-33
  -9.98999977      -9.51644300E-33
  -9.97999954      -1.00933786E-32
  -9.97000027      -1.06971580E-32
  -9.96000004      -1.13284734E-32
  -9.94999981      -1.19878538E-32
  -9.93999958      -1.26758978E-32
  -9.93000031      -1.33931080E-32
  -9.92000008      -1.41399069E-32
  -9.90999985      -1.49166795E-32
  -9.89999962      -1.57237651E-32
  -9.89000034      -1.65613900E-32
  -9.88000011      -1.74296748E-32
  -9.86999989      -1.83286694E-32
  -9.85999966      -1.92583973E-32
  -9.85000038      -2.02186101E-32
  -9.84000015      -2.12090140E-32
  -9.82999992      -2.22292124E-32
  -9.81999969      -2.32786085E-32
  -9.81000042      -2.43564340E-32
  -9.80000019      -2.54617924E-32
  -9.78999996      -2.65936142E-32
  -9.77999973      -2.77505270E-32
  -9.77000046      -2.89310495E-32
  -9.76000023      -3.01333686E-32
  -9.75000000      -3.13555007E-32
  -9.73999977      -3.25952711E-32
  -9.72999954      -3.38499673E-32
  -9.72000027      -3.51167094E-32
  -9.71000004      -3.63924911E-32
  -9.69999981      -3.76736506E-32
  -9.68999958      -3.89563412E-32
  -9.68000031      -4.02363194E-32
  -9.67000008      -4.15086745E-32
  -9.65999985      -4.27686046E-32
  -9.64999962      -4.40104086E-32
  -9.64000034      -4.52279680E-32
  -9.63000011      -4.64147265E-32
  -9.61999989      -4.75635430E-32
  -9.60999966      -4.86666857E-32
  -9.60000038      -4.97159467E-32
  -9.59000015      -5.07024803E-32
  -9.57999992      -5.16165741E-32
  -9.56999969      -5.24478484E-32
  -9.56000042      -5.31854006E-32
  -9.55000019      -5.38173522E-32
  -9.53999996      -5.43310609E-32
  -9.52999973      -5.47129673E-32
  -9.52000046      -5.49486480E-32
  -9.51000023      -5.50227453E-32
  -9.50000000      -5.49188022E-32
  -9.48999977      -5.46195390E-32
  -9.47999954      -5.41061359E-32
  -9.47000027      -5.33590740E-32
  -9.46000004      -5.23572119E-32
  -9.44999981      -5.10782388E-32
  -9.43999958      -4.94988916E-32
  -9.43000031      -4.75935328E-32
  -9.42000008      -4.53356962E-32
  -9.40999985      -4.26973608E-32
  -9.39999962      -3.96484723E-32
  -9.39000034      -3.61574480E-32
  -9.38000011      -3.21905337E-32
  -9.36999989      -2.77123587E-32
  -9.35999966      -2.26853247E-32
  -9.35000038      -1.70696797E-32
  -9.34000015      -1.08228940E-32
  -9.32999992      -3.90067339E-33
  -9.31999969       3.74428636E-33
  -9.31000042       1.21621355E-32
  -9.30000019       2.14054347E-32
  -9.28999996       3.15303908E-32
  -9.27999973       4.25962154E-32
  -9.27000046       5.46655831E-32
  -9.26000023       6.78047770E-32
  -9.25000000       8.20842592E-32
  -9.23999977       9.75780623E-32
  -9.22999954       1.14365291E-31
  -9.22000027       1.32529206E-31
  -9.21000004       1.52158105E-31
  -9.19999981       1.73345180E-31
  -9.18999958       1.96190313E-31
  -9.18000031       2.20797735E-31
  -9.17000008       2.47278802E-31
  -9.15999985       2.75751767E-31
  -9.14999962       3.06341210E-31
  -9.14000034       3.39179162E-31
  -9.13000011       3.74407928E-31
  -9.11999989       4.12174070E-31
  -9.10999966       4.52636654E-31
  -9.10000038       4.95963213E-31
  -9.09000015       5.42331199E-31
  -9.07999992       5.91929208E-31
  -9.06999969       6.44957169E-31
  -9.06000042       7.01626858E-31
  -9.05000019       7.62162466E-31
  -9.03999996       8.26804358E-31
  -9.02999973       8.95805124E-31
  -9.02000046       9.69434235E-31
  -9.01000023       1.04797644E-30
  -9.00000000       1.13173502E-30
  -8.98999977       1.22102868E-30
  -8.97999954       1.31620159E-30
  -8.97000027       1.41760951E-30
  -8.96000004       1.52564346E-30
  -8.94999981       1.64070499E-30
  -8.93999958       1.76322648E-30
  -8.93000031       1.89366328E-30
  -8.92000008       2.03250609E-30
  -8.90999985       2.18025652E-30
  -8.89999962       2.33747202E-30
  -8.89000034       2.50472173E-30
  -8.88000011       2.68262199E-30
  -8.86999989       2.87181188E-30
  -8.85999966       3.07298880E-30
  -8.85000038       3.28686427E-30
  -8.84000015       3.51422330E-30
  -8.82999992       3.75586018E-30
  -8.81999969       4.01264043E-30
  -8.81000042       4.28548226E-30
  -8.80000019       4.57532644E-30
  -8.78999996       4.88320478E-30
  -8.77999973       5.21017427E-30
  -8.77000046       5.55738333E-30
  -8.76000023       5.92600745E-30
  -8.75000000       6.31733610E-30
  -8.73999977       6.73265988E-30
  -8.72999954       7.17339616E-30
  -8.72000027       7.64103001E-30
  -8.71000004       8.13711345E-30
  -8.69999981       8.66326547E-30
  -8.68999958       9.22123220E-30
  -8.68000031       9.81282748E-30
  -8.67000008       1.04399261E-29
  -8.65999985       1.11045720E-29
  -8.64999962       1.18088643E-29
  -8.64000034       1.25549748E-29
  -8.63000011       1.33452696E-29
  -8.61999989       1.41821419E-29
  -8.60999966       1.50681765E-29
  -8.60000038       1.60060246E-29
  -8.59000015       1.69984578E-29
  -8.57999992       1.80484974E-29
  -8.56999969       1.91591496E-29
  -8.56000042       2.03336313E-29
  -8.55000019       2.15753009E-29
  -8.53999996       2.28876040E-29
  -8.52999973       2.42742736E-29
  -8.52000046       2.57390306E-29
  -8.51000023       2.72859856E-29
  -8.50000000       2.89190870E-29
  -8.48999977       3.06428635E-29
  -8.47999954       3.24617177E-29
  -8.47000027       3.43802088E-29
  -8.46000004       3.64033380E-29
  -8.44999981       3.85360797E-29
  -8.43999958       4.07837122E-29
  -8.43000031       4.31516461E-29
  -8.42000008       4.56454545E-29
  -8.40999985       4.82709935E-29
  -8.39999962       5.10344051E-29
  -8.39000034       5.39417649E-29
  -8.38000011       5.69996722E-29
  -8.36999989       6.02147233E-29
  -8.35999966       6.35937614E-29
  -8.35000038       6.71438943E-29
  -8.34000015       7.08726150E-29
  -8.32999992       7.47871519E-29
  -8.31999969       7.88955878E-29
  -8.31000042       8.32054097E-29
  -8.30000019       8.77252965E-29
  -8.28999996       9.24631744E-29
  -8.27999973       9.74279329E-29
  -8.27000046       1.02628497E-28
  -8.26000023       1.08073330E-28
  -8.25000000       1.13772133E-28
  -8.23999977       1.19734005E-28
  -8.22999954       1.25968674E-28
  -8.22000027       1.32485419E-28
  -8.21000004       1.39294508E-28
  -8.19999981       1.46406245E-28
  -8.18999958       1.53830127E-28
  -8.18000031       1.61577133E-28
  -8.17000008       1.69656818E-28
  -8.15999985       1.78080571E-28
  -8.14999962       1.86858502E-28
  -8.14000034       1.96001686E-28
  -8.13000011       2.05519547E-28
  -8.11999989       2.15424316E-28
  -8.10999966       2.25725778E-28
  -8.10000038       2.36434719E-28
  -8.09000015       2.47561948E-28
  -8.07999992       2.59117335E-28
  -8.06999969       2.71112340E-28
  -8.06000042       2.83555677E-28
  -8.05000019       2.96457987E-28
  -8.03999996       3.09829213E-28
  -8.02999973       3.23679033E-28
  -8.02000046       3.38015053E-28
  -8.01000023       3.52848084E-28
  -8.00000000       3.68183927E-28
  -7.98999977       3.84033103E-28
  -7.98000002       4.00399969E-28
  -7.96999979       4.17294467E-28
  -7.96000004       4.34719800E-28
  -7.94999981       4.52681600E-28
  -7.94000006       4.71184202E-28
  -7.92999983       4.90232178E-28
  -7.92000008       5.09829238E-28
  -7.90999985       5.29974706E-28
  -7.90000010       5.50669112E-28
  -7.88999987       5.71910867E-28
  -7.88000011       5.93700646E-28
  -7.86999989       6.16033971E-28
  -7.86000013       6.38903089E-28
  -7.84999990       6.62303474E-28
  -7.84000015       6.86227906E-28
  -7.82999992       7.10665020E-28
  -7.82000017       7.35602827E-28
  -7.80999994       7.61029292E-28
  -7.80000019       7.86921301E-28
  -7.78999996       8.13270719E-28
  -7.78000021       8.40045768E-28
  -7.76999998       8.67229209E-28
  -7.76000023       8.94792830E-28
  -7.75000000       9.22703407E-28
  -7.73999977       9.50938503E-28
  -7.73000002       9.79452858E-28
  -7.71999979       1.00820815E-27
  -7.71000004       1.03716749E-27
  -7.69999981       1.06628177E-27
  -7.69000006       1.09550083E-27
  -7.67999983       1.12476697E-27
  -7.67000008       1.15403080E-27
  -7.65999985       1.18321837E-27
  -7.65000010       1.21227275E-27
  -7.63999987       1.24111086E-27
  -7.63000011       1.26966431E-27
  -7.61999989       1.29784423E-27
  -7.61000013       1.32557020E-27
  -7.59999990       1.35274247E-27
  -7.59000015       1.37926176E-27
  -7.57999992       1.40502598E-27
  -7.57000017       1.42992065E-27
  -7.55999994       1.45382471E-27
  -7.55000019       1.47661771E-27
  -7.53999996       1.49816665E-27
  -7.53000021       1.51833721E-27
  -7.51999998       1.53697337E-27
  -7.51000023       1.55392579E-27
  -7.50000000       1.56903250E-27
  -7.48999977       1.58211871E-27
  -7.48000002       1.59301360E-27
  -7.46999979       1.60152303E-27
  -7.46000004       1.60745557E-27
  -7.44999981       1.61061024E-27
  -7.44000006       1.61076432E-27