  -16.0000000       0.00000000    
  -15.9899998       0.00000000    
  -15.9799995       0.00000000    
  -15.9700003       0.00000000    
  -15.9600000       0.00000000    
  -15.9499998       0.00000000    
  -15.9399996       0.00000000    
  -15.9300003       0.00000000    
  -15.9200001       0.00000000    
  -15.9099998       0.00000000    
  -15.8999996       0.00000000    
  -15.8900003       0.00000000    
  -15.8800001       0.00000000    
  -15.8699999       0.00000000    
  -15.8599997       0.00000000    
  -15.8500004       0.00000000    
  -15.8400002      -0.00000000    
  -15.8299999       0.00000000    
  -15.8199997       0.00000000    
  -15.8100004       1.40129846E-45
  -15.8000002       1.26116862E-44
  -15.7900000       4.90454463E-44
  -15.7799997       1.24715563E-43
  -15.7700005       6.58610278E-44
  -15.7600002      -1.28358939E-42
  -15.7500000      -8.69645827E-42
  -15.7399998      -3.72885521E-41
  -15.7299995      -1.26266801E-40
  -15.7200003      -3.60192560E-40
  -15.7100000      -8.87319003E-40
  -15.6999998      -1.89786679E-39
  -15.6899996      -3.47689895E-39
  -15.6800003      -5.18536904E-39
  -15.6700001      -5.19128953E-39
  -15.6599998       1.12586344E-39
  -15.6499996       2.27669998E-38
  -15.6400003       7.36784964E-38
  -15.6300001       1.69720169E-37
  -15.6199999       3.18310125E-37
  -15.6099997       4.97673952E-37
  -15.6000004       6.27363161E-37
  -15.5900002       5.41413970E-37
  -15.5799999      -1.42138145E-38
  -15.5699997      -1.34040678E-36
  -15.5600004      -3.71141894E-36
  -15.5500002      -7.33788788E-36
  -15.5400000      -1.24556526E-35
  -15.5299997      -1.94626235E-35
  -15.5200005      -2.84962330E-35
  -15.5100002      -3.70065366E-35
  -15.5000000      -3.34717425E-35
  -15.4899998       1.27867885E-35
  -15.4799995       1.59300767E-34
  -15.4700003       4.77431944E-34
  -15.4600000       9.88376313E-34
  -15.4499998       1.52172978E-33
  -15.4399996       1.51605150E-33
  -15.4300003      -1.08730094E-34
  -15.4200001      -4.71809821E-33
  -15.4099998      -1.29730907E-32
  -15.3999996      -2.28453757E-32
  -15.3900003      -2.70859348E-32
  -15.3800001      -1.19249024E-32
  -15.3699999       3.96469324E-32
  -15.3599997       1.36105801E-31
  -15.3500004       2.55771725E-31
  -15.3400002       3.21653035E-31
  -15.3299999       1.91740890E-31
  -15.3199997      -3.03775670E-31
  -15.3100004      -1.24662314E-30
  -15.3000002      -2.43281985E-30
  -15.2900000      -3.16006924E-30
  -15.2799997      -2.16866689E-30
  -15.2700005       2.01121911E-30
  -15.2600002       1.00812735E-29
  -15.2500000       2.03966423E-29
  -15.2399998       2.73603446E-29
  -15.2299995       2.10815241E-29
  -15.2200003      -9.90110804E-30
  -15.2100000      -7.13809281E-29
  -15.1999998      -1.52191017E-28
  -15.1899996      -2.13024511E-28
  -15.1800003      -1.84124163E-28
  -15.1700001       1.65004590E-29
  -15.1599998       4.35466338E-28
  -15.1499996       1.01055538E-27
  -15.1400003       1.49772061E-27
  -15.1300001       1.45200259E-27
  -15.1199999       3.32011448E-28
  -15.1099997      -2.21952025E-27
  -15.1000004      -5.93774448E-27
  -15.0900002      -9.48663556E-27
  -15.0799999      -1.02952973E-26
  -15.0699997      -5.06714903E-27
  -15.0600004       8.73500134E-27
  -15.0500002       3.04896897E-26
  -15.0400000       5.38225374E-26
  -15.0299997       6.53185150E-26
  -15.0200005       4.65526911E-26
  -15.0100002      -1.88735572E-26
  -15.0000000      -1.33277853E-25
  -14.9899998      -2.70928583E-25
  -14.9799995      -3.69104344E-25
  -14.9700003      -3.33912840E-25
  -14.9600000      -6.97866724E-26
  -14.9499998       4.65265774E-25
  -14.9399996       1.19016865E-24
  -14.9300003       1.84618932E-24
  -14.9200001       2.00086601E-24
  -14.9099998       1.15454724E-24
  -14.8999996      -1.03080188E-24
  -14.8900003      -4.41502611E-24
  -14.8800001      -8.08528549E-24
  -14.8699999      -1.02633936E-23
  -14.8599997      -8.61642317E-24
  -14.8500004      -1.09905807E-24
  -14.8400002       1.27388722E-23
  -14.8299999       3.03431624E-23
  -14.8199997       4.53182825E-23
  -14.8100004       4.80047041E-23
  -14.8000002       2.81535054E-23
  -14.7900000      -2.02404369E-23
  -14.7799997      -9.29529825E-23
  -14.7700005      -1.70655895E-22
  -14.7600002      -2.18342007E-22
  -14.7500000      -1.92158224E-22
  -14.7399998      -5.50698875E-23
  -14.7299995       2.00668859E-22
  -14.7200003       5.30861485E-22
  -14.7100000       8.27351915E-22
  -14.6999998       9.28981989E-22
  -14.6899996       6.64375322E-22
  -14.6800003      -7.43602882E-23
  -14.6700001      -1.24297498E-21
  -14.6599998      -2.57373875E-21
  -14.6499996      -3.56434469E-21
  -14.6400003      -3.56688883E-21
  -14.6300001      -1.99370157E-21
  -14.6199999       1.38656837E-21
  -14.6099997       6.14435737E-21
  -14.6000004       1.10061009E-20
  -14.5900002       1.39391372E-20
  -14.5799999       1.26116044E-20
  -14.5699997       5.22769706E-21
  -14.5600004      -8.42309617E-21
  -14.5500002      -2.60385099E-20
  -14.5400000      -4.24518816E-20
  -14.5299997      -5.02951048E-20
  -14.5200005      -4.19070766E-20
  -14.5100002      -1.23141215E-20
  -14.5000000       3.74169172E-20
  -14.4899998       9.76375561E-20
  -14.4799995       1.49800276E-19
  -14.4700003       1.69535319E-19
  -14.4600000       1.33469728E-19
  -14.4499998       2.88077184E-20
  -14.4399996      -1.36836379E-19
  -14.4300003      -3.29063718E-19
  -14.4200001      -4.87757026E-19
  -14.4099998      -5.38404313E-19
  -14.3999996      -4.13762282E-19
  -14.3900003      -8.20420544E-20
  -14.3800001       4.26227868E-19
  -14.3699999       1.00320092E-18
  -14.3599997       1.47090973E-18
  -14.3500004       1.61688219E-18
  -14.3400002       1.25639212E-18
  -14.3299999       3.09193961E-19
  -14.3199997      -1.13123825E-18
  -14.3100004      -2.76340880E-18
  -14.3000002      -4.10349082E-18
  -14.2900000      -4.58389002E-18
  -14.2799997      -3.71655475E-18
  -14.2700005      -1.28753506E-18
  -14.2600002       2.47300285E-18
  -14.2500000       6.81152463E-18
  -14.2399998       1.05198837E-17
  -14.2299995       1.21780003E-17
  -14.2200003       1.05462683E-17
  -14.2100000       5.02606397E-18
  -14.1999998      -3.94107556E-18
  -14.1899996      -1.46840953E-17
  -14.1800003      -2.44472221E-17
  -14.1700001      -2.99215282E-17
  -14.1599998      -2.81067866E-17
  -14.1499996      -1.73261698E-17
  -14.1400003       1.88059636E-18
  -14.1300001       2.62954149E-17
  -14.1199999       5.02482609E-17
  -14.1099997       6.66419516E-17
  -14.1000004       6.86683324E-17
  -14.0900002       5.18726153E-17
  -14.0799999       1.60358739E-17
  -14.0699997      -3.37224595E-17
  -14.0600004      -8.71235656E-17
  -14.0500002      -1.30423274E-16
  -14.0400000      -1.49461571E-16
  -14.0299997      -1.33482096E-16
  -14.0200005      -7.87982773E-17
  -14.0100002       8.75133348E-18
  -14.0000000       1.13469606E-16
  -13.9899998       2.12066636E-16
  -13.9799995       2.78361258E-16
  -13.9700003       2.89554137E-16
  -13.9600000       2.32644296E-16
  -13.9499998       1.09308490E-16
  -13.9399996      -6.22588936E-17
  -13.9300003      -2.49432383E-16
  -13.9200001      -4.11127929E-16
  -13.9099998      -5.06591295E-16
  -13.8999996      -5.05085905E-16
  -13.8900003      -3.94146268E-16
  -13.8800001      -1.84231267E-16
  -13.8699999       9.16340359E-17
  -13.8599997       3.83456765E-16
  -13.8500004       6.34038254E-16
  -13.8400002       7.90731355E-16
  -13.8299999       8.16470569E-16
  -13.8199997       6.97504051E-16
  -13.8100004       4.46086037E-16
  -13.8000002       9.76982624E-17
  -13.7900000      -2.96232012E-16
  -13.7799997      -6.78044792E-16
  -13.7700005      -9.93442380E-16
  -13.7600002      -1.19871880E-15
  -13.7500000      -1.26435433E-15
  -13.7399998      -1.17505556E-15
  -13.7299995      -9.27595310E-16
  -13.7200003      -5.28567988E-16
  -13.7100000       5.89500272E-18
  -13.6999998       6.47321319E-16
  -13.6899996       1.34944228E-15
  -13.6800003       2.04222566E-15
  -13.6700001       2.62880635E-15
  -13.6599998       2.98903633E-15
  -13.6499996       2.99241324E-15
  -13.6400003       2.52101124E-15
  -13.6300001       1.50007110E-15
  -13.6199999      -6.91026816E-17
  -13.6099997      -2.08156420E-15
  -13.6000004      -4.31492178E-15
  -13.5900002      -6.43658515E-15
  -13.5799999      -8.03627930E-15
  -13.5699997      -8.68342348E-15
  -13.5600004      -8.00361008E-15
  -13.5500002      -5.76340276E-15
  -13.5400000      -1.94898618E-15
  -13.5299997       3.17737369E-15
  -13.5200005       9.05792131E-15
  -13.5100002       1.48680744E-14
  -13.5000000       1.95979504E-14
  -13.4899998       2.21835201E-14
  -13.4799995       2.16755867E-14
  -13.4700003       1.74262121E-14
  -13.4600000       9.26569426E-15
  -13.4499998      -2.36109163E-15
  -13.4399996      -1.63300702E-14
  -13.4300003      -3.08715828E-14
  -13.4200001      -4.37187009E-14
  -13.4099998      -5.23715525E-14
  -13.3999996      -5.44600376E-14
  -13.3900003      -4.81662067E-14
  -13.3800001      -3.26486783E-14
  -13.3699999      -8.39717632E-15
  -13.3599997       2.25590031E-14
  -13.3500004       5.66563330E-14
  -13.3400002       8.90615909E-14
  -13.3299999       1.14204924E-13
  -13.3199997       1.26545272E-13
  -13.3100004       1.21484244E-13
  -13.3000002       9.63012087E-14
  -13.2900000       5.09562621E-14
  -13.2799997      -1.13985910E-14
  -13.2700005      -8.43358383E-14
  -13.2600002      -1.58582579E-13
  -13.2500000      -2.22977940E-13
  -13.2399998      -2.65886217E-13
  -13.2299995      -2.76909599E-13
  -13.2200003      -2.48676649E-13
  -13.2100000      -1.78440596E-13
  -13.1999998      -6.92201152E-14
  -13.1899996       6.97472069E-14
  -13.1800003       2.23394193E-13
  -13.1700001       3.72104555E-13
  -13.1599998       4.93816305E-13
  -13.1499996       5.66757958E-13
  -13.1400003       5.72524070E-13
  -13.1300001       4.99122228E-13
  -13.1199999       3.43584021E-13
  -13.1099997       1.13743176E-13
  -13.1000004      -1.71163851E-13
  -13.0900002      -4.81317460E-13
  -13.0799999      -7.78658388E-13
  -13.0699997      -1.02068386E-12
  -13.0600004      -1.16542930E-12
  -13.0500002      -1.17717912E-12
  -13.0400000      -1.03226943E-12
  -13.0299997      -7.24228078E-13
  -13.0200005      -2.67445815E-13
  -13.0100002       3.01366245E-13
  -13.0000000       9.24508408E-13
  -12.9899998       1.52769475E-12
  -12.9799995       2.02742510E-12
  -12.9700003       2.34078187E-12
  -12.9600000       2.39667487E-12
  -12.9499998       2.14719301E-12
  -12.9399996       1.57750852E-12
  -12.9300003       7.12760254E-13
  -12.9200001      -3.79452708E-13
  -12.9099998      -1.59189491E-12
  -12.8999996      -2.78614761E-12
  -12.8900003      -3.80627691E-12
  -12.8800001      -4.49654897E-12
  -12.8699999      -4.72137477E-12
  -12.8599997      -4.38518015E-12
  -12.8500004      -3.44968672E-12
  -12.8400002      -1.94616632E-12
  -12.8299999       1.94041408E-14
  -12.8199997       2.26967902E-12
  -12.8100004       4.56833746E-12
  -12.8000002       6.64108005E-12
  -12.7900000       8.20376406E-12
  -12.7799997       8.99525246E-12
  -12.7700005       8.81170831E-12
  -12.7600002       7.53858434E-12
  -12.7500000       5.17621709E-12
  -12.7399998       1.85525445E-12
  -12.7299995      -2.16131084E-12
  -12.7200003      -6.49158678E-12
  -12.7100000      -1.06642551E-11
  -12.6999998      -1.41627682E-11
  -12.6899996      -1.64809746E-11
  -12.6800003      -1.71849288E-11
  -12.6700001      -1.59741647E-11
  -12.6599998      -1.27347386E-11
  -12.6499996      -7.57640565E-12
  -12.6400003      -8.47309365E-13
  -12.6300001       6.87836637E-12
  -12.6199999       1.48413955E-11
  -12.6099997       2.21652280E-11
  -12.6000004       2.79448600E-11
  -12.5900002       3.13480839E-11
  -12.5799999       3.17179338E-11
  -12.5699997       2.86641631E-11
  -12.5600004       2.21319942E-11
  -12.5500002       1.24384678E-11
  -12.5400000       2.70017407E-13
  -12.5299997      -1.33608315E-11
  -12.5200005      -2.71970259E-11
  -12.5100002      -3.98498456E-11
  -12.5000000      -4.99323638E-11
  -12.4899998      -5.62002389E-11
  -12.4799995      -5.76856340E-11
  -12.4700003      -5.38103243E-11
  -12.4600000      -4.44659344E-11
  -12.4499998      -3.00522489E-11
  -12.4399996      -1.14682907E-11
  -12.4300003       9.94478198E-12
  -12.4200001       3.25052971E-11
  -12.4099998       5.43294680E-11
  -12.3999996       7.34946826E-11
  -12.3900003       8.82131798E-11
  -12.3800001       9.69992003E-11
  -12.3699999       9.88131174E-11
  -12.3599997       9.31664745E-11
  -12.3500004       8.01758243E-11
  -12.3400002       6.05575728E-11
  -12.3299999       3.55627194E-11
  -12.3199997       6.85736147E-12
  -12.3100004      -2.36378174E-11
  -12.3000002      -5.39300583E-11
  -12.2900000      -8.21352777E-11
  -12.2799997      -1.06632272E-10
  -12.2700005      -1.26167202E-10
  -12.2600002      -1.39890002E-10
  -12.2500000      -1.47312468E-10
  -12.2399998      -1.48187795E-10
  -12.2299995      -1.42320336E-10
  -12.2200003      -1.29326147E-10
  -12.2100000      -1.08370597E-10
  -12.1999998      -7.79150772E-11
  -12.1899996      -3.55050017E-11
  -12.1800003       2.23709627E-11
  -12.1700001       1.00324554E-10
  -12.1599998       2.04003120E-10
  -12.1499996       3.39904216E-10
  -12.1400003       5.15081477E-10
  -12.1300001       7.36748607E-10
  -12.1199999       1.01181130E-09
  -12.1099997       1.34634981E-09
  -12.1000004       1.74509118E-09
  -12.0900002       2.21090346E-09
  -12.0799999       2.74435386E-09
  -12.0699997       3.34334849E-09
  -12.0600004       4.00290512E-09
  -12.0500002       4.71505768E-09
  -12.0400000       5.46890710E-09
  -12.0299997       6.25083141E-09
  -12.0200005       7.04482694E-09
  -12.0100002       7.83296450E-09
  -12.0000000       8.59593552E-09
  -11.9899998       9.31362809E-09
  -11.9799995       9.96572602E-09
  -11.9700003       1.05322639E-08
  -11.9600000       1.09941150E-08
  -11.9499998       1.13333911E-08
  -11.9399996       1.15337562E-08
  -11.9300003       1.15806156E-08
  -11.9200001       1.14612169E-08
  -11.9099998       1.11647021E-08
  -11.8999996       1.06820837E-08
  -11.8900003       1.00061994E-08
  -11.8800001       9.13165898E-09
  -11.8699999       8.05480926E-09
  -11.8599997       6.77370782E-09
  -11.8500004       5.28811661E-09
  -11.8400002       3.59954133E-09
  -11.8299999       1.71126846E-09
  -11.8199997      -3.71564779E-10
  -11.8100004      -2.64188760E-09
  -11.8000002      -5.09059639E-09
  -11.7900000      -7.70643993E-09
  -11.7799997      -1.04759152E-08
  -11.7700005      -1.33831337E-08
  -11.7600002      -1.64097074E-08
  -11.7500000      -1.95346601E-08
  -11.7399998      -2.27343477E-08
  -11.7299995      -2.59824198E-08
  -11.7200003      -2.92498861E-08
  -11.7100000      -3.25051701E-08
  -11.6999998      -3.57143222E-08
  -11.6899996      -3.88412538E-08
  -11.6800003      -4.18480397E-08
  -11.6700001      -4.46953266E-08
  -11.6599998      -4.73427875E-08
  -11.6499996      -4.97495414E-08
  -11.6400003      -5.18747783E-08
  -11.6300001      -5.36782068E-08
  -11.6199999      -5.51206902E-08
  -11.6099997      -5.61648115E-08
  -11.6000004      -5.67754554E-08
  -11.5900002      -5.69204381E-08
  -11.5799999      -5.65710359E-08
  -11.5699997      -5.57025182E-08
  -11.5600004      -5.42946452E-08
  -11.5500002      -5.23320196E-08
  -11.5400000      -4.98044024E-08
  -11.5299997      -4.67068340E-08
  -11.5200005      -4.30397442E-08
  -11.5100002      -3.88088210E-08
  -11.5000000      -3.40248789E-08
  -11.4899998      -2.87035444E-08
  -11.4799995      -2.28650041E-08
  -11.4700003      -1.65335976E-08
  -11.4600000      -9.73747838E-09
  -11.4499998      -2.50828780E-09
  -11.4399996       5.11917264E-09
  -11.4300003       1.31071909E-08
  -11.4200001       2.14153424E-08
  -11.4099998       3.00006384E-08
  -11.3999996       3.88176531E-08
  -11.3900003       4.78184852E-08
  -11.3800001       5.69528140E-08
  -11.3699999       6.61678143E-08
  -11.3599997       7.54080887E-08
  -11.3500004       8.46155714E-08
  -11.3400002       9.37293336E-08
  -11.3299999       1.02685675E-07
  -11.3199997       1.11417911E-07
  -11.3100004       1.19856452E-07
  -11.3000002       1.27928871E-07
  -11.2900000       1.35560143E-07
  -11.2799997       1.42672832E-07
  -11.2700005       1.49187514E-07
  -11.2600002       1.55023343E-07
  -11.2500000       1.60098594E-07
  -11.2399998       1.64331340E-07
  -11.2299995       1.67640195E-07
  -11.2200003       1.69945068E-07
  -11.2100000       1.71168097E-07
  -11.1999998       1.71234205E-07
  -11.1899996       1.70071971E-07
  -11.1800003       1.67614331E-07
  -11.1700001       1.63798902E-07
  -11.1599998       1.58568696E-07
  -11.1499996       1.51872129E-07
  -11.1400003       1.43663300E-07
  -11.1300001       1.33901707E-07
  -11.1199999       1.22552208E-07
  -11.1099997       1.09584455E-07
  -11.1000004       9.49723855E-08
  -11.0900002       7.86935104E-08
  -11.0799999       6.07283326E-08
  -11.0699997       4.10594723E-08
  -11.0600004       1.96710594E-08
  -11.0500002      -3.45196294E-09
  -11.0400000      -2.83242834E-08
  -11.0299997      -5.49607151E-08
  -11.0200005      -8.33764418E-08
  -11.0100002      -1.13586957E-07
  -11.0000000      -1.45608197E-07
  -10.9899998      -1.79456180E-07
  -10.9799995      -2.15146699E-07
  -10.9700003      -2.52694718E-07
  -10.9600000      -2.92114066E-07
  -10.9499998      -3.33416608E-07
  -10.9399996      -3.76611467E-07
  -10.9300003      -4.21704726E-07
  -10.9200001      -4.68698516E-07
  -10.9099998      -5.17590649E-07
  -10.8999996      -5.68374162E-07
  -10.8900003      -6.21037088E-07
  -10.8800001      -6.75562376E-07
  -10.8699999      -7.31927798E-07
  -10.8599997      -7.90105901E-07
  -10.8500004      -8.50064964E-07
  -10.8400002      -9.11769462E-07
  -10.8299999      -9.75180114E-07
  -10.8199997      -1.04025503E-06
  -10.8100004      -1.10695044E-06
  -10.8000002      -1.17522097E-06
  -10.7900000      -1.24502208E-06
  -10.7799997      -1.31630816E-06
  -10.7700005      -1.38903545E-06
  -10.7600002      -1.46316165E-06
  -10.7500000      -1.53864653E-06
  -10.7399998      -1.61545086E-06
  -10.7299995      -1.69353882E-06
  -10.7200003      -1.77287529E-06
  -10.7100000      -1.85342742E-06
  -10.6999998      -1.93516257E-06
  -10.6899996      -2.01804846E-06
  -10.6800003      -2.10205235E-06
  -10.6700001      -2.18713990E-06
  -10.6599998      -2.27327337E-06
  -10.6499996      -2.36041296E-06
  -10.6400003      -2.44851344E-06
  -10.6300001      -2.53752455E-06
  -10.6199999      -2.62739150E-06
  -10.6099997      -2.71805061E-06
  -10.6000004      -2.80943345E-06
  -10.5900002      -2.90146340E-06
  -10.5799999      -2.99405701E-06
  -10.5699997      -3.08712356E-06
  -10.5600004      -3.18056573E-06
  -10.5500002      -3.27427915E-06
  -10.5400000      -3.36815447E-06
  -10.5299997      -3.46207617E-06
  -10.5200005      -3.55592510E-06
  -10.5100002      -3.64957828E-06
  -10.5000000      -3.74291039E-06
  -10.4899998      -3.83579345E-06
  -10.4799995      -3.92809852E-06
  -10.4700003      -4.01969601E-06
  -10.4600000      -4.11045858E-06
  -10.4499998      -4.20025799E-06
  -10.4399996      -4.28896874E-06
  -10.4300003      -4.37646622E-06
  -10.4200001      -4.46262902E-06
  -10.4099998      -4.54733708E-06
  -10.3999996      -4.63047354E-06
  -10.3900003      -4.71192561E-06
  -10.3800001      -4.79158098E-06
  -10.3699999      -4.86933050E-06
  -10.3599997      -4.94506639E-06
  -10.3500004      -5.01868544E-06
  -10.3400002      -5.09008260E-06
  -10.3299999      -5.15915781E-06
  -10.3199997      -5.22580967E-06
  -10.3100004      -5.28993814E-06
  -10.3000002      -5.35144545E-06
  -10.2900000      -5.41023155E-06
  -10.2799997      -5.46619958E-06
  -10.2700005      -5.51925223E-06
  -10.2600002      -5.56929172E-06
  -10.2500000      -5.61622255E-06
  -10.2399998      -5.65994833E-06
  -10.2299995      -5.70037628E-06
  -10.2200003      -5.73741499E-06
  -10.2100000      -5.77097535E-06
  -10.1999998      -5.80097139E-06
  -10.1899996      -5.82731946E-06
  -10.1800003      -5.84994586E-06
  -10.1700001      -5.86877741E-06
  -10.1599998      -5.88375133E-06
  -10.1499996      -5.89481397E-06
  -10.1400003      -5.90191530E-06
  -10.1300001      -5.90501895E-06
  -10.1199999      -5.90409581E-06
  -10.1099997      -5.89912815E-06
  -10.1000004      -5.89011006E-06
  -10.0900002      -5.87704290E-06
  -10.0799999      -5.85993848E-06
  -10.0699997      -5.83882047E-06
  -10.0600004      -5.81371751E-06
  -10.0500002      -5.78467188E-06
  -10.0400000      -5.75172680E-06
  -10.0299997      -5.71493683E-06
  -10.0200005      -5.67436246E-06
  -10.0100002      -5.63006552E-06
  -10.0000000      -5.58211423E-06
  -9.98999977      -5.53057862E-06
  -9.97999954      -5.47552963E-06
  -9.97000027      -5.41704139E-06
  -9.96000004      -5.35518257E-06
  -9.94999981      -5.29002136E-06
  -9.93999958      -5.22162463E-06
  -9.93000031      -5.15005149E-06
  -9.92000008      -5.07535788E-06
  -9.90999985      -4.99759290E-06
  -9.89999962      -4.91679566E-06
  -9.89000034      -4.83300073E-06
  -9.88000011      -4.74623084E-06
  -9.86999989      -4.65650237E-06
  -9.85999966      -4.56382122E-06
  -9.85000038      -4.46818467E-06
  -9.84000015      -4.36958135E-06
  -9.82999992      -4.26799306E-06
  -9.81999969      -4.16339117E-06
  -9.81000042      -4.05574110E-06
  -9.80000019      -3.94500421E-06
  -9.78999996      -3.83113365E-06
  -9.77999973      -3.71407737E-06
  -9.77000046      -3.59378441E-06
  -9.76000023      -3.47019636E-06
  -9.75000000      -3.34325568E-06
  -9.73999977      -3.21290395E-06
  -9.72999954      -3.07908363E-06
  -9.72000027      -2.94173810E-06
  -9.71000004      -2.80081304E-06
  -9.69999981      -2.65625727E-06
  -9.68999958      -2.50802441E-06
  -9.68000031      -2.35607217E-06
  -9.67000008      -2.20036054E-06
  -9.65999985      -2.04085813E-06
  -9.64999962      -1.87753631E-06
  -9.64000034      -1.71037038E-06
  -9.63000011      -1.53933979E-06
  -9.61999989      -1.36442793E-06
  -9.60999966      -1.18561968E-06
  -9.60000038      -1.00290197E-06
  -9.59000015      -8.16261263E-07
  -9.57999992      -6.25682389E-07
  -9.56999969      -4.31149573E-07
  -9.56000042      -2.32641568E-07
  -9.55000019      -3.01333785E-08
  -9.53999996       1.76405962E-07
  -9.52999973       3.87012904E-07
  -9.52000046       6.01733802E-07
  -9.51000023       8.20620642E-07
  -9.50000000       1.04373487E-06
  -9.48999977       1.27114663E-06
  -9.47999954       1.50293693E-06
  -9.47000027       1.73919420E-06
  -9.46000004       1.98001544E-06
  -9.44999981       2.22550943E-06
  -9.43999958       2.47579055E-06
  -9.43000031       2.73098135E-06
  -9.42000008       2.99121234E-06
  -9.40999985       3.25661927E-06
  -9.39999962       3.52734151E-06
  -9.39000034       3.80352276E-06
  -9.38000011       4.08530695E-06
  -9.36999989       4.37284098E-06
  -9.35999966       4.66626489E-06
  -9.35000038       4.96572193E-06
  -9.34000015       5.27134489E-06
  -9.32999992       5.58326292E-06
  -9.31999969       5.90159971E-06
  -9.31000042       6.22646166E-06
  -9.30000019       6.55795156E-06
  -9.28999996       6.89615899E-06
  -9.27999973       7.24115625E-06
  -9.27000046       7.59300383E-06
  -9.26000023       7.95174674E-06
  -9.25000000       8.31741363E-06
  -9.23999977       8.69001360E-06
  -9.22999954       9.06954483E-06
  -9.22000027       9.45598003E-06
  -9.21000004       9.84927556E-06
  -9.19999981       1.02493777E-05
  -9.18999958       1.06562029E-05
  -9.18000031       1.10696628E-05
  -9.17000008       1.14896466E-05
  -9.15999985       1.19160304E-05
  -9.14999962       1.23486798E-05
  -9.14000034       1.27874473E-05
  -9.13000011       1.32321738E-05
  -9.11999989       1.36826984E-05
  -9.10999966       1.41388491E-05
  -9.10000038       1.46004531E-05
  -9.09000015       1.50673377E-05
  -9.07999992       1.55393391E-05
  -9.06999969       1.60162854E-05
  -9.06000042       1.64980156E-05
  -9.05000019       1.69843861E-05
  -9.03999996       1.74752604E-05
  -9.02999973       1.79705203E-05
  -9.02000046       1.84700639E-05
  -9.01000023       1.89738021E-05
  -9.00000000       1.94816876E-05
  -8.98999977       1.99936767E-05
  -8.97999954       2.05097713E-05
  -8.97000027       2.10299913E-05
  -8.96000004       2.15543969E-05
  -8.94999981       2.20830698E-05
  -8.93999958       2.26161392E-05
  -8.93000031       2.31537560E-05
  -8.92000008       2.36961205E-05
  -8.90999985       2.42434580E-05
  -8.89999962       2.47960306E-05
  -8.89000034       2.53541366E-05
  -8.88000011       2.59181161E-05
  -8.86999989       2.64883311E-05
  -8.85999966       2.70651672E-05
  -8.85000038       2.76490591E-05
  -8.84000015       2.82404599E-05
  -8.82999992       2.88398387E-05
  -8.81999969       2.94476977E-05
  -8.81000042       3.00645479E-05
  -8.80000019       3.06909242E-05
  -8.78999996       3.13273667E-05
  -8.77999973       3.19744249E-05
  -8.77000046       3.26326553E-05
  -8.76000023       3.33026110E-05
  -8.75000000       3.39848521E-05
  -8.73999977       3.46799134E-05
  -8.72999954       3.53883188E-05
  -8.72000027       3.61105995E-05
  -8.71000004       3.68472283E-05
  -8.69999981       3.75986892E-05
  -8.68999958       3.83654115E-05
  -8.68000031       3.91477915E-05
  -8.67000008       3.99462187E-05
  -8.65999985       4.07610023E-05
  -8.64999962       4.15924369E-05
  -8.64000034       4.24407735E-05
  -8.63000011       4.33061869E-05
  -8.61999989       4.41888296E-05
  -8.60999966       4.50888037E-05
  -8.60000038       4.60061528E-05
  -8.59000015       4.69408697E-05
  -8.57999992       4.78928923E-05
  -8.56999969       4.88621154E-05
  -8.56000042       4.98483823E-05
  -8.55000019       5.08514750E-05
  -8.53999996       5.18711495E-05
  -8.52999973       5.29070894E-05
  -8.52000046       5.39589710E-05
  -8.51000023       5.50263903E-05
  -8.50000000       5.61089400E-05
  -8.48999977       5.72061435E-05
  -8.47999954       5.83175024E-05
  -8.47000027       5.94425110E-05
  -8.46000004       6.05806090E-05
  -8.44999981       6.17312180E-05
  -8.43999958       6.28937487E-05
  -8.43000031       6.40675935E-05
  -8.42000008       6.52521267E-05
  -8.40999985       6.64466934E-05
  -8.39999962       6.76506679E-05
  -8.39000034       6.88634027E-05
  -8.38000011       7.00842356E-05
  -8.36999989       7.13125119E-05
  -8.35999966       7.25476129E-05
  -8.35000038       7.37888622E-05
  -8.34000015       7.50356485E-05
  -8.32999992       7.62873315E-05
  -8.31999969       7.75432782E-05
  -8.31000042       7.88028992E-05
  -8.30000019       8.00655762E-05
  -8.28999996       8.13307415E-05
  -8.27999973       8.25978132E-05
  -8.27000046       8.38662090E-05
  -8.26000023       8.51353907E-05
  -8.25000000       8.64048270E-05
  -8.23999977       8.76739796E-05
  -8.22999954       8.89423245E-05
  -8.22000027       9.02093670E-05
  -8.21000004       9.14746051E-05
  -8.19999981       9.27375950E-05
  -8.18999958       9.39978418E-05
  -8.18000031       9.52548944E-05
  -8.17000008       9.65082727E-05
  -8.15999985       9.77575910E-05
  -8.14999962       9.90023764E-05
  -8.14000034       1.00242214E-04
  -8.13000011       1.01476711E-04
  -8.11999989       1.02705453E-04
  -8.10999966       1.03928047E-04
  -8.10000038       1.05144092E-04
  -8.09000015       1.06353218E-04
  -8.07999992       1.07555054E-04
  -8.06999969       1.08749249E-04
  -8.06000042       1.09935419E-04
  -8.05000019       1.11113251E-04
  -8.03999996       1.12282381E-04
  -8.02999973       1.13442518E-04
  -8.02000046       1.14593386E-04
  -8.01000023       1.15734620E-04
  -8.00000000       1.16865980E-04
  -7.98999977       1.17987234E-04
  -7.98000002       1.19098113E-04
  -7.96999979       1.20198434E-04
  -7.96000004       1.21287987E-04
  -7.94999981       1.22366575E-04
  -7.94000006       1.23434118E-04
  -7.92999983       1.24490456E-04
  -7.92000008       1.25535531E-04
  -7.90999985       1.26569284E-04
  -7.90000010       1.27591717E-04
  -7.88999987       1.28602842E-04
  -7.88000011       1.29602689E-04
  -7.86999989       1.30591419E-04
  -7.86000013       1.31569119E-04
  -7.84999990       1.32536006E-04
  -7.84000015       1.33492314E-04
  -7.82999992       1.34438349E-04
  -7.82000017       1.35374372E-04
  -7.80999994       1.36300776E-04
  -7.80000019       1.37217954E-04
  -7.78999996       1.38126386E-04
  -7.78000021       1.39026582E-04
  -7.76999998       1.39919139E-04
  -7.76000023       1.40804579E-04
  -7.75000000       1.41683573E-04
  -7.73999977       1.42556819E-04
  -7.73000002       1.43425059E-04
  -7.71999979       1.44288992E-04
  -7.71000004       1.45149490E-04
  -7.69999981       1.46007325E-04
  -7.69000006       1.46863400E-04
  -7.67999983       1.47718587E-04
  -7.67000008       1.48573774E-04
  -7.65999985       1.49429965E-04
  -7.65000010       1.50288048E-04
  -7.63999987       1.51149041E-04
  -7.63000011       1.52013876E-04
  -7.61999989       1.52883600E-04
  -7.61000013       1.53759174E-04
  -7.59999990       1.54641617E-04
  -7.59000015       1.55531918E-04
  -7.57999992       1.56431066E-04
  -7.57000017       1.57340080E-04
  -7.55999994       1.58259878E-04
  -7.55000019       1.59191462E-04
  -7.53999996       1.60135824E-04
  -7.53000021       1.61093834E-04
  -7.51999998       1.62066499E-04
  -7.51000023       1.63054690E-04
  -7.50000000       1.64059267E-04
  -7.48999977       1.65081146E-04
  -7.48000002       1.66121128E-04
  -7.46999979       1.67180056E-04
  -7.46000004       1.68258732E-04
  -7.44999981       1.69357852E-04
  -7.44000006       1.70478219E-04