  -16.0000000       0.00000000    
  -15.9899998       0.00000000    
  -15.9799995       0.00000000    
  -15.9700003       0.00000000    
  -15.9600000       0.00000000    
  -15.9499998       0.00000000    
  -15.9399996       0.00000000    
  -15.9300003       0.00000000    
  -15.9200001       0.00000000    
  -15.9099998       1.78173272E-34
  -15.8999996      -2.12642290E-34
  -15.8900003      -3.24056374E-32
  -15.8800001      -3.90959218E-31
  -15.8699999      -2.77170358E-30
  -15.8599997      -1.43478140E-29
  -15.8500004      -5.92684598E-29
  -15.8400002      -2.05123648E-28
  -15.8299999      -6.13200302E-28
  -15.8199997      -1.61563740E-27
  -15.8100004      -3.80132195E-27
  -15.8000002      -8.04418644E-27
  -15.7900000      -1.53222410E-26
  -15.7799997      -2.60586888E-26
  -15.7700005      -3.86241522E-26
  -15.7600002      -4.67321416E-26
  -15.7500000      -3.60308305E-26
  -15.7399998       1.84358565E-26
  -15.7299995       1.50064948E-25
  -15.7200003       3.87999437E-25
  -15.7100000       7.28659380E-25
  -15.6999998       1.09296609E-24
  -15.6899996       1.28605893E-24
  -15.6800003       9.97607306E-25
  -15.6700001      -1.04101142E-25
  -15.6599998      -2.14436868E-24
  -15.6499996      -4.70547996E-24
  -15.6400003      -6.52662137E-24
  -15.6300001      -5.52127140E-24
  -15.6199999       5.54360858E-25
  -15.6099997       1.26101159E-23
  -15.6000004       2.82007550E-23
  -15.5900002       3.99650692E-23
  -15.5799999       3.61232472E-23
  -15.5699997       4.60011733E-24
  -15.5600004      -5.88785332E-23
  -15.5500002      -1.40916003E-22
  -15.5400000      -2.04142965E-22
  -15.5299997      -1.91804789E-22
  -15.5200005      -4.90436308E-23
  -15.5100002       2.40006096E-22
  -15.5000000       6.11409510E-22
  -15.4899998       9.00555531E-22
  -15.4799995       8.69303614E-22
  -15.4700003       2.98674780E-22
  -15.4600000      -8.64446452E-22
  -15.4499998      -2.35950867E-21
  -15.4399996      -3.55206824E-21
  -15.4300003      -3.55421657E-21
  -15.4200001      -1.56963489E-21
  -15.4099998       2.59789763E-21
  -15.3999996       8.06518061E-21
  -15.3900003       1.27073239E-20
  -15.3800001       1.35837532E-20
  -15.3699999       8.04363029E-21
  -15.3599997      -4.72497683E-21
  -15.3500004      -2.23031238E-20
  -15.3400002      -3.86251244E-20
  -15.3299999      -4.52349308E-20
  -15.3199997      -3.43528108E-20
  -15.3100004      -2.99905923E-21
  -15.3000002       4.34727356E-20
  -15.2900000       9.04882663E-20
  -15.2799997       1.17565927E-19
  -15.2700005       1.05846671E-19
  -15.2600002       4.76744286E-20
  -15.2500000      -4.58684994E-20
  -15.2399998      -1.44109674E-19
  -15.2299995      -2.05564748E-19
  -15.2200003      -1.95362431E-19
  -15.2100000      -1.05375805E-19
  -15.1999998       3.26597983E-20
  -15.1899996       1.50884516E-19
  -15.1800003       1.70701812E-19
  -15.1700001       4.49759909E-20
  -15.1599998      -1.98805429E-19
  -15.1499996      -4.37523743E-19
  -15.1400003      -4.75002676E-19
  -15.1300001      -1.16430453E-19
  -15.1199999       7.19978522E-19
  -15.1099997       1.89332605E-18
  -15.1000004       2.98751188E-18
  -15.0900002       3.36708501E-18
  -15.0799999       2.36392565E-18
  -15.0699997      -4.32183388E-19
  -15.0600004      -4.86134418E-18
  -15.0500002      -9.98245203E-18
  -15.0400000      -1.40886577E-17
  -15.0299997      -1.50314583E-17
  -15.0200005      -1.08446290E-17
  -15.0100002      -5.48253656E-19
  -15.0000000       1.50889060E-17
  -14.9899998       3.31037913E-17
  -14.9799995       4.84635691E-17
  -14.9700003       5.49092648E-17
  -14.9600000       4.64932944E-17
  -14.9499998       1.95767975E-17
  -14.9399996      -2.51518393E-17
  -14.9300003      -8.12173240E-17
  -14.9200001      -1.36078331E-16
  -14.9099998      -1.72547838E-16
  -14.8999996      -1.72147390E-16
  -14.8900003      -1.20173210E-16
  -14.8800001      -1.16472614E-17
  -14.8699999       1.43293543E-16
  -14.8599997       3.16486052E-16
  -14.8500004       4.63271912E-16
  -14.8400002       5.29839384E-16
  -14.8299999       4.66400799E-16
  -14.8199997       2.44242453E-16
  -14.8100004      -1.27455073E-16
  -14.8000002      -5.90714425E-16
  -14.7900000      -1.03966444E-15
  -14.7799997      -1.33725994E-15
  -14.7700005      -1.34777627E-15
  -14.7600002      -9.79578886E-16
  -14.7500000      -2.27224873E-16
  -14.7399998       8.01357807E-16
  -14.7299995       1.88603321E-15
  -14.7200003       2.73174309E-15
  -14.7100000       3.03933146E-15
  -14.6999998       2.59539979E-15
  -14.6899996       1.35643094E-15
  -14.6800003      -5.01536149E-16
  -14.6700001      -2.59107527E-15
  -14.6599998      -4.38847135E-15
  -14.6499996      -5.36396658E-15
  -14.6400003      -5.13479419E-15
  -14.6300001      -3.59588525E-15
  -14.6199999      -9.83210646E-16
  -14.6099997       2.15839983E-15
  -14.6000004       5.10258153E-15
  -14.5900002       7.13120257E-15
  -14.5799999       7.72946872E-15
  -14.5699997       6.72327616E-15
  -14.5600004       4.31231250E-15
  -14.5500002       9.89365399E-16
  -14.5400000      -2.62204999E-15
  -14.5299997      -5.94460978E-15
  -14.5200005      -8.56460593E-15
  -14.5100002      -1.02404149E-14
  -14.5000000      -1.08031759E-14
  -14.4899998      -1.00115889E-14
  -14.4799995      -7.46266520E-15
  -14.4700003      -2.66045193E-15
  -14.4600000       4.71026509E-15
  -14.4499998       1.43537932E-14
  -14.4399996       2.49336464E-14
  -14.4300003       3.38693713E-14
  -14.4200001       3.75816491E-14
  -14.4099998       3.22980134E-14
  -14.3999996       1.53408932E-14
  -14.3900003      -1.34094099E-14
  -14.3800001      -5.03608826E-14
  -14.3699999      -8.78973882E-14
  -14.3599997      -1.15309441E-13
  -14.3500004      -1.21044057E-13
  -14.3400002      -9.59298626E-14
  -14.3299999      -3.66090452E-14
  -14.3199997       5.18399749E-14
  -14.3100004       1.55085119E-13
  -14.3000002       2.51164297E-13
  -14.2900000       3.14563561E-13
  -14.2799997       3.22035801E-13
  -14.2700005       2.58820201E-13
  -14.2600002       1.23630977E-13
  -14.2500000      -6.90552352E-14
  -14.2399998      -2.90257510E-13
  -14.2299995      -5.01221026E-13
  -14.2200003      -6.60581887E-13
  -14.2100000      -7.32257137E-13
  -14.1999998      -6.92156727E-13
  -14.1899996      -5.32237178E-13
  -14.1800003      -2.61273371E-13
  -14.1700001       9.72108814E-14
  -14.1599998       5.08606666E-13
  -14.1499996       9.30876361E-13
  -14.1400003       1.31702255E-12
  -14.1300001       1.61609268E-12
  -14.1199999       1.77364829E-12
  -14.1099997       1.73353009E-12
  -14.1000004       1.44296998E-12
  -14.0900002       8.62317271E-13
  -14.0799999      -2.09320645E-14
  -14.0699997      -1.17628943E-12
  -14.0600004      -2.51681510E-12
  -14.0500002      -3.89321344E-12
  -14.0400000      -5.10000202E-12
  -14.0299997      -5.89605231E-12
  -14.0200005      -6.03852341E-12
  -14.0100002      -5.32553645E-12
  -14.0000000      -3.64002101E-12
  -13.9899998      -9.86034388E-13
  -13.9799995       2.49026776E-12
  -13.9700003       6.49999889E-12
  -13.9600000       1.06317975E-11
  -13.9499998       1.43895781E-11
  -13.9399996       1.72411928E-11
  -13.9300003       1.86702060E-11
  -13.9200001       1.82248643E-11
  -13.9099998       1.55604175E-11
  -13.8999996       1.04753211E-11
  -13.8900003       2.94416011E-12
  -13.8800001      -6.84844629E-12
  -13.8699999      -1.84703242E-11
  -13.8599997      -3.12013054E-11
  -13.8500004      -4.39943984E-11
  -13.8400002      -5.54462136E-11
  -13.8299999      -6.37873088E-11
  -13.8199997      -6.68993402E-11
  -13.8100004      -6.23651478E-11
  -13.8000002      -4.75490064E-11
  -13.7900000      -1.97033518E-11
  -13.7799997       2.39074524E-11
  -13.7700005       8.58797894E-11
  -13.7600002       1.68536532E-10
  -13.7500000       2.73804590E-10
  -13.7399998       4.03088285E-10
  -13.7299995       5.57139002E-10
  -13.7200003       7.35934369E-10
  -13.7100000       9.38538580E-10
  -13.6999998       1.16298549E-09
  -13.6899996       1.40618939E-09
  -13.6800003       1.66388359E-09
  -13.6700001       1.93062544E-09
  -13.6599998       2.19991048E-09
  -13.6499996       2.46429877E-09
  -13.6400003       2.71566880E-09
  -13.6300001       2.94548408E-09
  -13.6199999       3.14506332E-09
  -13.6099997       3.30587135E-09
  -13.6000004       3.41975648E-09
  -13.5900002       3.47913298E-09
  -13.5799999       3.47713480E-09
  -13.5699997       3.40778272E-09
  -13.5600004       3.26603944E-09
  -13.5500002       3.04796210E-09
  -13.5400000       2.75079448E-09
  -13.5299997       2.37302866E-09
  -13.5200005       1.91453320E-09
  -13.5100002       1.37654066E-09
  -13.5000000       7.61661012E-10
  -13.4899998       7.36924827E-11
  -13.4799995      -6.82434387E-10
  -13.4700003      -1.50087087E-09
  -13.4600000      -2.37501596E-09
  -13.4499998      -3.29761884E-09
  -13.4399996      -4.26091473E-09
  -13.4300003      -5.25658406E-09
  -13.4200001      -6.27581986E-09
  -13.4099998      -7.30925764E-09
  -13.3999996      -8.34691694E-09
  -13.3900003      -9.37822975E-09
  -13.3800001      -1.03921280E-08
  -13.3699999      -1.13770282E-08
  -13.3599997      -1.23210002E-08
  -13.3500004      -1.32118574E-08
  -13.3400002      -1.40373020E-08
  -13.3299999      -1.47849804E-08
  -13.3199997      -1.54426072E-08
  -13.3100004      -1.59980935E-08
  -13.3000002      -1.64396958E-08
  -13.2900000      -1.67559904E-08
  -13.2799997      -1.69362462E-08
  -13.2700005      -1.69704517E-08
  -13.2600002      -1.68494658E-08
  -13.2500000      -1.65651244E-08
  -13.2399998      -1.61104516E-08
  -13.2299995      -1.54794009E-08
  -13.2200003      -1.46671830E-08
  -13.2100000      -1.36701361E-08
  -13.1999998      -1.24859172E-08
  -13.1899996      -1.11135972E-08
  -13.1800003      -9.55377466E-09
  -13.1700001      -7.80903875E-09
  -13.1599998      -5.88396531E-09
  -13.1499996      -3.78511666E-09
  -13.1400003      -1.52128887E-09
  -13.1300001       8.96852648E-10
  -13.1199999       3.45671292E-09
  -13.1099997       6.14441609E-09
  -13.1000004       8.94482532E-09
  -13.0900002       1.18419843E-08
  -13.0799999       1.48190642E-08
  -13.0699997       1.78585218E-08
  -13.0600004       2.09421991E-08
  -13.0500002       2.40509213E-08
  -13.0400000       2.71644662E-08
  -13.0299997       3.02613294E-08
  -13.0200005       3.33187913E-08
  -13.0100002       3.63127022E-08
  -13.0000000       3.92175963E-08
  -12.9899998       4.20068105E-08
  -12.9799995       4.46527686E-08
  -12.9700003       4.71271910E-08
  -12.9600000       4.94014429E-08
  -12.9499998       5.14468859E-08
  -12.9399996       5.32351834E-08
  -12.9300003       5.47387273E-08
  -12.9200001       5.59308972E-08
  -12.9099998       5.67861562E-08
  -12.8999996       5.72803636E-08
  -12.8900003       5.73909738E-08
  -12.8800001       5.70973491E-08
  -12.8699999       5.63804505E-08
  -12.8599997       5.52244011E-08
  -12.8500004       5.36154801E-08
  -12.8400002       5.15435801E-08
  -12.8299999       4.90018301E-08
  -12.8199997       4.59868730E-08
  -12.8100004       4.24988791E-08
  -12.8000002       3.85403069E-08
  -12.7900000       3.41154696E-08
  -12.7799997       2.92289286E-08
  -12.7700005       2.38842262E-08
  -12.7600002       1.80825470E-08
  -12.7500000       1.18226344E-08
  -12.7399998       5.09866416E-09
  -12.7299995      -2.09815609E-09
  -12.7200003      -9.77952386E-09
  -12.7100000      -1.79582660E-08
  -12.6999998      -2.66469549E-08
  -12.6899996      -3.58565657E-08
  -12.6800003      -4.55931861E-08
  -12.6700001      -5.58590720E-08
  -12.6599998      -6.66493420E-08
  -12.6499996      -7.79527127E-08
  -12.6400003      -8.97512322E-08
  -12.6300001      -1.02020209E-07
  -12.6199999      -1.14729517E-07
  -12.6099997      -1.27843762E-07
  -12.6000004      -1.41324122E-07
  -12.5900002      -1.55129740E-07
  -12.5799999      -1.69218964E-07
  -12.5699997      -1.83550881E-07
  -12.5600004      -1.98087236E-07
  -12.5500002      -2.12793466E-07
  -12.5400000      -2.27639532E-07
  -12.5299997      -2.42601573E-07
  -12.5200005      -2.57660105E-07
  -12.5100002      -2.72800975E-07
  -12.5000000      -2.88014348E-07
  -12.4899998      -3.03290705E-07
  -12.4799995      -3.18623535E-07
  -12.4700003      -3.34005279E-07
  -12.4600000      -3.49425733E-07
  -12.4499998      -3.64876854E-07
  -12.4399996      -3.80345426E-07
  -12.4300003      -3.95821530E-07
  -12.4200001      -4.11293058E-07
  -12.4099998      -4.26749097E-07
  -12.3999996      -4.42181317E-07
  -12.3900003      -4.57582928E-07
  -12.3800001      -4.72944834E-07
  -12.3699999      -4.88260753E-07
  -12.3599997      -5.03521335E-07
  -12.3500004      -5.18720356E-07
  -12.3400002      -5.33842922E-07
  -12.3299999      -5.48871128E-07
  -12.3199997      -5.63792071E-07
  -12.3100004      -5.78585457E-07
  -12.3000002      -5.93230254E-07
  -12.2900000      -6.07705886E-07
  -12.2799997      -6.21990239E-07
  -12.2700005      -6.36054892E-07
  -12.2600002      -6.49873641E-07
  -12.2500000      -6.63419712E-07
  -12.2399998      -6.76655588E-07
  -12.2299995      -6.89543072E-07
  -12.2200003      -7.02034242E-07
  -12.2100000      -7.14091982E-07
  -12.1999998      -7.25657571E-07
  -12.1899996      -7.36682523E-07
  -12.1800003      -7.47107606E-07
  -12.1700001      -7.56877057E-07
  -12.1599998      -7.65945401E-07
  -12.1499996      -7.74258410E-07
  -12.1400003      -7.81781466E-07
  -12.1300001      -7.88477109E-07
  -12.1199999      -7.94317202E-07
  -12.1099997      -7.99284805E-07
  -12.1000004      -8.03371279E-07
  -12.0900002      -8.06590265E-07
  -12.0799999      -8.08946822E-07
  -12.0699997      -8.10449535E-07
  -12.0600004      -8.11143195E-07
  -12.0500002      -8.11044060E-07
  -12.0400000      -8.10199481E-07
  -12.0299997      -8.08648736E-07
  -12.0200005      -8.06444291E-07
  -12.0100002      -8.03645833E-07
  -12.0000000      -8.00279338E-07
  -11.9899998      -7.96424445E-07
  -11.9799995      -7.92109404E-07
  -11.9700003      -7.87400552E-07
  -11.9600000      -7.82350526E-07
  -11.9499998      -7.77009575E-07
  -11.9399996      -7.71446651E-07
  -11.9300003      -7.65689606E-07
  -11.9200001      -7.59799661E-07
  -11.9099998      -7.53846109E-07
  -11.8999996      -7.47872434E-07
  -11.8900003      -7.41933263E-07
  -11.8800001      -7.36062816E-07
  -11.8699999      -7.30325439E-07
  -11.8599997      -7.24738811E-07
  -11.8500004      -7.19351135E-07
  -11.8400002      -7.14162013E-07
  -11.8299999      -7.09171161E-07
  -11.8199997      -7.04386878E-07
  -11.8100004      -6.99779434E-07
  -11.8000002      -6.95320068E-07
  -11.7900000      -6.90964555E-07
  -11.7799997      -6.86656506E-07
  -11.7700005      -6.82318955E-07
  -11.7600002      -6.77909270E-07
  -11.7500000      -6.73306374E-07
  -11.7399998      -6.68446262E-07
  -11.7299995      -6.63217236E-07
  -11.7200003      -6.57532041E-07
  -11.7100000      -6.51296830E-07
  -11.6999998      -6.44382794E-07
  -11.6899996      -6.36739742E-07
  -11.6800003      -6.28237672E-07
  -11.6700001      -6.18765682E-07
  -11.6599998      -6.08233847E-07
  -11.6499996      -5.96582538E-07
  -11.6400003      -5.83664644E-07
  -11.6300001      -5.69419285E-07
  -11.6199999      -5.53796440E-07
  -11.6099997      -5.36652692E-07
  -11.6000004      -5.17964224E-07
  -11.5900002      -4.97640428E-07
  -11.5799999      -4.75642310E-07
  -11.5699997      -4.51920471E-07
  -11.5600004      -4.26434639E-07
  -11.5500002      -3.99121006E-07
  -11.5400000      -3.70029056E-07
  -11.5299997      -3.39131418E-07
  -11.5200005      -3.06433350E-07
  -11.5100002      -2.71983481E-07
  -11.5000000      -2.35804222E-07
  -11.4899998      -1.97979631E-07
  -11.4799995      -1.58566294E-07
  -11.4700003      -1.17659496E-07
  -11.4600000      -7.53807328E-08
  -11.4499998      -3.18398143E-08
  -11.4399996       1.28267024E-08
  -11.4300003       5.84724980E-08
  -11.4200001       1.04925697E-07
  -11.4099998       1.52021400E-07
  -11.3999996       1.99586864E-07
  -11.3900003       2.47435622E-07
  -11.3800001       2.95346382E-07
  -11.3699999       3.43089027E-07
  -11.3599997       3.90497689E-07
  -11.3500004       4.37310888E-07
  -11.3400002       4.83296617E-07
  -11.3299999       5.28165515E-07
  -11.3199997       5.71736905E-07
  -11.3100004       6.13717987E-07
  -11.3000002       6.53857910E-07
  -11.2900000       6.91906564E-07
  -11.2799997       7.27646693E-07
  -11.2700005       7.60754972E-07
  -11.2600002       7.91056550E-07
  -11.2500000       8.18339458E-07
  -11.2399998       8.42363761E-07
  -11.2299995       8.62923969E-07
  -11.2200003       8.79804247E-07
  -11.2100000       8.92845776E-07
  -11.1999998       9.01868816E-07
  -11.1899996       9.06699483E-07
  -11.1800003       9.07212552E-07
  -11.1700001       9.03240959E-07
  -11.1599998       8.94658342E-07
  -11.1499996       8.81371022E-07
  -11.1400003       8.63258037E-07
  -11.1300001       8.40173982E-07
  -11.1199999       8.12071676E-07
  -11.1099997       7.78881429E-07
  -11.1000004       7.40492055E-07
  -11.0900002       6.96881216E-07
  -11.0799999       6.47953470E-07
  -11.0699997       5.93689492E-07
  -11.0600004       5.34131061E-07
  -11.0500002       4.69197602E-07
  -11.0400000       3.98911197E-07
  -11.0299997       3.23241608E-07
  -11.0200005       2.42264662E-07
  -11.0100002       1.55974718E-07
  -11.0000000       6.44420979E-08
  -10.9899998      -3.22868736E-08
  -10.9799995      -1.34086349E-07
  -10.9700003      -2.40978011E-07
  -10.9600000      -3.52774833E-07
  -10.9499998      -4.69420286E-07
  -10.9399996      -5.90793775E-07
  -10.9300003      -7.16797103E-07
  -10.9200001      -8.47300896E-07
  -10.9099998      -9.82161737E-07
  -10.8999996      -1.12132307E-06
  -10.8900003      -1.26460395E-06
  -10.8800001      -1.41190276E-06
  -10.8699999      -1.56308863E-06
  -10.8599997      -1.71803458E-06
  -10.8500004      -1.87661726E-06
  -10.8400002      -2.03884815E-06
  -10.8299999      -2.20442439E-06
  -10.8199997      -2.37328891E-06
  -10.8100004      -2.54535530E-06
  -10.8000002      -2.72044417E-06
  -10.7900000      -2.89850050E-06
  -10.7799997      -3.07930577E-06
  -10.7700005      -3.26268787E-06
  -10.7600002      -3.44861064E-06
  -10.7500000      -3.63689992E-06
  -10.7399998      -3.82734288E-06
  -10.7299995      -4.01979787E-06
  -10.7200003      -4.21411687E-06
  -10.7100000      -4.41006296E-06
  -10.6999998      -4.60764659E-06
  -10.6899996      -4.80658582E-06
  -10.6800003      -5.00675151E-06
  -10.6700001      -5.20788035E-06
  -10.6599998      -5.40997371E-06
  -10.6499996      -5.61278102E-06
  -10.6400003      -5.81614313E-06
  -10.6300001      -6.01992497E-06
  -10.6199999      -6.22398193E-06
  -10.6099997      -6.42804798E-06
  -10.6000004      -6.63205810E-06
  -10.5900002      -6.83591770E-06
  -10.5799999      -7.03929800E-06
  -10.5699997      -7.24209531E-06
  -10.5600004      -7.44405816E-06
  -10.5500002      -7.64506967E-06
  -10.5400000      -7.84490112E-06
  -10.5299997      -8.04344108E-06
  -10.5200005      -8.24041217E-06
  -10.5100002      -8.43574890E-06
  -10.5000000      -8.62920751E-06
  -10.4899998      -8.82057884E-06
  -10.4799995      -9.00975010E-06
  -10.4700003      -9.19648119E-06
  -10.4600000      -9.38063204E-06
  -10.4499998      -9.56220447E-06
  -10.4399996      -9.74071918E-06
  -10.4300003      -9.91641082E-06
  -10.4200001      -1.00889729E-05
  -10.4099998      -1.02582480E-05
  -10.3999996      -1.04242081E-05
  -10.3900003      -1.05866911E-05
  -10.3800001      -1.07456417E-05
  -10.3699999      -1.09009561E-05
  -10.3599997      -1.10525398E-05
  -10.3500004      -1.12003436E-05
  -10.3400002      -1.13444394E-05
  -10.3299999      -1.14846007E-05
  -10.3199997      -1.16208375E-05
  -10.3100004      -1.17532054E-05
  -10.3000002      -1.18816315E-05
  -10.2900000      -1.20062705E-05
  -10.2799997      -1.21271005E-05
  -10.2700005      -1.22439833E-05
  -10.2600002      -1.23571690E-05
  -10.2500000      -1.24666503E-05
  -10.2399998      -1.25724855E-05
  -10.2299995      -1.26748409E-05
  -10.2200003      -1.27738276E-05
  -10.2100000      -1.28694464E-05
  -10.1999998      -1.29617638E-05
  -10.1899996      -1.30510271E-05
  -10.1800003      -1.31374809E-05
  -10.1700001      -1.32209134E-05
  -10.1599998      -1.33017420E-05
  -10.1499996      -1.33798894E-05
  -10.1400003      -1.34558823E-05
  -10.1300001      -1.35295586E-05
  -10.1199999      -1.36010485E-05
  -10.1099997      -1.36706703E-05
  -10.1000004      -1.37386442E-05
  -10.0900002      -1.38049627E-05
  -10.0799999      -1.38700925E-05
  -10.0699997      -1.39340373E-05
  -10.0600004      -1.39968206E-05
  -10.0500002      -1.40588554E-05
  -10.0400000      -1.41201626E-05
  -10.0299997      -1.41810315E-05
  -10.0200005      -1.42416366E-05
  -10.0100002      -1.43024427E-05
  -10.0000000      -1.43632278E-05
  -9.98999977      -1.44243222E-05
  -9.97999954      -1.44858059E-05
  -9.97000027      -1.45482582E-05
  -9.96000004      -1.46109951E-05
  -9.94999981      -1.46748889E-05
  -9.93999958      -1.47399105E-05
  -9.93000031      -1.48061490E-05
  -9.92000008      -1.48737081E-05
  -9.90999985      -1.49428215E-05
  -9.89999962      -1.50133510E-05
  -9.89000034      -1.50851347E-05
  -9.88000011      -1.51592030E-05
  -9.86999989      -1.52348148E-05
  -9.85999966      -1.53122073E-05
  -9.85000038      -1.53915789E-05
  -9.84000015      -1.54729078E-05
  -9.82999992      -1.55565504E-05
  -9.81999969      -1.56418500E-05
  -9.81000042      -1.57297218E-05
  -9.80000019      -1.58196417E-05
  -9.78999996      -1.59117062E-05
  -9.77999973      -1.60061954E-05
  -9.77000046      -1.61026765E-05
  -9.76000023      -1.62021643E-05
  -9.75000000      -1.63034692E-05
  -9.73999977      -1.64071498E-05
  -9.72999954      -1.65133988E-05
  -9.72000027      -1.66222762E-05
  -9.71000004      -1.67333528E-05
  -9.69999981      -1.68469760E-05
  -9.68999958      -1.69629220E-05
  -9.68000031      -1.70817311E-05
  -9.67000008      -1.72024957E-05
  -9.65999985      -1.73261105E-05
  -9.64999962      -1.74519992E-05
  -9.64000034      -1.75807818E-05
  -9.63000011      -1.77120146E-05
  -9.61999989      -1.78459632E-05
  -9.60999966      -1.79821236E-05
  -9.60000038      -1.81211562E-05
  -9.59000015      -1.82623808E-05
  -9.57999992      -1.84062064E-05
  -9.56999969      -1.85529061E-05
  -9.56000042      -1.87018613E-05
  -9.55000019      -1.88541708E-05
  -9.53999996      -1.90083829E-05
  -9.52999973      -1.91654508E-05
  -9.52000046      -1.93252326E-05
  -9.51000023      -1.94871591E-05
  -9.50000000      -1.96522069E-05
  -9.48999977      -1.98196467E-05
  -9.47999954      -1.99902570E-05
  -9.47000027      -2.01637449E-05
  -9.46000004      -2.03399850E-05
  -9.44999981      -2.05187025E-05
  -9.43999958      -2.07008652E-05
  -9.43000031      -2.08857364E-05
  -9.42000008      -2.10740545E-05
  -9.40999985      -2.12648010E-05
  -9.39999962      -2.14595966E-05
  -9.39000034      -2.16575172E-05
  -9.38000011      -2.18590139E-05
  -9.36999989      -2.20640759E-05
  -9.35999966      -2.22725466E-05
  -9.35000038      -2.24845935E-05
  -9.34000015      -2.27003111E-05
  -9.32999992      -2.29195884E-05
  -9.31999969      -2.31430822E-05
  -9.31000042      -2.33700848E-05
  -9.30000019      -2.36009200E-05
  -9.28999996      -2.38355187E-05
  -9.27999973      -2.40743284E-05
  -9.27000046      -2.43171853E-05
  -9.26000023      -2.45639894E-05
  -9.25000000      -2.48152828E-05
  -9.23999977      -2.50711200E-05
  -9.22999954      -2.53307226E-05
  -9.22000027      -2.55954947E-05
  -9.21000004      -2.58640248E-05
  -9.19999981      -2.61380155E-05
  -9.18999958      -2.64159480E-05
  -9.18000031      -2.66991501E-05
  -9.17000008      -2.69870998E-05
  -9.15999985      -2.72799243E-05
  -9.14999962      -2.75781331E-05
  -9.14000034      -2.78816733E-05
  -9.13000011      -2.81897082E-05
  -9.11999989      -2.85031238E-05
  -9.10999966      -2.88225492E-05
  -9.10000038      -2.91469114E-05
  -9.09000015      -2.94770834E-05
  -9.07999992      -2.98133746E-05
  -9.06999969      -3.01556593E-05
  -9.06000042      -3.05036083E-05
  -9.05000019      -3.08579074E-05
  -9.03999996      -3.12184202E-05
  -9.02999973      -3.15854923E-05
  -9.02000046      -3.19584033E-05
  -9.01000023      -3.23383465E-05
  -9.00000000      -3.27243979E-05
  -8.98999977      -3.31174779E-05
  -8.97999954      -3.35170007E-05
  -8.97000027      -3.39231628E-05
  -8.96000004      -3.43364518E-05
  -8.94999981      -3.47570203E-05
  -8.93999958      -3.51845010E-05
  -8.93000031      -3.56195778E-05
  -8.92000008      -3.60600825E-05
  -8.90999985      -3.65089363E-05
  -8.89999962      -3.69641930E-05
  -8.89000034      -3.74280717E-05
  -8.88000011      -3.78982731E-05
  -8.86999989      -3.83770384E-05
  -8.85999966      -3.88627086E-05
  -8.85000038      -3.93558730E-05
  -8.84000015      -3.98572447E-05
  -8.82999992      -4.03654594E-05
  -8.81999969      -4.08813758E-05
  -8.81000042      -4.14052811E-05
  -8.80000019      -4.19371063E-05
  -8.78999996      -4.24756472E-05
  -8.77999973      -4.30223663E-05
  -8.77000046      -4.35772381E-05
  -8.76000023      -4.41392440E-05
  -8.75000000      -4.47085331E-05
  -8.73999977      -4.52859676E-05
  -8.72999954      -4.58701106E-05
  -8.72000027      -4.64627919E-05
  -8.71000004      -4.70634986E-05
  -8.69999981      -4.76707246E-05
  -8.68999958      -4.82863034E-05
  -8.68000031      -4.89080921E-05
  -8.67000008      -4.95366585E-05
  -8.65999985      -5.01722789E-05
  -8.64999962      -5.08160592E-05
  -8.64000034      -5.14668463E-05
  -8.63000011      -5.21235052E-05
  -8.61999989      -5.27889970E-05
  -8.60999966      -5.34595056E-05
  -8.60000038      -5.41365589E-05
  -8.59000015      -5.48215248E-05
  -8.57999992      -5.55129191E-05
  -8.56999969      -5.62105852E-05
  -8.56000042      -5.69146214E-05
  -8.55000019      -5.76239509E-05
  -8.53999996      -5.83410474E-05
  -8.52999973      -5.90631353E-05
  -8.52000046      -5.97916369E-05
  -8.51000023      -6.05262248E-05
  -8.50000000      -6.12674703E-05
  -8.48999977      -6.20136852E-05
  -8.47999954      -6.27650588E-05
  -8.47000027      -6.35230026E-05
  -8.46000004      -6.42860250E-05
  -8.44999981      -6.50557340E-05
  -8.43999958      -6.58316785E-05
  -8.43000031      -6.66115375E-05
  -8.42000008      -6.73993200E-05
  -8.40999985      -6.81911188E-05
  -8.39999962      -6.89880690E-05
  -8.39000034      -6.97920404E-05
  -8.38000011      -7.06015926E-05
  -8.36999989      -7.14162234E-05
  -8.35999966      -7.22375698E-05
  -8.35000038      -7.30641623E-05
  -8.34000015      -7.38966337E-05
  -8.32999992      -7.47362137E-05
  -8.31999969      -7.55805959E-05
  -8.31000042      -7.64315191E-05
  -8.30000019      -7.72880157E-05
  -8.28999996      -7.81522467E-05
  -8.27999973      -7.90221457E-05
  -8.27000046      -7.98995461E-05
  -8.26000023      -8.07806282E-05
  -8.25000000      -8.16706379E-05
  -8.23999977      -8.25676980E-05
  -8.22999954      -8.34697639E-05
  -8.22000027      -8.43801172E-05
  -8.21000004      -8.52994854E-05
  -8.19999981      -8.62241286E-05
  -8.18999958      -8.71584998E-05
  -8.18000031      -8.80984808E-05
  -8.17000008      -8.90486335E-05
  -8.15999985      -9.00042432E-05
  -8.14999962      -9.09693190E-05
  -8.14000034      -9.19432860E-05
  -8.13000011      -9.29265225E-05
  -8.11999989      -9.39191668E-05
  -8.10999966      -9.49207606E-05
  -8.10000038      -9.59300160E-05
  -8.09000015      -9.69505709E-05
  -8.07999992      -9.79799443E-05
  -8.06999969      -9.90214103E-05
  -8.06000042      -1.00069301E-04
  -8.05000019      -1.01130368E-04
  -8.03999996      -1.02203761E-04
  -8.02999973      -1.03285711E-04
  -8.02000046      -1.04378560E-04
  -8.01000023      -1.05483137E-04
  -8.00000000      -1.06601481E-04
  -7.98999977      -1.07727778E-04
  -7.98000002      -1.08868633E-04
  -7.96999979      -1.10021749E-04
  -7.96000004      -1.11188041E-04
  -7.94999981      -1.12367627E-04
  -7.94000006      -1.13559217E-04
  -7.92999983      -1.14763912E-04
  -7.92000008      -1.15983094E-04
  -7.90999985      -1.17214593E-04
  -7.90000010      -1.18462631E-04
  -7.88999987      -1.19724267E-04
  -7.88000011      -1.20998993E-04
  -7.86999989      -1.22289610E-04
  -7.86000013      -1.23593753E-04
  -7.84999990      -1.24913771E-04
  -7.84000015      -1.26248036E-04
  -7.82999992      -1.27598483E-04
  -7.82000017      -1.28965825E-04
  -7.80999994      -1.30347529E-04
  -7.80000019      -1.31742941E-04
  -7.78999996      -1.33156733E-04
  -7.78000021      -1.34588292E-04
  -7.76999998      -1.36030940E-04
  -7.76000023      -1.37493509E-04
  -7.75000000      -1.38972115E-04
  -7.73999977      -1.40470278E-04
  -7.73000002      -1.41985423E-04
  -7.71999979      -1.43515586E-04
  -7.71000004      -1.45064056E-04
  -7.69999981      -1.46629769E-04
  -7.69000006      -1.48209700E-04
  -7.67999983      -1.49810308E-04
  -7.67000008      -1.51426560E-04
  -7.65999985      -1.53063389E-04
  -7.65000010      -1.54718771E-04
  -7.63999987      -1.56388807E-04
  -7.63000011      -1.58078008E-04
  -7.61999989      -1.59785559E-04
  -7.61000013      -1.61515301E-04
  -7.59999990      -1.63257442E-04
  -7.59000015      -1.65022109E-04
  -7.57999992      -1.66804210E-04
  -7.57000017      -1.68606406E-04
  -7.55999994      -1.70423271E-04
  -7.55000019      -1.72262124E-04
  -7.53999996      -1.74122848E-04
  -7.53000021      -1.75998677E-04
  -7.51999998      -1.77892129E-04
  -7.51000023      -1.79802781E-04
  -7.50000000      -1.81734373E-04
  -7.48999977      -1.83687604E-04
  -7.48000002      -1.85660494E-04
  -7.46999979      -1.87643789E-04
  -7.46000004      -1.89655053E-04
  -7.44999981      -1.91681160E-04
  -7.44000006      -1.93728309E-04