  -16.0000000       0.00000000    
  -15.9899998       0.00000000    
  -15.9799995       0.00000000    
  -15.9700003       0.00000000    
  -15.9600000       0.00000000    
  -15.9499998       0.00000000    
  -15.9399996       0.00000000    
  -15.9300003       0.00000000    
  -15.9200001       0.00000000    
  -15.9099998       0.00000000    
  -15.8999996       0.00000000    
  -15.8900003       0.00000000    
  -15.8800001       0.00000000    
  -15.8699999       0.00000000    
  -15.8599997       0.00000000    
  -15.8500004       0.00000000    
  -15.8400002       0.00000000    
  -15.8299999       0.00000000    
  -15.8199997       0.00000000    
  -15.8100004       0.00000000    
  -15.8000002       0.00000000    
  -15.7900000       0.00000000    
  -15.7799997       0.00000000    
  -15.7700005       0.00000000    
  -15.7600002       0.00000000    
  -15.7500000       0.00000000    
  -15.7399998       0.00000000    
  -15.7299995       0.00000000    
  -15.7200003       0.00000000    
  -15.7100000       0.00000000    
  -15.6999998       0.00000000    
  -15.6899996       0.00000000    
  -15.6800003       0.00000000    
  -15.6700001       0.00000000    
  -15.6599998       0.00000000    
  -15.6499996       0.00000000    
  -15.6400003       0.00000000    
  -15.6300001       0.00000000    
  -15.6199999       0.00000000    
  -15.6099997       0.00000000    
  -15.6000004       0.00000000    
  -15.5900002       0.00000000    
  -15.5799999       0.00000000    
  -15.5699997       0.00000000    
  -15.5600004       0.00000000    
  -15.5500002       0.00000000    
  -15.5400000       0.00000000    
  -15.5299997       0.00000000    
  -15.5200005       0.00000000    
  -15.5100002       0.00000000    
  -15.5000000       0.00000000    
  -15.4899998       0.00000000    
  -15.4799995       0.00000000    
  -15.4700003       0.00000000    
  -15.4600000       0.00000000    
  -15.4499998       0.00000000    
  -15.4399996       0.00000000    
  -15.4300003       0.00000000    
  -15.4200001       0.00000000    
  -15.4099998       0.00000000    
  -15.3999996       0.00000000    
  -15.3900003       0.00000000    
  -15.3800001       0.00000000    
  -15.3699999       0.00000000    
  -15.3599997       0.00000000    
  -15.3500004       0.00000000    
  -15.3400002       0.00000000    
  -15.3299999       0.00000000    
  -15.3199997       0.00000000    
  -15.3100004       0.00000000    
  -15.3000002       0.00000000    
  -15.2900000       0.00000000    
  -15.2799997       0.00000000    
  -15.2700005       0.00000000    
  -15.2600002       0.00000000    
  -15.2500000       0.00000000    
  -15.2399998       0.00000000    
  -15.2299995       0.00000000    
  -15.2200003       0.00000000    
  -15.2100000       0.00000000    
  -15.1999998       0.00000000    
  -15.1899996       0.00000000    
  -15.1800003       0.00000000    
  -15.1700001       0.00000000    
  -15.1599998       0.00000000    
  -15.1499996       0.00000000    
  -15.1400003       0.00000000    
  -15.1300001       0.00000000    
  -15.1199999       0.00000000    
  -15.1099997       0.00000000    
  -15.1000004       0.00000000    
  -15.0900002       0.00000000    
  -15.0799999       0.00000000    
  -15.0699997       0.00000000    
  -15.0600004       0.00000000    
  -15.0500002       0.00000000    
  -15.0400000       0.00000000    
  -15.0299997       0.00000000    
  -15.0200005       0.00000000    
  -15.0100002       0.00000000    
  -15.0000000       0.00000000    
  -14.9899998       0.00000000    
  -14.9799995       0.00000000    
  -14.9700003       0.00000000    
  -14.9600000       0.00000000    
  -14.9499998       0.00000000    
  -14.9399996       0.00000000    
  -14.9300003       0.00000000    
  -14.9200001       0.00000000    
  -14.9099998       0.00000000    
  -14.8999996       0.00000000    
  -14.8900003       0.00000000    
  -14.8800001       0.00000000    
  -14.8699999       0.00000000    
  -14.8599997       0.00000000    
  -14.8500004       0.00000000    
  -14.8400002       0.00000000    
  -14.8299999       0.00000000    
  -14.8199997       0.00000000    
  -14.8100004       0.00000000    
  -14.8000002       0.00000000    
  -14.7900000       0.00000000    
  -14.7799997       0.00000000    
  -14.7700005       0.00000000    
  -14.7600002       0.00000000    
  -14.7500000       0.00000000    
  -14.7399998       0.00000000    
  -14.7299995       0.00000000    
  -14.7200003       0.00000000    
  -14.7100000       0.00000000    
  -14.6999998       0.00000000    
  -14.6899996       0.00000000    
  -14.6800003       0.00000000    
  -14.6700001       0.00000000    
  -14.6599998       0.00000000    
  -14.6499996       0.00000000    
  -14.6400003       0.00000000    
  -14.6300001       0.00000000    
  -14.6199999       0.00000000    
  -14.6099997       0.00000000    
  -14.6000004       0.00000000    
  -14.5900002       0.00000000    
  -14.5799999       0.00000000    
  -14.5699997       0.00000000    
  -14.5600004       0.00000000    
  -14.5500002       0.00000000    
  -14.5400000       0.00000000    
  -14.5299997       0.00000000    
  -14.5200005       0.00000000    
  -14.5100002       0.00000000    
  -14.5000000       0.00000000    
  -14.4899998       0.00000000    
  -14.4799995       0.00000000    
  -14.4700003       0.00000000    
  -14.4600000       0.00000000    
  -14.4499998       0.00000000    
  -14.4399996       0.00000000    
  -14.4300003       0.00000000    
  -14.4200001       0.00000000    
  -14.4099998       0.00000000    
  -14.3999996       0.00000000    
  -14.3900003       0.00000000    
  -14.3800001       0.00000000    
  -14.3699999       0.00000000    
  -14.3599997       0.00000000    
  -14.3500004       0.00000000    
  -14.3400002       0.00000000    
  -14.3299999       0.00000000    
  -14.3199997       0.00000000    
  -14.3100004       0.00000000    
  -14.3000002       0.00000000    
  -14.2900000       0.00000000    
  -14.2799997       0.00000000    
  -14.2700005       0.00000000    
  -14.2600002       0.00000000    
  -14.2500000       0.00000000    
  -14.2399998       0.00000000    
  -14.2299995       0.00000000    
  -14.2200003       0.00000000    
  -14.2100000       0.00000000    
  -14.1999998       0.00000000    
  -14.1899996       0.00000000    
  -14.1800003       0.00000000    
  -14.1700001       0.00000000    
  -14.1599998       0.00000000    
  -14.1499996       0.00000000    
  -14.1400003       0.00000000    
  -14.1300001      -0.00000000    
  -14.1199999       0.00000000    
  -14.1099997       0.00000000    
  -14.1000004      -0.00000000    
  -14.0900002      -0.00000000    
  -14.0799999      -0.00000000    
  -14.0699997      -0.00000000    
  -14.0600004      -0.00000000    
  -14.0500002      -1.40129846E-45
  -14.0400000      -1.40129846E-45
  -14.0299997      -1.40129846E-45
  -14.0200005      -2.80259693E-45
  -14.0100002      -4.20389539E-45
  -14.0000000      -4.20389539E-45
  -13.9899998      -4.20389539E-45
  -13.9799995      -4.20389539E-45
  -13.9700003      -5.60519386E-45
  -13.9600000      -7.00649232E-45
  -13.9499998      -7.00649232E-45
  -13.9399996      -5.60519386E-45
  -13.9300003      -8.40779079E-45
  -13.9200001      -5.60519386E-45
  -13.9099998      -2.80259693E-45
  -13.8999996      -5.60519386E-45
  -13.8900003      -9.80908925E-45
  -13.8800001      -1.12103877E-44
  -13.8699999      -1.26116862E-44
  -13.8599997      -1.82168800E-44
  -13.8500004      -2.10194770E-44
  -13.8400002      -2.80259693E-44
  -13.8299999      -3.78350585E-44
  -13.8199997      -4.90454463E-44
  -13.8100004      -6.16571324E-44
  -13.8000002      -7.70714155E-44
  -13.7900000      -9.94921910E-44
  -13.7799997      -1.24715563E-43
  -13.7700005      -1.54142831E-43
  -13.7600002      -1.90576591E-43
  -13.7500000      -2.36819440E-43
  -13.7399998      -2.95673976E-43
  -13.7299995      -3.67140198E-43
  -13.7200003      -4.54020702E-43
  -13.7100000      -5.61920684E-43
  -13.6999998      -6.97846635E-43
  -13.6899996      -8.66002451E-43
  -13.6800003      -1.07339462E-42
  -13.6700001      -1.32562835E-42
  -13.6599998      -1.63391401E-42
  -13.6499996      -2.00665940E-42
  -13.6400003      -2.45787751E-42
  -13.6300001      -3.00858780E-42
  -13.6199999      -3.67700717E-42
  -13.6099997      -4.48695768E-42
  -13.6000004      -5.46786661E-42
  -13.5900002      -6.64355602E-42
  -13.5799999      -8.05606487E-42
  -13.5699997      -9.75583991E-42
  -13.5600004      -1.17961305E-41
  -13.5500002      -1.42301859E-41
  -13.5400000      -1.71350776E-41
  -13.5299997      -2.05948835E-41
  -13.5200005      -2.47090958E-41
  -13.5100002      -2.95940223E-41
  -13.5000000      -3.53771810E-41
  -13.4899998      -4.22197214E-41
  -13.4799995      -5.02996084E-41
  -13.4700003      -5.98242340E-41
  -13.4600000      -7.10290166E-41
  -13.4499998      -8.41830052E-41
  -13.4399996      -9.96099000E-41
  -13.4300003      -1.17678242E-40
  -13.4200001      -1.38811225E-40
  -13.4099998      -1.63490893E-40
  -13.3999996      -1.92253945E-40
  -13.3900003      -2.25722558E-40
  -13.3800001      -2.64626807E-40
  -13.3699999      -3.09779446E-40
  -13.3599997      -3.62102530E-40
  -13.3500004      -4.22649834E-40
  -13.3400002      -4.92634883E-40
  -13.3299999      -5.73401523E-40
  -13.3199997      -6.66486977E-40
  -13.3100004      -7.73638665E-40
  -13.3000002      -8.96815603E-40
  -13.2900000      -1.03823044E-39
  -13.2799997      -1.20037749E-39
  -13.2700005      -1.38607055E-39
  -13.2600002      -1.59845695E-39
  -13.2500000      -1.84108338E-39
  -13.2399998      -2.11791970E-39
  -13.2299995      -2.43340803E-39
  -13.2200003      -2.79253140E-39
  -13.2100000      -3.20084735E-39
  -13.1999998      -3.66455243E-39
  -13.1899996      -4.19057045E-39
  -13.1800003      -4.78661415E-39
  -13.1700001      -5.46124828E-39
  -13.1599998      -6.22399184E-39
  -13.1499996      -7.08542186E-39
  -13.1400003      -8.05726859E-39
  -13.1300001      -9.15252347E-39
  -13.1199999      -1.03855708E-38
  -13.1099997      -1.17722958E-38
  -13.1000004      -1.33302622E-38
  -13.0900002      -1.50788361E-38
  -13.0799999      -1.70393689E-38
  -13.0699997      -1.92353774E-38
  -13.0600004      -2.16927280E-38
  -13.0500002      -2.44398363E-38
  -13.0400000      -2.75079233E-38
  -13.0299997      -3.09312225E-38
  -13.0200005      -3.47472441E-38
  -13.0100002      -3.89970713E-38
  -13.0000000      -4.37256268E-38
  -12.9899998      -4.89820235E-38
  -12.9799995      -5.48198385E-38
  -12.9700003      -6.12975929E-38
  -12.9600000      -6.84789841E-38
  -12.9499998      -7.64334380E-38
  -12.9399996      -8.52364061E-38
  -12.9300003      -9.49698757E-38
  -12.9200001      -1.05723059E-37
  -12.9099998      -1.17592550E-37
  -12.8999996      -1.30683133E-37
  -12.8900003      -1.45108245E-37
  -12.8800001      -1.60990741E-37
  -12.8699999      -1.78463364E-37
  -12.8599997      -1.97669493E-37
  -12.8500004      -2.18764057E-37
  -12.8400002      -2.41914001E-37
  -12.8299999      -2.67298982E-37
  -12.8199997      -2.95112649E-37
  -12.8100004      -3.25563291E-37
  -12.8000002      -3.58874891E-37
  -12.7900000      -3.95287508E-37
  -12.7799997      -4.35059049E-37
  -12.7700005      -4.78466074E-37
  -12.7600002      -5.25804492E-37
  -12.7500000      -5.77390974E-37
  -12.7399998      -6.33564523E-37
  -12.7299995      -6.94686831E-37
  -12.7200003      -7.61144610E-37
  -12.7100000      -8.33349730E-37
  -12.6999998      -9.11740833E-37
  -12.6899996      -9.96785883E-37
  -12.6800003      -1.08898182E-36
  -12.6700001      -1.18885785E-36
  -12.6599998      -1.29697513E-36
  -12.6499996      -1.41392970E-36
  -12.6400003      -1.54035319E-36
  -12.6300001      -1.67691490E-36
  -12.6199999      -1.82432271E-36
  -12.6099997      -1.98332565E-36
  -12.6000004      -2.15471436E-36
  -12.5900002      -2.33932488E-36
  -12.5799999      -2.53803734E-36
  -12.5699997      -2.75177943E-36
  -12.5600004      -2.98152907E-36
  -12.5500002      -3.22831400E-36
  -12.5400000      -3.49321349E-36
  -12.5299997      -3.77736471E-36
  -12.5200005      -4.08195149E-36
  -12.5100002      -4.40822363E-36
  -12.5000000      -4.75748407E-36
  -12.4899998      -5.13109598E-36
  -12.4799995      -5.53048425E-36
  -12.4700003      -5.95713833E-36
  -12.4600000      -6.41260652E-36
  -12.4499998      -6.89850669E-36
  -12.4399996      -7.41651342E-36
  -12.4300003      -7.96837803E-36
  -12.4200001      -8.55590781E-36
  -12.4099998      -9.18098611E-36
  -12.3999996      -9.84555512E-36
  -12.3900003      -1.05516302E-35
  -12.3800001      -1.13012876E-35
  -12.3699999      -1.20966763E-35
  -12.3599997      -1.29399945E-35
  -12.3500004      -1.38335280E-35
  -12.3400002      -1.47796058E-35
  -12.3299999      -1.57806257E-35
  -12.3199997      -1.68390427E-35
  -12.3100004      -1.79573623E-35
  -12.3000002      -1.91381386E-35
  -12.2900000      -2.03839847E-35
  -12.2799997      -2.16975465E-35
  -12.2700005      -2.30815189E-35
  -12.2600002      -2.45386196E-35
  -12.2500000      -2.60716152E-35
  -12.2399998      -2.76832536E-35
  -12.2299995      -2.93763127E-35
  -12.2200003      -3.11536136E-35
  -12.2100000      -3.30179087E-35
  -12.1999998      -3.49719815E-35
  -12.1899996      -3.70185699E-35
  -12.1800003      -3.91603861E-35
  -12.1700001      -4.14000989E-35
  -12.1599998      -4.37402739E-35
  -12.1499996      -4.61834396E-35
  -12.1400003      -4.87320009E-35
  -12.1300001      -5.13882623E-35
  -12.1199999      -5.41543876E-35
  -12.1099997      -5.70324260E-35
  -12.1000004      -6.00242026E-35
  -12.0900002      -6.31313763E-35
  -12.0799999      -6.63553532E-35
  -12.0699997      -6.96973387E-35
  -12.0600004      -7.31582225E-35
  -12.0500002      -7.67385671E-35
  -12.0400000      -8.04385848E-35
  -12.0299997      -8.42582297E-35
  -12.0200005      -8.81969394E-35
  -12.0100002      -9.22537552E-35
  -12.0000000      -9.64271447E-35
  -11.9899998      -1.00715082E-34
  -11.9799995      -1.05115058E-34
  -11.9700003      -1.09623768E-34
  -11.9600000      -1.14237353E-34
  -11.9499998      -1.18951097E-34
  -11.9399996      -1.23759581E-34
  -11.9300003      -1.28656514E-34
  -11.9200001      -1.33634617E-34
  -11.9099998      -1.38685753E-34
  -11.8999996      -1.43800508E-34
  -11.8900003      -1.48968505E-34
  -11.8800001      -1.54178023E-34
  -11.8699999      -1.59416147E-34
  -11.8599997      -1.64668380E-34
  -11.8500004      -1.69918787E-34
  -11.8400002      -1.75149990E-34
  -11.8299999      -1.80342621E-34
  -11.8199997      -1.85475629E-34
  -11.8100004      -1.90526076E-34
  -11.8000002      -1.95468639E-34
  -11.7900000      -2.00276182E-34
  -11.7799997      -2.04918810E-34
  -11.7700005      -2.09364383E-34
  -11.7600002      -2.13577933E-34
  -11.7500000      -2.17521855E-34
  -11.7399998      -2.21155234E-34
  -11.7299995      -2.24433945E-34
  -11.7200003      -2.27310692E-34
  -11.7100000      -2.29734231E-34
  -11.6999998      -2.31649621E-34
  -11.6899996      -2.32997697E-34
  -11.6800003      -2.33715001E-34
  -11.6700001      -2.33733368E-34
  -11.6599998      -2.32979697E-34
  -11.6499996      -2.31375698E-34
  -11.6400003      -2.28837457E-34
  -11.6300001      -2.25275158E-34
  -11.6199999      -2.20592535E-34
  -11.6099997      -2.14686939E-34
  -11.6000004      -2.07448373E-34
  -11.5900002      -1.98759427E-34
  -11.5799999      -1.88494744E-34
  -11.5699997      -1.76520210E-34
  -11.5600004      -1.62692998E-34
  -11.5500002      -1.46860524E-34
  -11.5400000      -1.28860033E-34
  -11.5299997      -1.08517999E-34
  -11.5200005      -8.56493194E-35
  -11.5100002      -6.00567583E-35
  -11.5000000      -3.15301966E-35
  -11.4899998       1.54453269E-37
  -11.4799995       3.52357732E-35
  -11.4700003       7.39678959E-35
  -11.4600000       1.16621449E-34
  -11.4499998       1.63484620E-34
  -11.4399996       2.14864273E-34
  -11.4300003       2.71086813E-34
  -11.4200001       3.32500102E-34
  -11.4099998       3.99473709E-34
  -11.3999996       4.72401379E-34
  -11.3900003       5.51702065E-34
  -11.3800001       6.37820617E-34
  -11.3699999       7.31231276E-34
  -11.3599997       8.32437804E-34
  -11.3500004       9.41976153E-34
  -11.3400002       1.06041538E-33
  -11.3299999       1.18836207E-33
  -11.3199997       1.32645988E-33
  -11.3100004       1.47539418E-33
  -11.3000002       1.63589159E-33
  -11.2900000       1.80872453E-33
  -11.2799997       1.99471602E-33
  -11.2700005       2.19473758E-33
  -11.2600002       2.40971658E-33
  -11.2500000       2.64063712E-33
  -11.2399998       2.88854668E-33
  -11.2299995       3.15455260E-33
  -11.2200003       3.43983626E-33
  -11.2100000       3.74564810E-33
  -11.1999998       4.07331494E-33
  -11.1899996       4.42424482E-33
  -11.1800003       4.79993429E-33
  -11.1700001       5.20196878E-33
  -11.1599998       5.63203000E-33
  -11.1499996       6.09189845E-33
  -11.1400003       6.58346852E-33
  -11.1300001       7.10874111E-33
  -11.1199999       7.66983542E-33
  -11.1099997       8.26900473E-33
  -11.1000004       8.90862941E-33
  -11.0900002       9.59123310E-33
  -11.0799999       1.03194871E-32
  -11.0699997       1.10962141E-32
  -11.0600004       1.19244101E-32
  -11.0500002       1.28072402E-32
  -11.0400000       1.37480530E-32
  -11.0299997       1.47503838E-32
  -11.0200005       1.58179663E-32
  -11.0100002       1.69547677E-32
  -11.0000000       1.81649524E-32
  -10.9899998       1.94529372E-32
  -10.9799995       2.08233843E-32
  -10.9700003       2.22811971E-32
  -10.9600000       2.38315787E-32
  -10.9499998       2.54799920E-32
  -10.9399996       2.72322162E-32
  -10.9300003       2.90943080E-32
  -10.9200001       3.10727032E-32
  -10.9099998       3.31741550E-32
  -10.8999996       3.54057752E-32
  -10.8900003       3.77750517E-32
  -10.8800001       4.02898661E-32
  -10.8699999       4.29585233E-32
  -10.8599997       4.57897279E-32
  -10.8500004       4.87926576E-32
  -10.8400002       5.19769630E-32
  -10.8299999       5.53527359E-32
  -10.8199997       5.89306469E-32
  -10.8100004       6.27218512E-32
  -10.8000002       6.67380511E-32
  -10.7900000       7.09915480E-32
  -10.7799997       7.54952196E-32
  -10.7700005       8.02625779E-32
  -10.7600002       8.53077527E-32
  -10.7500000       9.06455726E-32
  -10.7399998       9.62915895E-32
  -10.7299995       1.02262014E-31
  -10.7200003       1.08573830E-31
  -10.7100000       1.15244808E-31
  -10.6999998       1.22293566E-31
  -10.6899996       1.29739323E-31
  -10.6800003       1.37602487E-31
  -10.6700001       1.45904228E-31
  -10.6599998       1.54666504E-31
  -10.6499996       1.63912331E-31
  -10.6400003       1.73665772E-31
  -10.6300001       1.83951759E-31
  -10.6199999       1.94796318E-31
  -10.6099997       2.06226637E-31
  -10.6000004       2.18270634E-31
  -10.5900002       2.30957862E-31
  -10.5799999       2.44318672E-31
  -10.5699997       2.58384849E-31
  -10.5600004       2.73189213E-31
  -10.5500002       2.88765736E-31
  -10.5400000       3.05150058E-31
  -10.5299997       3.22378644E-31
  -10.5200005       3.40489650E-31
  -10.5100002       3.59522502E-31
  -10.5000000       3.79517661E-31
  -10.4899998       4.00517680E-31
  -10.4799995       4.22566192E-31
  -10.4700003       4.45707914E-31
  -10.4600000       4.69989584E-31
  -10.4499998       4.95459349E-31
  -10.4399996       5.22166628E-31
  -10.4300003       5.50162436E-31
  -10.4200001       5.79499531E-31
  -10.4099998       6.10232172E-31
  -10.3999996       6.42415891E-31
  -10.3900003       6.76107863E-31
  -10.3800001       7.11367239E-31
  -10.3699999       7.48254487E-31
  -10.3599997       7.86831861E-31
  -10.3500004       8.27161991E-31
  -10.3400002       8.69310798E-31
  -10.3299999       9.13344817E-31
  -10.3199997       9.59332036E-31
  -10.3100004       1.00734176E-30
  -10.3000002       1.05744510E-30
  -10.2900000       1.10971510E-30
  -10.2799997       1.16422540E-30
  -10.2700005       1.22105153E-30
  -10.2600002       1.28026955E-30
  -10.2500000       1.34195639E-30
  -10.2399998       1.40619095E-30
  -10.2299995       1.47305297E-30
  -10.2200003       1.54262334E-30
  -10.2100000       1.61498461E-30
  -10.1999998       1.69021718E-30
  -10.1899996       1.76840561E-30
  -10.1800003       1.84963227E-30
  -10.1700001       1.93398274E-30
  -10.1599998       2.02153995E-30
  -10.1499996       2.11238667E-30
  -10.1400003       2.20660734E-30
  -10.1300001       2.30428678E-30
  -10.1199999       2.40550851E-30
  -10.1099997       2.51035357E-30
  -10.1000004       2.61890342E-30
  -10.0900002       2.73124025E-30
  -10.0799999       2.84744153E-30
  -10.0699997       2.96758608E-30
  -10.0600004       3.09174631E-30
  -10.0500002       3.21999839E-30
  -10.0400000       3.35240945E-30
  -10.0299997       3.48904854E-30
  -10.0200005       3.62997847E-30
  -10.0100002       3.77526016E-30
  -10.0000000       3.92494931E-30
  -9.98999977       4.07909856E-30
  -9.97999954       4.23775117E-30
  -9.97000027       4.40095154E-30
  -9.96000004       4.56873427E-30
  -9.94999981       4.74112569E-30
  -9.93999958       4.91814950E-30
  -9.93000031       5.09981886E-30
  -9.92000008       5.28613678E-30
  -9.90999985       5.47710252E-30
  -9.89999962       5.67269951E-30
  -9.89000034       5.87290670E-30
  -9.88000011       6.07768872E-30
  -9.86999989       6.28700233E-30
  -9.85999966       6.50078619E-30
  -9.85000038       6.71897073E-30
  -9.84000015       6.94147056E-30
  -9.82999992       7.16818562E-30
  -9.81999969       7.39899779E-30
  -9.81000042       7.63377617E-30
  -9.80000019       7.87236805E-30
  -9.78999996       8.11460715E-30
  -9.77999973       8.36030165E-30
  -9.77000046       8.60924163E-30
  -9.76000023       8.86119389E-30
  -9.75000000       9.11590490E-30
  -9.73999977       9.37309629E-30
  -9.72999954       9.63246188E-30
  -9.72000027       9.89367064E-30
  -9.71000004       1.01563615E-29
  -9.69999981       1.04201529E-29
  -9.68999958       1.06846185E-29
  -9.68000031       1.09493142E-29
  -9.67000008       1.12137504E-29
  -9.65999985       1.14774102E-29
  -9.64999962       1.17397347E-29
  -9.64000034       1.20001362E-29
  -9.63000011       1.22579746E-29
  -9.61999989       1.25125780E-29
  -9.60999966       1.27632310E-29
  -9.60000038       1.30091798E-29
  -9.59000015       1.32496066E-29
  -9.57999992       1.34836657E-29
  -9.56999969       1.37104485E-29
  -9.56000042       1.39290085E-29
  -9.55000019       1.41383254E-29
  -9.53999996       1.43373523E-29
  -9.52999973       1.45249529E-29
  -9.52000046       1.46999597E-29
  -9.51000023       1.48611405E-29
  -9.50000000       1.50071877E-29
  -9.48999977       1.51367351E-29
  -9.47999954       1.52483623E-29
  -9.47000027       1.53405616E-29
  -9.46000004       1.54117714E-29
  -9.44999981       1.54603500E-29
  -9.43999958       1.54845971E-29
  -9.43000031       1.54827118E-29
  -9.42000008       1.54528298E-29
  -9.40999985       1.53930056E-29
  -9.39999962       1.53012155E-29
  -9.39000034       1.51753545E-29
  -9.38000011       1.50132213E-29
  -9.36999989       1.48125303E-29
  -9.35999966       1.45709149E-29
  -9.35000038       1.42859149E-29
  -9.34000015       1.39549844E-29
  -9.32999992       1.35754799E-29
  -9.31999969       1.31446569E-29
  -9.31000042       1.26596837E-29
  -9.30000019       1.21176202E-29
  -9.28999996       1.15154278E-29
  -9.27999973       1.08499851E-29
  -9.27000046       1.01180392E-29
  -9.26000023       9.31626406E-30
  -9.25000000       8.44121252E-30
  -9.23999977       7.48932917E-30
  -9.22999954       6.45696828E-30
  -9.22000027       5.34036939E-30
  -9.21000004       4.13566635E-30
  -9.19999981       2.83888111E-30
  -9.18999958       1.44593874E-30
  -9.18000031      -4.73485539E-32
  -9.17000008      -1.64527625E-30
  -9.15999985      -3.35224131E-30
  -9.14999962      -5.17275067E-30
  -9.14000034      -7.11141657E-30
  -9.13000011      -9.17294929E-30
  -9.11999989      -1.13621704E-29
  -9.10999966      -1.36839941E-29
  -9.10000038      -1.61434382E-29
  -9.09000015      -1.87456238E-29
  -9.07999992      -2.14957525E-29
  -9.06999969      -2.43991280E-29
  -9.06000042      -2.74611249E-29
  -9.05000019      -3.06872351E-29
  -9.03999996      -3.40830318E-29
  -9.02999973      -3.76541272E-29
  -9.02000046      -4.14062389E-29
  -9.01000023      -4.53451569E-29
  -9.00000000      -4.94767099E-29
  -8.98999977      -5.38068053E-29
  -8.97999954      -5.83413953E-29
  -8.97000027      -6.30864775E-29
  -8.96000004      -6.80480823E-29
  -8.94999981      -7.32323125E-29
  -8.93999958      -7.86452409E-29
  -8.93000031      -8.42930004E-29
  -8.92000008      -9.01816456E-29
  -8.90999985      -9.63173334E-29
  -8.89999962      -1.02706161E-28
  -8.89000034      -1.09354182E-28
  -8.88000011      -1.16267440E-28
  -8.86999989      -1.23451989E-28
  -8.85999966      -1.30913680E-28
  -8.85000038      -1.38658434E-28
  -8.84000015      -1.46691957E-28
  -8.82999992      -1.55019955E-28
  -8.81999969      -1.63647989E-28
  -8.81000042      -1.72581511E-28
  -8.80000019      -1.81825710E-28
  -8.78999996      -1.91385810E-28
  -8.77999973      -2.01266649E-28
  -8.77000046      -2.11473054E-28
  -8.76000023      -2.22009432E-28
  -8.75000000      -2.32880103E-28
  -8.73999977      -2.44089063E-28
  -8.72999954      -2.55640045E-28
  -8.72000027      -2.67536345E-28
  -8.71000004      -2.79781215E-28
  -8.69999981      -2.92377182E-28
  -8.68999958      -3.05326798E-28
  -8.68000031      -3.18631844E-28
  -8.67000008      -3.32293862E-28
  -8.65999985      -3.46313813E-28
  -8.64999962      -3.60692421E-28
  -8.64000034      -3.75429348E-28
  -8.63000011      -3.90524426E-28
  -8.61999989      -4.05976354E-28
  -8.60999966      -4.21783232E-28
  -8.60000038      -4.37942988E-28
  -8.59000015      -4.54452348E-28
  -8.57999992      -4.71307509E-28
  -8.56999969      -4.88504041E-28
  -8.56000042      -5.06036600E-28
  -8.55000019      -5.23898975E-28
  -8.53999996      -5.42083942E-28
  -8.52999973      -5.60583944E-28
  -8.52000046      -5.79389542E-28
  -8.51000023      -5.98491493E-28
  -8.50000000      -6.17878530E-28
  -8.48999977      -6.37538327E-28
  -8.47999954      -6.57458172E-28
  -8.47000027      -6.77623621E-28
  -8.46000004      -6.98019701E-28
  -8.44999981      -7.18628596E-28
  -8.43999958      -7.39432539E-28
  -8.43000031      -7.60412801E-28
  -8.42000008      -7.81548101E-28
  -8.40999985      -8.02816001E-28
  -8.39999962      -8.24193246E-28
  -8.39000034      -8.45654076E-28
  -8.38000011      -8.67171335E-28
  -8.36999989      -8.88717099E-28
  -8.35999966      -9.10261033E-28
  -8.35000038      -9.31770685E-28
  -8.34000015      -9.53212256E-28
  -8.32999992      -9.74550211E-28
  -8.31999969      -9.95747381E-28
  -8.31000042      -1.01676380E-27
  -8.30000019      -1.03755797E-27
  -8.28999996      -1.05808627E-27
  -8.27999973      -1.07830266E-27
  -8.27000046      -1.09815938E-27
  -8.26000023      -1.11760675E-27
  -8.25000000      -1.13659208E-27
  -8.23999977      -1.15506088E-27
  -8.22999954      -1.17295585E-27
  -8.22000027      -1.19021729E-27
  -8.21000004      -1.20678337E-27
  -8.19999981      -1.22258957E-27
  -8.18999958      -1.23756888E-27
  -8.18000031      -1.25165195E-27
  -8.17000008      -1.26476648E-27
  -8.15999985      -1.27683782E-27
  -8.14999962      -1.28778741E-27
  -8.14000034      -1.29753434E-27
  -8.13000011      -1.30599669E-27
  -8.11999989      -1.31308738E-27
  -8.10999966      -1.31871774E-27
  -8.10000038      -1.32279629E-27
  -8.09000015      -1.32522710E-27
  -8.07999992      -1.32591340E-27
  -8.06999969      -1.32475419E-27
  -8.06000042      -1.32164612E-27
  -8.05000019      -1.31648145E-27
  -8.03999996      -1.30915088E-27
  -8.02999973      -1.29954184E-27
  -8.02000046      -1.28753771E-27
  -8.01000023      -1.27301976E-27
  -8.00000000      -1.25586656E-27
  -7.98999977      -1.23595158E-27
  -7.98000002      -1.21314847E-27
  -7.96999979      -1.18732560E-27
  -7.96000004      -1.15834893E-27
  -7.94999981      -1.12608190E-27
  -7.94000006      -1.09038363E-27
  -7.92999983      -1.05111238E-27
  -7.92000008      -1.00812167E-27
  -7.90999985      -9.61263702E-28
  -7.90000010      -9.10386603E-28
  -7.88999987      -8.55336977E-28
  -7.88000011      -7.95958246E-28
  -7.86999989      -7.32091039E-28
  -7.86000013      -6.63574540E-28
  -7.84999990      -5.90243891E-28
  -7.84000015      -5.11933990E-28
  -7.82999992      -4.28476561E-28
  -7.82000017      -3.39700964E-28
  -7.80999994      -2.45435120E-28
  -7.80000019      -1.45504946E-28
  -7.78999996      -3.97350223E-29
  -7.78000021       7.20517175E-29
  -7.76999998       1.90033614E-28
  -7.76000023       3.14390176E-28
  -7.75000000       4.45301822E-28
  -7.73999977       5.82949816E-28
  -7.73000002       7.27515799E-28
  -7.71999979       8.79182012E-28
  -7.71000004       1.03813074E-27
  -7.69999981       1.20454428E-27
  -7.69000006       1.37860396E-27
  -7.67999983       1.56049129E-27
  -7.67000008       1.75038605E-27
  -7.65999985       1.94846814E-27
  -7.65000010       2.15491512E-27
  -7.63999987       2.36990148E-27
  -7.63000011       2.59360074E-27
  -7.61999989       2.82618625E-27
  -7.61000013       3.06782344E-27
  -7.59999990       3.31867889E-27
  -7.59000015       3.57891479E-27
  -7.57999992       3.84868865E-27
  -7.57000017       4.12815226E-27
  -7.55999994       4.41745505E-27
  -7.55000019       4.71674187E-27
  -7.53999996       5.02614791E-27
  -7.53000021       5.34580298E-27
  -7.51999998       5.67583495E-27
  -7.51000023       6.01635940E-27
  -7.50000000       6.36748840E-27
  -7.48999977       6.72931940E-27
  -7.48000002       7.10194679E-27
  -7.46999979       7.48545876E-27
  -7.46000004       7.87992311E-27
  -7.44999981       8.28540840E-27
  -7.44000006       8.70196316E-27