  -16.0000000       0.00000000    
  -15.9899998       0.00000000    
  -15.9799995       0.00000000    
  -15.9700003       0.00000000    
  -15.9600000       0.00000000    
  -15.9499998       0.00000000    
  -15.9399996       0.00000000    
  -15.9300003       0.00000000    
  -15.9200001       3.66480310E-26
  -15.9099998       4.54268116E-25
  -15.8999996       2.74933428E-24
  -15.8900003       1.03377689E-23
  -15.8800001       2.40533630E-23
  -15.8699999       1.77000965E-23
  -15.8599997      -1.28849486E-22
  -15.8500004      -7.44504456E-22
  -15.8400002      -2.45567609E-21
  -15.8299999      -6.01136385E-21
  -15.8199997      -1.14215903E-20
  -15.8100004      -1.59934580E-20
  -15.8000002      -1.14044352E-20
  -15.7900000       1.86549714E-20
  -15.7799997       9.67178411E-20
  -15.7700005       2.40664425E-19
  -15.7600002       4.40188816E-19
  -15.7500000       6.23967824E-19
  -15.7399998       6.33958046E-19
  -15.7299995       2.38490853E-19
  -15.7200003      -7.77274945E-19
  -15.7100000      -2.42172241E-18
  -15.6999998      -4.23919104E-18
  -15.6899996      -5.10234036E-18
  -15.6800003      -3.26224607E-18
  -15.6700001       3.10492976E-18
  -15.6599998       1.47207957E-17
  -15.6499996       2.95567713E-17
  -15.6400003       4.13288551E-17
  -15.6300001       3.92081824E-17
  -15.6199999       1.00032341E-17
  -15.6099997      -5.63516395E-17
  -15.6000004      -1.58405140E-16
  -15.5900002      -2.74239940E-16
  -15.5799999      -3.56367646E-16
  -15.5699997      -3.35992480E-16
  -15.5600004      -1.41145507E-16
  -15.5500002       2.70820097E-16
  -15.5400000       8.72670623E-16
  -15.5299997       1.53280077E-15
  -15.5200005       2.00658167E-15
  -15.5100002       1.97285874E-15
  -15.5000000       1.12526146E-15
  -15.4899998      -6.91088464E-16
  -15.4799995      -3.33157116E-15
  -15.4700003      -6.24878652E-15
  -15.4600000      -8.49843233E-15
  -15.4499998      -8.90400018E-15
  -15.4399996      -6.38816960E-15
  -15.4300003      -4.16243849E-16
  -15.4200001       8.56927563E-15
  -15.4099998       1.88885044E-14
  -15.3999996       2.77015264E-14
  -15.3900003       3.15212842E-14
  -15.3800001       2.71361082E-14
  -15.3699999       1.27608139E-14
  -15.3599997      -1.09019603E-14
  -15.3500004      -4.00735353E-14
  -15.3400002      -6.81153200E-14
  -15.3299999      -8.66995955E-14
  -15.3199997      -8.78083684E-14
  -15.3100004      -6.61336966E-14
  -15.3000002      -2.12306352E-14
  -15.2900000       4.12792732E-14
  -15.2799997       1.09991111E-13
  -15.2700005       1.69654397E-13
  -15.2600002       2.04455756E-13
  -15.2500000       2.01889205E-13
  -15.2399998       1.56196074E-13
  -15.2299995       7.03886073E-14
  -15.2200003      -4.37818659E-14
  -15.2100000      -1.67977123E-13
  -15.1999998      -2.80984031E-13
  -15.1899996      -3.62955027E-13
  -15.1800003      -3.99002473E-13
  -15.1700001      -3.81226517E-13
  -15.1599998      -3.08826451E-13
  -15.1499996      -1.86653386E-13
  -15.1400003      -2.31343095E-14
  -15.1300001       1.71288507E-13
  -15.1199999       3.84313675E-13
  -15.1099997       6.00319545E-13
  -15.1000004       7.97943038E-13
  -15.0900002       9.48097720E-13
  -15.0799999       1.01414255E-12
  -15.0699997       9.55589774E-13
  -15.0600004       7.35810284E-13
  -15.0500002       3.32861207E-13
  -15.0400000      -2.48770026E-13
  -15.0299997      -9.68631967E-13
  -15.0200005      -1.74627478E-12
  -15.0100002      -2.46526736E-12
  -15.0000000      -2.98628266E-12
  -14.9899998      -3.16827879E-12
  -14.9799995      -2.89477383E-12
  -14.9700003      -2.10068898E-12
  -14.9600000      -7.94505575E-13
  -14.9499998       9.29177416E-13
  -14.9399996       2.89028393E-12
  -14.9300003       4.83859220E-12
  -14.9200001       6.48273275E-12
  -14.9099998       7.52932178E-12
  -14.8999996       7.72672464E-12
  -14.8900003       6.90672389E-12
  -14.8800001       5.01738798E-12
  -14.8699999       2.14157555E-12
  -14.8599997      -1.50227530E-12
  -14.8500004      -5.57750244E-12
  -14.8400002      -9.66211139E-12
  -14.8299999      -1.32921426E-11
  -14.8199997      -1.60090240E-11
  -14.8100004      -1.74045483E-11
  -14.8000002      -1.71585957E-11
  -14.7900000      -1.50672964E-11
  -14.7799997      -1.10619621E-11
  -14.7700005      -5.22126786E-12
  -14.7600002       2.22029665E-12
  -14.7500000       1.08656409E-11
  -14.7399998       2.01505392E-11
  -14.7299995       2.93450472E-11
  -14.7200003       3.75672896E-11
  -14.7100000       4.38171721E-11
  -14.6999998       4.70365205E-11
  -14.6899996       4.61985103E-11
  -14.6800003       4.04239628E-11
  -14.6700001       2.91164731E-11
  -14.6599998       1.21027485E-11
  -14.6499996      -1.02374975E-11
  -14.6400003      -3.68691258E-11
  -14.6300001      -6.60405272E-11
  -14.6199999      -9.52732199E-11
  -14.6099997      -1.21406135E-10
  -14.6000004      -1.40692485E-10
  -14.5900002      -1.48942414E-10
  -14.5799999      -1.41701761E-10
  -14.5699997      -1.14454772E-10
  -14.5600004      -6.28385191E-11
  -14.5500002       1.71422061E-11
  -14.5400000       1.28910646E-10
  -14.5299997       2.75132278E-10
  -14.5200005       4.57555577E-10
  -14.5100002       6.76884493E-10
  -14.5000000       9.32688260E-10
  -14.4899998       1.22334853E-09
  -14.4799995       1.54604685E-09
  -14.4700003       1.89679716E-09
  -14.4600000       2.27051333E-09
  -14.4499998       2.66110511E-09
  -14.4399996       3.06160453E-09
  -14.4300003       3.46428086E-09
  -14.4200001       3.86076637E-09
  -14.4099998       4.24212221E-09
  -14.3999996       4.59888172E-09
  -14.3900003       4.92103869E-09
  -14.3800001       5.19803089E-09
  -14.3699999       5.41862244E-09
  -14.3599997       5.57095259E-09
  -14.3500004       5.64254155E-09
  -14.3400002       5.62049207E-09
  -14.3299999       5.49177059E-09
  -14.3199997       5.24373611E-09
  -14.3100004       4.86470730E-09
  -14.3000002       4.34463310E-09
  -14.2900000       3.67583342E-09
  -14.2799997       2.85360846E-09
  -14.2700005       1.87676741E-09
  -14.2600002       7.47973461E-10
  -14.2500000      -5.26211852E-10
  -14.2399998      -1.93535898E-09
  -14.2299995      -3.46549056E-09
  -14.2200003      -5.09950482E-09
  -14.2100000      -6.81773260E-09
  -14.1999998      -8.59858496E-09
  -14.1899996      -1.04192397E-08
  -14.1800003      -1.22562414E-08
  -14.1700001      -1.40861864E-08
  -14.1599998      -1.58862346E-08
  -14.1499996      -1.76347434E-08
  -14.1400003      -1.93114271E-08
  -14.1300001      -2.08976818E-08
  -14.1199999      -2.23766108E-08
  -14.1099997      -2.37328202E-08
  -14.1000004      -2.49521470E-08
  -14.0900002      -2.60212669E-08
  -14.0799999      -2.69271432E-08
  -14.0699997      -2.76566183E-08
  -14.0600004      -2.81959558E-08
  -14.0500002      -2.85305681E-08
  -14.0400000      -2.86450170E-08
  -14.0299997      -2.85230062E-08
  -14.0200005      -2.81478485E-08
  -14.0100002      -2.75028533E-08
  -14.0000000      -2.65720175E-08
  -13.9899998      -2.53408565E-08
  -13.9799995      -2.37971172E-08
  -13.9700003      -2.19313510E-08
  -13.9600000      -1.97376746E-08
  -13.9499998      -1.72143704E-08
  -13.9399996      -1.43637164E-08
  -13.9300003      -1.11923582E-08
  -13.9200001      -7.71124853E-09
  -13.9099998      -3.93493105E-09
  -13.8999996       1.18269949E-10
  -13.8900003       4.42702408E-09
  -13.8800001       8.96725716E-09
  -13.8699999       1.37128655E-08
  -13.8599997       1.86352835E-08
  -13.8500004       2.37044411E-08
  -13.8400002       2.88882234E-08
  -13.8299999       3.41529081E-08
  -13.8199997       3.94630497E-08
  -13.8100004       4.47815189E-08
  -13.8000002       5.00695378E-08
  -13.7900000       5.52866730E-08
  -13.7799997       6.03916490E-08
  -13.7700005       6.53417231E-08
  -13.7600002       7.00935416E-08
  -13.7500000       7.46035980E-08
  -13.7399998       7.88282080E-08
  -13.7299995       8.27238580E-08
  -13.7200003       8.62476810E-08
  -13.7100000       8.93576413E-08
  -13.6999998       9.20126837E-08
  -13.6899996       9.41729965E-08
  -13.6800003       9.58003170E-08
  -13.6700001       9.68580238E-08
  -13.6599998       9.73113430E-08
  -13.6499996       9.71275966E-08
  -13.6400003       9.62759970E-08
  -13.6300001       9.47283141E-08
  -13.6199999       9.24582508E-08
  -13.6099997       8.94424161E-08
  -13.6000004       8.56593942E-08
  -13.5900002       8.10905476E-08
  -13.5799999       7.57204717E-08
  -13.5699997       6.95359219E-08
  -13.5600004       6.25274694E-08
  -13.5500002       5.46887691E-08
  -13.5400000       4.60167300E-08
  -13.5299997       3.65122901E-08
  -13.5200005       2.61796291E-08
  -13.5100002       1.50279238E-08
  -13.5000000       3.06875125E-09
  -13.4899998      -9.68257030E-09
  -13.4799995      -2.32060042E-08
  -13.4700003      -3.74793423E-08
  -13.4600000      -5.24771089E-08
  -13.4499998      -6.81715520E-08
  -13.4399996      -8.45323882E-08
  -13.4300003      -1.01528443E-07
  -13.4200001      -1.19126888E-07
  -13.4099998      -1.37294478E-07
  -13.3999996      -1.55996688E-07
  -13.3900003      -1.75199119E-07
  -13.3800001      -1.94867226E-07
  -13.3699999      -2.14964913E-07
  -13.3599997      -2.35457023E-07
  -13.3500004      -2.56306578E-07
  -13.3400002      -2.77476033E-07
  -13.3299999      -2.98927120E-07
  -13.3199997      -3.20619762E-07
  -13.3100004      -3.42513033E-07
  -13.3000002      -3.64564301E-07
  -13.2900000      -3.86728885E-07
  -13.2799997      -4.08960403E-07
  -13.2700005      -4.31210765E-07
  -13.2600002      -4.53429692E-07
  -13.2500000      -4.75565344E-07
  -13.2399998      -4.97564201E-07
  -13.2299995      -5.19371611E-07
  -13.2200003      -5.40932717E-07
  -13.2100000      -5.62192156E-07
  -13.1999998      -5.83093765E-07
  -13.1899996      -6.03581896E-07
  -13.1800003      -6.23602091E-07
  -13.1700001      -6.43098872E-07
  -13.1599998      -6.62018806E-07
  -13.1499996      -6.80308062E-07
  -13.1400003      -6.97910707E-07
  -13.1300001      -7.14775524E-07
  -13.1199999      -7.30850672E-07
  -13.1099997      -7.46080332E-07
  -13.1000004      -7.60419937E-07
  -13.0900002      -7.73809404E-07
  -13.0799999      -7.86203657E-07
  -13.0699997      -7.97554833E-07
  -13.0600004      -8.07812455E-07
  -13.0500002      -8.16935653E-07
  -13.0400000      -8.24879407E-07
  -13.0299997      -8.31600516E-07
  -13.0200005      -8.37065897E-07
  -13.0100002      -8.41228484E-07
  -13.0000000      -8.44059628E-07
  -12.9899998      -8.45520049E-07
  -12.9799995      -8.45568593E-07
  -12.9700003      -8.44170984E-07
  -12.9600000      -8.41288511E-07
  -12.9499998      -8.36878428E-07
  -12.9399996      -8.30896738E-07
  -12.9300003      -8.23303935E-07
  -12.9200001      -8.14048519E-07
  -12.9099998      -8.03082230E-07
  -12.8999996      -7.90354420E-07
  -12.8900003      -7.75809497E-07
  -12.8800001      -7.59401075E-07
  -12.8699999      -7.41067083E-07
  -12.8599997      -7.20761705E-07
  -12.8500004      -6.98425254E-07
  -12.8400002      -6.74008788E-07
  -12.8299999      -6.47453533E-07
  -12.8199997      -6.18714353E-07
  -12.8100004      -5.87749639E-07
  -12.8000002      -5.54509143E-07
  -12.7900000      -5.18949605E-07
  -12.7799997      -4.81019242E-07
  -12.7700005      -4.40714246E-07
  -12.7600002      -3.97983172E-07
  -12.7500000      -3.52825424E-07
  -12.7399998      -3.05195329E-07
  -12.7299995      -2.55061650E-07
  -12.7200003      -2.02411584E-07
  -12.7100000      -1.47247292E-07
  -12.6999998      -8.95429366E-08
  -12.6899996      -2.92895983E-08
  -12.6800003       3.35367503E-08
  -12.6700001       9.89626869E-08
  -12.6599998       1.66958628E-07
  -12.6499996       2.37521505E-07
  -12.6400003       3.10725170E-07
  -12.6300001       3.86524874E-07
  -12.6199999       4.64958049E-07
  -12.6099997       5.46051524E-07
  -12.6000004       6.29798365E-07
  -12.5900002       7.16202294E-07
  -12.5799999       8.05272691E-07
  -12.5699997       8.97044004E-07
  -12.5600004       9.91513275E-07
  -12.5500002       1.08870165E-06
  -12.5400000       1.18855939E-06
  -12.5299997       1.29120269E-06
  -12.5200005       1.39651786E-06
  -12.5100002       1.50457788E-06
  -12.5000000       1.61535468E-06
  -12.4899998       1.72886121E-06
  -12.4799995       1.84511953E-06
  -12.4700003       1.96407836E-06
  -12.4600000       2.08574033E-06
  -12.4499998       2.21012215E-06
  -12.4399996       2.33718310E-06
  -12.4300003       2.46697118E-06
  -12.4200001       2.59945364E-06
  -12.4099998       2.73460660E-06
  -12.3999996       2.87245621E-06
  -12.3900003       3.01298405E-06
  -12.3800001       3.15620127E-06
  -12.3699999       3.30206490E-06
  -12.3599997       3.45058902E-06
  -12.3500004       3.60175727E-06
  -12.3400002       3.75557534E-06
  -12.3299999       3.91201957E-06
  -12.3199997       4.07114157E-06
  -12.3100004       4.23285883E-06
  -12.3000002       4.39726045E-06
  -12.2900000       4.56427233E-06
  -12.2799997       4.73393948E-06
  -12.2700005       4.90628281E-06
  -12.2600002       5.08113999E-06
  -12.2500000       5.25863516E-06
  -12.2399998       5.43885562E-06
  -12.2299995       5.62167497E-06
  -12.2200003       5.80720734E-06
  -12.2100000       5.99539817E-06
  -12.1999998       6.18627837E-06
  -12.1899996       6.37977382E-06
  -12.1800003       6.57610917E-06
  -12.1700001       6.77513890E-06
  -12.1599998       6.97685527E-06
  -12.1499996       7.18133424E-06
  -12.1400003       7.38864173E-06
  -12.1300001       7.59858494E-06
  -12.1199999       7.81132985E-06
  -12.1099997       8.02688191E-06
  -12.1000004       8.24524795E-06
  -12.0900002       8.46638159E-06
  -12.0799999       8.69033283E-06
  -12.0699997       8.91710624E-06
  -12.0600004       9.14660541E-06
  -12.0500002       9.37900404E-06
  -12.0400000       9.61409296E-06
  -12.0299997       9.85205406E-06
  -12.0200005       1.00928401E-05
  -12.0100002       1.03363072E-05
  -12.0000000       1.05826048E-05
  -11.9899998       1.08316708E-05
  -11.9799995       1.10834972E-05
  -11.9700003       1.13381529E-05
  -11.9600000       1.15955290E-05
  -11.9499998       1.18557091E-05
  -11.9399996       1.21186540E-05
  -11.9300003       1.23842301E-05
  -11.9200001       1.26526866E-05
  -11.9099998       1.29237651E-05
  -11.8999996       1.31974994E-05
  -11.8900003       1.34740430E-05
  -11.8800001       1.37531551E-05
  -11.8699999       1.40349393E-05
  -11.8599997       1.43193583E-05
  -11.8500004       1.46064403E-05
  -11.8400002       1.48961208E-05
  -11.8299999       1.51885197E-05
  -11.8199997       1.54835107E-05
  -11.8100004       1.57810646E-05
  -11.8000002       1.60812124E-05
  -11.7900000       1.63840032E-05
  -11.7799997       1.66893060E-05
  -11.7700005       1.69971609E-05
  -11.7600002       1.73075277E-05
  -11.7500000       1.76205267E-05
  -11.7399998       1.79361086E-05
  -11.7299995       1.82540443E-05
  -11.7200003       1.85745248E-05
  -11.7100000       1.88974773E-05
  -11.6999998       1.92229581E-05
  -11.6899996       1.95507437E-05
  -11.6800003       1.98811140E-05
  -11.6700001       2.02138908E-05
  -11.6599998       2.05492161E-05
  -11.6499996       2.08869369E-05
  -11.6400003       2.12268442E-05
  -11.6300001       2.15693199E-05
  -11.6199999       2.19142130E-05
  -11.6099997       2.22614326E-05
  -11.6000004       2.26110915E-05
  -11.5900002       2.29633206E-05
  -11.5799999       2.33179762E-05
  -11.5699997       2.36751075E-05
  -11.5600004       2.40347836E-05
  -11.5500002       2.43971062E-05
  -11.5400000       2.47617190E-05
  -11.5299997       2.51288711E-05
  -11.5200005       2.54985953E-05
  -11.5100002       2.58710643E-05
  -11.5000000       2.62461836E-05
  -11.4899998       2.66238731E-05
  -11.4799995       2.70046767E-05
  -11.4700003       2.73879687E-05
  -11.4600000       2.77742565E-05
  -11.4499998       2.81634202E-05
  -11.4399996       2.85554779E-05
  -11.4300003       2.89504969E-05
  -11.4200001       2.93486664E-05
  -11.4099998       2.97495553E-05
  -11.3999996       3.01536384E-05
  -11.3900003       3.05610411E-05
  -11.3800001       3.09716124E-05
  -11.3699999       3.13857527E-05
  -11.3599997       3.18029306E-05
  -11.3500004       3.22236265E-05
  -11.3400002       3.26476438E-05
  -11.3299999       3.30753319E-05
  -11.3199997       3.35063669E-05
  -11.3100004       3.39412109E-05
  -11.3000002       3.43796673E-05
  -11.2900000       3.48221583E-05
  -11.2799997       3.52683310E-05
  -11.2700005       3.57188001E-05
  -11.2600002       3.61732127E-05
  -11.2500000       3.66314234E-05
  -11.2399998       3.70939124E-05
  -11.2299995       3.75606942E-05
  -11.2200003       3.80321180E-05
  -11.2100000       3.85077619E-05
  -11.1999998       3.89883098E-05
  -11.1899996       3.94731906E-05
  -11.1800003       3.99625133E-05
  -11.1700001       4.04570856E-05
  -11.1599998       4.09565109E-05
  -11.1499996       4.14610149E-05
  -11.1400003       4.19705138E-05
  -11.1300001       4.24853934E-05
  -11.1199999       4.30056425E-05
  -11.1099997       4.35314578E-05
  -11.1000004       4.40627518E-05
  -11.0900002       4.45996811E-05
  -11.0799999       4.51427841E-05
  -11.0699997       4.56916750E-05
  -11.0600004       4.62470780E-05
  -11.0500002       4.68082108E-05
  -11.0400000       4.73762229E-05
  -11.0299997       4.79506889E-05
  -11.0200005       4.85321652E-05
  -11.0100002       4.91202263E-05
  -11.0000000       4.97147157E-05
  -10.9899998       5.03167903E-05
  -10.9799995       5.09260863E-05
  -10.9700003       5.15429856E-05
  -10.9600000       5.21675611E-05
  -10.9499998       5.27994343E-05
  -10.9399996       5.34395404E-05
  -10.9300003       5.40872752E-05
  -10.9200001       5.47430755E-05
  -10.9099998       5.54071521E-05
  -10.8999996       5.60801600E-05
  -10.8900003       5.67616153E-05
  -10.8800001       5.74518053E-05
  -10.8699999       5.81510467E-05
  -10.8599997       5.88590701E-05
  -10.8500004       5.95763158E-05
  -10.8400002       6.03035733E-05
  -10.8299999       6.10397838E-05
  -10.8199997       6.17855767E-05
  -10.8100004       6.25418033E-05
  -10.8000002       6.33078744E-05
  -10.7900000       6.40839644E-05
  -10.7799997       6.48703863E-05
  -10.7700005       6.56673219E-05
  -10.7600002       6.64747786E-05
  -10.7500000       6.72930692E-05
  -10.7399998       6.81223246E-05
  -10.7299995       6.89626613E-05
  -10.7200003       6.98139920E-05
  -10.7100000       7.06770443E-05
  -10.6999998       7.15513743E-05
  -10.6899996       7.24375350E-05
  -10.6800003       7.33356792E-05
  -10.6700001       7.42457050E-05
  -10.6599998       7.51679545E-05
  -10.6499996       7.61028641E-05
  -10.6400003       7.70506522E-05
  -10.6300001       7.80109549E-05
  -10.6199999       7.89839833E-05
  -10.6099997       7.99699701E-05
  -10.6000004       8.09696940E-05
  -10.5900002       8.19828783E-05
  -10.5799999       8.30089848E-05
  -10.5699997       8.40496723E-05
  -10.5600004       8.51037257E-05
  -10.5500002       8.61716908E-05
  -10.5400000       8.72537421E-05
  -10.5299997       8.83503017E-05
  -10.5200005       8.94617697E-05
  -10.5100002       9.05872585E-05
  -10.5000000       9.17278157E-05
  -10.4899998       9.28830050E-05
  -10.4799995       9.40532409E-05
  -10.4700003       9.52391347E-05
  -10.4600000       9.64400315E-05
  -10.4499998       9.76564697E-05
  -10.4399996       9.88890606E-05
  -10.4300003       1.00136494E-04
  -10.4200001       1.01400903E-04
  -10.4099998       1.02680351E-04
  -10.3999996       1.03976316E-04
  -10.3900003       1.05288556E-04
  -10.3800001       1.06617241E-04
  -10.3699999       1.07962951E-04
  -10.3599997       1.09325090E-04
  -10.3500004       1.10705572E-04
  -10.3400002       1.12102491E-04
  -10.3299999       1.13517068E-04
  -10.3199997       1.14949675E-04
  -10.3100004       1.16399227E-04
  -10.3000002       1.17866177E-04
  -10.2900000       1.19351702E-04
  -10.2799997       1.20855118E-04
  -10.2700005       1.22376514E-04
  -10.2600002       1.23917562E-04
  -10.2500000       1.25477789E-04
  -10.2399998       1.27056948E-04
  -10.2299995       1.28654967E-04
  -10.2200003       1.30271874E-04
  -10.2100000       1.31908761E-04
  -10.1999998       1.33565060E-04
  -10.1899996       1.35242415E-04
  -10.1800003       1.36939299E-04
  -10.1700001       1.38656556E-04
  -10.1599998       1.40393240E-04
  -10.1499996       1.42152261E-04
  -10.1400003       1.43931393E-04
  -10.1300001       1.45731829E-04
  -10.1199999       1.47553903E-04
  -10.1099997       1.49397281E-04
  -10.1000004       1.51262211E-04
  -10.0900002       1.53150162E-04
  -10.0799999       1.55059141E-04
  -10.0699997       1.56991606E-04
  -10.0600004       1.58946059E-04
  -10.0500002       1.60923490E-04
  -10.0400000       1.62923840E-04
  -10.0299997       1.64947385E-04
  -10.0200005       1.66994316E-04
  -10.0100002       1.69064850E-04
  -10.0000000       1.71160966E-04
  -9.98999977       1.73281165E-04
  -9.97999954       1.75424429E-04
  -9.97000027       1.77593902E-04
  -9.96000004       1.79788287E-04
  -9.94999981       1.82007294E-04
  -9.93999958       1.84251621E-04
  -9.93000031       1.86522564E-04
  -9.92000008       1.88818856E-04
  -9.90999985       1.91141648E-04
  -9.89999962       1.93490676E-04
  -9.89000034       1.95866945E-04
  -9.88000011       1.98270209E-04
  -9.86999989       2.00700320E-04
  -9.85999966       2.03158997E-04
  -9.85000038       2.05646153E-04
  -9.84000015       2.08160534E-04
  -9.82999992       2.10704500E-04
  -9.81999969       2.13277279E-04
  -9.81000042       2.15879540E-04
  -9.80000019       2.18509478E-04
  -9.78999996       2.21170951E-04
  -9.77999973       2.23860377E-04
  -9.77000046       2.26582953E-04
  -9.76000023       2.29334692E-04
  -9.75000000       2.32117265E-04
  -9.73999977       2.34931795E-04
  -9.72999954       2.37779357E-04
  -9.72000027       2.40658803E-04
  -9.71000004       2.43569069E-04
  -9.69999981       2.46512995E-04
  -9.68999958       2.49489793E-04
  -9.68000031       2.52501515E-04
  -9.67000008       2.55546853E-04
  -9.65999985       2.58627348E-04
  -9.64999962       2.61741079E-04
  -9.64000034       2.64891103E-04
  -9.63000011       2.68076925E-04
  -9.61999989       2.71298661E-04
  -9.60999966       2.74554535E-04
  -9.60000038       2.77846906E-04
  -9.59000015       2.81178014E-04
  -9.57999992       2.84547306E-04
  -9.56999969       2.87950621E-04
  -9.56000042       2.91393633E-04
  -9.55000019       2.94876489E-04
  -9.53999996       2.98400002E-04
  -9.52999973       3.01961234E-04
  -9.52000046       3.05562193E-04
  -9.51000023       3.09203606E-04
  -9.50000000       3.12885531E-04
  -9.48999977       3.16609076E-04
  -9.47999954       3.20371939E-04
  -9.47000027       3.24181572E-04
  -9.46000004       3.28029302E-04
  -9.44999981       3.31921183E-04
  -9.43999958       3.35854071E-04
  -9.43000031       3.39831808E-04
  -9.42000008       3.43852909E-04
  -9.40999985       3.47920548E-04
  -9.39999962       3.52034171E-04
  -9.39000034       3.56193079E-04
  -9.38000011       3.60397244E-04
  -9.36999989       3.64647160E-04
  -9.35999966       3.68944224E-04
  -9.35000038       3.73290735E-04
  -9.34000015       3.77681776E-04
  -9.32999992       3.82122525E-04
  -9.31999969       3.86615109E-04
  -9.31000042       3.91154550E-04
  -9.30000019       3.95745534E-04
  -9.28999996       4.00385732E-04
  -9.27999973       4.05076862E-04
  -9.27000046       4.09821048E-04
  -9.26000023       4.14614711E-04
  -9.25000000       4.19463351E-04
  -9.23999977       4.24362457E-04
  -9.22999954       4.29316278E-04
  -9.22000027       4.34324611E-04
  -9.21000004       4.39385301E-04
  -9.19999981       4.44502861E-04
  -9.18999958       4.49678017E-04
  -9.18000031       4.54908266E-04
  -9.17000008       4.60195326E-04
  -9.15999985       4.65541525E-04
  -9.14999962       4.70942323E-04
  -9.14000034       4.76402318E-04
  -9.13000011       4.81921423E-04
  -9.11999989       4.87500656E-04
  -9.10999966       4.93138621E-04
  -9.10000038       4.98838199E-04
  -9.09000015       5.04600408E-04
  -9.07999992       5.10422513E-04
  -9.06999969       5.16309636E-04
  -9.06000042       5.22259972E-04
  -9.05000019       5.28267759E-04
  -9.03999996       5.34349354E-04
  -9.02999973       5.40492765E-04
  -9.02000046       5.46701893E-04
  -9.01000023       5.52976853E-04
  -9.00000000       5.59321721E-04
  -8.98999977       5.65729511E-04
  -8.97999954       5.72205696E-04
  -8.97000027       5.78753010E-04
  -8.96000004       5.85371512E-04
  -8.94999981       5.92060853E-04
  -8.93999958       5.98816900E-04
  -8.93000031       6.05647219E-04
  -8.92000008       6.12549600E-04
  -8.90999985       6.19524275E-04
  -8.89999962       6.26575551E-04
  -8.89000034       6.33700343E-04
  -8.88000011       6.40900515E-04
  -8.86999989       6.48173562E-04
  -8.85999966       6.55525655E-04
  -8.85000038       6.62954233E-04
  -8.84000015       6.70460868E-04
  -8.82999992       6.78049983E-04
  -8.81999969       6.85714243E-04
  -8.81000042       6.93459122E-04
  -8.80000019       7.01289799E-04
  -8.78999996       7.09198124E-04
  -8.77999973       7.17193645E-04
  -8.77000046       7.25270191E-04
  -8.76000023       7.33428693E-04
  -8.75000000       7.41675030E-04
  -8.73999977       7.50012929E-04
  -8.72999954       7.58430222E-04
  -8.72000027       7.66936515E-04
  -8.71000004       7.75534194E-04
  -8.69999981       7.84218952E-04
  -8.68999958       7.92990963E-04
  -8.68000031       8.01853312E-04
  -8.67000008       8.10812227E-04
  -8.65999985       8.19861016E-04
  -8.64999962       8.29004042E-04
  -8.64000034       8.38240376E-04
  -8.63000011       8.47573334E-04
  -8.61999989       8.57002509E-04
  -8.60999966       8.66529241E-04
  -8.60000038       8.76153877E-04
  -8.59000015       8.85878922E-04
  -8.57999992       8.95704085E-04
  -8.56999969       9.05633206E-04
  -8.56000042       9.15657380E-04
  -8.55000019       9.25785454E-04
  -8.53999996       9.36016731E-04
  -8.52999973       9.46355343E-04
  -8.52000046       9.56795120E-04
  -8.51000023       9.67338623E-04
  -8.50000000       9.77993244E-04
  -8.48999977       9.88758518E-04
  -8.47999954       9.99638927E-04
  -8.47000027       1.01061619E-03
  -8.46000004       1.02170871E-03
  -8.44999981       1.03291613E-03
  -8.43999958       1.04423403E-03
  -8.43000031       1.05566625E-03
  -8.42000008       1.06722512E-03
  -8.40999985       1.07889355E-03
  -8.39999962       1.09068735E-03
  -8.39000034       1.10259163E-03
  -8.38000011       1.11461803E-03
  -8.36999989       1.12677179E-03
  -8.35999966       1.13904278E-03
  -8.35000038       1.15143158E-03
  -8.34000015       1.16395135E-03
  -8.32999992       1.17660209E-03
  -8.31999969       1.18937355E-03
  -8.31000042       1.20228098E-03
  -8.30000019       1.21530681E-03
  -8.28999996       1.22846861E-03
  -8.27999973       1.24176522E-03
  -8.27000046       1.25518476E-03
  -8.26000023       1.26874482E-03
  -8.25000000       1.28244120E-03
  -8.23999977       1.29627017E-03
  -8.22999954       1.31024199E-03
  -8.22000027       1.32434431E-03
  -8.21000004       1.33859646E-03
  -8.19999981       1.35298958E-03
  -8.18999958       1.36751705E-03
  -8.18000031       1.38220051E-03
  -8.17000008       1.39701902E-03
  -8.15999985       1.41199352E-03
  -8.14999962       1.42711832E-03
  -8.14000034       1.44238782E-03
  -8.13000011       1.45781587E-03
  -8.11999989       1.47339143E-03
  -8.10999966       1.48912147E-03
  -8.10000038       1.50501018E-03
  -8.09000015       1.52105629E-03
  -8.07999992       1.53725629E-03
  -8.06999969       1.55361020E-03
  -8.06000042       1.57012662E-03
  -8.05000019       1.58680743E-03
  -8.03999996       1.60366029E-03
  -8.02999973       1.62066647E-03
  -8.02000046       1.63784891E-03
  -8.01000023       1.65520085E-03
  -8.00000000       1.67272368E-03
  -7.98999977       1.69041299E-03
  -7.98000002       1.70827308E-03
  -7.96999979       1.72631326E-03
  -7.96000004       1.74453098E-03
  -7.94999981       1.76292413E-03
  -7.94000006       1.78150041E-03
  -7.92999983       1.80025375E-03
  -7.92000008       1.81919185E-03
  -7.90999985       1.83831144E-03
  -7.90000010       1.85760728E-03
  -7.88999987       1.87710836E-03
  -7.88000011       1.89680699E-03
  -7.86999989       1.91668689E-03
  -7.86000013       1.93675666E-03
  -7.84999990       1.95703306E-03
  -7.84000015       1.97749422E-03
  -7.82999992       1.99815352E-03
  -7.82000017       2.01902748E-03
  -7.80999994       2.04007770E-03
  -7.80000019       2.06134771E-03
  -7.78999996       2.08282238E-03
  -7.78000021       2.10452033E-03
  -7.76999998       2.12642038E-03
  -7.76000023       2.14852742E-03
  -7.75000000       2.17085052E-03
  -7.73999977       2.19338341E-03
  -7.73000002       2.21614377E-03
  -7.71999979       2.23912648E-03
  -7.71000004       2.26233667E-03
  -7.69999981       2.28575990E-03
  -7.69000006       2.30939453E-03
  -7.67999983       2.33326550E-03
  -7.67000008       2.35737837E-03
  -7.65999985       2.38171290E-03
  -7.65000010       2.40628235E-03
  -7.63999987       2.43107369E-03
  -7.63000011       2.45610881E-03
  -7.61999989       2.48139445E-03
  -7.61000013       2.50692852E-03
  -7.59999990       2.53270753E-03
  -7.59000015       2.55871890E-03
  -7.57999992       2.58499058E-03
  -7.57000017       2.61150929E-03
  -7.55999994       2.63826386E-03
  -7.55000019       2.66529876E-03
  -7.53999996       2.69256928E-03
  -7.53000021       2.72011408E-03
  -7.51999998       2.74790148E-03
  -7.51000023       2.77596852E-03
  -7.50000000       2.80430005E-03
  -7.48999977       2.83289445E-03
  -7.48000002       2.86175217E-03
  -7.46999979       2.89091258E-03
  -7.46000004       2.92033632E-03
  -7.44999981       2.95003620E-03
  -7.44000006       2.98002223E-03