  -16.0000000       0.00000000    
  -15.9899998       0.00000000    
  -15.9799995       0.00000000    
  -15.9700003       0.00000000    
  -15.9600000       0.00000000    
  -15.9499998       0.00000000    
  -15.9399996       0.00000000    
  -15.9300003       0.00000000    
  -15.9200001       0.00000000    
  -15.9099998       0.00000000    
  -15.8999996       0.00000000    
  -15.8900003       0.00000000    
  -15.8800001       0.00000000    
  -15.8699999       0.00000000    
  -15.8599997       0.00000000    
  -15.8500004       0.00000000    
  -15.8400002       0.00000000    
  -15.8299999       0.00000000    
  -15.8199997       0.00000000    
  -15.8100004       0.00000000    
  -15.8000002       0.00000000    
  -15.7900000       0.00000000    
  -15.7799997       0.00000000    
  -15.7700005       0.00000000    
  -15.7600002       0.00000000    
  -15.7500000       0.00000000    
  -15.7399998       0.00000000    
  -15.7299995       0.00000000    
  -15.7200003       0.00000000    
  -15.7100000       0.00000000    
  -15.6999998       0.00000000    
  -15.6899996       0.00000000    
  -15.6800003       0.00000000    
  -15.6700001       0.00000000    
  -15.6599998       0.00000000    
  -15.6499996       0.00000000    
  -15.6400003       0.00000000    
  -15.6300001       0.00000000    
  -15.6199999       0.00000000    
  -15.6099997       0.00000000    
  -15.6000004       0.00000000    
  -15.5900002       0.00000000    
  -15.5799999       0.00000000    
  -15.5699997       0.00000000    
  -15.5600004       0.00000000    
  -15.5500002       0.00000000    
  -15.5400000       0.00000000    
  -15.5299997       0.00000000    
  -15.5200005       0.00000000    
  -15.5100002       0.00000000    
  -15.5000000       0.00000000    
  -15.4899998       0.00000000    
  -15.4799995       0.00000000    
  -15.4700003       0.00000000    
  -15.4600000       0.00000000    
  -15.4499998       0.00000000    
  -15.4399996       0.00000000    
  -15.4300003       0.00000000    
  -15.4200001       0.00000000    
  -15.4099998       0.00000000    
  -15.3999996       0.00000000    
  -15.3900003       0.00000000    
  -15.3800001       0.00000000    
  -15.3699999       0.00000000    
  -15.3599997       0.00000000    
  -15.3500004       0.00000000    
  -15.3400002       0.00000000    
  -15.3299999       0.00000000    
  -15.3199997       0.00000000    
  -15.3100004       0.00000000    
  -15.3000002       0.00000000    
  -15.2900000       0.00000000    
  -15.2799997       0.00000000    
  -15.2700005       0.00000000    
  -15.2600002       0.00000000    
  -15.2500000       0.00000000    
  -15.2399998       0.00000000    
  -15.2299995       0.00000000    
  -15.2200003       0.00000000    
  -15.2100000       0.00000000    
  -15.1999998       0.00000000    
  -15.1899996       0.00000000    
  -15.1800003       0.00000000    
  -15.1700001       0.00000000    
  -15.1599998       0.00000000    
  -15.1499996       0.00000000    
  -15.1400003       0.00000000    
  -15.1300001       0.00000000    
  -15.1199999       0.00000000    
  -15.1099997       0.00000000    
  -15.1000004       0.00000000    
  -15.0900002       0.00000000    
  -15.0799999       0.00000000    
  -15.0699997       0.00000000    
  -15.0600004       0.00000000    
  -15.0500002       0.00000000    
  -15.0400000       0.00000000    
  -15.0299997       0.00000000    
  -15.0200005       0.00000000    
  -15.0100002       0.00000000    
  -15.0000000       0.00000000    
  -14.9899998       0.00000000    
  -14.9799995       0.00000000    
  -14.9700003       0.00000000    
  -14.9600000       0.00000000    
  -14.9499998       0.00000000    
  -14.9399996       0.00000000    
  -14.9300003       0.00000000    
  -14.9200001       0.00000000    
  -14.9099998       0.00000000    
  -14.8999996       0.00000000    
  -14.8900003       0.00000000    
  -14.8800001       0.00000000    
  -14.8699999       0.00000000    
  -14.8599997       0.00000000    
  -14.8500004       0.00000000    
  -14.8400002       0.00000000    
  -14.8299999       0.00000000    
  -14.8199997       0.00000000    
  -14.8100004       0.00000000    
  -14.8000002       0.00000000    
  -14.7900000       0.00000000    
  -14.7799997       0.00000000    
  -14.7700005       0.00000000    
  -14.7600002       0.00000000    
  -14.7500000       0.00000000    
  -14.7399998       0.00000000    
  -14.7299995       0.00000000    
  -14.7200003       0.00000000    
  -14.7100000       0.00000000    
  -14.6999998       0.00000000    
  -14.6899996       0.00000000    
  -14.6800003       0.00000000    
  -14.6700001       0.00000000    
  -14.6599998       0.00000000    
  -14.6499996       0.00000000    
  -14.6400003       0.00000000    
  -14.6300001       0.00000000    
  -14.6199999       0.00000000    
  -14.6099997       0.00000000    
  -14.6000004       0.00000000    
  -14.5900002       0.00000000    
  -14.5799999       0.00000000    
  -14.5699997       0.00000000    
  -14.5600004       0.00000000    
  -14.5500002       0.00000000    
  -14.5400000       0.00000000    
  -14.5299997       0.00000000    
  -14.5200005       0.00000000    
  -14.5100002       0.00000000    
  -14.5000000       0.00000000    
  -14.4899998       0.00000000    
  -14.4799995       0.00000000    
  -14.4700003       0.00000000    
  -14.4600000       0.00000000    
  -14.4499998       0.00000000    
  -14.4399996       0.00000000    
  -14.4300003       0.00000000    
  -14.4200001       0.00000000    
  -14.4099998       0.00000000    
  -14.3999996       0.00000000    
  -14.3900003       0.00000000    
  -14.3800001       0.00000000    
  -14.3699999       0.00000000    
  -14.3599997       0.00000000    
  -14.3500004       0.00000000    
  -14.3400002       0.00000000    
  -14.3299999       0.00000000    
  -14.3199997       0.00000000    
  -14.3100004       0.00000000    
  -14.3000002       0.00000000    
  -14.2900000       0.00000000    
  -14.2799997       0.00000000    
  -14.2700005       0.00000000    
  -14.2600002       0.00000000    
  -14.2500000       0.00000000    
  -14.2399998       0.00000000    
  -14.2299995       0.00000000    
  -14.2200003       0.00000000    
  -14.2100000       0.00000000    
  -14.1999998       0.00000000    
  -14.1899996       0.00000000    
  -14.1800003       0.00000000    
  -14.1700001       0.00000000    
  -14.1599998       0.00000000    
  -14.1499996       0.00000000    
  -14.1400003       0.00000000    
  -14.1300001       0.00000000    
  -14.1199999       0.00000000    
  -14.1099997       0.00000000    
  -14.1000004       0.00000000    
  -14.0900002       0.00000000    
  -14.0799999       0.00000000    
  -14.0699997       0.00000000    
  -14.0600004       0.00000000    
  -14.0500002       0.00000000    
  -14.0400000       0.00000000    
  -14.0299997       0.00000000    
  -14.0200005       0.00000000    
  -14.0100002       0.00000000    
  -14.0000000       0.00000000    
  -13.9899998       0.00000000    
  -13.9799995       0.00000000    
  -13.9700003       0.00000000    
  -13.9600000       0.00000000    
  -13.9499998       0.00000000    
  -13.9399996       0.00000000    
  -13.9300003       0.00000000    
  -13.9200001       0.00000000    
  -13.9099998       0.00000000    
  -13.8999996       0.00000000    
  -13.8900003       0.00000000    
  -13.8800001       0.00000000    
  -13.8699999       0.00000000    
  -13.8599997       0.00000000    
  -13.8500004       0.00000000    
  -13.8400002       0.00000000    
  -13.8299999       0.00000000    
  -13.8199997       0.00000000    
  -13.8100004       0.00000000    
  -13.8000002       0.00000000    
  -13.7900000       0.00000000    
  -13.7799997       0.00000000    
  -13.7700005       0.00000000    
  -13.7600002       0.00000000    
  -13.7500000       0.00000000    
  -13.7399998       0.00000000    
  -13.7299995       0.00000000    
  -13.7200003       0.00000000    
  -13.7100000       0.00000000    
  -13.6999998       0.00000000    
  -13.6899996       0.00000000    
  -13.6800003       0.00000000    
  -13.6700001       0.00000000    
  -13.6599998       0.00000000    
  -13.6499996       0.00000000    
  -13.6400003       0.00000000    
  -13.6300001       0.00000000    
  -13.6199999       0.00000000    
  -13.6099997       0.00000000    
  -13.6000004       0.00000000    
  -13.5900002       0.00000000    
  -13.5799999       0.00000000    
  -13.5699997       0.00000000    
  -13.5600004       0.00000000    
  -13.5500002       0.00000000    
  -13.5400000       0.00000000    
  -13.5299997       0.00000000    
  -13.5200005       0.00000000    
  -13.5100002       0.00000000    
  -13.5000000      -0.00000000    
  -13.4899998       0.00000000    
  -13.4799995       0.00000000    
  -13.4700003      -0.00000000    
  -13.4600000      -0.00000000    
  -13.4499998      -0.00000000    
  -13.4399996       0.00000000    
  -13.4300003       0.00000000    
  -13.4200001       0.00000000    
  -13.4099998       0.00000000    
  -13.3999996      -0.00000000    
  -13.3900003       0.00000000    
  -13.3800001      -0.00000000    
  -13.3699999      -0.00000000    
  -13.3599997      -0.00000000    
  -13.3500004      -0.00000000    
  -13.3400002       0.00000000    
  -13.3299999      -0.00000000    
  -13.3199997      -2.80259693E-45
  -13.3100004      -4.20389539E-45
  -13.3000002      -4.20389539E-45
  -13.2900000      -5.60519386E-45
  -13.2799997      -4.20389539E-45
  -13.2700005      -1.40129846E-45
  -13.2600002      -1.40129846E-45
  -13.2500000      -5.60519386E-45
  -13.2399998      -7.00649232E-45
  -13.2299995      -9.80908925E-45
  -13.2200003      -9.80908925E-45
  -13.2100000      -7.00649232E-45
  -13.1999998      -9.80908925E-45
  -13.1899996      -1.54142831E-44
  -13.1800003      -2.10194770E-44
  -13.1700001      -2.80259693E-44
  -13.1599998      -3.92363570E-44
  -13.1499996      -5.04467447E-44
  -13.1400003      -6.30584309E-44
  -13.1300001      -7.84727140E-44
  -13.1199999      -9.80908925E-44
  -13.1099997      -1.16307773E-43
  -13.1000004      -1.42932443E-43
  -13.0900002      -1.75162308E-43
  -13.0799999      -2.11596068E-43
  -13.0699997      -2.55036321E-43
  -13.0600004      -3.06884364E-43
  -13.0500002      -3.71344093E-43
  -13.0400000      -4.49816807E-43
  -13.0299997      -5.46506401E-43
  -13.0200005      -6.62814174E-43
  -13.0100002      -7.98740125E-43
  -13.0000000      -9.69698537E-43
  -12.9899998      -1.17288681E-42
  -12.9799995      -1.42231794E-42
  -12.9700003      -1.72499841E-42
  -12.9600000      -2.09353991E-42
  -12.9499998      -2.53915282E-42
  -12.9399996      -3.06744234E-42
  -12.9300003      -3.69102016E-42
  -12.9200001      -4.43791224E-42
  -12.9099998      -5.32493416E-42
  -12.8999996      -6.37871061E-42
  -12.8900003      -7.62726754E-42
  -12.8800001      -9.10003223E-42
  -12.8699999      -1.08474514E-41
  -12.8599997      -1.29087615E-41
  -12.8500004      -1.53400143E-41
  -12.8400002      -1.81972619E-41
  -12.8299999      -2.15477665E-41
  -12.8199997      -2.54643957E-41
  -12.8100004      -3.00452404E-41
  -12.8000002      -3.53967992E-41
  -12.7900000      -4.16311761E-41
  -12.7799997      -4.88899021E-41
  -12.7700005      -5.73327254E-41
  -12.7600002      -6.71362094E-41
  -12.7500000      -7.84937335E-41
  -12.7399998      -9.16323079E-41
  -12.7299995      -1.06815377E-40
  -12.7200003      -1.24334410E-40
  -12.7100000      -1.44524318E-40
  -12.6999998      -1.67757847E-40
  -12.6899996      -1.94449780E-40
  -12.6800003      -2.25075158E-40
  -12.6700001      -2.60174882E-40
  -12.6599998      -3.00358517E-40
  -12.6499996      -3.46294482E-40
  -12.6400003      -3.98739478E-40
  -12.6300001      -4.58548298E-40
  -12.6199999      -5.26659811E-40
  -12.6099997      -6.04134800E-40
  -12.6000004      -6.92157363E-40
  -12.5900002      -7.92037714E-40
  -12.5799999      -9.05241611E-40
  -12.5699997      -1.03340157E-39
  -12.5600004      -1.17833086E-39
  -12.5500002      -1.34203195E-39
  -12.5400000      -1.52673289E-39
  -12.5299997      -1.73489998E-39
  -12.5200005      -1.96925034E-39
  -12.5100002      -2.23280655E-39
  -12.5000000      -2.52887569E-39
  -12.4899998      -2.86111796E-39
  -12.4799995      -3.23356347E-39
  -12.4700003      -3.65065155E-39
  -12.4600000      -4.11726712E-39
  -12.4499998      -4.63874493E-39
  -12.4399996      -5.22095922E-39
  -12.4300003      -5.87032653E-39
  -12.4200001      -6.59388419E-39
  -12.4099998      -7.39932252E-39
  -12.3999996      -8.29504652E-39
  -12.3900003      -9.29021786E-39
  -12.3800001      -1.03948236E-38
  -12.3699999      -1.16197546E-38
  -12.3599997      -1.29768533E-38
  -12.3500004      -1.44789921E-38
  -12.3400002      -1.61401655E-38
  -12.3299999      -1.79755386E-38
  -12.3199997      -2.00015597E-38
  -12.3100004      -2.22360310E-38
  -12.3000002      -2.46982105E-38
  -12.2900000      -2.74089439E-38
  -12.2799997      -3.03907165E-38
  -12.2700005      -3.36678127E-38
  -12.2600002      -3.72663892E-38
  -12.2500000      -4.12146625E-38
  -12.2399998      -4.55428811E-38
  -12.2299995      -5.02836392E-38
  -12.2200003      -5.54720196E-38
  -12.2100000      -6.11455576E-38
  -12.1999998      -6.73444704E-38
  -12.1899996      -7.41119348E-38
  -12.1800003      -8.14941545E-38
  -12.1700001      -8.95404103E-38
  -12.1599998      -9.83034415E-38
  -12.1499996      -1.07839457E-37
  -12.1400003      -1.18208617E-37
  -12.1300001      -1.29474732E-37
  -12.1199999      -1.41705691E-37
  -12.1099997      -1.54973980E-37
  -12.1000004      -1.69356303E-37
  -12.0900002      -1.84934313E-37
  -12.0799999      -2.01794445E-37
  -12.0699997      -2.20028141E-37
  -12.0600004      -2.39732549E-37
  -12.0500002      -2.61010067E-37
  -12.0400000      -2.83968739E-37
  -12.0299997      -3.08723271E-37
  -12.0200005      -3.35393815E-37
  -12.0100002      -3.64107205E-37
  -12.0000000      -3.94997025E-37
  -11.9899998      -4.28203404E-37
  -11.9799995      -4.63874095E-37
  -11.9700003      -5.02163219E-37
  -11.9600000      -5.43232789E-37
  -11.9499998      -5.87252708E-37
  -11.9399996      -6.34399877E-37
  -11.9300003      -6.84860253E-37
  -11.9200001      -7.38825849E-37
  -11.9099998      -7.96499392E-37
  -11.8999996      -8.58089711E-37
  -11.8900003      -9.23815048E-37
  -11.8800001      -9.93901047E-37
  -11.8699999      -1.06858411E-36
  -11.8599997      -1.14810558E-36
  -11.8500004      -1.23271728E-36
  -11.8400002      -1.32267957E-36
  -11.8299999      -1.41826032E-36
  -11.8199997      -1.51973540E-36
  -11.8100004      -1.62738903E-36
  -11.8000002      -1.74151221E-36
  -11.7900000      -1.86240395E-36
  -11.7799997      -1.99037080E-36
  -11.7700005      -2.12572592E-36
  -11.7600002      -2.26878517E-36
  -11.7500000      -2.41987393E-36
  -11.7399998      -2.57932062E-36
  -11.7299995      -2.74746137E-36
  -11.7200003      -2.92462890E-36
  -11.7100000      -3.11116527E-36
  -11.6999998      -3.30741270E-36
  -11.6899996      -3.51371039E-36
  -11.6800003      -3.73040126E-36
  -11.6700001      -3.95782039E-36
  -11.6599998      -4.19630820E-36
  -11.6499996      -4.44619689E-36
  -11.6400003      -4.70780716E-36
  -11.6300001      -4.98146044E-36
  -11.6199999      -5.26745734E-36
  -11.6099997      -5.56609884E-36
  -11.6000004      -5.87765865E-36
  -11.5900002      -6.20240870E-36
  -11.5799999      -6.54058933E-36
  -11.5699997      -6.89242403E-36
  -11.5600004      -7.25810651E-36
  -11.5500002      -7.63781257E-36
  -11.5400000      -8.03167205E-36
  -11.5299997      -8.43978326E-36
  -11.5200005      -8.86222224E-36
  -11.5100002      -9.29900764E-36
  -11.5000000      -9.75010360E-36
  -11.4899998      -1.02154369E-35
  -11.4799995      -1.06948649E-35
  -11.4700003      -1.11881972E-35
  -11.4600000      -1.16951722E-35
  -11.4499998      -1.22154368E-35
  -11.4399996      -1.27485993E-35
  -11.4300003      -1.32941323E-35
  -11.4200001      -1.38514317E-35
  -11.4099998      -1.44198159E-35
  -11.3999996      -1.49984871E-35
  -11.3900003      -1.55865127E-35
  -11.3800001      -1.61828537E-35
  -11.3699999      -1.67863506E-35
  -11.3599997      -1.73956519E-35
  -11.3500004      -1.80093182E-35
  -11.3400002      -1.86256822E-35
  -11.3299999      -1.92429559E-35
  -11.3199997      -1.98591161E-35
  -11.3100004      -2.04719875E-35
  -11.3000002      -2.10791593E-35
  -11.2900000      -2.16779927E-35
  -11.2799997      -2.22656208E-35
  -11.2700005      -2.28389024E-35
  -11.2600002      -2.33944197E-35
  -11.2500000      -2.39284904E-35
  -11.2399998      -2.44371385E-35
  -11.2299995      -2.49159918E-35
  -11.2200003      -2.53603665E-35
  -11.2100000      -2.57652290E-35
  -11.1999998      -2.61251352E-35
  -11.1899996      -2.64342047E-35
  -11.1800003      -2.66861439E-35
  -11.1700001      -2.68741455E-35
  -11.1599998      -2.69909373E-35
  -11.1499996      -2.70287305E-35
  -11.1400003      -2.69791307E-35
  -11.1300001      -2.68331439E-35
  -11.1199999      -2.65811673E-35
  -11.1099997      -2.62128927E-35
  -11.1000004      -2.57172909E-35
  -11.0900002      -2.50826158E-35
  -11.0799999      -2.42963002E-35
  -11.0699997      -2.33448170E-35
  -11.0600004      -2.22138658E-35
  -11.0500002      -2.08880783E-35
  -11.0400000      -1.93510879E-35
  -11.0299997      -1.75854070E-35
  -11.0200005      -1.55724217E-35
  -11.0100002      -1.32922166E-35
  -11.0000000      -1.07236151E-35
  -10.9899998      -7.84399043E-36
  -10.9799995      -4.62929104E-36
  -10.9700003      -1.05379097E-36
  -10.9600000       2.90990258E-36
  -10.9499998       7.29092120E-36
  -10.9399996       1.21203856E-35
  -10.9300003       1.74314204E-35
  -10.9200001       2.32592823E-35
  -10.9099998       2.96415996E-35
  -10.8999996       3.66183968E-35
  -10.8900003       4.42323228E-35
  -10.8800001       5.25288018E-35
  -10.8699999       6.15562081E-35
  -10.8599997       7.13660643E-35
  -10.8500004       8.20132651E-35
  -10.8400002       9.35561949E-35
  -10.8299999       1.06057107E-34
  -10.8199997       1.19582271E-34
  -10.8100004       1.34202218E-34
  -10.8000002       1.49991897E-34
  -10.7900000       1.67031479E-34
  -10.7799997       1.85405903E-34
  -10.7700005       2.05205980E-34
  -10.7600002       2.26527909E-34
  -10.7500000       2.49474294E-34
  -10.7399998       2.74154486E-34
  -10.7299995       3.00684751E-34
  -10.7200003       3.29188652E-34
  -10.7100000       3.59797859E-34
  -10.6999998       3.92652031E-34
  -10.6899996       4.27900102E-34
  -10.6800003       4.65700464E-34
  -10.6700001       5.06221408E-34
  -10.6599998       5.49641827E-34
  -10.6499996       5.96152327E-34
  -10.6400003       6.45954350E-34
  -10.6300001       6.99263202E-34
  -10.6199999       7.56306729E-34
  -10.6099997       8.17327467E-34
  -10.6000004       8.82583199E-34
  -10.5900002       9.52347044E-34
  -10.5799999       1.02690929E-33
  -10.5699997       1.10657778E-33
  -10.5600004       1.19167990E-33
  -10.5500002       1.28256086E-33
  -10.5400000       1.37958947E-33
  -10.5299997       1.48315557E-33
  -10.5200005       1.59367077E-33
  -10.5100002       1.71157433E-33
  -10.5000000       1.83733036E-33
  -10.4899998       1.97142874E-33
  -10.4799995       2.11439144E-33
  -10.4700003       2.26676876E-33
  -10.4600000       2.42914218E-33
  -10.4499998       2.60212921E-33
  -10.4399996       2.78637987E-33
  -10.4300003       2.98258733E-33
  -10.4200001       3.19147304E-33
  -10.4099998       3.41380788E-33
  -10.3999996       3.65040771E-33
  -10.3900003       3.90212880E-33
  -10.3800001       4.16987740E-33
  -10.3699999       4.45460527E-33
  -10.3599997       4.75731674E-33
  -10.3500004       5.07907820E-33
  -10.3400002       5.42100562E-33
  -10.3299999       5.78427893E-33
  -10.3199997       6.17013973E-33
  -10.3100004       6.57989208E-33
  -10.3000002       7.01490360E-33
  -10.2900000       7.47663117E-33
  -10.2799997       7.96658309E-33
  -10.2700005       8.48636612E-33
  -10.2600002       9.03765093E-33
  -10.2500000       9.62220297E-33
  -10.2399998       1.02418648E-32
  -10.2299995       1.08985709E-32
  -10.2200003       1.15943769E-32
  -10.2100000       1.23314015E-32
  -10.1999998       1.31118784E-32
  -10.1899996       1.39381466E-32
  -10.1800003       1.48126659E-32
  -10.1700001       1.57380018E-32
  -10.1599998       1.67167977E-32
  -10.1499996       1.77519013E-32
  -10.1400003       1.88462337E-32
  -10.1300001       2.00028555E-32
  -10.1199999       2.12249420E-32
  -10.1099997       2.25158508E-32
  -10.1000004       2.38790554E-32
  -10.0900002       2.53181764E-32
  -10.0799999       2.68369915E-32
  -10.0699997       2.84394401E-32
  -10.0600004       3.01296070E-32
  -10.0500002       3.19117505E-32
  -10.0400000       3.37903521E-32
  -10.0299997       3.57699963E-32
  -10.0200005       3.78554526E-32
  -10.0100002       4.00517051E-32
  -10.0000000       4.23639201E-32
  -9.98999977       4.47974491E-32
  -9.97999954       4.73578227E-32
  -9.97000027       5.00508038E-32
  -9.96000004       5.28823111E-32
  -9.94999981       5.58585159E-32
  -9.93999958       5.89858187E-32
  -9.93000031       6.22707377E-32
  -9.92000008       6.57201494E-32
  -9.90999985       6.93410482E-32
  -9.89999962       7.31406809E-32
  -9.89000034       7.71265765E-32
  -9.88000011       8.13062700E-32
  -9.86999989       8.56877783E-32
  -9.85999966       9.02792827E-32
  -9.85000038       9.50891117E-32
  -9.84000015       1.00125905E-31
  -9.82999992       1.05398456E-31
  -9.81999969       1.10915885E-31
  -9.81000042       1.16687539E-31
  -9.80000019       1.22722821E-31
  -9.78999996       1.29031535E-31
  -9.77999973       1.35623648E-31
  -9.77000046       1.42509377E-31
  -9.76000023       1.49699123E-31
  -9.75000000       1.57203432E-31
  -9.73999977       1.65033118E-31
  -9.72999954       1.73199160E-31
  -9.72000027       1.81712748E-31
  -9.71000004       1.90585227E-31
  -9.69999981       1.99828209E-31
  -9.68999958       2.09453063E-31
  -9.68000031       2.19471895E-31
  -9.67000008       2.29896320E-31
  -9.65999985       2.40738492E-31
  -9.64999962       2.52010543E-31
  -9.64000034       2.63724744E-31
  -9.63000011       2.75893109E-31
  -9.61999989       2.88527863E-31
  -9.60999966       3.01641701E-31
  -9.60000038       3.15246332E-31
  -9.59000015       3.29354215E-31
  -9.57999992       3.43977506E-31
  -9.56999969       3.59127983E-31
  -9.56000042       3.74817564E-31
  -9.55000019       3.91058241E-31
  -9.53999996       4.07860664E-31
  -9.52999973       4.25236774E-31
  -9.52000046       4.43197152E-31
  -9.51000023       4.61752378E-31
  -9.50000000       4.80912559E-31
  -9.48999977       5.00687384E-31
  -9.47999954       5.21086301E-31
  -9.47000027       5.42117870E-31
  -9.46000004       5.63789754E-31
  -9.44999981       5.86110088E-31
  -9.43999958       6.09084655E-31
  -9.43000031       6.32719285E-31
  -9.42000008       6.57019293E-31
  -9.40999985       6.81988438E-31
  -9.39999962       7.07629214E-31
  -9.39000034       7.33944066E-31
  -9.38000011       7.60933510E-31
  -9.36999989       7.88595479E-31
  -9.35999966       8.16929453E-31
  -9.35000038       8.45930874E-31
  -9.34000015       8.75595367E-31
  -9.32999992       9.05914000E-31
  -9.31999969       9.36879342E-31
  -9.31000042       9.68481144E-31
  -9.30000019       1.00070615E-30
  -9.28999996       1.03353921E-30
  -9.27999973       1.06696162E-30
  -9.27000046       1.10095550E-30
  -9.26000023       1.13549773E-30
  -9.25000000       1.17056358E-30
  -9.23999977       1.20612378E-30
  -9.22999954       1.24214958E-30
  -9.22000027       1.27860477E-30
  -9.21000004       1.31545256E-30
  -9.19999981       1.35265047E-30
  -9.18999958       1.39015626E-30
  -9.18000031       1.42791982E-30
  -9.17000008       1.46588913E-30
  -9.15999985       1.50400637E-30
  -9.14999962       1.54221248E-30
  -9.14000034       1.58043730E-30
  -9.13000011       1.61861209E-30
  -9.11999989       1.65665992E-30
  -9.10999966       1.69450163E-30
  -9.10000038       1.73204692E-30
  -9.09000015       1.76920551E-30
  -9.07999992       1.80587981E-30
  -9.06999969       1.84196354E-30
  -9.06000042       1.87734667E-30
  -9.05000019       1.91191354E-30
  -9.03999996       1.94553644E-30
  -9.02999973       1.97808578E-30
  -9.02000046       2.00942145E-30
  -9.01000023       2.03939882E-30
  -9.00000000       2.06786195E-30
  -8.98999977       2.09465025E-30
  -8.97999954       2.11958747E-30
  -8.97000027       2.14250114E-30
  -8.96000004       2.16319530E-30
  -8.94999981       2.18147828E-30
  -8.93999958       2.19713812E-30
  -8.93000031       2.20996060E-30
  -8.92000008       2.21971946E-30
  -8.90999985       2.22617866E-30
  -8.89999962       2.22908467E-30
  -8.89000034       2.22818377E-30
  -8.88000011       2.22320269E-30
  -8.86999989       2.21386343E-30
  -8.85999966       2.19987241E-30
  -8.85000038       2.18092326E-30
  -8.84000015       2.15670111E-30
  -8.82999992       2.12687252E-30
  -8.81999969       2.09110251E-30
  -8.81000042       2.04903336E-30
  -8.80000019       2.00029905E-30
  -8.78999996       1.94451799E-30
  -8.77999973       1.88129238E-30
  -8.77000046       1.81021372E-30
  -8.76000023       1.73086465E-30
  -8.75000000       1.64280338E-30
  -8.73999977       1.54558069E-30
  -8.72999954       1.43873371E-30
  -8.72000027       1.32178133E-30
  -8.71000004       1.19422816E-30
  -8.69999981       1.05556835E-30
  -8.68999958       9.05274437E-31
  -8.68000031       7.42807388E-31
  -8.67000008       5.67610628E-31
  -8.65999985       3.79118299E-31
  -8.64999962       1.76744792E-31
  -8.64000034      -4.01086460E-32
  -8.63000011      -2.72060456E-31
  -8.61999989      -5.19738056E-31
  -8.60999966      -7.83787472E-31
  -8.60000038      -1.06486566E-30
  -8.59000015      -1.36364990E-30
  -8.57999992      -1.68082715E-30
  -8.56999969      -2.01710223E-30
  -8.56000042      -2.37319012E-30
  -8.55000019      -2.74982077E-30
  -8.53999996      -3.14773915E-30
  -8.52999973      -3.56770059E-30
  -8.52000046      -4.01047564E-30
  -8.51000023      -4.47684372E-30
  -8.50000000      -4.96759925E-30
  -8.48999977      -5.48354498E-30
  -8.47999954      -6.02549339E-30
  -8.47000027      -6.59427279E-30
  -8.46000004      -7.19071298E-30
  -8.44999981      -7.81565091E-30
  -8.43999958      -8.46993521E-30
  -8.43000031      -9.15442350E-30
  -8.42000008      -9.86996892E-30
  -8.40999985      -1.06174381E-29
  -8.39999962      -1.13976933E-29
  -8.39000034      -1.22116063E-29
  -8.38000011      -1.30600439E-29
  -8.36999989      -1.39438787E-29
  -8.35999966      -1.48639692E-29
  -8.35000038      -1.58211910E-29
  -8.34000015      -1.68163882E-29
  -8.32999992      -1.78504140E-29
  -8.31999969      -1.89241079E-29
  -8.31000042      -2.00383065E-29
  -8.30000019      -2.11938073E-29
  -8.28999996      -2.23914634E-29
  -8.27999973      -2.36320181E-29
  -8.27000046      -2.49162658E-29
  -8.26000023      -2.62449332E-29
  -8.25000000      -2.76187623E-29
  -8.23999977      -2.90384104E-29
  -8.22999954      -3.05045727E-29
  -8.22000027      -3.20178932E-29
  -8.21000004      -3.35789708E-29
  -8.19999981      -3.51883711E-29
  -8.18999958      -3.68466148E-29
  -8.18000031      -3.85541714E-29
  -8.17000008      -4.03115073E-29
  -8.15999985      -4.21189594E-29
  -8.14999962      -4.39769010E-29
  -8.14000034      -4.58855909E-29
  -8.13000011      -4.78451855E-29
  -8.11999989      -4.98559105E-29
  -8.10999966      -5.19177870E-29
  -8.10000038      -5.40307789E-29
  -8.09000015      -5.61949103E-29
  -8.07999992      -5.84099284E-29
  -8.06999969      -6.06755863E-29
  -8.06000042      -6.29915893E-29
  -8.05000019      -6.53574979E-29
  -8.03999996      -6.77727104E-29
  -8.02999973      -7.02366549E-29
  -8.02000046      -7.27485911E-29
  -8.01000023      -7.53075261E-29
  -8.00000000      -7.79125329E-29
  -7.98999977      -8.05624380E-29
  -7.98000002      -8.32560617E-29
  -7.96999979      -8.59919776E-29
  -7.96000004      -8.87685426E-29
  -7.94999981      -9.15842281E-29
  -7.94000006      -9.44368795E-29
  -7.92999983      -9.73247813E-29
  -7.92000008      -1.00245580E-28
  -7.90999985      -1.03196996E-28
  -7.90000010      -1.06176325E-28
  -7.88999987      -1.09180896E-28
  -7.88000011      -1.12207808E-28
  -7.86999989      -1.15253871E-28
  -7.86000013      -1.18315666E-28
  -7.84999990      -1.21389559E-28
  -7.84000015      -1.24471937E-28
  -7.82999992      -1.27558553E-28
  -7.82000017      -1.30645241E-28
  -7.80999994      -1.33727403E-28
  -7.80000019      -1.36800224E-28
  -7.78999996      -1.39858649E-28
  -7.78000021      -1.42897394E-28
  -7.76999998      -1.45910932E-28
  -7.76000023      -1.48893379E-28
  -7.75000000      -1.51838355E-28
  -7.73999977      -1.54739515E-28
  -7.73000002      -1.57590157E-28
  -7.71999979      -1.60383080E-28
  -7.71000004      -1.63110714E-28
  -7.69999981      -1.65765573E-28
  -7.69000006      -1.68339458E-28
  -7.67999983      -1.70823763E-28
  -7.67000008      -1.73209990E-28
  -7.65999985      -1.75488799E-28
  -7.65000010      -1.77650763E-28
  -7.63999987      -1.79686110E-28
  -7.63000011      -1.81584102E-28
  -7.61999989      -1.83334688E-28
  -7.61000013      -1.84926590E-28
  -7.59999990      -1.86348419E-28
  -7.59000015      -1.87588177E-28
  -7.57999992      -1.88634173E-28
  -7.57000017      -1.89473241E-28
  -7.55999994      -1.90092283E-28
  -7.55000019      -1.90478203E-28
  -7.53999996      -1.90616762E-28
  -7.53000021      -1.90493863E-28
  -7.51999998      -1.90094582E-28
  -7.51000023      -1.89403570E-28
  -7.50000000      -1.88405469E-28
  -7.48999977      -1.87084341E-28
  -7.48000002      -1.85423251E-28
  -7.46999979      -1.83405755E-28
  -7.46000004      -1.81014051E-28
  -7.44999981      -1.78230601E-28
  -7.44000006      -1.75036795E-28