  -16.0000000       0.00000000    
  -15.9899998       0.00000000    
  -15.9799995       0.00000000    
  -15.9700003       0.00000000    
  -15.9600000       0.00000000    
  -15.9499998       0.00000000    
  -15.9399996       0.00000000    
  -15.9300003       0.00000000    
  -15.9200001       0.00000000    
  -15.9099998       0.00000000    
  -15.8999996       0.00000000    
  -15.8900003       0.00000000    
  -15.8800001       0.00000000    
  -15.8699999       0.00000000    
  -15.8599997       0.00000000    
  -15.8500004       0.00000000    
  -15.8400002       0.00000000    
  -15.8299999       0.00000000    
  -15.8199997       0.00000000    
  -15.8100004       0.00000000    
  -15.8000002       0.00000000    
  -15.7900000       0.00000000    
  -15.7799997       0.00000000    
  -15.7700005       0.00000000    
  -15.7600002       0.00000000    
  -15.7500000       0.00000000    
  -15.7399998       0.00000000    
  -15.7299995       0.00000000    
  -15.7200003       0.00000000    
  -15.7100000       0.00000000    
  -15.6999998       0.00000000    
  -15.6899996       0.00000000    
  -15.6800003       0.00000000    
  -15.6700001       0.00000000    
  -15.6599998       0.00000000    
  -15.6499996       0.00000000    
  -15.6400003       0.00000000    
  -15.6300001       0.00000000    
  -15.6199999       0.00000000    
  -15.6099997       0.00000000    
  -15.6000004       0.00000000    
  -15.5900002       0.00000000    
  -15.5799999       0.00000000    
  -15.5699997       0.00000000    
  -15.5600004       0.00000000    
  -15.5500002       0.00000000    
  -15.5400000       0.00000000    
  -15.5299997       0.00000000    
  -15.5200005       0.00000000    
  -15.5100002       0.00000000    
  -15.5000000       0.00000000    
  -15.4899998       0.00000000    
  -15.4799995       0.00000000    
  -15.4700003       0.00000000    
  -15.4600000       0.00000000    
  -15.4499998       0.00000000    
  -15.4399996       0.00000000    
  -15.4300003       0.00000000    
  -15.4200001       0.00000000    
  -15.4099998       0.00000000    
  -15.3999996       0.00000000    
  -15.3900003       0.00000000    
  -15.3800001       0.00000000    
  -15.3699999       0.00000000    
  -15.3599997       0.00000000    
  -15.3500004       0.00000000    
  -15.3400002       0.00000000    
  -15.3299999       0.00000000    
  -15.3199997       0.00000000    
  -15.3100004       0.00000000    
  -15.3000002       0.00000000    
  -15.2900000       0.00000000    
  -15.2799997       0.00000000    
  -15.2700005       0.00000000    
  -15.2600002       0.00000000    
  -15.2500000       0.00000000    
  -15.2399998       0.00000000    
  -15.2299995       0.00000000    
  -15.2200003       0.00000000    
  -15.2100000       0.00000000    
  -15.1999998       0.00000000    
  -15.1899996       0.00000000    
  -15.1800003       0.00000000    
  -15.1700001       0.00000000    
  -15.1599998       0.00000000    
  -15.1499996       0.00000000    
  -15.1400003       0.00000000    
  -15.1300001       0.00000000    
  -15.1199999       0.00000000    
  -15.1099997       0.00000000    
  -15.1000004       0.00000000    
  -15.0900002       0.00000000    
  -15.0799999       0.00000000    
  -15.0699997       0.00000000    
  -15.0600004       0.00000000    
  -15.0500002       0.00000000    
  -15.0400000       0.00000000    
  -15.0299997       0.00000000    
  -15.0200005       0.00000000    
  -15.0100002       0.00000000    
  -15.0000000       0.00000000    
  -14.9899998       0.00000000    
  -14.9799995       0.00000000    
  -14.9700003       0.00000000    
  -14.9600000       0.00000000    
  -14.9499998       0.00000000    
  -14.9399996       0.00000000    
  -14.9300003       0.00000000    
  -14.9200001       0.00000000    
  -14.9099998       0.00000000    
  -14.8999996       0.00000000    
  -14.8900003       0.00000000    
  -14.8800001       0.00000000    
  -14.8699999       0.00000000    
  -14.8599997       0.00000000    
  -14.8500004       0.00000000    
  -14.8400002       0.00000000    
  -14.8299999       0.00000000    
  -14.8199997       0.00000000    
  -14.8100004       0.00000000    
  -14.8000002       0.00000000    
  -14.7900000       0.00000000    
  -14.7799997       0.00000000    
  -14.7700005       0.00000000    
  -14.7600002       0.00000000    
  -14.7500000       0.00000000    
  -14.7399998       0.00000000    
  -14.7299995       0.00000000    
  -14.7200003       0.00000000    
  -14.7100000       0.00000000    
  -14.6999998       0.00000000    
  -14.6899996       0.00000000    
  -14.6800003       0.00000000    
  -14.6700001       0.00000000    
  -14.6599998       0.00000000    
  -14.6499996       0.00000000    
  -14.6400003       0.00000000    
  -14.6300001       0.00000000    
  -14.6199999       0.00000000    
  -14.6099997       0.00000000    
  -14.6000004       0.00000000    
  -14.5900002       0.00000000    
  -14.5799999       0.00000000    
  -14.5699997       0.00000000    
  -14.5600004       0.00000000    
  -14.5500002       0.00000000    
  -14.5400000       0.00000000    
  -14.5299997       0.00000000    
  -14.5200005       0.00000000    
  -14.5100002       0.00000000    
  -14.5000000       0.00000000    
  -14.4899998       0.00000000    
  -14.4799995       0.00000000    
  -14.4700003       0.00000000    
  -14.4600000       0.00000000    
  -14.4499998       0.00000000    
  -14.4399996       0.00000000    
  -14.4300003       0.00000000    
  -14.4200001       0.00000000    
  -14.4099998       0.00000000    
  -14.3999996       0.00000000    
  -14.3900003       0.00000000    
  -14.3800001       0.00000000    
  -14.3699999       0.00000000    
  -14.3599997       0.00000000    
  -14.3500004       0.00000000    
  -14.3400002       0.00000000    
  -14.3299999       0.00000000    
  -14.3199997       0.00000000    
  -14.3100004       0.00000000    
  -14.3000002       0.00000000    
  -14.2900000       0.00000000    
  -14.2799997       0.00000000    
  -14.2700005       0.00000000    
  -14.2600002       0.00000000    
  -14.2500000       0.00000000    
  -14.2399998       0.00000000    
  -14.2299995       0.00000000    
  -14.2200003       0.00000000    
  -14.2100000       0.00000000    
  -14.1999998       0.00000000    
  -14.1899996       0.00000000    
  -14.1800003       0.00000000    
  -14.1700001       0.00000000    
  -14.1599998       0.00000000    
  -14.1499996       0.00000000    
  -14.1400003       0.00000000    
  -14.1300001       0.00000000    
  -14.1199999       0.00000000    
  -14.1099997       0.00000000    
  -14.1000004       0.00000000    
  -14.0900002       0.00000000    
  -14.0799999       0.00000000    
  -14.0699997       0.00000000    
  -14.0600004       0.00000000    
  -14.0500002       0.00000000    
  -14.0400000       0.00000000    
  -14.0299997       0.00000000    
  -14.0200005       0.00000000    
  -14.0100002       0.00000000    
  -14.0000000       0.00000000    
  -13.9899998       0.00000000    
  -13.9799995       0.00000000    
  -13.9700003       0.00000000    
  -13.9600000       0.00000000    
  -13.9499998       0.00000000    
  -13.9399996       0.00000000    
  -13.9300003       0.00000000    
  -13.9200001       0.00000000    
  -13.9099998       0.00000000    
  -13.8999996       0.00000000    
  -13.8900003       0.00000000    
  -13.8800001       0.00000000    
  -13.8699999       0.00000000    
  -13.8599997       0.00000000    
  -13.8500004       0.00000000    
  -13.8400002       0.00000000    
  -13.8299999       0.00000000    
  -13.8199997       0.00000000    
  -13.8100004       0.00000000    
  -13.8000002       0.00000000    
  -13.7900000       0.00000000    
  -13.7799997       0.00000000    
  -13.7700005       0.00000000    
  -13.7600002       0.00000000    
  -13.7500000       0.00000000    
  -13.7399998       0.00000000    
  -13.7299995       0.00000000    
  -13.7200003       0.00000000    
  -13.7100000       0.00000000    
  -13.6999998       0.00000000    
  -13.6899996       0.00000000    
  -13.6800003       0.00000000    
  -13.6700001       0.00000000    
  -13.6599998       0.00000000    
  -13.6499996       0.00000000    
  -13.6400003       0.00000000    
  -13.6300001       0.00000000    
  -13.6199999       0.00000000    
  -13.6099997       0.00000000    
  -13.6000004       0.00000000    
  -13.5900002       0.00000000    
  -13.5799999       0.00000000    
  -13.5699997       0.00000000    
  -13.5600004       0.00000000    
  -13.5500002       0.00000000    
  -13.5400000       0.00000000    
  -13.5299997       0.00000000    
  -13.5200005       0.00000000    
  -13.5100002       0.00000000    
  -13.5000000       0.00000000    
  -13.4899998       0.00000000    
  -13.4799995       0.00000000    
  -13.4700003       0.00000000    
  -13.4600000       0.00000000    
  -13.4499998       0.00000000    
  -13.4399996       0.00000000    
  -13.4300003       0.00000000    
  -13.4200001       0.00000000    
  -13.4099998       0.00000000    
  -13.3999996       0.00000000    
  -13.3900003       0.00000000    
  -13.3800001       0.00000000    
  -13.3699999       0.00000000    
  -13.3599997       0.00000000    
  -13.3500004       0.00000000    
  -13.3400002       0.00000000    
  -13.3299999       0.00000000    
  -13.3199997       0.00000000    
  -13.3100004       0.00000000    
  -13.3000002       0.00000000    
  -13.2900000       0.00000000    
  -13.2799997       0.00000000    
  -13.2700005       0.00000000    
  -13.2600002       0.00000000    
  -13.2500000       0.00000000    
  -13.2399998       0.00000000    
  -13.2299995       0.00000000    
  -13.2200003       0.00000000    
  -13.2100000       0.00000000    
  -13.1999998       0.00000000    
  -13.1899996       0.00000000    
  -13.1800003       0.00000000    
  -13.1700001       0.00000000    
  -13.1599998       0.00000000    
  -13.1499996       0.00000000    
  -13.1400003       0.00000000    
  -13.1300001       0.00000000    
  -13.1199999       0.00000000    
  -13.1099997       0.00000000    
  -13.1000004       0.00000000    
  -13.0900002       0.00000000    
  -13.0799999       0.00000000    
  -13.0699997       0.00000000    
  -13.0600004       0.00000000    
  -13.0500002       0.00000000    
  -13.0400000       0.00000000    
  -13.0299997       0.00000000    
  -13.0200005       0.00000000    
  -13.0100002       0.00000000    
  -13.0000000       0.00000000    
  -12.9899998       0.00000000    
  -12.9799995       0.00000000    
  -12.9700003       0.00000000    
  -12.9600000       0.00000000    
  -12.9499998       0.00000000    
  -12.9399996       0.00000000    
  -12.9300003       0.00000000    
  -12.9200001       0.00000000    
  -12.9099998       0.00000000    
  -12.8999996       0.00000000    
  -12.8900003       0.00000000    
  -12.8800001       0.00000000    
  -12.8699999       0.00000000    
  -12.8599997       0.00000000    
  -12.8500004       0.00000000    
  -12.8400002       0.00000000    
  -12.8299999       0.00000000    
  -12.8199997       0.00000000    
  -12.8100004       0.00000000    
  -12.8000002       0.00000000    
  -12.7900000       0.00000000    
  -12.7799997       0.00000000    
  -12.7700005       0.00000000    
  -12.7600002       0.00000000    
  -12.7500000       0.00000000    
  -12.7399998       0.00000000    
  -12.7299995       0.00000000    
  -12.7200003       0.00000000    
  -12.7100000       0.00000000    
  -12.6999998       0.00000000    
  -12.6899996       0.00000000    
  -12.6800003       0.00000000    
  -12.6700001       0.00000000    
  -12.6599998       0.00000000    
  -12.6499996       0.00000000    
  -12.6400003       0.00000000    
  -12.6300001       0.00000000    
  -12.6199999       0.00000000    
  -12.6099997       0.00000000    
  -12.6000004       0.00000000    
  -12.5900002       0.00000000    
  -12.5799999       0.00000000    
  -12.5699997       0.00000000    
  -12.5600004       0.00000000    
  -12.5500002       0.00000000    
  -12.5400000       0.00000000    
  -12.5299997       0.00000000    
  -12.5200005       0.00000000    
  -12.5100002       0.00000000    
  -12.5000000       0.00000000    
  -12.4899998       0.00000000    
  -12.4799995       0.00000000    
  -12.4700003       0.00000000    
  -12.4600000       0.00000000    
  -12.4499998       0.00000000    
  -12.4399996       0.00000000    
  -12.4300003       0.00000000    
  -12.4200001       0.00000000    
  -12.4099998       0.00000000    
  -12.3999996       0.00000000    
  -12.3900003       0.00000000    
  -12.3800001       0.00000000    
  -12.3699999       0.00000000    
  -12.3599997       0.00000000    
  -12.3500004       0.00000000    
  -12.3400002       0.00000000    
  -12.3299999       0.00000000    
  -12.3199997       0.00000000    
  -12.3100004       0.00000000    
  -12.3000002       0.00000000    
  -12.2900000       0.00000000    
  -12.2799997       0.00000000    
  -12.2700005       0.00000000    
  -12.2600002       0.00000000    
  -12.2500000      -0.00000000    
  -12.2399998      -0.00000000    
  -12.2299995      -0.00000000    
  -12.2200003       0.00000000    
  -12.2100000       0.00000000    
  -12.1999998       0.00000000    
  -12.1899996       0.00000000    
  -12.1800003      -0.00000000    
  -12.1700001      -0.00000000    
  -12.1599998       0.00000000    
  -12.1499996       0.00000000    
  -12.1400003       0.00000000    
  -12.1300001       0.00000000    
  -12.1199999      -0.00000000    
  -12.1099997      -0.00000000    
  -12.1000004       0.00000000    
  -12.0900002       0.00000000    
  -12.0799999       0.00000000    
  -12.0699997      -0.00000000    
  -12.0600004      -1.40129846E-45
  -12.0500002      -1.40129846E-45
  -12.0400000      -4.20389539E-45
  -12.0299997      -5.60519386E-45
  -12.0200005      -2.80259693E-45
  -12.0100002      -1.40129846E-45
  -12.0000000      -8.40779079E-45
  -11.9899998      -1.96181785E-44
  -11.9799995      -2.66246708E-44
  -11.9700003      -3.22298647E-44
  -11.9600000      -3.78350585E-44
  -11.9499998      -4.34402524E-44
  -11.9399996      -5.04467447E-44
  -11.9300003      -6.02558340E-44
  -11.9200001      -7.56701171E-44
  -11.9099998      -9.52882956E-44
  -11.8999996      -1.10702579E-43
  -11.8900003      -1.26116862E-43
  -11.8800001      -1.54142831E-43
  -11.8699999      -1.79366203E-43
  -11.8599997      -2.07392173E-43
  -11.8500004      -2.55036321E-43
  -11.8400002      -3.13890856E-43
  -11.8299999      -3.75547988E-43
  -11.8199997      -4.59625896E-43
  -11.8100004      -5.70328475E-43
  -11.8000002      -7.09057023E-43
  -11.7900000      -8.82818033E-43
  -11.7799997      -1.09721670E-42
  -11.7700005      -1.35645691E-42
  -11.7600002      -1.68436075E-42
  -11.7500000      -2.09213861E-42
  -11.7399998      -2.58399437E-42
  -11.7299995      -3.18375011E-42
  -11.7200003      -3.91382661E-42
  -11.7100000      -4.80645373E-42
  -11.6999998      -5.89526264E-42
  -11.6899996      -7.20267411E-42
  -11.6800003      -8.76932579E-42
  -11.6700001      -1.06596774E-41
  -11.6599998      -1.29409913E-41
  -11.6499996      -1.56777272E-41
  -11.6400003      -1.89651734E-41
  -11.6300001      -2.28972169E-41
  -11.6199999      -2.75803564E-41
  -11.6099997      -3.31449126E-41
  -11.6000004      -3.97562387E-41
  -11.5900002      -4.76105166E-41
  -11.5799999      -5.69235462E-41
  -11.5699997      -6.79517651E-41
  -11.5600004      -8.09572162E-41
  -11.5500002      -9.62650006E-41
  -11.5400000      -1.14261877E-40
  -11.5299997      -1.35413076E-40
  -11.5200005      -1.60210453E-40
  -11.5100002      -1.89234147E-40
  -11.5000000      -2.23155379E-40
  -11.4899998      -2.62735054E-40
  -11.4799995      -3.08858793E-40
  -11.4700003      -3.62517314E-40
  -11.4600000      -4.24873694E-40
  -11.4499998      -4.97208721E-40
  -11.4399996      -5.80995159E-40
  -11.4300003      -6.77918770E-40
  -11.4200001      -7.89874109E-40
  -11.4099998      -9.19007967E-40
  -11.3999996      -1.06774459E-39
  -11.3900003      -1.23884593E-39
  -11.3800001      -1.43540887E-39
  -11.3699999      -1.66091983E-39
  -11.3599997      -1.91930105E-39
  -11.3500004      -2.21497363E-39
  -11.3400002      -2.55288554E-39
  -11.3299999      -2.93858734E-39
  -11.3199997      -3.37830499E-39
  -11.3100004      -3.87898893E-39
  -11.3000002      -4.44841217E-39
  -11.2900000      -5.09522351E-39
  -11.2799997      -5.82906250E-39
  -11.2700005      -6.66068970E-39
  -11.2600002      -7.60205538E-39
  -11.2500000      -8.66643685E-39
  -11.2399998      -9.86854775E-39
  -11.2299995      -1.12246922E-38
  -11.2200003      -1.27529259E-38
  -11.2100000      -1.44732215E-38
  -11.1999998      -1.64076342E-38
  -11.1899996      -1.85805100E-38
  -11.1800003      -2.10186642E-38
  -11.1700001      -2.37516054E-38
  -11.1599998      -2.68118479E-38
  -11.1499996      -3.02350743E-38
  -11.1400003      -3.40604537E-38
  -11.1300001      -3.83309584E-38
  -11.1199999      -4.30936524E-38
  -11.1099997      -4.84000250E-38
  -11.1000004      -5.43063691E-38
  -11.0900002      -6.08742046E-38
  -11.0799999      -6.81705975E-38
  -11.0699997      -7.62686789E-38
  -11.0600004      -8.52480874E-38
  -11.0500002      -9.51954736E-38
  -11.0400000      -1.06205005E-37
  -11.0299997      -1.18378880E-37
  -11.0200005      -1.31828050E-37
  -11.0100002      -1.46672621E-37
  -11.0000000      -1.63042735E-37
  -10.9899998      -1.81079162E-37
  -10.9799995      -2.00933936E-37
  -10.9700003      -2.22771255E-37
  -10.9600000      -2.46768211E-37
  -10.9499998      -2.73115627E-37
  -10.9399996      -3.02018921E-37
  -10.9300003      -3.33699095E-37
  -10.9200001      -3.68393384E-37
  -10.9099998      -4.06356824E-37
  -10.8999996      -4.47862702E-37
  -10.8900003      -4.93203743E-37
  -10.8800001      -5.42693569E-37
  -10.8699999      -5.96667595E-37
  -10.8599997      -6.55483925E-37
  -10.8500004      -7.19525014E-37
  -10.8400002      -7.89198560E-37
  -10.8299999      -8.64939168E-37
  -10.8199997      -9.47209154E-37
  -10.8100004      -1.03650070E-36
  -10.8000002      -1.13333603E-36
  -10.7900000      -1.23826929E-36
  -10.7799997      -1.35188873E-36
  -10.7700005      -1.47481699E-36
  -10.7600002      -1.60771291E-36
  -10.7500000      -1.75127314E-36
  -10.7399998      -1.90623298E-36
  -10.7299995      -2.07336856E-36
  -10.7200003      -2.25349797E-36
  -10.7100000      -2.44748162E-36
  -10.6999998      -2.65622532E-36
  -10.6899996      -2.88068042E-36
  -10.6800003      -3.12184438E-36
  -10.6700001      -3.38076272E-36
  -10.6599998      -3.65853281E-36
  -10.6499996      -3.95629936E-36
  -10.6400003      -4.27525839E-36
  -10.6300001      -4.61665792E-36
  -10.6199999      -4.98180124E-36
  -10.6099997      -5.37203932E-36
  -10.6000004      -5.78878162E-36
  -10.5900002      -6.23348712E-36
  -10.5799999      -6.70767181E-36
  -10.5699997      -7.21290336E-36
  -10.5600004      -7.75080036E-36
  -10.5500002      -8.32303595E-36
  -10.5400000      -8.93133132E-36
  -10.5299997      -9.57746147E-36
  -10.5200005      -1.02632452E-35
  -10.5100002      -1.09905493E-35
  -10.5000000      -1.17612845E-35
  -10.4899998      -1.25773993E-35
  -10.4799995      -1.34408825E-35
  -10.4700003      -1.43537546E-35
  -10.4600000      -1.53180675E-35
  -10.4499998      -1.63358918E-35
  -10.4399996      -1.74093268E-35
  -10.4300003      -1.85404775E-35
  -10.4200001      -1.97314576E-35
  -10.4099998      -2.09843793E-35
  -10.3999996      -2.23013391E-35
  -10.3900003      -2.36844290E-35
  -10.3800001      -2.51357025E-35
  -10.3699999      -2.66571756E-35
  -10.3599997      -2.82508228E-35
  -10.3500004      -2.99185410E-35
  -10.3400002      -3.16621785E-35
  -10.3299999      -3.34834601E-35
  -10.3199997      -3.53840273E-35
  -10.3100004      -3.73653982E-35
  -10.3000002      -3.94289360E-35
  -10.2900000      -4.15758519E-35
  -10.2799997      -4.38071876E-35
  -10.2700005      -4.61237552E-35
  -10.2600002      -4.85261861E-35
  -10.2500000      -5.10148075E-35
  -10.2399998      -5.35897141E-35
  -10.2299995      -5.62506763E-35
  -10.2200003      -5.89971144E-35
  -10.2100000      -6.18281043E-35
  -10.1999998      -6.47423144E-35
  -10.1899996      -6.77379710E-35
  -10.1800003      -7.08128358E-35
  -10.1700001      -7.39641364E-35
  -10.1599998      -7.71885610E-35
  -10.1499996      -8.04822239E-35
  -10.1400003      -8.38405160E-35
  -10.1300001      -8.72581969E-35
  -10.1199999      -9.07292630E-35
  -10.1099997      -9.42468839E-35
  -10.1000004      -9.78033685E-35
  -10.0900002      -1.01390153E-34
  -10.0799999      -1.04997612E-34
  -10.0699997      -1.08615116E-34
  -10.0600004      -1.12230863E-34
  -10.0500002      -1.15831916E-34
  -10.0400000      -1.19403950E-34
  -10.0299997      -1.22931374E-34
  -10.0200005      -1.26397108E-34
  -10.0100002      -1.29782509E-34
  -10.0000000      -1.33067304E-34
  -9.98999977      -1.36229464E-34
  -9.97999954      -1.39245146E-34
  -9.97000027      -1.42088442E-34
  -9.96000004      -1.44731468E-34
  -9.94999981      -1.47144021E-34
  -9.93999958      -1.49293603E-34
  -9.93000031      -1.51145213E-34
  -9.92000008      -1.52661210E-34
  -9.90999985      -1.53801118E-34
  -9.89999962      -1.54521499E-34
  -9.89000034      -1.54775780E-34
  -9.88000011      -1.54514037E-34
  -9.86999989      -1.53682857E-34
  -9.85999966      -1.52224969E-34
  -9.85000038      -1.50079244E-34
  -9.84000015      -1.47180284E-34
  -9.82999992      -1.43458214E-34
  -9.81999969      -1.38838441E-34
  -9.81000042      -1.33241412E-34
  -9.80000019      -1.26582156E-34
  -9.78999996      -1.18770170E-34
  -9.77999973      -1.09708853E-34
  -9.77000046      -9.92953394E-35
  -9.76000023      -8.74200168E-35
  -9.75000000      -7.39661109E-35
  -9.73999977      -5.88092247E-35
  -9.72999954      -4.18169746E-35
  -9.72000027      -2.28483543E-35
  -9.71000004      -1.75331612E-36
  -9.69999981       2.16278678E-35
  -9.68999958       4.74651905E-35
  -9.68000031       7.59395524E-35
  -9.67000008       1.07243426E-34
  -9.65999985       1.41581659E-34
  -9.64999962       1.79172167E-34
  -9.64000034       2.20246820E-34
  -9.63000011       2.65052372E-34
  -9.61999989       3.13851252E-34
  -9.60999966       3.66922802E-34
  -9.60000038       4.24564223E-34
  -9.59000015       4.87091615E-34
  -9.57999992       5.54841553E-34
  -9.56999969       6.28171875E-34
  -9.56000042       7.07463607E-34
  -9.55000019       7.93121926E-34
  -9.53999996       8.85578414E-34
  -9.52999973       9.85291926E-34
  -9.52000046       1.09275075E-33
  -9.51000023       1.20847468E-33
  -9.50000000       1.33301684E-33
  -9.48999977       1.46696580E-33
  -9.47999954       1.61094834E-33
  -9.47000027       1.76562980E-33
  -9.46000004       1.93171981E-33
  -9.44999981       2.10997361E-33
  -9.43999958       2.30119311E-33
  -9.43000031       2.50623293E-33
  -9.42000008       2.72600226E-33
  -9.40999985       2.96146682E-33
  -9.39999962       3.21365646E-33
  -9.39000034       3.48366383E-33
  -9.38000011       3.77265104E-33
  -9.36999989       4.08185748E-33
  -9.35999966       4.41259641E-33
  -9.35000038       4.76626592E-33
  -9.34000015       5.14435193E-33
  -9.32999992       5.54843472E-33
  -9.31999969       5.98019196E-33
  -9.31000042       6.44140562E-33
  -9.30000019       6.93396787E-33
  -9.28999996       7.45989286E-33
  -9.27999973       8.02131411E-33
  -9.27000046       8.62049664E-33
  -9.26000023       9.25984728E-33
  -9.25000000       9.94191465E-33
  -9.23999977       1.06694105E-32
  -9.22999954       1.14451985E-32
  -9.22000027       1.22723241E-32
  -9.21000004       1.31540125E-32
  -9.19999981       1.40936806E-32
  -9.18999958       1.50949432E-32
  -9.18000031       1.61616367E-32
  -9.17000008       1.72978152E-32
  -9.15999985       1.85077721E-32
  -9.14999962       1.97960493E-32
  -9.14000034       2.11674456E-32
  -9.13000011       2.26270452E-32
  -9.11999989       2.41802024E-32
  -9.10999966       2.58325874E-32
  -9.10000038       2.75901866E-32
  -9.09000015       2.94593137E-32
  -9.07999992       3.14466397E-32
  -9.06999969       3.35591882E-32
  -9.06000042       3.58043824E-32
  -9.05000019       3.81900188E-32
  -9.03999996       4.07243435E-32
  -9.02999973       4.34160169E-32
  -9.02000046       4.62741727E-32
  -9.01000023       4.93084086E-32
  -9.00000000       5.25288223E-32
  -8.98999977       5.59460256E-32
  -8.97999954       5.95711914E-32
  -8.97000027       6.34160277E-32
  -8.96000004       6.74928360E-32
  -8.94999981       7.18145351E-32
  -8.93999958       7.63946491E-32
  -8.93000031       8.12474247E-32
  -8.92000008       8.63877146E-32
  -8.90999985       9.18310881E-32
  -8.89999962       9.75939138E-32
  -8.89000034       1.03693272E-31
  -8.88000011       1.10146995E-31
  -8.86999989       1.16973784E-31
  -8.85999966       1.24193141E-31
  -8.85000038       1.31825461E-31
  -8.84000015       1.39892021E-31
  -8.82999992       1.48415049E-31
  -8.81999969       1.57417654E-31
  -8.81000042       1.66923948E-31
  -8.80000019       1.76959131E-31
  -8.78999996       1.87549324E-31
  -8.77999973       1.98721716E-31
  -8.77000046       2.10504684E-31
  -8.76000023       2.22927614E-31
  -8.75000000       2.36021069E-31
  -8.73999977       2.49816741E-31
  -8.72999954       2.64347591E-31
  -8.72000027       2.79647708E-31
  -8.71000004       2.95752498E-31
  -8.69999981       3.12698495E-31
  -8.68999958       3.30523597E-31
  -8.68000031       3.49267043E-31
  -8.67000008       3.68969363E-31
  -8.65999985       3.89672287E-31
  -8.64999962       4.11418979E-31
  -8.64000034       4.34253991E-31
  -8.63000011       4.58223167E-31
  -8.61999989       4.83373762E-31
  -8.60999966       5.09754489E-31
  -8.60000038       5.37415234E-31
  -8.59000015       5.66407251E-31
  -8.57999992       5.96783436E-31
  -8.56999969       6.28597767E-31
  -8.56000042       6.61905588E-31
  -8.55000019       6.96763791E-31
  -8.53999996       7.33230071E-31
  -8.52999973       7.71364095E-31
  -8.52000046       8.11226049E-31
  -8.51000023       8.52877951E-31
  -8.50000000       8.96382433E-31
  -8.48999977       9.41803535E-31
  -8.47999954       9.89206144E-31
  -8.47000027       1.03865618E-30
  -8.46000004       1.09022070E-30
  -8.44999981       1.14396722E-30
  -8.43999958       1.19996429E-30
  -8.43000031       1.25828066E-30
  -8.42000008       1.31898619E-30
  -8.40999985       1.38215068E-30
  -8.39999962       1.44784454E-30
  -8.39000034       1.51613776E-30
  -8.38000011       1.58710150E-30
  -8.36999989       1.66080519E-30
  -8.35999966       1.73731915E-30
  -8.35000038       1.81671223E-30
  -8.34000015       1.89905401E-30
  -8.32999992       1.98441126E-30
  -8.31999969       2.07285132E-30
  -8.31000042       2.16443831E-30
  -8.30000019       2.25923657E-30
  -8.28999996       2.35730722E-30
  -8.27999973       2.45870988E-30
  -8.27000046       2.56350115E-30
  -8.26000023       2.67173522E-30
  -8.25000000       2.78346191E-30
  -8.23999977       2.89872976E-30
  -8.22999954       3.01758070E-30
  -8.22000027       3.14005461E-30
  -8.21000004       3.26618572E-30
  -8.19999981       3.39600243E-30
  -8.18999958       3.52952881E-30
  -8.18000031       3.66678065E-30
  -8.17000008       3.80777001E-30
  -8.15999985       3.95249838E-30
  -8.14999962       4.10096350E-30
  -8.14000034       4.25315071E-30
  -8.13000011       4.40903894E-30
  -8.11999989       4.56859622E-30
  -8.10999966       4.73178230E-30
  -8.10000038       4.89854263E-30
  -8.09000015       5.06881477E-30
  -8.07999992       5.24252162E-30
  -8.06999969       5.41957401E-30
  -8.06000042       5.59986626E-30
  -8.05000019       5.78328099E-30
  -8.03999996       5.96968393E-30
  -8.02999973       6.15892497E-30
  -8.02000046       6.35083524E-30
  -8.01000023       6.54522778E-30
  -8.00000000       6.74189607E-30
  -7.98999977       6.94061668E-30
  -7.98000002       7.14113909E-30
  -7.96999979       7.34319472E-30
  -7.96000004       7.54648716E-30
  -7.94999981       7.75069893E-30
  -7.94000006       7.95548772E-30
  -7.92999983       8.16047889E-30
  -7.92000008       8.36527370E-30
  -7.90999985       8.56944410E-30
  -7.90000010       8.77252664E-30
  -7.88999987       8.97403082E-30
  -7.88000011       9.17343077E-30
  -7.86999989       9.37016677E-30
  -7.86000013       9.56363697E-30
  -7.84999990       9.75321317E-30
  -7.84000015       9.93821755E-30
  -7.82999992       1.01179399E-29
  -7.82000017       1.02916219E-29
  -7.80999994       1.04584639E-29
  -7.80000019       1.06176232E-29
  -7.78999996       1.07682061E-29
  -7.78000021       1.09092752E-29
  -7.76999998       1.10398420E-29
  -7.76000023       1.11588674E-29
  -7.75000000       1.12652585E-29
  -7.73999977       1.13578672E-29
  -7.73000002       1.14354927E-29
  -7.71999979       1.14968727E-29
  -7.71000004       1.15406913E-29
  -7.69999981       1.15655644E-29
  -7.69000006       1.15700512E-29
  -7.67999983       1.15526501E-29
  -7.67000008       1.15117851E-29
  -7.65999985       1.14458205E-29
  -7.65000010       1.13530501E-29
  -7.63999987       1.12316984E-29
  -7.63000011       1.10799186E-29
  -7.61999989       1.08957884E-29
  -7.61000013       1.06773195E-29
  -7.59999990       1.04224355E-29
  -7.59000015       1.01289982E-29
  -7.57999992       9.79478166E-30
  -7.57000017       9.41748672E-30
  -7.55999994       8.99472855E-30
  -7.55000019       8.52404782E-30
  -7.53999996       8.00289795E-30
  -7.53000021       7.42865410E-30
  -7.51999998       6.79860643E-30
  -7.51000023       6.10996272E-30
  -7.50000000       5.35984498E-30
  -7.48999977       4.54528984E-30
  -7.48000002       3.66325079E-30
  -7.46999979       2.71059593E-30
  -7.46000004       1.68410819E-30
  -7.44999981       5.80485489E-31
  -7.44000006      -6.03657774E-31