  -16.0000000       0.00000000    
  -15.9899998       0.00000000    
  -15.9799995       0.00000000    
  -15.9700003       0.00000000    
  -15.9600000       0.00000000    
  -15.9499998       0.00000000    
  -15.9399996       0.00000000    
  -15.9300003       0.00000000    
  -15.9200001       9.39579807E-26
  -15.9099998       1.24848627E-24
  -15.8999996       8.33296414E-24
  -15.8900003       3.65154625E-23
  -15.8800001       1.14187414E-22
  -15.8699999       2.51683762E-22
  -15.8599997       3.06688193E-22
  -15.8500004      -3.40761481E-22
  -15.8400002      -3.30248689E-21
  -15.8299999      -1.15806045E-20
  -15.8199997      -2.90058087E-20
  -15.8100004      -5.73516566E-20
  -15.8000002      -8.99321296E-20
  -15.7900000      -1.02297045E-19
  -15.7799997      -4.46627997E-20
  -15.7700005       1.53943133E-19
  -15.7600002       5.56584347E-19
  -15.7500000       1.15570418E-18
  -15.7399998       1.78620120E-18
  -15.7299995       2.05569003E-18
  -15.7200003       1.36854013E-18
  -15.7100000      -8.66049933E-19
  -15.6999998      -4.79277215E-18
  -15.6899996      -9.50692740E-18
  -15.6800003      -1.25496782E-17
  -15.6700001      -9.95225332E-18
  -15.6599998       2.65960053E-18
  -15.6499996       2.76103558E-17
  -15.6400003       6.16765320E-17
  -15.6300001       9.27623169E-17
  -15.6199999       9.88762073E-17
  -15.6099997       5.19106491E-17
  -15.6000004      -7.20431763E-17
  -15.5900002      -2.76407074E-16
  -15.5799999      -5.26017307E-16
  -15.5699997      -7.35226822E-16
  -15.5600004      -7.72468319E-16
  -15.5500002      -4.90046729E-16
  -15.5400000       2.18760420E-16
  -15.5299997       1.34485877E-15
  -15.5200005       2.69404419E-15
  -15.5100002       3.85713859E-15
  -15.5000000       4.25433013E-15
  -15.4899998       3.27457834E-15
  -15.4799995       5.01181877E-16
  -15.4700003      -4.02534959E-15
  -15.4600000      -9.59377129E-15
  -15.4499998      -1.47634997E-14
  -15.4399996      -1.75510258E-14
  -15.4300003      -1.58944089E-14
  -15.4200001      -8.33715048E-15
  -15.4099998       5.23041744E-15
  -15.3999996       2.30130348E-14
  -15.3900003       4.11930113E-14
  -15.3800001       5.44395529E-14
  -15.3699999       5.70712233E-14
  -15.3599997       4.46836138E-14
  -15.3500004       1.58461348E-14
  -15.3400002      -2.66526269E-14
  -15.3299999      -7.55101954E-14
  -15.3199997      -1.19870232E-13
  -15.3100004      -1.47505069E-13
  -15.3000002      -1.47796963E-13
  -15.2900000      -1.14771541E-13
  -15.2799997      -4.93068280E-14
  -15.2700005       4.02234059E-14
  -15.2600002       1.39213294E-13
  -15.2500000       2.29777379E-13
  -15.2399998       2.94623185E-13
  -15.2299995       3.20727359E-13
  -15.2200003       3.01704435E-13
  -15.2100000       2.38156961E-13
  -15.1999998       1.35993782E-13
  -15.1899996       3.48432339E-15
  -15.1800003      -1.51605088E-13
  -15.1700001      -3.23313641E-13
  -15.1599998      -5.06195238E-13
  -15.1499996      -6.91362386E-13
  -15.1400003      -8.61006416E-13
  -15.1300001      -9.83611196E-13
  -15.1199999      -1.01259647E-12
  -15.1099997      -8.90784516E-13
  -15.1000004      -5.61797516E-13
  -15.0900002       1.25007850E-14
  -15.0799999       8.31666008E-13
  -15.0699997       1.83845018E-12
  -15.0600004       2.90857009E-12
  -15.0500002       3.85377971E-12
  -15.0400000       4.44145502E-12
  -15.0299997       4.43053710E-12
  -15.0200005       3.61974491E-12
  -15.0100002       1.90028332E-12
  -15.0000000      -6.97209272E-13
  -14.9899998      -3.97232204E-12
  -14.9799995      -7.55033275E-12
  -14.9700003      -1.09088970E-11
  -14.9600000      -1.34361073E-11
  -14.9499998      -1.45142709E-11
  -14.9399996      -1.36185828E-11
  -14.9300003      -1.04163509E-11
  -14.9200001      -4.85137668E-12
  -14.9099998       2.80042309E-12
  -14.8999996       1.19141476E-11
  -14.8900003       2.15425941E-11
  -14.8800001       3.04855412E-11
  -14.8699999       3.73958468E-11
  -14.8599997       4.09131826E-11
  -14.8500004       3.98144573E-11
  -14.8400002       3.31701264E-11
  -14.8299999       2.04956659E-11
  -14.8199997       1.88803443E-12
  -14.8100004      -2.18642483E-11
  -14.8000002      -4.92105835E-11
  -14.7900000      -7.78234630E-11
  -14.7799997      -1.04657276E-10
  -14.7700005      -1.26098507E-10
  -14.7600002      -1.38220574E-10
  -14.7500000      -1.37146947E-10
  -14.7399998      -1.19511734E-10
  -14.7299995      -8.29891780E-11
  -14.7200003      -2.68439992E-11
  -14.7100000       4.75614825E-11
  -14.6999998       1.36378547E-10
  -14.6899996       2.33078695E-10
  -14.6800003       3.28524291E-10
  -14.6700001       4.11355228E-10
  -14.6599998       4.68715400E-10
  -14.6499996       4.87314911E-10
  -14.6400003       4.54789317E-10
  -14.6300001       3.61292801E-10
  -14.6199999       2.01235265E-10
  -14.6099997      -2.49337634E-11
  -14.6000004      -3.08998716E-10
  -14.5900002      -6.33404662E-10
  -14.5799999      -9.69922587E-10
  -14.5699997      -1.27861877E-09
  -14.5600004      -1.50718260E-09
  -14.5500002      -1.59064639E-09
  -14.5400000      -1.45152590E-09
  -14.5299997      -1.00040642E-09
  -14.5200005      -1.36986908E-10
  -14.5100002       1.24838850E-09
  -14.5000000       3.27270611E-09
  -14.4899998       6.05775918E-09
  -14.4799995       9.72713465E-09
  -14.4700003       1.44027537E-08
  -14.4600000       2.02010391E-08
  -14.4499998       2.72287792E-08
  -14.4399996       3.55788288E-08
  -14.4300003       4.53257734E-08
  -14.4200001       5.65216709E-08
  -14.4099998       6.91920263E-08
  -14.3999996       8.33320897E-08
  -14.3900003       9.89035698E-08
  -14.3800001       1.15831888E-07
  -14.3699999       1.34004011E-07
  -14.3599997       1.53267123E-07
  -14.3500004       1.73427750E-07
  -14.3400002       1.94252209E-07
  -14.3299999       2.15467665E-07
  -14.3199997       2.36764606E-07
  -14.3100004       2.57799769E-07
  -14.3000002       2.78200758E-07
  -14.2900000       2.97571148E-07
  -14.2799997       3.15496294E-07
  -14.2700005       3.31549785E-07
  -14.2600002       3.45300350E-07
  -14.2500000       3.56318424E-07
  -14.2399998       3.64182455E-07
  -14.2299995       3.68485928E-07
  -14.2200003       3.68842166E-07
  -14.2100000       3.64890496E-07
  -14.1999998       3.56300603E-07
  -14.1899996       3.42776957E-07
  -14.1800003       3.24062682E-07
  -14.1700001       2.99942911E-07
  -14.1599998       2.70247511E-07
  -14.1499996       2.34853744E-07
  -14.1400003       1.93688237E-07
  -14.1300001       1.46728581E-07
  -14.1199999       9.40045339E-08
  -14.1099997       3.55992675E-08
  -14.1000004      -2.83499251E-08
  -14.0900002      -9.76507550E-08
  -14.0799999      -1.72055110E-07
  -14.0699997      -2.51258314E-07
  -14.0600004      -3.34898260E-07
  -14.0500002      -4.22554422E-07
  -14.0400000      -5.13747466E-07
  -14.0299997      -6.07938546E-07
  -14.0200005      -7.04530407E-07
  -14.0100002      -8.02866623E-07
  -14.0000000      -9.02234433E-07
  -13.9899998      -1.00186639E-06
  -13.9799995      -1.10094425E-06
  -13.9700003      -1.19860294E-06
  -13.9600000      -1.29393538E-06
  -13.9499998      -1.38599910E-06
  -13.9399996      -1.47382298E-06
  -13.9300003      -1.55641419E-06
  -13.9200001      -1.63276673E-06
  -13.9099998      -1.70186991E-06
  -13.8999996      -1.76271726E-06
  -13.8900003      -1.81431449E-06
  -13.8800001      -1.85569002E-06
  -13.8699999      -1.88590411E-06
  -13.8599997      -1.90405615E-06
  -13.8500004      -1.90929541E-06
  -13.8400002      -1.90082767E-06
  -13.8299999      -1.87792591E-06
  -13.8199997      -1.83993609E-06
  -13.8100004      -1.78628409E-06
  -13.8000002      -1.71648412E-06
  -13.7900000      -1.63014204E-06
  -13.7799997      -1.52696362E-06
  -13.7700005      -1.40675741E-06
  -13.7600002      -1.26943985E-06
  -13.7500000      -1.11503994E-06
  -13.7399998      -9.43702503E-07
  -13.7299995      -7.55692895E-07
  -13.7200003      -5.51400149E-07
  -13.7100000      -3.31340317E-07
  -13.6999998      -9.61594537E-08
  -13.6899996       1.53364269E-07
  -13.6800003       4.16319040E-07
  -13.6700001       6.91659125E-07
  -13.6599998       9.78204980E-07
  -13.6499996       1.27464455E-06
  -13.6400003       1.57953491E-06
  -13.6300001       1.89130458E-06
  -13.6199999       2.20825677E-06
  -13.6099997       2.52857149E-06
  -13.6000004       2.85030978E-06
  -13.5900002       3.17141598E-06
  -13.5799999       3.48972435E-06
  -13.5699997       3.80295819E-06
  -13.5600004       4.10873781E-06
  -13.5500002       4.40458371E-06
  -13.5400000       4.68792177E-06
  -13.5299997       4.95608765E-06
  -13.5200005       5.20633284E-06
  -13.5100002       5.43582837E-06
  -13.5000000       5.64167021E-06
  -13.4899998       5.82088569E-06
  -13.4799995       5.97043982E-06
  -13.4700003       6.08723622E-06
  -13.4600000       6.16812440E-06
  -13.4499998       6.20990886E-06
  -13.4399996       6.20934679E-06
  -13.4300003       6.16315992E-06
  -13.4200001       6.06803269E-06
  -13.4099998       5.92062361E-06
  -13.3999996       5.71756527E-06
  -13.3900003       5.45547027E-06
  -13.3800001       5.13093755E-06
  -13.3699999       4.74055332E-06
  -13.3599997       4.28089879E-06
  -13.3500004       3.74855654E-06
  -13.3400002       3.14011027E-06
  -13.3299999       2.45215506E-06
  -13.3199997       1.68129839E-06
  -13.3100004       8.24167842E-07
  -13.3000002      -1.22586485E-07
  -13.2900000      -1.16228546E-06
  -13.2799997      -2.29821876E-06
  -13.2700005      -3.53363885E-06
  -13.2600002      -4.87175930E-06
  -13.2500000      -6.31574903E-06
  -13.2399998      -7.86873261E-06
  -13.2299995      -9.53378185E-06
  -13.2200003      -1.13139204E-05
  -13.2100000      -1.32121168E-05
  -13.1999998      -1.52312887E-05
  -13.1899996      -1.73742937E-05
  -13.1800003      -1.96439287E-05
  -13.1700001      -2.20429392E-05
  -13.1599998      -2.45740030E-05
  -13.1499996      -2.72397483E-05
  -13.1400003      -3.00427309E-05
  -13.1300001      -3.29854374E-05
  -13.1199999      -3.60703161E-05
  -13.1099997      -3.92997281E-05
  -13.1000004      -4.26759834E-05
  -13.0900002      -4.62013195E-05
  -13.0799999      -4.98779373E-05
  -13.0699997      -5.37079613E-05
  -13.0600004      -5.76934690E-05
  -13.0500002      -6.18364720E-05
  -13.0400000      -6.61389422E-05
  -13.0299997      -7.06027931E-05
  -13.0200005      -7.52299165E-05
  -13.0100002      -8.00221242E-05
  -13.0000000      -8.49811986E-05
  -12.9899998      -9.01088933E-05
  -12.9799995      -9.54069110E-05
  -12.9700003      -1.00876940E-04
  -12.9600000      -1.06520616E-04
  -12.9499998      -1.12339563E-04
  -12.9399996      -1.18335360E-04
  -12.9300003      -1.24509548E-04
  -12.9200001      -1.30863671E-04
  -12.9099998      -1.37399256E-04
  -12.8999996      -1.44117788E-04
  -12.8900003      -1.51020751E-04
  -12.8800001      -1.58109615E-04
  -12.8699999      -1.65385791E-04
  -12.8599997      -1.72850720E-04
  -12.8500004      -1.80505813E-04
  -12.8400002      -1.88352496E-04
  -12.8299999      -1.96392124E-04
  -12.8199997      -2.04626078E-04
  -12.8100004      -2.13055711E-04
  -12.8000002      -2.21682407E-04
  -12.7900000      -2.30507459E-04
  -12.7799997      -2.39532223E-04
  -12.7700005      -2.48757977E-04
  -12.7600002      -2.58186046E-04
  -12.7500000      -2.67817697E-04
  -12.7399998      -2.77654239E-04
  -12.7299995      -2.87696865E-04
  -12.7200003      -2.97946855E-04
  -12.7100000      -3.08405375E-04
  -12.6999998      -3.19073646E-04
  -12.6899996      -3.29952803E-04
  -12.6800003      -3.41044011E-04
  -12.6700001      -3.52348405E-04
  -12.6599998      -3.63867031E-04
  -12.6499996      -3.75601026E-04
  -12.6400003      -3.87551438E-04
  -12.6300001      -3.99719342E-04
  -12.6199999      -4.12105554E-04
  -12.6099997      -4.24711267E-04
  -12.6000004      -4.37537354E-04
  -12.5900002      -4.50584688E-04
  -12.5799999      -4.63854201E-04
  -12.5699997      -4.77346650E-04
  -12.5600004      -4.91063111E-04
  -12.5500002      -5.05004078E-04
  -12.5400000      -5.19170426E-04
  -12.5299997      -5.33562852E-04
  -12.5200005      -5.48181997E-04
  -12.5100002      -5.63028443E-04
  -12.5000000      -5.78102714E-04
  -12.4899998      -5.93405333E-04
  -12.4799995      -6.08936651E-04
  -12.4700003      -6.24697073E-04
  -12.4600000      -6.40687009E-04
  -12.4499998      -6.56906457E-04
  -12.4399996      -6.73355768E-04
  -12.4300003      -6.90034823E-04
  -12.4200001      -7.06943858E-04
  -12.4099998      -7.24082580E-04
  -12.3999996      -7.41450989E-04
  -12.3900003      -7.59048620E-04
  -12.3800001      -7.76875415E-04
  -12.3699999      -7.94930733E-04
  -12.3599997      -8.13214225E-04
  -12.3500004      -8.31725425E-04
  -12.3400002      -8.50463577E-04
  -12.3299999      -8.69427691E-04
  -12.3199997      -8.88617302E-04
  -12.3100004      -9.08031361E-04
  -12.3000002      -9.27668589E-04
  -12.2900000      -9.47528344E-04
  -12.2799997      -9.67609347E-04
  -12.2700005      -9.87910083E-04
  -12.2600002      -1.00842922E-03
  -12.2500000      -1.02916535E-03
  -12.2399998      -1.05011696E-03
  -12.2299995      -1.07128231E-03
  -12.2200003      -1.09265966E-03
  -12.2100000      -1.11424748E-03
  -12.1999998      -1.13604323E-03
  -12.1899996      -1.15804560E-03
  -12.1800003      -1.18025183E-03
  -12.1700001      -1.20266026E-03
  -12.1599998      -1.22526835E-03
  -12.1499996      -1.24807388E-03
  -12.1400003      -1.27107382E-03
  -12.1300001      -1.29426632E-03
  -12.1199999      -1.31764868E-03
  -12.1099997      -1.34121801E-03
  -12.1000004      -1.36497151E-03
  -12.0900002      -1.38890650E-03
  -12.0799999      -1.41301996E-03
  -12.0699997      -1.43730885E-03
  -12.0600004      -1.46177050E-03
  -12.0500002      -1.48640154E-03
  -12.0400000      -1.51119893E-03
  -12.0299997      -1.53615943E-03
  -12.0200005      -1.56127999E-03
  -12.0100002      -1.58655748E-03
  -12.0000000      -1.61198853E-03
  -11.9899998      -1.63756963E-03
  -11.9799995      -1.66329741E-03
  -11.9700003      -1.68916897E-03
  -11.9600000      -1.71518093E-03
  -11.9499998      -1.74132991E-03
  -11.9399996      -1.76761276E-03
  -11.9300003      -1.79402600E-03
  -11.9200001      -1.82056683E-03
  -11.9099998      -1.84723188E-03
  -11.8999996      -1.87401811E-03
  -11.8900003      -1.90092227E-03
  -11.8800001      -1.92794134E-03
  -11.8699999      -1.95507263E-03
  -11.8599997      -1.98231312E-03
  -11.8500004      -2.00966024E-03
  -11.8400002      -2.03711144E-03
  -11.8299999      -2.06466392E-03
  -11.8199997      -2.09231535E-03
  -11.8100004      -2.12006341E-03
  -11.8000002      -2.14790576E-03
  -11.7900000      -2.17584078E-03
  -11.7799997      -2.20386637E-03
  -11.7700005      -2.23198044E-03
  -11.7600002      -2.26018182E-03
  -11.7500000      -2.28846911E-03
  -11.7399998      -2.31684116E-03
  -11.7299995      -2.34529702E-03
  -11.7200003      -2.37383554E-03
  -11.7100000      -2.40245648E-03
  -11.6999998      -2.43115891E-03
  -11.6899996      -2.45994306E-03
  -11.6800003      -2.48880894E-03
  -11.6700001      -2.51775677E-03
  -11.6599998      -2.54678703E-03
  -11.6499996      -2.57590064E-03
  -11.6400003      -2.60509807E-03
  -11.6300001      -2.63438118E-03
  -11.6199999      -2.66375067E-03
  -11.6099997      -2.69320910E-03
  -11.6000004      -2.72275764E-03
  -11.5900002      -2.75239861E-03
  -11.5799999      -2.78213504E-03
  -11.5699997      -2.81196879E-03
  -11.5600004      -2.84190383E-03
  -11.5500002      -2.87194224E-03
  -11.5400000      -2.90208869E-03
  -11.5299997      -2.93234549E-03
  -11.5200005      -2.96271732E-03
  -11.5100002      -2.99320859E-03
  -11.5000000      -3.02382349E-03
  -11.4899998      -3.05456668E-03
  -11.4799995      -3.08544328E-03
  -11.4700003      -3.11645796E-03
  -11.4600000      -3.14761605E-03
  -11.4499998      -3.17892339E-03
  -11.4399996      -3.21038603E-03
  -11.4300003      -3.24201072E-03
  -11.4200001      -3.27380211E-03
  -11.4099998      -3.30576813E-03
  -11.3999996      -3.33791436E-03
  -11.3900003      -3.37024825E-03
  -11.3800001      -3.40277725E-03
  -11.3699999      -3.43550788E-03
  -11.3599997      -3.46844853E-03
  -11.3500004      -3.50160664E-03
  -11.3400002      -3.53499060E-03
  -11.3299999      -3.56860762E-03
  -11.3199997      -3.60246538E-03
  -11.3100004      -3.63657414E-03
  -11.3000002      -3.67094181E-03
  -11.2900000      -3.70557746E-03
  -11.2799997      -3.74048972E-03
  -11.2700005      -3.77568719E-03
  -11.2600002      -3.81117966E-03
  -11.2500000      -3.84697667E-03
  -11.2399998      -3.88308754E-03
  -11.2299995      -3.91952274E-03
  -11.2200003      -3.95629089E-03
  -11.2100000      -3.99340177E-03
  -11.1999998      -4.03086701E-03
  -11.1899996      -4.06869454E-03
  -11.1800003      -4.10689646E-03
  -11.1700001      -4.14548302E-03
  -11.1599998      -4.18446446E-03
  -11.1499996      -4.22385056E-03
  -11.1400003      -4.26365202E-03
  -11.1300001      -4.30387957E-03
  -11.1199999      -4.34454484E-03
  -11.1099997      -4.38565807E-03
  -11.1000004      -4.42722999E-03
  -11.0900002      -4.46927268E-03
  -11.0799999      -4.51179501E-03
  -11.0699997      -4.55481000E-03
  -11.0600004      -4.59832791E-03
  -11.0500002      -4.64236038E-03
  -11.0400000      -4.68691811E-03
  -11.0299997      -4.73201182E-03
  -11.0200005      -4.77765361E-03
  -11.0100002      -4.82385466E-03
  -11.0000000      -4.87062708E-03
  -10.9899998      -4.91797971E-03
  -10.9799995      -4.96592699E-03
  -10.9700003      -5.01447823E-03
  -10.9600000      -5.06364554E-03
  -10.9499998      -5.11344010E-03
  -10.9399996      -5.16387401E-03
  -10.9300003      -5.21495752E-03
  -10.9200001      -5.26670273E-03
  -10.9099998      -5.31912036E-03
  -10.8999996      -5.37222298E-03
  -10.8900003      -5.42602222E-03
  -10.8800001      -5.48052788E-03
  -10.8699999      -5.53575344E-03
  -10.8599997      -5.59170870E-03
  -10.8500004      -5.64840622E-03
  -10.8400002      -5.70585625E-03
  -10.8299999      -5.76407136E-03
  -10.8199997      -5.82306273E-03
  -10.8100004      -5.88284247E-03
  -10.8000002      -5.94342127E-03
  -10.7900000      -6.00480940E-03
  -10.7799997      -6.06702035E-03
  -10.7700005      -6.13006623E-03
  -10.7600002      -6.19395683E-03
  -10.7500000      -6.25870377E-03
  -10.7399998      -6.32431917E-03
  -10.7299995      -6.39081467E-03
  -10.7200003      -6.45820238E-03
  -10.7100000      -6.52649254E-03
  -10.6999998      -6.59569819E-03
  -10.6899996      -6.66582864E-03
  -10.6800003      -6.73689647E-03
  -10.6700001      -6.80891564E-03
  -10.6599998      -6.88189501E-03
  -10.6499996      -6.95584901E-03
  -10.6400003      -7.03078648E-03
  -10.6300001      -7.10672000E-03
  -10.6199999      -7.18366308E-03
  -10.6099997      -7.26162549E-03
  -10.6000004      -7.34062120E-03
  -10.5900002      -7.42066000E-03
  -10.5799999      -7.50175538E-03
  -10.5699997      -7.58391805E-03
  -10.5600004      -7.66716385E-03
  -10.5500002      -7.75150117E-03
  -10.5400000      -7.83694256E-03
  -10.5299997      -7.92350248E-03
  -10.5200005      -8.01119115E-03
  -10.5100002      -8.10002070E-03
  -10.5000000      -8.19000695E-03
  -10.4899998      -8.28116015E-03
  -10.4799995      -8.37349240E-03
  -10.4700003      -8.46701954E-03
  -10.4600000      -8.56174994E-03
  -10.4499998      -8.65769759E-03
  -10.4399996      -8.75487924E-03
  -10.4300003      -8.85330606E-03
  -10.4200001      -8.95299017E-03
  -10.4099998      -9.05394554E-03
  -10.3999996      -9.15618520E-03
  -10.3900003      -9.25972499E-03
  -10.3800001      -9.36457701E-03
  -10.3699999      -9.47075523E-03
  -10.3599997      -9.57827177E-03
  -10.3500004      -9.68714338E-03
  -10.3400002      -9.79738310E-03
  -10.3299999      -9.90900397E-03
  -10.3199997      -1.00220218E-02
  -10.3100004      -1.01364506E-02
  -10.3000002      -1.02523034E-02
  -10.2900000      -1.03695961E-02
  -10.2799997      -1.04883434E-02
  -10.2700005      -1.06085585E-02
  -10.2600002      -1.07302591E-02
  -10.2500000      -1.08534601E-02
  -10.2399998      -1.09781725E-02
  -10.2299995      -1.11044142E-02
  -10.2200003      -1.12322010E-02
  -10.2100000      -1.13615487E-02
  -10.1999998      -1.14924712E-02
  -10.1899996      -1.16249844E-02
  -10.1800003      -1.17591033E-02
  -10.1700001      -1.18948435E-02
  -10.1599998      -1.20322220E-02
  -10.1499996      -1.21712554E-02
  -10.1400003      -1.23119578E-02
  -10.1300001      -1.24543468E-02
  -10.1199999      -1.25984326E-02
  -10.1099997      -1.27442414E-02
  -10.1000004      -1.28917815E-02
  -10.0900002      -1.30410725E-02
  -10.0799999      -1.31921312E-02
  -10.0699997      -1.33449696E-02
  -10.0600004      -1.34996111E-02
  -10.0500002      -1.36560667E-02
  -10.0400000      -1.38143599E-02
  -10.0299997      -1.39744999E-02
  -10.0200005      -1.41365081E-02
  -10.0100002      -1.43003976E-02
  -10.0000000      -1.44661888E-02
  -9.98999977      -1.46338996E-02
  -9.97999954      -1.48035446E-02
  -9.97000027      -1.49751436E-02
  -9.96000004      -1.51487123E-02
  -9.94999981      -1.53242666E-02
  -9.93999958      -1.55018251E-02
  -9.93000031      -1.56814102E-02
  -9.92000008      -1.58630367E-02
  -9.90999985      -1.60467196E-02
  -9.89999962      -1.62324775E-02
  -9.89000034      -1.64203327E-02
  -9.88000011      -1.66103020E-02
  -9.86999989      -1.68023985E-02
  -9.85999966      -1.69966482E-02
  -9.85000038      -1.71930641E-02
  -9.84000015      -1.73916705E-02
  -9.82999992      -1.75924785E-02
  -9.81999969      -1.77955125E-02
  -9.81000042      -1.80007908E-02
  -9.80000019      -1.82083324E-02
  -9.78999996      -1.84181556E-02
  -9.77999973      -1.86302830E-02
  -9.77000046      -1.88447330E-02
  -9.76000023      -1.90615188E-02
  -9.75000000      -1.92806665E-02
  -9.73999977      -1.95021983E-02
  -9.72999954      -1.97261311E-02
  -9.72000027      -1.99524891E-02
  -9.71000004      -2.01812852E-02
  -9.69999981      -2.04125457E-02
  -9.68999958      -2.06462927E-02
  -9.68000031      -2.08825413E-02
  -9.67000008      -2.11213175E-02
  -9.65999985      -2.13626456E-02
  -9.64999962      -2.16065384E-02
  -9.64000034      -2.18530204E-02
  -9.63000011      -2.21021194E-02
  -9.61999989      -2.23538540E-02
  -9.60999966      -2.26082467E-02
  -9.60000038      -2.28653178E-02
  -9.59000015      -2.31250897E-02
  -9.57999992      -2.33875923E-02
  -9.56999969      -2.36528441E-02
  -9.56000042      -2.39208676E-02
  -9.55000019      -2.41916832E-02
  -9.53999996      -2.44653244E-02
  -9.52999973      -2.47418117E-02
  -9.52000046      -2.50211656E-02
  -9.51000023      -2.53034085E-02
  -9.50000000      -2.55885683E-02
  -9.48999977      -2.58766748E-02
  -9.47999954      -2.61677485E-02
  -9.47000027      -2.64618173E-02
  -9.46000004      -2.67589036E-02
  -9.44999981      -2.70590410E-02
  -9.43999958      -2.73622442E-02
  -9.43000031      -2.76685506E-02
  -9.42000008      -2.79779807E-02
  -9.40999985      -2.82905698E-02
  -9.39999962      -2.86063291E-02
  -9.39000034      -2.89253034E-02
  -9.38000011      -2.92475093E-02
  -9.36999989      -2.95729805E-02
  -9.35999966      -2.99017411E-02
  -9.35000038      -3.02338209E-02
  -9.34000015      -3.05692554E-02
  -9.32999992      -3.09080686E-02
  -9.31999969      -3.12502906E-02
  -9.31000042      -3.15959416E-02
  -9.30000019      -3.19450647E-02
  -9.28999996      -3.22977006E-02
  -9.27999973      -3.26538570E-02
  -9.27000046      -3.30135711E-02
  -9.26000023      -3.33768763E-02
  -9.25000000      -3.37437987E-02
  -9.23999977      -3.41143832E-02
  -9.22999954      -3.44886445E-02
  -9.22000027      -3.48666348E-02
  -9.21000004      -3.52483690E-02
  -9.19999981      -3.56339030E-02
  -9.18999958      -3.60232443E-02
  -9.18000031      -3.64164263E-02
  -9.17000008      -3.68134975E-02
  -9.15999985      -3.72145027E-02
  -9.14999962      -3.76194417E-02
  -9.14000034      -3.80283855E-02
  -9.13000011      -3.84413414E-02
  -9.11999989      -3.88583615E-02
  -9.10999966      -3.92794572E-02
  -9.10000038      -3.97047028E-02
  -9.09000015      -4.01340947E-02
  -9.07999992      -4.05676849E-02
  -9.06999969      -4.10055108E-02
  -9.06000042      -4.14476208E-02
  -9.05000019      -4.18940373E-02
  -9.03999996      -4.23447937E-02
  -9.02999973      -4.27999347E-02
  -9.02000046      -4.32595015E-02
  -9.01000023      -4.37235311E-02
  -9.00000000      -4.41920608E-02
  -8.98999977      -4.46651243E-02
  -8.97999954      -4.51427624E-02
  -8.97000027      -4.56250161E-02
  -8.96000004      -4.61119264E-02
  -8.94999981      -4.66035344E-02
  -8.93999958      -4.70998809E-02
  -8.93000031      -4.76009995E-02
  -8.92000008      -4.81069311E-02
  -8.90999985      -4.86177169E-02
  -8.89999962      -4.91333976E-02
  -8.89000034      -4.96540107E-02
  -8.88000011      -5.01796268E-02
  -8.86999989      -5.07102497E-02
  -8.85999966      -5.12459390E-02
  -8.85000038      -5.17867319E-02
  -8.84000015      -5.23326769E-02
  -8.82999992      -5.28838150E-02
  -8.81999969      -5.34401871E-02
  -8.81000042      -5.40018268E-02
  -8.80000019      -5.45688048E-02
  -8.78999996      -5.51411398E-02
  -8.77999973      -5.57188839E-02
  -8.77000046      -5.63020855E-02
  -8.76000023      -5.68907931E-02
  -8.75000000      -5.74850403E-02
  -8.73999977      -5.80848865E-02
  -8.72999954      -5.86903654E-02
  -8.72000027      -5.93015328E-02
  -8.71000004      -5.99184185E-02
  -8.69999981      -6.05410896E-02
  -8.68999958      -6.11695908E-02
  -8.68000031      -6.18039519E-02
  -8.67000008      -6.24442473E-02
  -8.65999985      -6.30904958E-02
  -8.64999962      -6.37427792E-02
  -8.64000034      -6.44011274E-02
  -8.63000011      -6.50655776E-02
  -8.61999989      -6.57361969E-02
  -8.60999966      -6.64130375E-02
  -8.60000038      -6.70961514E-02
  -8.59000015      -6.77855909E-02
  -8.57999992      -6.84813857E-02
  -8.56999969      -6.91835955E-02
  -8.56000042      -6.98922873E-02
  -8.55000019      -7.06074908E-02
  -8.53999996      -7.13292807E-02
  -8.52999973      -7.20577091E-02
  -8.52000046      -7.27928132E-02
  -8.51000023      -7.35346749E-02
  -8.50000000      -7.42833316E-02
  -8.48999977      -7.50388354E-02
  -8.47999954      -7.58012533E-02
  -8.47000027      -7.65706375E-02
  -8.46000004      -7.73470327E-02
  -8.44999981      -7.81305134E-02
  -8.43999958      -7.89211243E-02
  -8.43000031      -7.97189400E-02
  -8.42000008      -8.05240199E-02
  -8.40999985      -8.13363865E-02
  -8.39999962      -8.21561441E-02
  -8.39000034      -8.29833448E-02
  -8.38000011      -8.38180259E-02
  -8.36999989      -8.46602693E-02
  -8.35999966      -8.55101347E-02
  -8.35000038      -8.63676891E-02
  -8.34000015      -8.72329921E-02
  -8.32999992      -8.81060883E-02
  -8.31999969      -8.89870599E-02
  -8.31000042      -8.98759887E-02
  -8.30000019      -9.07728970E-02
  -8.28999996      -9.16778967E-02
  -8.27999973      -9.25910249E-02
  -8.27000046      -9.35123712E-02
  -8.26000023      -9.44419801E-02
  -8.25000000      -9.53799486E-02
  -8.23999977      -9.63263288E-02
  -8.22999954      -9.72811803E-02
  -8.22000027      -9.82445925E-02
  -8.21000004      -9.92166176E-02
  -8.19999981     -0.100197345    
  -8.18999958     -0.101186834    
  -8.18000031     -0.102185182    
  -8.17000008     -0.103192419    
  -8.15999985     -0.104208656    
  -8.14999962     -0.105233952    
  -8.14000034     -0.106268376    
  -8.13000011     -0.107312024    
  -8.11999989     -0.108364947    
  -8.10999966     -0.109427236    
  -8.10000038     -0.110499002    
  -8.09000015     -0.111580260    
  -8.07999992     -0.112671122    
  -8.06999969     -0.113771699    
  -8.06000042     -0.114882007    
  -8.05000019     -0.116002172    
  -8.03999996     -0.117132261    
  -8.02999973     -0.118272349    
  -8.02000046     -0.119422540    
  -8.01000023     -0.120582901    
  -8.00000000     -0.121753514    
  -7.98999977     -0.122934461    
  -7.98000002     -0.124125861    
  -7.96999979     -0.125327736    
  -7.96000004     -0.126540244    
  -7.94999981     -0.127763405    
  -7.94000006     -0.128997371    
  -7.92999983     -0.130242169    
  -7.92000008     -0.131497934    
  -7.90999985     -0.132764742    
  -7.90000010     -0.134042680    
  -7.88999987     -0.135331824    
  -7.88000011     -0.136632308    
  -7.86999989     -0.137944177    
  -7.86000013     -0.139267549    
  -7.84999990     -0.140602529    
  -7.84000015     -0.141949147    
  -7.82999992     -0.143307582    
  -7.82000017     -0.144677818    
  -7.80999994     -0.146060094    
  -7.80000019     -0.147454411    
  -7.78999996     -0.148860916    
  -7.78000021     -0.150279656    
  -7.76999998     -0.151710778    
  -7.76000023     -0.153154299    
  -7.75000000     -0.154610440    
  -7.73999977     -0.156079203    
  -7.73000002     -0.157560721    
  -7.71999979     -0.159055069    
  -7.71000004     -0.160562396    
  -7.69999981     -0.162082762    
  -7.69000006     -0.163616255    
  -7.67999983     -0.165163025    
  -7.67000008     -0.166723162    
  -7.65999985     -0.168296739    
  -7.65000010     -0.169883892    
  -7.63999987     -0.171484753    
  -7.63000011     -0.173099384    
  -7.61999989     -0.174727887    
  -7.61000013     -0.176370412    
  -7.59999990     -0.178027019    
  -7.59000015     -0.179697827    
  -7.57999992     -0.181382954    
  -7.57000017     -0.183082536    
  -7.55999994     -0.184796631    
  -7.55000019     -0.186525390    
  -7.53999996     -0.188268855    
  -7.53000021     -0.190027237    
  -7.51999998     -0.191800535    
  -7.51000023     -0.193588972    
  -7.50000000     -0.195392624    
  -7.48999977     -0.197211549    
  -7.48000002     -0.199045926    
  -7.46999979     -0.200895831    
  -7.46000004     -0.202761412    
  -7.44999981     -0.204642788    
  -7.44000006     -0.206540003    