  -16.0000000       0.00000000    
  -15.9899998       0.00000000    
  -15.9799995       0.00000000    
  -15.9700003       0.00000000    
  -15.9600000       0.00000000    
  -15.9499998       0.00000000    
  -15.9399996       0.00000000    
  -15.9300003       0.00000000    
  -15.9200001      -1.45759183E-27
  -15.9099998      -2.28631781E-26
  -15.8999996      -1.85139479E-25
  -15.8900003      -1.02676055E-24
  -15.8800001      -4.36767474E-24
  -15.8699999      -1.51402745E-23
  -15.8599997      -4.43937817E-23
  -15.8500004      -1.12921147E-22
  -15.8400002      -2.53817751E-22
  -15.8299999      -5.11662554E-22
  -15.8199997      -9.37238548E-22
  -15.8100004      -1.57987549E-21
  -15.8000002      -2.48081503E-21
  -15.7900000      -3.66123670E-21
  -15.7799997      -5.06633302E-21
  -15.7700005      -6.37007185E-21
  -15.7600002      -6.48930259E-21
  -15.7500000      -2.66779440E-21
  -15.7399998       1.08282619E-20
  -15.7299995       4.39251161E-20
  -15.7200003       1.10716148E-19
  -15.7100000       2.26368159E-19
  -15.6999998       3.98943161E-19
  -15.6899996       6.15083387E-19
  -15.6800003       8.21168974E-19
  -15.6700001       9.05887572E-19
  -15.6599998       6.95070718E-19
  -15.6499996      -2.71174394E-20
  -15.6400003      -1.45813868E-18
  -15.6300001      -3.67484665E-18
  -15.6199999      -6.50322408E-18
  -15.6099997      -9.39716798E-18
  -15.6000004      -1.13842469E-17
  -15.5900002      -1.11444993E-17
  -15.5799999      -7.27252728E-18
  -15.5699997       1.27230304E-18
  -15.5600004       1.45944108E-17
  -15.5500002       3.13168065E-17
  -15.5400000       4.82714184E-17
  -15.5299997       6.06440385E-17
  -15.5200005       6.27258801E-17
  -15.5100002       4.92740175E-17
  -15.5000000       1.72755943E-17
  -15.4899998      -3.23003309E-17
  -15.4799995      -9.33199888E-17
  -15.4700003      -1.54426507E-16
  -15.4600000      -2.00476168E-16
  -15.4499998      -2.15481225E-16
  -15.4399996      -1.86610795E-16
  -15.4300003      -1.08367575E-16
  -15.4200001       1.42090521E-17
  -15.4099998       1.64433553E-16
  -15.3999996       3.15704955E-16
  -15.3900003       4.36147985E-16
  -15.3800001       4.95412101E-16
  -15.3699999       4.72123830E-16
  -15.3599997       3.60056845E-16
  -15.3500004       1.71152655E-16
  -15.3400002      -6.58398710E-17
  -15.3299999      -3.11233733E-16
  -15.3199997      -5.23592040E-16
  -15.3100004      -6.69885641E-16
  -15.3000002      -7.33640488E-16
  -15.2900000      -7.18296698E-16
  -15.2799997      -6.44116093E-16
  -15.2700005      -5.38844456E-16
  -15.2600002      -4.24501123E-16
  -15.2500000      -3.04523353E-16
  -15.2399998      -1.56333271E-16
  -15.2299995       6.62617397E-17
  -15.2200003       4.18764883E-16
  -15.2100000       9.41358960E-16
  -15.1999998       1.62963485E-15
  -15.1899996       2.40969587E-15
  -15.1800003       3.12788261E-15
  -15.1700001       3.56360271E-15
  -15.1599998       3.46872655E-15
  -15.1499996       2.62958604E-15
  -15.1400003       9.39542180E-16
  -15.1300001      -1.53622141E-15
  -15.1199999      -4.52423887E-15
  -15.1099997      -7.55168412E-15
  -15.1000004      -1.00085794E-14
  -15.0900002      -1.12578844E-14
  -15.0799999      -1.07741414E-14
  -15.0699997      -8.28056868E-15
  -15.0600004      -3.85060077E-15
  -15.0500002       2.05510204E-15
  -15.0400000       8.63192303E-15
  -15.0299997       1.48518249E-14
  -15.0200005       1.96391314E-14
  -15.0100002       2.20652439E-14
  -15.0000000       2.15209642E-14
  -14.9899998       1.78306399E-14
  -14.9799995       1.12869292E-14
  -14.9700003       2.60424240E-15
  -14.9600000      -7.19283692E-15
  -14.9499998      -1.69180889E-14
  -14.9399996      -2.53782235E-14
  -14.9300003      -3.15088193E-14
  -14.9200001      -3.44787065E-14
  -14.9099998      -3.37617880E-14
  -14.8999996      -2.91829108E-14
  -14.8900003      -2.09451343E-14
  -14.8800001      -9.63954919E-15
  -14.8699999       3.76961214E-15
  -14.8599997       1.79985929E-14
  -14.8500004       3.15490906E-14
  -14.8400002       4.28680698E-14
  -14.8299999       5.05489883E-14
  -14.8199997       5.35426568E-14
  -14.8100004       5.13331070E-14
  -14.8000002       4.40333906E-14
  -14.7900000       3.23691913E-14
  -14.7799997       1.75442800E-14
  -14.7700005       1.01297983E-15
  -14.7600002      -1.57872305E-14
  -14.7500000      -3.16751359E-14
  -14.7399998      -4.58726312E-14
  -14.7299995      -5.80158751E-14
  -14.7200003      -6.80215500E-14
  -14.7100000      -7.58370282E-14
  -14.6999998      -8.11330915E-14
  -14.6899996      -8.30147786E-14
  -14.6800003      -7.98208342E-14
  -14.6700001      -6.90659010E-14
  -14.6599998      -4.75465072E-14
  -14.6499996      -1.16013105E-14
  -14.6400003       4.25120991E-14
  -14.6300001       1.18177454E-13
  -14.6199999       2.17979362E-13
  -14.6099997       3.43312835E-13
  -14.6000004       4.94087844E-13
  -14.5900002       6.68549797E-13
  -14.5799999       8.63227458E-13
  -14.5699997       1.07299857E-12
  -14.5600004       1.29124836E-12
  -14.5500002       1.51008448E-12
  -14.5400000       1.72059372E-12
  -14.5299997       1.91309100E-12
  -14.5200005       2.07732854E-12
  -14.5100002       2.20271652E-12
  -14.5000000       2.27853153E-12
  -14.4899998       2.29410501E-12
  -14.4799995       2.23909931E-12
  -14.4700003       2.10388412E-12
  -14.4600000       1.87988427E-12
  -14.4499998       1.56004311E-12
  -14.4399996       1.13919128E-12
  -14.4300003       6.14352156E-13
  -14.4200001      -1.51445154E-14
  -14.4099998      -7.47798633E-13
  -14.3999996      -1.58019940E-12
  -14.3900003      -2.50752674E-12
  -14.3800001      -3.52377415E-12
  -14.3699999      -4.62242180E-12
  -14.3599997      -5.79637293E-12
  -14.3500004      -7.03788503E-12
  -14.3400002      -8.33822421E-12
  -14.3299999      -9.68712610E-12
  -14.3199997      -1.10722560E-11
  -14.3100004      -1.24784471E-11
  -14.3000002      -1.38877295E-11
  -14.2900000      -1.52791477E-11
  -14.2799997      -1.66289864E-11
  -14.2700005      -1.79116947E-11
  -14.2600002      -1.91006603E-11
  -14.2500000      -2.01692395E-11
  -14.2399998      -2.10917048E-11
  -14.2299995      -2.18440595E-11
  -14.2200003      -2.24047204E-11
  -14.2100000      -2.27547634E-11
  -14.1999998      -2.28779478E-11
  -14.1899996      -2.27605521E-11
  -14.1800003      -2.23910248E-11
  -14.1700001      -2.17595820E-11
  -14.1599998      -2.08578328E-11
  -14.1499996      -1.96784377E-11
  -14.1400003      -1.82152730E-11
  -14.1300001      -1.64632145E-11
  -14.1199999      -1.44186928E-11
  -14.1099997      -1.20799750E-11
  -14.1000004      -9.44792248E-12
  -14.0900002      -6.52626130E-12
  -14.0799999      -3.32210149E-12
  -14.0699997       1.53496343E-13
  -14.0600004       3.88566913E-12
  -14.0500002       7.85539776E-12
  -14.0400000       1.20399654E-11
  -14.0299997       1.64137783E-11
  -14.0200005       2.09476967E-11
  -14.0100002       2.56111365E-11
  -14.0000000       3.03716496E-11
  -13.9899998       3.51959607E-11
  -13.9799995       4.00506364E-11
  -13.9700003       4.49023770E-11
  -13.9600000       4.97173552E-11
  -13.9499998       5.44630764E-11
  -13.9399996       5.91057550E-11
  -13.9300003       6.36121780E-11
  -13.9200001       6.79478349E-11
  -13.9099998       7.20768376E-11
  -13.8999996       7.59608695E-11
  -13.8900003       7.95598795E-11
  -13.8800001       8.28301316E-11
  -13.8699999       8.57254545E-11
  -13.8599997       8.81973106E-11
  -13.8500004       9.01948446E-11
  -13.8400002       9.16663551E-11
  -13.8299999       9.25610907E-11
  -13.8199997       9.28301325E-11
  -13.8100004       9.24286828E-11
  -13.8000002       9.13170442E-11
  -13.7900000       8.94620142E-11
  -13.7799997       8.68373776E-11
  -13.7700005       8.34239344E-11
  -13.7600002       7.92091739E-11
  -13.7500000       7.41864487E-11
  -13.7399998       6.83543985E-11
  -13.7299995       6.17158546E-11
  -13.7200003       5.42782243E-11
  -13.7100000       4.60533729E-11
  -13.6999998       3.70575480E-11
  -13.6899996       2.73120675E-11
  -13.6800003       1.68441944E-11
  -13.6700001       5.68768990E-12
  -13.6599998      -6.11804270E-12
  -13.6499996      -1.85266108E-11
  -13.6400003      -3.14855260E-11
  -13.6300001      -4.49377480E-11
  -13.6199999      -5.88213991E-11
  -13.6099997      -7.30717153E-11
  -13.6000004      -8.76194672E-11
  -13.5900002      -1.02393649E-10
  -13.5799999      -1.17320736E-10
  -13.5699997      -1.32326788E-10
  -13.5600004      -1.47334769E-10
  -13.5500002      -1.62267103E-10
  -13.5400000      -1.77041923E-10
  -13.5299997      -1.91576546E-10
  -13.5200005      -2.05783307E-10
  -13.5100002      -2.19570140E-10
  -13.5000000      -2.32839414E-10
  -13.4899998      -2.45489434E-10
  -13.4799995      -2.57413701E-10
  -13.4700003      -2.68501138E-10
  -13.4600000      -2.78638140E-10
  -13.4499998      -2.87707719E-10
  -13.4399996      -2.95592884E-10
  -13.4300003      -3.02174896E-10
  -13.4200001      -3.07334880E-10
  -13.4099998      -3.10953013E-10
  -13.3999996      -3.12910003E-10
  -13.3900003      -3.13085280E-10
  -13.3800001      -3.11359077E-10
  -13.3699999      -3.07611880E-10
  -13.3599997      -3.01726283E-10
  -13.3500004      -2.93586933E-10
  -13.3400002      -2.83081558E-10
  -13.3299999      -2.70103107E-10
  -13.3199997      -2.54546245E-10
  -13.3100004      -2.36311193E-10
  -13.3000002      -2.15303997E-10
  -13.2900000      -1.91433841E-10
  -13.2799997      -1.64613920E-10
  -13.2700005      -1.34760994E-10
  -13.2600002      -1.01798063E-10
  -13.2500000      -6.56470295E-11
  -13.2399998      -2.62370473E-11
  -13.2299995       1.65073961E-11
  -13.2200003       6.26599120E-11
  -13.2100000       1.12302313E-10
  -13.1999998       1.65511743E-10
  -13.1899996       2.22389968E-10
  -13.1800003       2.83036428E-10
  -13.1700001       3.47570750E-10
  -13.1599998       4.16118584E-10
  -13.1499996       4.88820207E-10
  -13.1400003       5.65825053E-10
  -13.1300001       6.47296106E-10
  -13.1199999       7.33393790E-10
  -13.1099997       8.24296131E-10
  -13.1000004       9.20185983E-10
  -13.0900002       1.02122721E-09
  -13.0799999       1.12760734E-09
  -13.0699997       1.23950283E-09
  -13.0600004       1.35707523E-09
  -13.0500002       1.48051305E-09
  -13.0400000       1.60996982E-09
  -13.0299997       1.74561343E-09
  -13.0200005       1.88760496E-09
  -13.0100002       2.03614170E-09
  -13.0000000       2.19137819E-09
  -12.9899998       2.35348274E-09
  -12.9799995       2.52266874E-09
  -12.9700003       2.69909850E-09
  -12.9600000       2.88291768E-09
  -12.9499998       3.07436454E-09
  -12.9399996       3.27360961E-09
  -12.9300003       3.48079499E-09
  -12.9200001       3.69611142E-09
  -12.9099998       3.91973654E-09
  -12.8999996       4.15174872E-09
  -12.8900003       4.39238379E-09
  -12.8800001       4.64174521E-09
  -12.8699999       4.90001595E-09
  -12.8599997       5.16728926E-09
  -12.8500004       5.44372458E-09
  -12.8400002       5.72945158E-09
  -12.8299999       6.02463324E-09
  -12.8199997       6.32931885E-09
  -12.8100004       6.64369537E-09
  -12.8000002       6.96783209E-09
  -12.7900000       7.30184180E-09
  -12.7799997       7.64585195E-09
  -12.7700005       7.99998379E-09
  -12.7600002       8.36427905E-09
  -12.7500000       8.73881767E-09
  -12.7399998       9.12369913E-09
  -12.7299995       9.51886925E-09
  -12.7200003       9.92448523E-09
  -12.7100000       1.03405329E-08
  -12.6999998       1.07670228E-08
  -12.6899996       1.12039773E-08
  -12.6800003       1.16512684E-08
  -12.6700001       1.21089458E-08
  -12.6599998       1.25769199E-08
  -12.6499996       1.30551845E-08
  -12.6400003       1.35436107E-08
  -12.6300001       1.40421772E-08
  -12.6199999       1.45507091E-08
  -12.6099997       1.50691442E-08
  -12.6000004       1.55973012E-08
  -12.5900002       1.61351696E-08
  -12.5799999       1.66825682E-08
  -12.5699997       1.72393442E-08
  -12.5600004       1.78053661E-08
  -12.5500002       1.83805842E-08
  -12.5400000       1.89648581E-08
  -12.5299997       1.95579961E-08
  -12.5200005       2.01598045E-08
  -12.5100002       2.07702637E-08
  -12.5000000       2.13892708E-08
  -12.4899998       2.20165752E-08
  -12.4799995       2.26521184E-08
  -12.4700003       2.32956694E-08
  -12.4600000       2.39472087E-08
  -12.4499998       2.46065781E-08
  -12.4399996       2.52737671E-08
  -12.4300003       2.59483777E-08
  -12.4200001       2.66304774E-08
  -12.4099998       2.73198015E-08
  -12.3999996       2.80164318E-08
  -12.3900003       2.87201321E-08
  -12.3800001       2.94307529E-08
  -12.3699999       3.01481720E-08
  -12.3599997       3.08722896E-08
  -12.3500004       3.16029301E-08
  -12.3400002       3.23399689E-08
  -12.3299999       3.30832286E-08
  -12.3199997       3.38328476E-08
  -12.3100004       3.45884033E-08
  -12.3000002       3.53498457E-08
  -12.2900000       3.61171786E-08
  -12.2799997       3.68901993E-08
  -12.2700005       3.76686984E-08
  -12.2600002       3.84527326E-08
  -12.2500000       3.92421207E-08
  -12.2399998       4.00366176E-08
  -12.2299995       4.08362695E-08
  -12.2200003       4.16409236E-08
  -12.2100000       4.24505195E-08
  -12.1999998       4.32648797E-08
  -12.1899996       4.40842278E-08
  -12.1800003       4.49080204E-08
  -12.1700001       4.57364884E-08
  -12.1599998       4.65695251E-08
  -12.1499996       4.74068855E-08
  -12.1400003       4.82487721E-08
  -12.1300001       4.90949361E-08
  -12.1199999       4.99454664E-08
  -12.1099997       5.08002032E-08
  -12.1000004       5.16592813E-08
  -12.0900002       5.25225978E-08
  -12.0799999       5.33900923E-08
  -12.0699997       5.42616512E-08
  -12.0600004       5.51371251E-08
  -12.0500002       5.60167486E-08
  -12.0400000       5.69004825E-08
  -12.0299997       5.77882311E-08
  -12.0200005       5.86798059E-08
  -12.0100002       5.95754805E-08
  -12.0000000       6.04749957E-08
  -11.9899998       6.13785573E-08
  -11.9799995       6.22863610E-08
  -11.9700003       6.31981081E-08
  -11.9600000       6.41136211E-08
  -11.9499998       6.50333405E-08
  -11.9399996       6.59572024E-08
  -11.9300003       6.68854128E-08
  -11.9200001       6.78176235E-08
  -11.9099998       6.87540336E-08
  -11.8999996       6.96947779E-08
  -11.8900003       7.06400201E-08
  -11.8800001       7.15896604E-08
  -11.8699999       7.25440543E-08
  -11.8599997       7.35029317E-08
  -11.8500004       7.44667972E-08
  -11.8400002       7.54353167E-08
  -11.8299999       7.64095134E-08
  -11.8199997       7.73881723E-08
  -11.8100004       7.83728140E-08
  -11.8000002       7.93626498E-08
  -11.7900000       8.03582836E-08
  -11.7799997       8.13599925E-08
  -11.7700005       8.23680395E-08
  -11.7600002       8.33824600E-08
  -11.7500000       8.44032186E-08
  -11.7399998       8.54309050E-08
  -11.7299995       8.64656116E-08
  -11.7200003       8.75073241E-08
  -11.7100000       8.85566251E-08
  -11.6999998       8.96140335E-08
  -11.6899996       9.06790021E-08
  -11.6800003       9.17525043E-08
  -11.6700001       9.28342345E-08
  -11.6599998       9.39246902E-08
  -11.6499996       9.50238288E-08
  -11.6400003       9.61328723E-08
  -11.6300001       9.72507905E-08
  -11.6199999       9.83786919E-08
  -11.6099997       9.95168676E-08
  -11.6000004       1.00665076E-07
  -11.5900002       1.01824128E-07
  -11.5799999       1.02994157E-07
  -11.5699997       1.04175335E-07
  -11.5600004       1.05367931E-07
  -11.5500002       1.06571868E-07
  -11.5400000       1.07788850E-07
  -11.5299997       1.09017819E-07
  -11.5200005       1.10259741E-07
  -11.5100002       1.11514346E-07
  -11.5000000       1.12782971E-07
  -11.4899998       1.14064918E-07
  -11.4799995       1.15360955E-07
  -11.4700003       1.16671814E-07
  -11.4600000       1.17996649E-07
  -11.4499998       1.19336320E-07
  -11.4399996       1.20691894E-07
  -11.4300003       1.22062517E-07
  -11.4200001       1.23448842E-07
  -11.4099998       1.24851880E-07
  -11.3999996       1.26271246E-07
  -11.3900003       1.27707239E-07
  -11.3800001       1.29161094E-07
  -11.3699999       1.30632202E-07
  -11.3599997       1.32121500E-07
  -11.3500004       1.33628305E-07
  -11.3400002       1.35154266E-07
  -11.3299999       1.36698816E-07
  -11.3199997       1.38262720E-07
  -11.3100004       1.39845966E-07
  -11.3000002       1.41449647E-07
  -11.2900000       1.43072285E-07
  -11.2799997       1.44716296E-07
  -11.2700005       1.46380088E-07
  -11.2600002       1.48065823E-07
  -11.2500000       1.49773172E-07
  -11.2399998       1.51501524E-07
  -11.2299995       1.53252742E-07
  -11.2200003       1.55026115E-07
  -11.2100000       1.56821997E-07
  -11.1999998       1.58641669E-07
  -11.1899996       1.60484205E-07
  -11.1800003       1.62351384E-07
  -11.1700001       1.64242508E-07
  -11.1599998       1.66158188E-07
  -11.1499996       1.68099618E-07
  -11.1400003       1.70065505E-07
  -11.1300001       1.72058336E-07
  -11.1199999       1.74077115E-07
  -11.1099997       1.76122072E-07
  -11.1000004       1.78194483E-07
  -11.0900002       1.80293441E-07
  -11.0799999       1.82420422E-07
  -11.0699997       1.84576479E-07
  -11.0600004       1.86761966E-07
  -11.0500002       1.88975662E-07
  -11.0400000       1.91218817E-07
  -11.0299997       1.93491928E-07
  -11.0200005       1.95795778E-07
  -11.0100002       1.98130252E-07
  -11.0000000       2.00496387E-07
  -10.9899998       2.02894768E-07
  -10.9799995       2.05324227E-07
  -10.9700003       2.07787096E-07
  -10.9600000       2.10283631E-07
  -10.9499998       2.12814285E-07
  -10.9399996       2.15379174E-07
  -10.9300003       2.17977714E-07
  -10.9200001       2.20612790E-07
  -10.9099998       2.23282655E-07
  -10.8999996       2.25989595E-07
  -10.8900003       2.28732574E-07
  -10.8800001       2.31513368E-07
  -10.8699999       2.34331395E-07
  -10.8599997       2.37188388E-07
  -10.8500004       2.40083438E-07
  -10.8400002       2.43017610E-07
  -10.8299999       2.45990236E-07
  -10.8199997       2.49004103E-07
  -10.8100004       2.52057617E-07
  -10.8000002       2.55152287E-07
  -10.7900000       2.58287827E-07
  -10.7799997       2.61465260E-07
  -10.7700005       2.64685326E-07
  -10.7600002       2.67948565E-07
  -10.7500000       2.71254493E-07
  -10.7399998       2.74603963E-07
  -10.7299995       2.77997373E-07
  -10.7200003       2.81436542E-07
  -10.7100000       2.84920418E-07
  -10.6999998       2.88449684E-07
  -10.6899996       2.92026300E-07
  -10.6800003       2.95649869E-07
  -10.6700001       2.99319140E-07
  -10.6599998       3.03037041E-07
  -10.6499996       3.06802661E-07
  -10.6400003       3.10616457E-07
  -10.6300001       3.14479394E-07
  -10.6199999       3.18392210E-07
  -10.6099997       3.22354026E-07
  -10.6000004       3.26367910E-07
  -10.5900002       3.30431789E-07
  -10.5799999       3.34547479E-07
  -10.5699997       3.38714983E-07
  -10.5600004       3.42935920E-07
  -10.5500002       3.47208356E-07
  -10.5400000       3.51534311E-07
  -10.5299997       3.55914949E-07
  -10.5200005       3.60348935E-07
  -10.5100002       3.64838087E-07
  -10.5000000       3.69383116E-07
  -10.4899998       3.73983426E-07
  -10.4799995       3.78641062E-07
  -10.4700003       3.83356394E-07
  -10.4600000       3.88128313E-07
  -10.4499998       3.92957588E-07
  -10.4399996       3.97846918E-07
  -10.4300003       4.02793688E-07
  -10.4200001       4.07801593E-07
  -10.4099998       4.12871600E-07
  -10.3999996       4.17998876E-07
  -10.3900003       4.23189732E-07
  -10.3800001       4.28441751E-07
  -10.3699999       4.33756782E-07
  -10.3599997       4.39132208E-07
  -10.3500004       4.44573203E-07
  -10.3400002       4.50077465E-07
  -10.3299999       4.55647552E-07
  -10.3199997       4.61278290E-07
  -10.3100004       4.66978662E-07
  -10.3000002       4.72744318E-07
  -10.2900000       4.78573895E-07
  -10.2799997       4.84472650E-07
  -10.2700005       4.90439106E-07
  -10.2600002       4.96474229E-07
  -10.2500000       5.02576427E-07
  -10.2399998       5.08751839E-07
  -10.2299995       5.14995179E-07
  -10.2200003       5.21308436E-07
  -10.2100000       5.27695477E-07
  -10.1999998       5.34152207E-07
  -10.1899996       5.40683914E-07
  -10.1800003       5.47285310E-07
  -10.1700001       5.53963559E-07
  -10.1599998       5.60713488E-07
  -10.1499996       5.67541861E-07
  -10.1400003       5.74444186E-07
  -10.1300001       5.81422000E-07
  -10.1199999       5.88480759E-07
  -10.1099997       5.95616541E-07
  -10.1000004       6.02830937E-07
  -10.0900002       6.10124800E-07
  -10.0799999       6.17498415E-07
  -10.0699997       6.24952236E-07
  -10.0600004       6.32488366E-07
  -10.0500002       6.40108340E-07
  -10.0400000       6.47810623E-07
  -10.0299997       6.55593510E-07
  -10.0200005       6.63467461E-07
  -10.0100002       6.71422981E-07
  -10.0000000       6.79467689E-07
  -9.98999977       6.87599311E-07
  -9.97999954       6.95818358E-07
  -9.97000027       7.04123408E-07
  -9.96000004       7.12522194E-07
  -9.94999981       7.21011304E-07
  -9.93999958       7.29589317E-07
  -9.93000031       7.38263680E-07
  -9.92000008       7.47028537E-07
  -9.90999985       7.55886333E-07
  -9.89999962       7.64841616E-07
  -9.89000034       7.73891600E-07
  -9.88000011       7.83039241E-07
  -9.86999989       7.92287494E-07
  -9.85999966       8.01628573E-07
  -9.85000038       8.11077769E-07
  -9.84000015       8.20629054E-07
  -9.82999992       8.30278339E-07
  -9.81999969       8.40033181E-07
  -9.81000042       8.49892217E-07
  -9.80000019       8.59856641E-07
  -9.78999996       8.69927021E-07
  -9.77999973       8.80103926E-07
  -9.77000046       8.90390936E-07
  -9.76000023       9.00787711E-07
  -9.75000000       9.11294990E-07
  -9.73999977       9.21916580E-07
  -9.72999954       9.32653222E-07
  -9.72000027       9.43500993E-07
  -9.71000004       9.54468192E-07
  -9.69999981       9.65551067E-07
  -9.68999958       9.76753086E-07
  -9.68000031       9.88077431E-07
  -9.67000008       9.99519898E-07
  -9.65999985       1.01109049E-06
  -9.64999962       1.02277988E-06
  -9.64000034       1.03459479E-06
  -9.63000011       1.04653680E-06
  -9.61999989       1.05860806E-06
  -9.60999966       1.07080575E-06
  -9.60000038       1.08313782E-06
  -9.59000015       1.09559903E-06
  -9.57999992       1.10819087E-06
  -9.56999969       1.12092039E-06
  -9.56000042       1.13378610E-06
  -9.55000019       1.14679153E-06
  -9.53999996       1.15993635E-06
  -9.52999973       1.17322020E-06
  -9.52000046       1.18664843E-06
  -9.51000023       1.20021525E-06
  -9.50000000       1.21393168E-06
  -9.48999977       1.22778647E-06
  -9.47999954       1.24179473E-06
  -9.47000027       1.25594988E-06
  -9.46000004       1.27025783E-06
  -9.44999981       1.28471584E-06
  -9.43999958       1.29932778E-06
  -9.43000031       1.31409331E-06
  -9.42000008       1.32902198E-06
  -9.40999985       1.34409845E-06
  -9.39999962       1.35934488E-06
  -9.39000034       1.37474706E-06
  -9.38000011       1.39031897E-06
  -9.36999989       1.40604539E-06
  -9.35999966       1.42194813E-06
  -9.35000038       1.43800844E-06
  -9.34000015       1.45424349E-06
  -9.32999992       1.47064873E-06
  -9.31999969       1.48722347E-06
  -9.31000042       1.50397398E-06
  -9.30000019       1.52090638E-06
  -9.28999996       1.53800465E-06
  -9.27999973       1.55528630E-06
  -9.27000046       1.57274724E-06
  -9.26000023       1.59039678E-06
  -9.25000000       1.60822651E-06
  -9.23999977       1.62624053E-06
  -9.22999954       1.64444486E-06
  -9.22000027       1.66283371E-06
  -9.21000004       1.68141878E-06
  -9.19999981       1.70019473E-06
  -9.18999958       1.71915633E-06
  -9.18000031       1.73832620E-06
  -9.17000008       1.75768844E-06
  -9.15999985       1.77726031E-06
  -9.14999962       1.79702567E-06
  -9.14000034       1.81699522E-06
  -9.13000011       1.83717282E-06
  -9.11999989       1.85755425E-06
  -9.10999966       1.87815067E-06
  -9.10000038       1.89896048E-06
  -9.09000015       1.91997151E-06
  -9.07999992       1.94121003E-06
  -9.06999969       1.96266456E-06
  -9.06000042       1.98433236E-06
  -9.05000019       2.00622753E-06
  -9.03999996       2.02833735E-06
  -9.02999973       2.05068045E-06
  -9.02000046       2.07324911E-06
  -9.01000023       2.09605355E-06
  -9.00000000       2.11907150E-06
  -8.98999977       2.14234046E-06
  -8.97999954       2.16583408E-06
  -8.97000027       2.18957530E-06
  -8.96000004       2.21355276E-06
  -8.94999981       2.23776215E-06
  -8.93999958       2.26223051E-06
  -8.93000031       2.28692488E-06
  -8.92000008       2.31189165E-06
  -8.90999985       2.33709193E-06
  -8.89999962       2.36255914E-06
  -8.89000034       2.38827784E-06
  -8.88000011       2.41424868E-06
  -8.86999989       2.44048738E-06
  -8.85999966       2.46699301E-06
  -8.85000038       2.49374853E-06
  -8.84000015       2.52078553E-06
  -8.82999992       2.54808128E-06
  -8.81999969       2.57565762E-06
  -8.81000042       2.60350998E-06
  -8.80000019       2.63163156E-06
  -8.78999996       2.66004440E-06
  -8.77999973       2.68873396E-06
  -8.77000046       2.71771364E-06
  -8.76000023       2.74696913E-06
  -8.75000000       2.77651156E-06
  -8.73999977       2.80636800E-06
  -8.72999954       2.83650297E-06
  -8.72000027       2.86694467E-06
  -8.71000004       2.89767195E-06
  -8.69999981       2.92871505E-06
  -8.68999958       2.96006942E-06
  -8.68000031       2.99173780E-06
  -8.67000008       3.02370199E-06
  -8.65999985       3.05599724E-06
  -8.64999962       3.08859762E-06
  -8.64000034       3.12152702E-06
  -8.63000011       3.15478133E-06
  -8.61999989       3.18836032E-06
  -8.60999966       3.22226219E-06
  -8.60000038       3.25651058E-06
  -8.59000015       3.29109366E-06
  -8.57999992       3.32599893E-06
  -8.56999969       3.36127050E-06
  -8.56000042       3.39687881E-06
  -8.55000019       3.43282295E-06
  -8.53999996       3.46913566E-06
  -8.52999973       3.50580126E-06
  -8.52000046       3.54281292E-06
  -8.51000023       3.58020134E-06
  -8.50000000       3.61794719E-06
  -8.48999977       3.65606775E-06
  -8.47999954       3.69455211E-06
  -8.47000027       3.73341322E-06
  -8.46000004       3.77267361E-06
  -8.44999981       3.81229006E-06
  -8.43999958       3.85230715E-06
  -8.43000031       3.89271327E-06
  -8.42000008       3.93349956E-06
  -8.40999985       3.97468148E-06
  -8.39999962       4.01627130E-06
  -8.39000034       4.05827404E-06
  -8.38000011       4.10065650E-06
  -8.36999989       4.14347778E-06
  -8.35999966       4.18669242E-06
  -8.35000038       4.23033453E-06
  -8.34000015       4.27438817E-06
  -8.32999992       4.31888793E-06
  -8.31999969       4.36382288E-06
  -8.31000042       4.40917529E-06
  -8.30000019       4.45496926E-06
  -8.28999996       4.50121661E-06
  -8.27999973       4.54788506E-06
  -8.27000046       4.59502189E-06
  -8.26000023       4.64261802E-06
  -8.25000000       4.69065390E-06
  -8.23999977       4.73915952E-06
  -8.22999954       4.78813899E-06
  -8.22000027       4.83755730E-06
  -8.21000004       4.88748174E-06
  -8.19999981       4.93787002E-06
  -8.18999958       4.98873487E-06
  -8.18000031       5.04011268E-06
  -8.17000008       5.09196343E-06
  -8.15999985       5.14431804E-06
  -8.14999962       5.19716787E-06
  -8.14000034       5.25049336E-06
  -8.13000011       5.30437683E-06
  -8.11999989       5.35878553E-06
  -8.10999966       5.41366535E-06
  -8.10000038       5.46908996E-06
  -8.09000015       5.52501342E-06
  -8.07999992       5.58149031E-06
  -8.06999969       5.63851654E-06
  -8.06000042       5.69607573E-06
  -8.05000019       5.75416334E-06
  -8.03999996       5.81282666E-06
  -8.02999973       5.87204613E-06
  -8.02000046       5.93179084E-06
  -8.01000023       5.99214763E-06
  -8.00000000       6.05301875E-06
  -7.98999977       6.11448695E-06
  -7.98000002       6.17653814E-06
  -7.96999979       6.23915048E-06
  -7.96000004       6.30237082E-06
  -7.94999981       6.36619143E-06
  -7.94000006       6.43060685E-06
  -7.92999983       6.49564299E-06
  -7.92000008       6.56127349E-06
  -7.90999985       6.62754337E-06
  -7.90000010       6.69441533E-06
  -7.88999987       6.76190984E-06
  -7.88000011       6.83005374E-06
  -7.86999989       6.89883518E-06
  -7.86000013       6.96825055E-06
  -7.84999990       7.03832438E-06
  -7.84000015       7.10904260E-06
  -7.82999992       7.18040292E-06
  -7.82000017       7.25246491E-06
  -7.80999994       7.32517037E-06
  -7.80000019       7.39855705E-06
  -7.78999996       7.47265267E-06
  -7.78000021       7.54740768E-06
  -7.76999998       7.62287391E-06
  -7.76000023       7.69906819E-06
  -7.75000000       7.77593232E-06
  -7.73999977       7.85349221E-06
  -7.73000002       7.93180152E-06
  -7.71999979       8.01081114E-06
  -7.71000004       8.09056019E-06
  -7.69999981       8.17103682E-06
  -7.69000006       8.25227016E-06
  -7.67999983       8.33425747E-06
  -7.67000008       8.41697056E-06
  -7.65999985       8.50044853E-06
  -7.65000010       8.58468593E-06
  -7.63999987       8.66976188E-06
  -7.63000011       8.75554997E-06
  -7.61999989       8.84214569E-06
  -7.61000013       8.92951903E-06
  -7.59999990       9.01772819E-06
  -7.59000015       9.10672043E-06
  -7.57999992       9.19654667E-06
  -7.57000017       9.28718964E-06
  -7.55999994       9.37866571E-06
  -7.55000019       9.47095486E-06
  -7.53999996       9.56406711E-06
  -7.53000021       9.65805521E-06
  -7.51999998       9.75289549E-06
  -7.51000023       9.84858980E-06
  -7.50000000       9.94518359E-06
  -7.48999977       1.00426205E-05
  -7.48000002       1.01409514E-05
  -7.46999979       1.02401555E-05
  -7.46000004       1.03402708E-05
  -7.44999981       1.04412538E-05
  -7.44000006       1.05431827E-05