  -16.0000000       0.00000000    
  -15.9899998       0.00000000    
  -15.9799995       0.00000000    
  -15.9700003       0.00000000    
  -15.9600000       0.00000000    
  -15.9499998       0.00000000    
  -15.9399996       0.00000000    
  -15.9300003       0.00000000    
  -15.9200001       0.00000000    
  -15.9099998       0.00000000    
  -15.8999996       0.00000000    
  -15.8900003       0.00000000    
  -15.8800001      -0.00000000    
  -15.8699999       0.00000000    
  -15.8599997      -0.00000000    
  -15.8500004      -1.54142831E-44
  -15.8400002      -1.98984382E-43
  -15.8299999      -1.58907246E-42
  -15.8199997      -9.48118541E-42
  -15.8100004      -4.56655144E-41
  -15.8000002      -1.85817782E-40
  -15.7900000      -6.56906299E-40
  -15.7799997      -2.05216377E-39
  -15.7700005      -5.71544662E-39
  -15.7600002      -1.42145712E-38
  -15.7500000      -3.13724774E-38
  -15.7399998      -6.03404388E-38
  -15.7299995      -9.67759701E-38
  -15.7200003      -1.13432162E-37
  -15.7100000      -3.52297841E-38
  -15.6999998       2.85547633E-37
  -15.6899996       1.06339684E-36
  -15.6800003       2.48757876E-36
  -15.6700001       4.48267783E-36
  -15.6599998       6.31429016E-36
  -15.6499996       6.18246820E-36
  -15.6400003       1.17648427E-36
  -15.6300001      -1.18477906E-35
  -15.6199999      -3.40055592E-35
  -15.6099997      -6.09161606E-35
  -15.6000004      -7.94254097E-35
  -15.5900002      -6.72275953E-35
  -15.5799999       1.47679110E-36
  -15.5699997       1.42650372E-34
  -15.5600004       3.43332719E-34
  -15.5500002       5.42821067E-34
  -15.5400000       6.22255052E-34
  -15.5299997       4.09883079E-34
  -15.5200005      -2.90744178E-34
  -15.5100002      -1.63346217E-33
  -15.5000000      -3.58549948E-33
  -15.4899998      -5.65481806E-33
  -15.4799995      -6.48609865E-33
  -15.4700003      -3.51391518E-33
  -15.4600000       6.78051296E-33
  -15.4499998       2.70977720E-32
  -15.4399996       5.52047765E-32
  -15.4300003       7.78505870E-32
  -15.4200001       6.58755204E-32
  -15.4099998      -2.25373785E-32
  -15.3999996      -2.21232151E-31
  -15.3900003      -5.12526210E-31
  -15.3800001      -7.69505450E-31
  -15.3699999      -7.18377088E-31
  -15.3599997       1.77169715E-32
  -15.3500004       1.72572783E-30
  -15.3400002       4.23899287E-30
  -15.3299999       6.50248567E-30
  -15.3199997       6.34749270E-30
  -15.3100004       9.12603691E-31
  -15.3000002      -1.18768729E-29
  -15.2900000      -3.07450942E-29
  -15.2799997      -4.82215694E-29
  -15.2700005      -4.94145325E-29
  -15.2600002      -1.50861297E-29
  -15.2500000       6.87193471E-29
  -15.2399998       1.94795849E-28
  -15.2299995       3.17831211E-28
  -15.2200003       3.47509358E-28
  -15.2100000       1.66489662E-28
  -15.1999998      -3.15094056E-28
  -15.1899996      -1.07121928E-27
  -15.1800003      -1.86581763E-27
  -15.1700001      -2.21070950E-27
  -15.1599998      -1.45102624E-27
  -15.1499996       9.63159395E-28
  -15.1400003       5.02949864E-27
  -15.1300001       9.70219257E-27
  -15.1199999       1.26283966E-26
  -15.1099997       1.04684862E-26
  -15.1000004       9.00811120E-29
  -15.0900002      -1.93710927E-26
  -15.0799999      -4.41177549E-26
  -15.0699997      -6.41182076E-26
  -15.0600004      -6.39210479E-26
  -15.0500002      -2.72369943E-26
  -15.0400000       5.44572931E-26
  -15.0299997       1.71135411E-25
  -15.0200005       2.85680430E-25
  -15.0100002       3.33966631E-25
  -15.0000000       2.39755857E-25
  -14.9899998      -5.31080452E-26
  -14.9799995      -5.36322321E-25
  -14.9700003      -1.09570038E-24
  -14.9600000      -1.49651519E-24
  -14.9499998      -1.42133950E-24
  -14.9399996      -5.75876448E-25
  -14.9300003       1.14651220E-24
  -14.9200001       3.48665870E-24
  -14.9099998       5.70828310E-24
  -14.8999996       6.65099673E-24
  -14.8900003       5.02412770E-24
  -14.8800001      -5.32735704E-26
  -14.8699999      -8.37689423E-24
  -14.8599997      -1.80872632E-23
  -14.8500004      -2.55377515E-23
  -14.8400002      -2.59181087E-23
  -14.8299999      -1.47797745E-23
  -14.8199997       9.72590160E-24
  -14.8100004       4.45169860E-23
  -14.8000002       8.01599179E-23
  -14.7900000       1.01492831E-22
  -14.7799997       9.11202377E-23
  -14.7700005       3.57707905E-23
  -14.7600002      -6.57499346E-23
  -14.7500000      -1.95623658E-22
  -14.7399998      -3.14595987E-22
  -14.7299995      -3.67374442E-22
  -14.7200003      -2.97472909E-22
  -14.7100000      -6.99473814E-23
  -14.6999998       3.03567813E-22
  -14.6899996       7.46701705E-22
  -14.6800003       1.11771205E-21
  -14.6700001       1.23478557E-21
  -14.6599998       9.29061658E-22
  -14.6499996       1.16883312E-22
  -14.6400003      -1.12857910E-21
  -14.6300001      -2.53456076E-21
  -14.6199999      -3.64386671E-21
  -14.6099997      -3.90694003E-21
  -14.6000004      -2.84820984E-21
  -14.5900002      -2.74823716E-22
  -14.5799999       3.53300916E-21
  -14.5699997       7.72808835E-21
  -14.5600004       1.09715710E-20
  -14.5500002       1.17163203E-20
  -14.5400000       8.67583862E-21
  -14.5299997       1.38095087E-21
  -14.5200005      -9.34105904E-21
  -14.5100002      -2.11622802E-20
  -14.5000000      -3.04956515E-20
  -14.4899998      -3.32566931E-20
  -14.4799995      -2.60653254E-20
  -14.4700003      -7.62916676E-21
  -14.4600000       2.00976616E-20
  -14.4499998       5.14429568E-20
  -14.4399996       7.76120757E-20
  -14.4300003       8.84957563E-20
  -14.4200001       7.54804571E-20
  -14.4099998       3.46604316E-20
  -14.3999996      -3.04566092E-20
  -14.3900003      -1.07759319E-19
  -14.3800001      -1.77671352E-19
  -14.3699999      -2.16923825E-19
  -14.3599997      -2.04526326E-19
  -14.3500004      -1.28704689E-19
  -14.3400002       7.04219245E-21
  -14.3299999       1.80814638E-19
  -14.3199997       3.53784321E-19
  -14.3100004       4.76967127E-19
  -14.3000002       5.02594216E-19
  -14.2900000       3.97872272E-19
  -14.2799997       1.57742296E-19
  -14.2700005      -1.87195018E-19
  -14.2600002      -5.70842769E-19
  -14.2500000      -9.01501240E-19
  -14.2399998      -1.08073411E-18
  -14.2299995      -1.02784936E-18
  -14.2200003      -7.04487704E-19
  -14.2100000      -1.32832114E-19
  -14.1999998       5.98432913E-19
  -14.1899996       1.34399437E-18
  -14.1800003       1.92762241E-18
  -14.1700001       2.17966641E-18
  -14.1599998       1.97873348E-18
  -14.1499996       1.28793634E-18
  -14.1400003       1.76274373E-19
  -14.1300001      -1.18171777E-18
  -14.1199999      -2.53043131E-18
  -14.1099997      -3.57867615E-18
  -14.1000004      -4.05800457E-18
  -14.0900002      -3.78213404E-18
  -14.0799999      -2.69475240E-18
  -14.0699997      -8.94797251E-19
  -14.0600004       1.36733017E-18
  -14.0500002       3.72338726E-18
  -14.0400000       5.74549024E-18
  -14.0299997       7.01881113E-18
  -14.0200005       7.21599941E-18
  -14.0100002       6.16046401E-18
  -14.0000000       3.86788620E-18
  -13.9899998       5.59348681E-19
  -13.9799995      -3.35600740E-18
  -13.9700003      -7.32650412E-18
  -13.9600000      -1.07259501E-17
  -13.9499998      -1.29363190E-17
  -13.9399996      -1.34360428E-17
  -13.9300003      -1.18844405E-17
  -13.9200001      -8.19265900E-18
  -13.9099998      -2.57163194E-18
  -13.8999996       4.45185917E-18
  -13.8900003       1.20584611E-17
  -13.8800001       1.92032941E-17
  -13.8699999       2.47264518E-17
  -13.8599997       2.75002614E-17
  -13.8500004       2.65993955E-17
  -13.8400002       2.14731968E-17
  -13.8299999       1.20947570E-17
  -13.8199997      -9.39901238E-19
  -13.8100004      -1.63862924E-17
  -13.8000002      -3.24158185E-17
  -13.7900000      -4.67752637E-17
  -13.7799997      -5.70337790E-17
  -13.7700005      -6.08964676E-17
  -13.7600002      -5.65522672E-17
  -13.7500000      -4.30156716E-17
  -13.7399998      -2.04171336E-17
  -13.7299995       9.80309363E-18
  -13.7200003       4.48392541E-17
  -13.7100000       8.06357631E-17
  -13.6999998       1.12194649E-16
  -13.6899996       1.34077031E-16
  -13.6800003       1.41076752E-16
  -13.6700001       1.29014990E-16
  -13.6599998       9.55730766E-17
  -13.6499996       4.10500125E-17
  -13.6400003      -3.10907017E-17
  -13.6300001      -1.14024412E-16
  -13.6199999      -1.97841340E-16
  -13.6099997      -2.70369132E-16
  -13.6000004      -3.18540689E-16
  -13.5900002      -3.30210898E-16
  -13.5799999      -2.96220921E-16
  -13.5699997      -2.12421292E-16
  -13.5600004      -8.13068647E-17
  -13.5500002       8.70852109E-17
  -13.5400000       2.75302754E-16
  -13.5299997       4.59793307E-16
  -13.5200005       6.13393202E-16
  -13.5100002       7.08779012E-16
  -13.5000000       7.22475429E-16
  -13.4899998       6.38874389E-16
  -13.4799995       4.53646336E-16
  -13.4700003       1.75960176E-16
  -13.4600000      -1.70954344E-16
  -13.4499998      -5.51153274E-16
  -13.4399996      -9.19230012E-16
  -13.4300003      -1.22520319E-15
  -13.4200001      -1.42051915E-15
  -13.4099998      -1.46448524E-15
  -13.3999996      -1.33035154E-15
  -13.3900003      -1.01026350E-15
  -13.3800001      -5.18404969E-16
  -13.3699999       1.08182876E-16
  -13.3599997       8.11401871E-16
  -13.3500004       1.51655426E-15
  -13.3400002       2.13922215E-15
  -13.3299999       2.59405746E-15
  -13.3199997       2.80473531E-15
  -13.3100004       2.71407398E-15
  -13.3000002       2.29319644E-15
  -13.2900000       1.54854002E-15
  -13.2799997       5.25581561E-16
  -13.2700005      -6.91630036E-16
  -13.2600002      -1.98565635E-15
  -13.2500000      -3.21559690E-15
  -13.2399998      -4.23114472E-15
  -13.2299995      -4.88953453E-15
  -13.2200003      -5.07360453E-15
  -13.2100000      -4.70877982E-15
  -13.1999998      -3.77668105E-15
  -13.1899996      -2.32324239E-15
  -13.1800003      -4.59716121E-16
  -13.1700001       1.64425157E-15
  -13.1599998       3.77537408E-15
  -13.1499996       5.69814903E-15
  -13.1400003       7.18087258E-15
  -13.1300001       8.02342557E-15
  -13.1199999       8.08361235E-15
  -13.1099997       7.29874315E-15
  -13.1000004       5.69953562E-15
  -13.0900002       3.41403766E-15
  -13.0799999       6.60266312E-16
  -13.0699997      -2.27259257E-15
  -13.0600004      -5.05336129E-15
  -13.0500002      -7.34613633E-15
  -13.0400000      -8.85221004E-15
  -13.0299997      -9.35231778E-15
  -13.0200005      -8.74426416E-15
  -13.0100002      -7.07079896E-15
  -13.0000000      -4.53283075E-15
  -12.9899998      -1.48407002E-15
  -12.9799995       1.59543833E-15
  -12.9700003       4.14713938E-15
  -12.9600000       5.60089948E-15
  -12.9499998       5.45579808E-15
  -12.9399996       3.36675480E-15
  -12.9300003      -7.73434943E-16
  -12.9200001      -6.76840227E-15
  -12.9099998      -1.40807369E-14
  -12.8999996      -2.18331043E-14
  -12.8900003      -2.88550854E-14
  -12.8800001      -3.37782950E-14
  -12.8699999      -3.51769022E-14
  -12.8599997      -3.17444943E-14
  -12.8500004      -2.24930209E-14
  -12.8400002      -6.95590953E-15
  -12.8299999       1.46260093E-14
  -12.8199997       4.11554031E-14
  -12.8100004       7.05854307E-14
  -12.8000002       9.98955964E-14
  -12.7900000       1.25146069E-13
  -12.7799997       1.41611169E-13
  -12.7700005       1.43988201E-13
  -12.7600002       1.26669481E-13
  -12.7500000       8.40641304E-14
  -12.7399998       1.09495847E-14
  -12.7299995      -9.71706439E-14
  -12.7200003      -2.43722116E-13
  -12.7100000      -4.30754905E-13
  -12.6999998      -6.58693586E-13
  -12.6899996      -9.26171900E-13
  -12.6800003      -1.22995277E-12
  -12.6700001      -1.56495281E-12
  -12.6599998      -1.92437147E-12
  -12.6499996      -2.29991503E-12
  -12.6400003      -2.68210541E-12
  -12.6300001      -3.06064831E-12
  -12.6199999      -3.42484179E-12
  -12.6099997      -3.76397524E-12
  -12.6000004      -4.06771578E-12
  -12.5900002      -4.32641943E-12
  -12.5799999      -4.53138829E-12
  -12.5699997      -4.67500951E-12
  -12.5600004      -4.75081910E-12
  -12.5500002      -4.75347843E-12
  -12.5400000      -4.67866631E-12
  -12.5299997      -4.52293671E-12
  -12.5200005      -4.28354444E-12
  -12.5100002      -3.95827251E-12
  -12.5000000      -3.54528841E-12
  -12.4899998      -3.04304346E-12
  -12.4799995      -2.45022015E-12
  -12.4700003      -1.76577210E-12
  -12.4600000      -9.89005644E-13
  -12.4499998      -1.19748951E-13
  -12.4399996       8.41427188E-13
  -12.4300003       1.89295064E-12
  -12.4200001       3.03194557E-12
  -12.4099998       4.25394095E-12
  -12.3999996       5.55259137E-12
  -12.3900003       6.91944245E-12
  -12.3800001       8.34376318E-12
  -12.3699999       9.81249110E-12
  -12.3599997       1.13102435E-11
  -12.3500004       1.28194738E-11
  -12.3400002       1.43207364E-11
  -12.3299999       1.57930405E-11
  -12.3199997       1.72142960E-11
  -12.3100004       1.85618014E-11
  -12.3000002       1.98127799E-11
  -12.2900000       2.09448795E-11
  -12.2799997       2.19366521E-11
  -12.2700005       2.27679819E-11
  -12.2600002       2.34204080E-11
  -12.2500000       2.38773844E-11
  -12.2399998       2.41244594E-11
  -12.2299995       2.41493804E-11
  -12.2200003       2.39421104E-11
  -12.2100000       2.34948207E-11
  -12.1999998       2.28018628E-11
  -12.1899996       2.18596738E-11
  -12.1800003       2.06666975E-11
  -12.1700001       1.92232705E-11
  -12.1599998       1.75315353E-11
  -12.1499996       1.55953393E-11
  -12.1400003       1.34200810E-11
  -12.1300001       1.10126587E-11
  -12.1199999       8.38130260E-12
  -12.1099997       5.53554685E-12
  -12.1000004       2.48611093E-12
  -12.0900002      -7.55104367E-13
  -12.0799999      -4.17505223E-12
  -12.0699997      -7.75949444E-12
  -12.0600004      -1.14929923E-11
  -12.0500002      -1.53588253E-11
  -12.0400000      -1.93389072E-11
  -12.0299997      -2.34137171E-11
  -12.0200005      -2.75622199E-11
  -12.0100002      -3.17617287E-11
  -12.0000000      -3.59878030E-11
  -11.9899998      -4.02141723E-11
  -11.9799995      -4.44125847E-11
  -11.9700003      -4.85526896E-11
  -11.9600000      -5.26019506E-11
  -11.9499998      -5.65256106E-11
  -11.9399996      -6.02866576E-11
  -11.9300003      -6.38460187E-11
  -11.9200001      -6.71626574E-11
  -11.9099998      -7.01940658E-11
  -11.8999996      -7.28966887E-11
  -11.8900003      -7.52264431E-11
  -11.8800001      -7.71395656E-11
  -11.8699999      -7.85932500E-11
  -11.8599997      -7.95465083E-11
  -11.8500004      -7.99608921E-11
  -11.8400002      -7.98011796E-11
  -11.8299999      -7.90361943E-11
  -11.8199997      -7.76389578E-11
  -11.8100004      -7.55872656E-11
  -11.8000002      -7.28637289E-11
  -11.7900000      -6.94558924E-11
  -11.7799997      -6.53557763E-11
  -11.7700005      -6.05597170E-11
  -11.7600002      -5.50677247E-11
  -11.7500000      -4.88827347E-11
  -11.7399998      -4.20099268E-11
  -11.7299995      -3.44557438E-11
  -11.7200003      -2.62270830E-11
  -11.7100000      -1.73304478E-11
  -11.6999998      -7.77113963E-12
  -11.6899996       2.44741141E-12
  -11.6800003       1.33240207E-11
  -11.6700001       2.48600550E-11
  -11.6599998       3.70594874E-11
  -11.6499996       4.99286966E-11
  -11.6400003       6.34758773E-11
  -11.6300001       7.77106018E-11
  -11.6199999       9.26426366E-11
  -11.6099997       1.08281203E-10
  -11.6000004       1.24633651E-10
  -11.5900002       1.41704357E-10
  -11.5799999       1.59493793E-10
  -11.5699997       1.77997533E-10
  -11.5600004       1.97205127E-10
  -11.5500002       2.17099949E-10
  -11.5400000       2.37658865E-10
  -11.5299997       2.58852051E-10
  -11.5200005       2.80643453E-10
  -11.5100002       3.02991188E-10
  -11.5000000       3.25848903E-10
  -11.4899998       3.49166557E-10
  -11.4799995       3.72891801E-10
  -11.4700003       3.96971345E-10
  -11.4600000       4.21353091E-10
  -11.4499998       4.45986525E-10
  -11.4399996       4.70825934E-10
  -11.4300003       4.95829711E-10
  -11.4200001       5.20962828E-10
  -11.4099998       5.46197809E-10
  -11.3999996       5.71513448E-10
  -11.3900003       5.96896421E-10
  -11.3800001       6.22340401E-10
  -11.3699999       6.47844944E-10
  -11.3599997       6.73415490E-10
  -11.3500004       6.99060754E-10
  -11.3400002       7.24791782E-10
  -11.3299999       7.50620621E-10
  -11.3199997       7.76557985E-10
  -11.3100004       8.02612032E-10
  -11.3000002       8.28787650E-10
  -11.2900000       8.55083226E-10
  -11.2799997       8.81493045E-10
  -11.2700005       9.08002340E-10
  -11.2600002       9.34591293E-10
  -11.2500000       9.61231983E-10
  -11.2399998       9.87890769E-10
  -11.2299995       1.01452746E-09
  -11.2200003       1.04109632E-09
  -11.2100000       1.06754561E-09
  -11.1999998       1.09382436E-09
  -11.1899996       1.11987464E-09
  -11.1800003       1.14564080E-09
  -11.1700001       1.17106669E-09
  -11.1599998       1.19609700E-09
  -11.1499996       1.22067978E-09
  -11.1400003       1.24476551E-09
  -11.1300001       1.26830801E-09
  -11.1199999       1.29126776E-09
  -11.1099997       1.31360944E-09
  -11.1000004       1.33530353E-09
  -11.0900002       1.35632439E-09
  -11.0799999       1.37665379E-09
  -11.0699997       1.39627565E-09
  -11.0600004       1.41518064E-09
  -11.0500002       1.43336354E-09
  -11.0400000       1.45082057E-09
  -11.0299997       1.46755486E-09
  -11.0200005       1.48356649E-09
  -11.0100002       1.49886192E-09
  -11.0000000       1.51344481E-09
  -10.9899998       1.52732049E-09
  -10.9799995       1.54049162E-09
  -10.9700003       1.55296198E-09
  -10.9600000       1.56472846E-09
  -10.9499998       1.57578572E-09
  -10.9399996       1.58612468E-09
  -10.9300003       1.59573110E-09
  -10.9200001       1.60458780E-09
  -10.9099998       1.61267322E-09
  -10.8999996       1.61996005E-09
  -10.8900003       1.62641933E-09
  -10.8800001       1.63201852E-09
  -10.8699999       1.63672220E-09
  -10.8599997       1.64049729E-09
  -10.8500004       1.64330638E-09
  -10.8400002       1.64511493E-09
  -10.8299999       1.64589220E-09
  -10.8199997       1.64560754E-09
  -10.8100004       1.64423797E-09
  -10.8000002       1.64176350E-09
  -10.7900000       1.63817204E-09
  -10.7799997       1.63345926E-09
  -10.7700005       1.62762792E-09
  -10.7600002       1.62068958E-09
  -10.7500000       1.61266800E-09
  -10.7399998       1.60359115E-09
  -10.7299995       1.59349922E-09
  -10.7200003       1.58244096E-09
  -10.7100000       1.57047275E-09
  -10.6999998       1.55766056E-09
  -10.6899996       1.54407609E-09
  -10.6800003       1.52979596E-09
  -10.6700001       1.51490331E-09
  -10.6599998       1.49948476E-09
  -10.6499996       1.48362778E-09
  -10.6400003       1.46742163E-09
  -10.6300001       1.45095669E-09
  -10.6199999       1.43431966E-09
  -10.6099997       1.41759293E-09
  -10.6000004       1.40085832E-09
  -10.5900002       1.38418921E-09
  -10.5799999       1.36765055E-09
  -10.5699997       1.35130040E-09
  -10.5600004       1.33518729E-09
  -10.5500002       1.31934697E-09
  -10.5400000       1.30380673E-09
  -10.5299997       1.28858113E-09
  -10.5200005       1.27367228E-09
  -10.5100002       1.25907074E-09
  -10.5000000       1.24475452E-09
  -10.4899998       1.23068866E-09
  -10.4799995       1.21682853E-09
  -10.4700003       1.20311683E-09
  -10.4600000       1.18948840E-09
  -10.4499998       1.17586840E-09
  -10.4399996       1.16217080E-09
  -10.4300003       1.14830845E-09
  -10.4200001       1.13418641E-09
  -10.4099998       1.11970422E-09
  -10.3999996       1.10476495E-09
  -10.3900003       1.08926668E-09
  -10.3800001       1.07311526E-09
  -10.3699999       1.05621656E-09
  -10.3599997       1.03848374E-09
  -10.3500004       1.01984066E-09
  -10.3400002       1.00021780E-09
  -10.3299999       9.79557657E-10
  -10.3199997       9.57818824E-10
  -10.3100004       9.34970212E-10
  -10.3000002       9.10998665E-10
  -10.2900000       8.85903739E-10
  -10.2799997       8.59704474E-10
  -10.2700005       8.32436120E-10
  -10.2600002       8.04146305E-10
  -10.2500000       7.74901143E-10
  -10.2399998       7.44780015E-10
  -10.2299995       7.13878956E-10
  -10.2200003       6.82302270E-10
  -10.2100000       6.50166143E-10
  -10.1999998       6.17599749E-10
  -10.1899996       5.84737425E-10
  -10.1800003       5.51719059E-10
  -10.1700001       5.18689980E-10
  -10.1599998       4.85796570E-10
  -10.1499996       4.53185184E-10
  -10.1400003       4.21000679E-10
  -10.1300001       3.89383664E-10
  -10.1199999       3.58466978E-10
  -10.1099997       3.28376271E-10
  -10.1000004       2.99227476E-10
  -10.0900002       2.71122846E-10
  -10.0799999       2.44153142E-10
  -10.0699997       2.18391222E-10
  -10.0600004       1.93894373E-10
  -10.0500002       1.70700773E-10
  -10.0400000       1.48828713E-10
  -10.0299997       1.28274544E-10
  -10.0200005       1.09013416E-10
  -10.0100002       9.09988959E-11
  -10.0000000       7.41578327E-11
  -9.98999977       5.83966001E-11
  -9.97999954       4.35946661E-11
  -9.97000027       2.96089472E-11
  -9.96000004       1.62736040E-11
  -9.94999981       3.39873203E-12
  -9.93999958      -9.22600971E-12
  -9.93000031      -2.18335211E-11
  -9.92000008      -3.46735245E-11
  -9.90999985      -4.80136764E-11
  -9.89999962      -6.21371357E-11
  -9.89000034      -7.73382400E-11
  -9.88000011      -9.39219397E-11
  -9.86999989      -1.12199701E-10
  -9.85999966      -1.32485897E-10
  -9.85000038      -1.55096908E-10
  -9.84000015      -1.80345447E-10
  -9.82999992      -2.08537854E-10
  -9.81999969      -2.39972237E-10
  -9.81000042      -2.74933964E-10
  -9.80000019      -3.13692738E-10
  -9.78999996      -3.56498386E-10
  -9.77999973      -4.03579975E-10
  -9.77000046      -4.55139620E-10
  -9.76000023      -5.11352904E-10
  -9.75000000      -5.72363990E-10
  -9.73999977      -6.38283204E-10
  -9.72999954      -7.09186654E-10
  -9.72000027      -7.85111975E-10
  -9.71000004      -8.66058170E-10
  -9.69999981      -9.51984713E-10
  -9.68999958      -1.04280973E-09
  -9.68000031      -1.13841025E-09
  -9.67000008      -1.23862143E-09
  -9.65999985      -1.34323341E-09
  -9.64999962      -1.45200318E-09
  -9.64000034      -1.56464119E-09
  -9.63000011      -1.68082592E-09
  -9.61999989      -1.80019499E-09
  -9.60999966      -1.92235272E-09
  -9.60000038      -2.04687356E-09
  -9.59000015      -2.17329887E-09
  -9.57999992      -2.30115060E-09
  -9.56999969      -2.42991560E-09
  -9.56000042      -2.55906407E-09
  -9.55000019      -2.68805023E-09
  -9.53999996      -2.81630363E-09
  -9.52999973      -2.94325053E-09
  -9.52000046      -3.06830183E-09
  -9.51000023      -3.19085580E-09
  -9.50000000      -3.31031536E-09
  -9.48999977      -3.42607853E-09
  -9.47999954      -3.53754603E-09
  -9.47000027      -3.64411989E-09
  -9.46000004      -3.74521036E-09
  -9.44999981      -3.84023702E-09
  -9.43999958      -3.92863786E-09
  -9.43000031      -4.00984845E-09
  -9.42000008      -4.08333722E-09
  -9.40999985      -4.14857793E-09
  -9.39999962      -4.20507540E-09
  -9.39000034      -4.25235580E-09
  -9.38000011      -4.28995506E-09
  -9.36999989      -4.31744951E-09
  -9.35999966      -4.33443104E-09
  -9.35000038      -4.34053016E-09
  -9.34000015      -4.33539782E-09
  -9.32999992      -4.31872227E-09
  -9.31999969      -4.29020774E-09
  -9.31000042      -4.24960600E-09
  -9.30000019      -4.19668567E-09
  -9.28999996      -4.13125889E-09
  -9.27999973      -4.05316225E-09
  -9.27000046      -3.96225452E-09
  -9.26000023      -3.85843268E-09
  -9.25000000      -3.74162479E-09
  -9.23999977      -3.61176866E-09
  -9.22999954      -3.46885254E-09
  -9.22000027      -3.31286309E-09
  -9.21000004      -3.14383164E-09
  -9.19999981      -2.96179881E-09
  -9.18999958      -2.76682810E-09
  -9.18000031      -2.55900434E-09
  -9.17000008      -2.33843167E-09
  -9.15999985      -2.10522311E-09
  -9.14999962      -1.85951865E-09
  -9.14000034      -1.60145652E-09
  -9.13000011      -1.33120115E-09
  -9.11999989      -1.04891607E-09
  -9.10999966      -7.54789231E-10
  -9.10000038      -4.49005472E-10
  -9.09000015      -1.31761227E-10
  -9.07999992       1.96738542E-10
  -9.06999969       5.36285794E-10
  -9.06000042       8.86666518E-10
  -9.05000019       1.24765964E-09
  -9.03999996       1.61904701E-09
  -9.02999973       2.00059191E-09
  -9.02000046       2.39207143E-09
  -9.01000023       2.79324408E-09
  -9.00000000       3.20386606E-09
  -8.98999977       3.62368446E-09
  -8.97999954       4.05245615E-09
  -8.97000027       4.48990578E-09
  -8.96000004       4.93577534E-09
  -8.94999981       5.38977885E-09
  -8.93999958       5.85163074E-09
  -8.93000031       6.32103170E-09
  -8.92000008       6.79767798E-09
  -8.90999985       7.28123695E-09
  -8.89999962       7.77138442E-09
  -8.89000034       8.26776336E-09
  -8.88000011       8.77000872E-09
  -8.86999989       9.27773769E-09
  -8.85999966       9.79055326E-09
  -8.85000038       1.03080469E-08
  -8.84000015       1.08297931E-08
  -8.82999992       1.13553380E-08
  -8.81999969       1.18842278E-08
  -8.81000042       1.24159865E-08
  -8.80000019       1.29501361E-08
  -8.78999996       1.34861633E-08
  -8.77999973       1.40235663E-08
  -8.77000046       1.45618237E-08
  -8.76000023       1.51004009E-08
  -8.75000000       1.56387649E-08
  -8.73999977       1.61763829E-08
  -8.72999954       1.67127148E-08
  -8.72000027       1.72472241E-08
  -8.71000004       1.77793886E-08
  -8.69999981       1.83086684E-08
  -8.68999958       1.88345606E-08
  -8.68000031       1.93565537E-08
  -8.67000008       1.98741485E-08
  -8.65999985       2.03868726E-08
  -8.64999962       2.08942499E-08
  -8.64000034       2.13958558E-08
  -8.63000011       2.18912550E-08
  -8.61999989       2.23800569E-08
  -8.60999966       2.28618866E-08
  -8.60000038       2.33363977E-08
  -8.59000015       2.38032776E-08
  -8.57999992       2.42622367E-08
  -8.56999969       2.47130281E-08
  -8.56000042       2.51554173E-08
  -8.55000019       2.55892321E-08
  -8.53999996       2.60143356E-08
  -8.52999973       2.64306070E-08
  -8.52000046       2.68379701E-08
  -8.51000023       2.72363945E-08
  -8.50000000       2.76258962E-08
  -8.48999977       2.80065073E-08
  -8.47999954       2.83783095E-08
  -8.47000027       2.87414270E-08
  -8.46000004       2.90960092E-08
  -8.44999981       2.94422566E-08
  -8.43999958       2.97803933E-08
  -8.43000031       3.01106731E-08
  -8.42000008       3.04333909E-08
  -8.40999985       3.07488719E-08
  -8.39999962       3.10574571E-08
  -8.39000034       3.13595265E-08
  -8.38000011       3.16554711E-08
  -8.36999989       3.19457207E-08
  -8.35999966       3.22307017E-08
  -8.35000038       3.25108722E-08
  -8.34000015       3.27867014E-08
  -8.32999992       3.30586474E-08
  -8.31999969       3.33272077E-08
  -8.31000042       3.35928512E-08
  -8.30000019       3.38560646E-08
  -8.28999996       3.41173383E-08
  -8.27999973       3.43771269E-08
  -8.27000046       3.46359137E-08
  -8.26000023       3.48941498E-08
  -8.25000000       3.51522651E-08
  -8.23999977       3.54106824E-08
  -8.22999954       3.56698067E-08
  -8.22000027       3.59300181E-08
  -8.21000004       3.61916861E-08
  -8.19999981       3.64551305E-08
  -8.18999958       3.67206709E-08
  -8.18000031       3.69885882E-08
  -8.17000008       3.72591487E-08
  -8.15999985       3.75325691E-08
  -8.14999962       3.78090661E-08
  -8.14000034       3.80888068E-08
  -8.13000011       3.83719510E-08
  -8.11999989       3.86586194E-08
  -8.10999966       3.89489223E-08
  -8.10000038       3.92429236E-08
  -8.09000015       3.95406765E-08
  -8.07999992       3.98422273E-08
  -8.06999969       4.01475795E-08
  -8.06000042       4.04567118E-08
  -8.05000019       4.07696312E-08
  -8.03999996       4.10862881E-08
  -8.02999973       4.14066150E-08
  -8.02000046       4.17305586E-08
  -8.01000023       4.20580548E-08
  -8.00000000       4.23890079E-08
  -7.98999977       4.27233289E-08
  -7.98000002       4.30609539E-08
  -7.96999979       4.34017764E-08
  -7.96000004       4.37457004E-08
  -7.94999981       4.40926513E-08
  -7.94000006       4.44425368E-08
  -7.92999983       4.47952750E-08
  -7.92000008       4.51507844E-08
  -7.90999985       4.55090152E-08
  -7.90000010       4.58699105E-08
  -7.88999987       4.62334100E-08
  -7.88000011       4.65994816E-08
  -7.86999989       4.69680899E-08
  -7.86000013       4.73392383E-08
  -7.84999990       4.77129056E-08
  -7.84000015       4.80891025E-08
  -7.82999992       4.84678395E-08
  -7.82000017       4.88491629E-08
  -7.80999994       4.92330869E-08
  -7.80000019       4.96196755E-08
  -7.78999996       5.00089889E-08
  -7.78000021       5.04010629E-08
  -7.76999998       5.07960216E-08
  -7.76000023       5.11939398E-08
  -7.75000000       5.15948955E-08
  -7.73999977       5.19990060E-08
  -7.73000002       5.24063850E-08
  -7.71999979       5.28171533E-08
  -7.71000004       5.32314317E-08
  -7.69999981       5.36493694E-08
  -7.69000006       5.40711014E-08
  -7.67999983       5.44967627E-08
  -7.67000008       5.49265096E-08
  -7.65999985       5.53605055E-08
  -7.65000010       5.57989210E-08
  -7.63999987       5.62419125E-08
  -7.63000011       5.66896681E-08
  -7.61999989       5.71423655E-08
  -7.61000013       5.76002144E-08
  -7.59999990       5.80633674E-08
  -7.59000015       5.85320592E-08
  -7.57999992       5.90065028E-08
  -7.57000017       5.94868972E-08
  -7.55999994       5.99734662E-08
  -7.55000019       6.04664478E-08
  -7.53999996       6.09660731E-08
  -7.53000021       6.14725693E-08
  -7.51999998       6.19862277E-08
  -7.51000023       6.25072687E-08
  -7.50000000       6.30359978E-08
  -7.48999977       6.35726352E-08
  -7.48000002       6.41175006E-08
  -7.46999979       6.46708429E-08
  -7.46000004       6.52329604E-08
  -7.44999981       6.58042012E-08
  -7.44000006       6.63848212E-08