  -16.0000000       0.00000000    
  -15.9899998       0.00000000    
  -15.9799995       0.00000000    
  -15.9700003       0.00000000    
  -15.9600000       0.00000000    
  -15.9499998       0.00000000    
  -15.9399996       0.00000000    
  -15.9300003       6.16761116E-19
  -15.9200001       7.14454424E-18
  -15.9099998       4.16701068E-17
  -15.8999996       1.59240434E-16
  -15.8900003       4.28595601E-16
  -15.8800001       7.70274610E-16
  -15.8699999       4.84012467E-16
  -15.8599997      -2.64736527E-15
  -15.8500004      -1.34633320E-14
  -15.8400002      -3.98364745E-14
  -15.8299999      -9.05912715E-14
  -15.8199997      -1.68606096E-13
  -15.8100004      -2.57565155E-13
  -15.8000002      -3.03891434E-13
  -15.7900000      -2.00936341E-13
  -15.7799997       2.10876808E-13
  -15.7700005       1.11001746E-12
  -15.7600002       2.61105720E-12
  -15.7500000       4.63303311E-12
  -15.7399998       6.74611452E-12
  -15.7299995       8.05751906E-12
  -15.7200003       7.22433311E-12
  -15.7100000       2.68184325E-12
  -15.6999998      -6.86570072E-12
  -15.6899996      -2.17341874E-11
  -15.6800003      -4.04921062E-11
  -15.6700001      -5.94139599E-11
  -15.6599998      -7.24843033E-11
  -15.6499996      -7.22207641E-11
  -15.6400003      -5.13867456E-11
  -15.6300001      -5.35877896E-12
  -15.6199999       6.54133067E-11
  -15.6099997       1.53637505E-10
  -15.6000004       2.44877868E-10
  -15.5900002       3.19193227E-10
  -15.5799999       3.54632990E-10
  -15.5699997       3.31862177E-10
  -15.5600004       2.38695980E-10
  -15.5500002       7.32379574E-11
  -15.5400000      -1.55251034E-10
  -15.5299997      -4.27749225E-10
  -15.5200005      -7.18131277E-10
  -15.5100002      -9.95429073E-10
  -15.5000000      -1.22416577E-09
  -15.4899998      -1.36234690E-09
  -15.4799995      -1.35854250E-09
  -15.4700003      -1.15141108E-09
  -15.4600000      -6.75985712E-10
  -15.4499998       1.19838681E-10
  -15.4399996       1.24832855E-09
  -15.4300003       2.64913269E-09
  -15.4200001       4.16072510E-09
  -15.4099998       5.50966384E-09
  -15.3999996       6.33089758E-09
  -15.3900003       6.22666674E-09
  -15.3800001       4.86093565E-09
  -15.3699999       2.07290762E-09
  -15.3599997      -2.01881445E-09
  -15.3500004      -6.95597180E-09
  -15.3400002      -1.19551506E-08
  -15.3299999      -1.60131908E-08
  -15.3199997      -1.80961344E-08
  -15.3100004      -1.73777011E-08
  -15.3000002      -1.34716132E-08
  -15.2900000      -6.59333121E-09
  -15.2799997       2.40391951E-09
  -15.2700005       1.21462591E-08
  -15.2600002       2.09966853E-08
  -15.2500000       2.73984249E-08
  -15.2399998       3.02188781E-08
  -15.2299995       2.90005886E-08
  -15.2200003       2.40453630E-08
  -15.2100000       1.63016942E-08
  -15.1999998       7.08361192E-09
  -15.1899996      -2.29719666E-09
  -15.1800003      -1.08716236E-08
  -15.1700001      -1.82135871E-08
  -15.1599998      -2.44278393E-08
  -15.1499996      -2.99199137E-08
  -15.1400003      -3.50193012E-08
  -15.1300001      -3.95875226E-08
  -15.1199999      -4.27653255E-08
  -15.1099997      -4.29862013E-08
  -15.1000004      -3.83090892E-08
  -15.0900002      -2.70210609E-08
  -15.0799999      -8.36007352E-09
  -15.0699997       1.68580261E-08
  -15.0600004       4.59300971E-08
  -15.0500002       7.44332453E-08
  -15.0400000       9.69088703E-08
  -15.0299997       1.07956424E-07
  -15.0200005       1.03499680E-07
  -15.0100002       8.19124040E-08
  -15.0000000       4.46987087E-08
  -14.9899998      -3.48266505E-09
  -14.9799995      -5.55015944E-08
  -14.9700003      -1.03016816E-07
  -14.9600000      -1.38029847E-07
  -14.9499998      -1.54370198E-07
  -14.9399996      -1.48769473E-07
  -14.9300003      -1.21295898E-07
  -14.9200001      -7.50987823E-08
  -14.9099998      -1.55985536E-08
  -14.8999996       5.05994855E-08
  -14.8900003       1.16737347E-07
  -14.8800001       1.76603294E-07
  -14.8699999       2.24758395E-07
  -14.8599997       2.56335142E-07
  -14.8500004       2.66619367E-07
  -14.8400002       2.50726060E-07
  -14.8299999       2.03670169E-07
  -14.8199997       1.21024058E-07
  -14.8100004       1.68844799E-10
  -14.8000002      -1.58053069E-07
  -14.7900000      -3.47628657E-07
  -14.7799997      -5.56010377E-07
  -14.7700005      -7.63444859E-07
  -14.7600002      -9.43187672E-07
  -14.7500000      -1.06259836E-06
  -14.7399998      -1.08492316E-06
  -14.7299995      -9.71451186E-07
  -14.7200003      -6.83716394E-07
  -14.7100000      -1.85500056E-07
  -14.6999998       5.55475424E-07
  -14.6899996       1.56611600E-06
  -14.6800003       2.86665204E-06
  -14.6700001       4.46931836E-06
  -14.6599998       6.37694802E-06
  -14.6499996       8.58157546E-06
  -14.6400003       1.10632418E-05
  -14.6300001       1.37893312E-05
  -14.6199999       1.67147027E-05
  -14.6099997       1.97827667E-05
  -14.6000004       2.29274719E-05
  -14.5900002       2.60759534E-05
  -14.5799999       2.91514698E-05
  -14.5699997       3.20761428E-05
  -14.5600004       3.47733221E-05
  -14.5500002       3.71693459E-05
  -14.5400000       3.91948743E-05
  -14.5299997       4.07861698E-05
  -14.5200005       4.18865056E-05
  -14.5100002       4.24480422E-05
  -14.5000000       4.24341451E-05
  -14.4899998       4.18217460E-05
  -14.4799995       4.06032996E-05
  -14.4700003       3.87876935E-05
  -14.4600000       3.63996260E-05
  -14.4499998       3.34773540E-05
  -14.4399996       3.00690626E-05
  -14.4300003       2.62285957E-05
  -14.4200001       2.20114362E-05
  -14.4099998       1.74717679E-05
  -14.3999996       1.26613859E-05
  -14.3900003       7.63025582E-06
  -14.3800001       2.42854480E-06
  -14.3699999      -2.89099899E-06
  -14.3599997      -8.27132499E-06
  -14.3500004      -1.36509025E-05
  -14.3400002      -1.89655111E-05
  -14.3299999      -2.41518883E-05
  -14.3199997      -2.91522811E-05
  -14.3100004      -3.39187463E-05
  -14.3000002      -3.84159466E-05
  -14.2900000      -4.26216284E-05
  -14.2799997      -4.65242738E-05
  -14.2700005      -5.01187242E-05
  -14.2600002      -5.34007158E-05
  -14.2500000      -5.63616341E-05
  -14.2399998      -5.89852280E-05
  -14.2299995      -6.12466174E-05
  -14.2200003      -6.31142393E-05
  -14.2100000      -6.45535620E-05
  -14.1999998      -6.55319454E-05
  -14.1899996      -6.60228470E-05
  -14.1800003      -6.60083388E-05
  -14.1700001      -6.54795367E-05
  -14.1599998      -6.44347820E-05
  -14.1499996      -6.28765192E-05
  -14.1400003      -6.08081173E-05
  -14.1300001      -5.82316461E-05
  -14.1199999      -5.51474041E-05
  -14.1099997      -5.15558131E-05
  -14.1000004      -4.74605222E-05
  -14.0900002      -4.28725543E-05
  -14.0799999      -3.78136428E-05
  -14.0699997      -3.23179847E-05
  -14.0600004      -2.64320843E-05
  -14.0500002      -2.02122119E-05
  -14.0400000      -1.37205616E-05
  -14.0299997      -7.02072020E-06
  -14.0200005      -1.73917556E-07
  -14.0100002       6.76335458E-06
  -14.0000000       1.37398729E-05
  -13.9899998       2.07085086E-05
  -13.9799995       2.76237370E-05
  -13.9700003       3.44389846E-05
  -13.9600000       4.11045512E-05
  -13.9499998       4.75666056E-05
  -13.9399996       5.37675805E-05
  -13.9300003       5.96479877E-05
  -13.9200001       6.51486553E-05
  -13.9099998       7.02137768E-05
  -13.8999996       7.47930826E-05
  -13.8900003       7.88434263E-05
  -13.8800001       8.23296796E-05
  -13.8699999       8.52247176E-05
  -13.8599997       8.75084443E-05
  -13.8500004       8.91673990E-05
  -13.8400002       9.01934909E-05
  -13.8299999       9.05830821E-05
  -13.8199997       9.03363107E-05
  -13.8100004       8.94563709E-05
  -13.8000002       8.79489962E-05
  -13.7900000       8.58217318E-05
  -13.7799997       8.30835052E-05
  -13.7700005       7.97444591E-05
  -13.7600002       7.58155220E-05
  -13.7500000       7.13085974E-05
  -13.7399998       6.62361490E-05
  -13.7299995       6.06114772E-05
  -13.7200003       5.44478753E-05
  -13.7100000       4.77582907E-05
  -13.6999998       4.05546562E-05
  -13.6899996       3.28466522E-05
  -13.6800003       2.46422333E-05
  -13.6700001       1.59473639E-05
  -13.6599998       6.76751097E-06
  -13.6499996      -2.88964065E-06
  -13.6400003      -1.30121853E-05
  -13.6300001      -2.35802927E-05
  -13.6199999      -3.45638873E-05
  -13.6099997      -4.59208532E-05
  -13.6000004      -5.75967351E-05
  -13.5900002      -6.95256967E-05
  -13.5799999      -8.16326574E-05
  -13.5699997      -9.38356461E-05
  -13.5600004      -1.06050014E-04
  -13.5500002      -1.18189746E-04
  -13.5400000      -1.30171189E-04
  -13.5299997      -1.41913988E-04
  -13.5200005      -1.53344066E-04
  -13.5100002      -1.64395155E-04
  -13.5000000      -1.75011548E-04
  -13.4899998      -1.85151439E-04
  -13.4799995      -1.94789056E-04
  -13.4700003      -2.03916788E-04
  -13.4600000      -2.12545827E-04
  -13.4499998      -2.20704052E-04
  -13.4399996      -2.28431803E-04
  -13.4300003      -2.35776140E-04
  -13.4200001      -2.42784809E-04
  -13.4099998      -2.49499397E-04
  -13.3999996      -2.55951600E-04
  -13.3900003      -2.62161542E-04
  -13.3800001      -2.68138858E-04
  -13.3699999      -2.73885846E-04
  -13.3599997      -2.79402273E-04
  -13.3500004      -2.84689071E-04
  -13.3400002      -2.89751712E-04
  -13.3299999      -2.94600381E-04
  -13.3199997      -2.99249077E-04
  -13.3100004      -3.03713867E-04
  -13.3000002      -3.08010436E-04
  -13.2900000      -3.12153745E-04
  -13.2799997      -3.16160120E-04
  -13.2700005      -3.20049148E-04
  -13.2600002      -3.23849177E-04
  -13.2500000      -3.27599730E-04
  -13.2399998      -3.31354589E-04
  -13.2299995      -3.35178978E-04
  -13.2200003      -3.39145859E-04
  -13.2100000      -3.43329710E-04
  -13.1999998      -3.47797992E-04
  -13.1899996      -3.52606818E-04
  -13.1800003      -3.57795623E-04
  -13.1700001      -3.63388797E-04
  -13.1599998      -3.69398505E-04
  -13.1499996      -3.75830656E-04
  -13.1400003      -3.82690254E-04
  -13.1300001      -3.89986293E-04
  -13.1199999      -3.97732161E-04
  -13.1099997      -4.05946164E-04
  -13.1000004      -4.14645125E-04
  -13.0900002      -4.23843361E-04
  -13.0799999      -4.33546928E-04
  -13.0699997      -4.43754165E-04
  -13.0600004      -4.54457360E-04
  -13.0500002      -4.65645251E-04
  -13.0400000      -4.77309863E-04
  -13.0299997      -4.89449012E-04
  -13.0200005      -5.02068782E-04
  -13.0100002      -5.15182619E-04
  -13.0000000      -5.28804725E-04
  -12.9899998      -5.42945287E-04
  -12.9799995      -5.57603547E-04
  -12.9700003      -5.72762161E-04
  -12.9600000      -5.88386145E-04
  -12.9499998      -6.04424335E-04
  -12.9399996      -6.20813167E-04
  -12.9300003      -6.37482153E-04
  -12.9200001      -6.54360803E-04
  -12.9099998      -6.71381596E-04
  -12.8999996      -6.88482774E-04
  -12.8900003      -7.05606944E-04
  -12.8800001      -7.22701254E-04
  -12.8699999      -7.39713141E-04
  -12.8599997      -7.56592781E-04
  -12.8500004      -7.73291336E-04
  -12.8400002      -7.89765618E-04
  -12.8299999      -8.05980118E-04
  -12.8199997      -8.21912137E-04
  -12.8100004      -8.37551896E-04
  -12.8000002      -8.52903060E-04
  -12.7900000      -8.67980532E-04
  -12.7799997      -8.82806489E-04
  -12.7700005      -8.97402293E-04
  -12.7600002      -9.11787502E-04
  -12.7500000      -9.25976026E-04
  -12.7399998      -9.39977414E-04
  -12.7299995      -9.53797426E-04
  -12.7200003      -9.67441592E-04
  -12.7100000      -9.80921206E-04
  -12.6999998      -9.94250528E-04
  -12.6899996      -1.00745156E-03
  -12.6800003      -1.02054991E-03
  -12.6700001      -1.03357213E-03
  -12.6599998      -1.04654441E-03
  -12.6499996      -1.05948781E-03
  -12.6400003      -1.07242283E-03
  -12.6300001      -1.08536275E-03
  -12.6199999      -1.09832245E-03
  -12.6099997      -1.11131766E-03
  -12.6000004      -1.12436549E-03
  -12.5900002      -1.13748701E-03
  -12.5799999      -1.15070713E-03
  -12.5699997      -1.16404903E-03
  -12.5600004      -1.17753597E-03
  -12.5500002      -1.19118788E-03
  -12.5400000      -1.20502035E-03
  -12.5299997      -1.21904595E-03
  -12.5200005      -1.23327412E-03
  -12.5100002      -1.24771311E-03
  -12.5000000      -1.26236724E-03
  -12.4899998      -1.27723976E-03
  -12.4799995      -1.29233219E-03
  -12.4700003      -1.30763929E-03
  -12.4600000      -1.32315408E-03
  -12.4499998      -1.33886538E-03
  -12.4399996      -1.35476259E-03
  -12.4300003      -1.37083442E-03
  -12.4200001      -1.38707622E-03
  -12.4099998      -1.40348810E-03
  -12.3999996      -1.42007391E-03
  -12.3900003      -1.43684016E-03
  -12.3800001      -1.45379268E-03
  -12.3699999      -1.47093309E-03
  -12.3599997      -1.48825662E-03
  -12.3500004      -1.50575140E-03
  -12.3400002      -1.52340101E-03
  -12.3299999      -1.54119020E-03
  -12.3199997      -1.55910652E-03
  -12.3100004      -1.57714216E-03
  -12.3000002      -1.59529375E-03
  -12.2900000      -1.61355920E-03
  -12.2799997      -1.63193501E-03
  -12.2700005      -1.65040547E-03
  -12.2600002      -1.66894577E-03
  -12.2500000      -1.68751518E-03
  -12.2399998      -1.70606095E-03
  -12.2299995      -1.72452815E-03
  -12.2200003      -1.74286298E-03
  -12.2100000      -1.76102447E-03
  -12.1999998      -1.77898677E-03
  -12.1899996      -1.79674465E-03
  -12.1800003      -1.81430788E-03
  -12.1700001      -1.83169858E-03
  -12.1599998      -1.84894120E-03
  -12.1499996      -1.86606159E-03
  -12.1400003      -1.88307907E-03
  -12.1300001      -1.90001330E-03
  -12.1199999      -1.91687711E-03
  -12.1099997      -1.93369004E-03
  -12.1000004      -1.95047969E-03
  -12.0900002      -1.96728599E-03
  -12.0799999      -1.98415620E-03
  -12.0699997      -2.00114679E-03
  -12.0600004      -2.01831199E-03
  -12.0500002      -2.03570235E-03
  -12.0400000      -2.05335300E-03
  -12.0299997      -2.07128422E-03
  -12.0200005      -2.08950089E-03
  -12.0100002      -2.10800185E-03
  -12.0000000      -2.12678011E-03
  -11.9899998      -2.14583892E-03
  -11.9799995      -2.16518948E-03
  -11.9700003      -2.18486809E-03
  -11.9600000      -2.20491900E-03
  -11.9499998      -2.22540414E-03
  -11.9399996      -2.24638567E-03
  -11.9300003      -2.26792763E-03
  -11.9200001      -2.29008077E-03
  -11.9099998      -2.31288490E-03
  -11.8999996      -2.33636773E-03
  -11.8900003      -2.36054906E-03
  -11.8800001      -2.38544564E-03
  -11.8699999      -2.41107214E-03
  -11.8599997      -2.43745162E-03
  -11.8500004      -2.46461062E-03
  -11.8400002      -2.49257381E-03
  -11.8299999      -2.52136705E-03
  -11.8199997      -2.55100988E-03
  -11.8100004      -2.58149998E-03
  -11.8000002      -2.61283154E-03
  -11.7900000      -2.64497939E-03
  -11.7799997      -2.67791748E-03
  -11.7700005      -2.71162018E-03
  -11.7600002      -2.74606398E-03
  -11.7500000      -2.78124330E-03
  -11.7399998      -2.81716115E-03
  -11.7299995      -2.85383081E-03
  -11.7200003      -2.89126788E-03
  -11.7100000      -2.92948191E-03
  -11.6999998      -2.96847592E-03
  -11.6899996      -3.00823618E-03
  -11.6800003      -3.04873567E-03
  -11.6700001      -3.08994204E-03
  -11.6599998      -3.13181663E-03
  -11.6499996      -3.17432568E-03
  -11.6400003      -3.21744243E-03
  -11.6300001      -3.26115126E-03
  -11.6199999      -3.30544286E-03
  -11.6099997      -3.35030863E-03
  -11.6000004      -3.39574367E-03
  -11.5900002      -3.44172888E-03
  -11.5799999      -3.48824007E-03
  -11.5699997      -3.53523437E-03
  -11.5600004      -3.58267082E-03
  -11.5500002      -3.63049936E-03
  -11.5400000      -3.67867970E-03
  -11.5299997      -3.72718298E-03
  -11.5200005      -3.77599103E-03
  -11.5100002      -3.82510317E-03
  -11.5000000      -3.87453428E-03
  -11.4899998      -3.92430602E-03
  -11.4799995      -3.97444330E-03
  -11.4700003      -4.02496941E-03
  -11.4600000      -4.07590158E-03
  -11.4499998      -4.12724726E-03
  -11.4399996      -4.17901156E-03
  -11.4300003      -4.23119217E-03
  -11.4200001      -4.28378629E-03
  -11.4099998      -4.33679391E-03
  -11.3999996      -4.39022016E-03
  -11.3900003      -4.44407621E-03
  -11.3800001      -4.49837372E-03
  -11.3699999      -4.55313642E-03
  -11.3599997      -4.60837455E-03
  -11.3500004      -4.66410769E-03
  -11.3400002      -4.72034700E-03
  -11.3299999      -4.77710133E-03
  -11.3199997      -4.83438140E-03
  -11.3100004      -4.89219790E-03
  -11.3000002      -4.95056435E-03
  -11.2900000      -5.00950729E-03
  -11.2799997      -5.06906305E-03
  -11.2700005      -5.12926467E-03
  -11.2600002      -5.19016106E-03
  -11.2500000      -5.25179273E-03
  -11.2399998      -5.31420344E-03
  -11.2299995      -5.37741603E-03
  -11.2200003      -5.44144912E-03
  -11.2100000      -5.50630223E-03
  -11.1999998      -5.57195907E-03
  -11.1899996      -5.63839683E-03
  -11.1800003      -5.70558850E-03
  -11.1700001      -5.77350240E-03
  -11.1599998      -5.84211946E-03
  -11.1499996      -5.91141684E-03
  -11.1400003      -5.98139316E-03
  -11.1300001      -6.05204795E-03
  -11.1199999      -6.12338539E-03
  -11.1099997      -6.19541248E-03
  -11.1000004      -6.26813294E-03
  -11.0900002      -6.34153374E-03
  -11.0799999      -6.41561626E-03
  -11.0699997      -6.49035163E-03
  -11.0600004      -6.56574359E-03
  -11.0500002      -6.64177211E-03
  -11.0400000      -6.71844184E-03
  -11.0299997      -6.79575698E-03
  -11.0200005      -6.87374175E-03
  -11.0100002      -6.95242640E-03
  -11.0000000      -7.03183841E-03
  -10.9899998      -7.11199502E-03
  -10.9799995      -7.19290506E-03
  -10.9700003      -7.27456389E-03
  -10.9600000      -7.35695846E-03
  -10.9499998      -7.44005851E-03
  -10.9399996      -7.52384402E-03
  -10.9300003      -7.60829821E-03
  -10.9200001      -7.69341690E-03
  -10.9099998      -7.77920708E-03
  -10.8999996      -7.86570460E-03
  -10.8900003      -7.95293599E-03
  -10.8800001      -8.04093666E-03
  -10.8699999      -8.12974293E-03
  -10.8599997      -8.21937341E-03
  -10.8500004      -8.30983743E-03
  -10.8400002      -8.40114243E-03
  -10.8299999      -8.49329773E-03
  -10.8199997      -8.58631264E-03
  -10.8100004      -8.68021976E-03
  -10.8000002      -8.77505820E-03
  -10.7900000      -8.87087733E-03
  -10.7799997      -8.96774884E-03
  -10.7700005      -9.06571746E-03
  -10.7600002      -9.16482694E-03
  -10.7500000      -9.26510245E-03
  -10.7399998      -9.36655607E-03
  -10.7299995      -9.46917105E-03
  -10.7200003      -9.57292970E-03
  -10.7100000      -9.67783947E-03
  -10.6999998      -9.78389569E-03
  -10.6899996      -9.89112537E-03
  -10.6800003      -9.99957323E-03
  -10.6700001      -1.01092812E-02
  -10.6599998      -1.02203144E-02
  -10.6499996      -1.03327166E-02
  -10.6400003      -1.04465233E-02
  -10.6300001      -1.05617670E-02
  -10.6199999      -1.06784524E-02
  -10.6099997      -1.07965851E-02
  -10.6000004      -1.09161660E-02
  -10.5900002      -1.10372109E-02
  -10.5799999      -1.11597506E-02
  -10.5699997      -1.12838186E-02
  -10.5600004      -1.14094615E-02
  -10.5500002      -1.15367258E-02
  -10.5400000      -1.16656460E-02
  -10.5299997      -1.17962509E-02
  -10.5200005      -1.19285369E-02
  -10.5100002      -1.20624946E-02
  -10.5000000      -1.21981148E-02
  -10.4899998      -1.23353647E-02
  -10.4799995      -1.24742184E-02
  -10.4700003      -1.26146805E-02
  -10.4600000      -1.27567565E-02
  -10.4499998      -1.29004661E-02
  -10.4399996      -1.30458632E-02
  -10.4300003      -1.31929750E-02
  -10.4200001      -1.33418292E-02
  -10.4099998      -1.34924706E-02
  -10.3999996      -1.36448946E-02
  -10.3900003      -1.37991151E-02
  -10.3800001      -1.39551228E-02
  -10.3699999      -1.41128981E-02
  -10.3599997      -1.42724542E-02
  -10.3500004      -1.44337881E-02
  -10.3400002      -1.45969065E-02
  -10.3299999      -1.47618195E-02
  -10.3199997      -1.49285616E-02
  -10.3100004      -1.50971292E-02
  -10.3000002      -1.52675118E-02
  -10.2900000      -1.54396985E-02
  -10.2799997      -1.56136490E-02
  -10.2700005      -1.57893300E-02
  -10.2600002      -1.59666929E-02
  -10.2500000      -1.61457118E-02
  -10.2399998      -1.63263790E-02
  -10.2299995      -1.65086910E-02
  -10.2200003      -1.66926607E-02
  -10.2100000      -1.68783218E-02
  -10.1999998      -1.70657281E-02
  -10.1899996      -1.72549207E-02
  -10.1800003      -1.74459238E-02
  -10.1700001      -1.76387969E-02
  -10.1599998      -1.78335495E-02
  -10.1499996      -1.80302151E-02
  -10.1400003      -1.82288028E-02
  -10.1300001      -1.84293445E-02
  -10.1199999      -1.86318755E-02
  -10.1099997      -1.88364424E-02
  -10.1000004      -1.90430880E-02
  -10.0900002      -1.92518570E-02
  -10.0799999      -1.94628108E-02
  -10.0699997      -1.96759775E-02
  -10.0600004      -1.98914073E-02
  -10.0500002      -2.01091021E-02
  -10.0400000      -2.03291066E-02
  -10.0299997      -2.05514133E-02
  -10.0200005      -2.07760502E-02
  -10.0100002      -2.10030470E-02
  -10.0000000      -2.12324373E-02
  -9.98999977      -2.14642677E-02
  -9.97999954      -2.16985941E-02
  -9.97000027      -2.19354834E-02
  -9.96000004      -2.21749842E-02
  -9.94999981      -2.24171653E-02
  -9.93999958      -2.26620343E-02
  -9.93000031      -2.29096487E-02
  -9.92000008      -2.31600124E-02
  -9.90999985      -2.34131441E-02
  -9.89999962      -2.36690603E-02
  -9.89000034      -2.39277501E-02
  -9.88000011      -2.41892524E-02
  -9.86999989      -2.44535748E-02
  -9.85999966      -2.47207545E-02
  -9.85000038      -2.49908045E-02
  -9.84000015      -2.52637453E-02
  -9.82999992      -2.55395807E-02
  -9.81999969      -2.58183070E-02
  -9.81000042      -2.60999408E-02
  -9.80000019      -2.63844319E-02
  -9.78999996      -2.66718157E-02
  -9.77999973      -2.69620940E-02
  -9.77000046      -2.72552539E-02
  -9.76000023      -2.75513530E-02
  -9.75000000      -2.78504305E-02
  -9.73999977      -2.81525347E-02
  -9.72999954      -2.84577087E-02
  -9.72000027      -2.87660062E-02
  -9.71000004      -2.90774498E-02
  -9.69999981      -2.93920729E-02
  -9.68999958      -2.97098756E-02
  -9.68000031      -3.00308987E-02
  -9.67000008      -3.03551294E-02
  -9.65999985      -3.06825954E-02
  -9.64999962      -3.10133453E-02
  -9.64000034      -3.13473940E-02
  -9.63000011      -3.16847898E-02
  -9.61999989      -3.20255794E-02
  -9.60999966      -3.23698111E-02
  -9.60000038      -3.27175260E-02
  -9.59000015      -3.30687575E-02
  -9.57999992      -3.34235094E-02
  -9.56999969      -3.37818190E-02
  -9.56000042      -3.41437124E-02
  -9.55000019      -3.45092192E-02
  -9.53999996      -3.48783545E-02
  -9.52999973      -3.52511667E-02
  -9.52000046      -3.56277153E-02
  -9.51000023      -3.60080525E-02
  -9.50000000      -3.63922454E-02
  -9.48999977      -3.67803387E-02
  -9.47999954      -3.71723883E-02
  -9.47000027      -3.75684462E-02
  -9.46000004      -3.79684977E-02
  -9.44999981      -3.83725688E-02
  -9.43999958      -3.87806930E-02
  -9.43000031      -3.91928665E-02
  -9.42000008      -3.96091305E-02
  -9.40999985      -4.00294997E-02
  -9.39999962      -4.04540338E-02
  -9.39000034      -4.08827439E-02
  -9.38000011      -4.13157083E-02
  -9.36999989      -4.17529419E-02
  -9.35999966      -4.21944372E-02
  -9.35000038      -4.26402688E-02
  -9.34000015      -4.30904031E-02
  -9.32999992      -4.35448885E-02
  -9.31999969      -4.40037251E-02
  -9.31000042      -4.44669500E-02
  -9.30000019      -4.49346080E-02
  -9.28999996      -4.54067402E-02
  -9.27999973      -4.58834097E-02
  -9.27000046      -4.63647060E-02
  -9.26000023      -4.68506888E-02
  -9.25000000      -4.73413877E-02
  -9.23999977      -4.78368811E-02
  -9.22999954      -4.83371951E-02
  -9.22000027      -4.88423519E-02
  -9.21000004      -4.93523777E-02
  -9.19999981      -4.98672724E-02
  -9.18999958      -5.03870770E-02
  -9.18000031      -5.09117991E-02
  -9.17000008      -5.14414869E-02
  -9.15999985      -5.19761555E-02
  -9.14999962      -5.25158457E-02
  -9.14000034      -5.30605875E-02
  -9.13000011      -5.36104329E-02
  -9.11999989      -5.41653708E-02
  -9.10999966      -5.47254309E-02
  -9.10000038      -5.52905872E-02
  -9.09000015      -5.58608994E-02
  -9.07999992      -5.64363934E-02
  -9.06999969      -5.70170954E-02
  -9.06000042      -5.76030798E-02
  -9.05000019      -5.81943952E-02
  -9.03999996      -5.87910488E-02
  -9.02999973      -5.93931600E-02
  -9.02000046      -6.00007959E-02
  -9.01000023      -6.06139228E-02
  -9.00000000      -6.12326972E-02
  -8.98999977      -6.18570969E-02
  -8.97999954      -6.24871291E-02
  -8.97000027      -6.31227791E-02
  -8.96000004      -6.37641922E-02
  -8.94999981      -6.44112825E-02
  -8.93999958      -6.50641546E-02
  -8.93000031      -6.57228902E-02
  -8.92000008      -6.63874894E-02
  -8.90999985      -6.70581236E-02
  -8.89999962      -6.77347928E-02
  -8.89000034      -6.84175566E-02
  -8.88000011      -6.91064671E-02
  -8.86999989      -6.98015168E-02
  -8.85999966      -7.05028623E-02
  -8.85000038      -7.12104887E-02
  -8.84000015      -7.19245002E-02
  -8.82999992      -7.26449490E-02
  -8.81999969      -7.33719692E-02
  -8.81000042      -7.41055831E-02
  -8.80000019      -7.48459175E-02
  -8.78999996      -7.55930170E-02
  -8.77999973      -7.63470158E-02
  -8.77000046      -7.71078840E-02
  -8.76000023      -7.78757110E-02
  -8.75000000      -7.86505118E-02
  -8.73999977      -7.94323459E-02
  -8.72999954      -8.02213028E-02
  -8.72000027      -8.10174346E-02
  -8.71000004      -8.18207934E-02
  -8.69999981      -8.26314464E-02
  -8.68999958      -8.34495500E-02
  -8.68000031      -8.42751637E-02
  -8.67000008      -8.51083100E-02
  -8.65999985      -8.59491378E-02
  -8.64999962      -8.67976546E-02
  -8.64000034      -8.76539648E-02
  -8.63000011      -8.85181203E-02
  -8.61999989      -8.93901959E-02
  -8.60999966      -9.02702436E-02
  -8.60000038      -9.11584646E-02
  -8.59000015      -9.20548439E-02
  -8.57999992      -9.29595381E-02
  -8.56999969      -9.38726366E-02
  -8.56000042      -9.47941467E-02
  -8.55000019      -9.57240909E-02
  -8.53999996      -9.66626108E-02
  -8.52999973      -9.76096988E-02
  -8.52000046      -9.85654965E-02
  -8.51000023      -9.95299667E-02
  -8.50000000     -0.100503176    
  -8.48999977     -0.101485260    
  -8.47999954     -0.102476217    
  -8.47000027     -0.103476174    
  -8.46000004     -0.104485139    
  -8.44999981     -0.105503179    
  -8.43999958     -0.106530480    
  -8.43000031     -0.107566930    
  -8.42000008     -0.108612806    
  -8.40999985     -0.109668002    
  -8.39999962     -0.110732675    
  -8.39000034     -0.111806870    
  -8.38000011     -0.112890631    
  -8.36999989     -0.113984130    
  -8.35999966     -0.115087338    
  -8.35000038     -0.116200395    
  -8.34000015     -0.117323287    
  -8.32999992     -0.118456170    
  -8.31999969     -0.119599111    
  -8.31000042     -0.120752163    
  -8.30000019     -0.121915311    
  -8.28999996     -0.123088680    
  -8.27999973     -0.124272346    
  -8.27000046     -0.125466481    
  -8.26000023     -0.126671076    
  -8.25000000     -0.127886221    
  -8.23999977     -0.129112020    
  -8.22999954     -0.130348489    
  -8.22000027     -0.131595790    
  -8.21000004     -0.132854030    
  -8.19999981     -0.134123206    
  -8.18999958     -0.135403574    
  -8.18000031     -0.136695042    
  -8.17000008     -0.137997806    
  -8.15999985     -0.139311984    
  -8.14999962     -0.140637696    
  -8.14000034     -0.141974866    
  -8.13000011     -0.143323720    
  -8.11999989     -0.144684300    
  -8.10999966     -0.146056622    
  -8.10000038     -0.147440866    
  -8.09000015     -0.148837104    
  -8.07999992     -0.150245354    
  -8.06999969     -0.151665732    
  -8.06000042     -0.153098360    
  -8.05000019     -0.154543281    
  -8.03999996     -0.156000540    
  -8.02999973     -0.157470316    
  -8.02000046     -0.158952639    
  -8.01000023     -0.160447508    
  -8.00000000     -0.161955148    
  -7.98999977     -0.163475499    
  -7.98000002     -0.165008754    
  -7.96999979     -0.166554958    
  -7.96000004     -0.168114200    
  -7.94999981     -0.169686556    
  -7.94000006     -0.171272218    
  -7.92999983     -0.172871187    
  -7.92000008     -0.174483582    
  -7.90999985     -0.176109478    
  -7.90000010     -0.177748919    
  -7.88999987     -0.179401919    
  -7.88000011     -0.181068763    
  -7.86999989     -0.182749242    
  -7.86000013     -0.184443712    
  -7.84999990     -0.186152190    
  -7.84000015     -0.187874764    
  -7.82999992     -0.189611554    
  -7.82000017     -0.191362694    
  -7.80999994     -0.193128183    
  -7.80000019     -0.194908202    
  -7.78999996     -0.196702659    
  -7.78000021     -0.198511958    
  -7.76999998     -0.200336069    
  -7.76000023     -0.202175051    
  -7.75000000     -0.204029188    
  -7.73999977     -0.205898389    
  -7.73000002     -0.207782939    
  -7.71999979     -0.209682956    
  -7.71000004     -0.211598471    
  -7.69999981     -0.213529497    
  -7.69000006     -0.215476230    
  -7.67999983     -0.217438877    
  -7.67000008     -0.219417542    
  -7.65999985     -0.221412122    
  -7.65000010     -0.223422885    
  -7.63999987     -0.225449979    
  -7.63000011     -0.227493316    
  -7.61999989     -0.229553416    
  -7.61000013     -0.231630161    
  -7.59999990     -0.233723715    
  -7.59000015     -0.235834152    
  -7.57999992     -0.237961501    
  -7.57000017     -0.240105927    
  -7.55999994     -0.242267638    
  -7.55000019     -0.244446814    
  -7.53999996     -0.246643469    
  -7.53000021     -0.248857826    
  -7.51999998     -0.251089990    
  -7.51000023     -0.253340125    
  -7.50000000     -0.255608290    
  -7.48999977     -0.257894546    
  -7.48000002     -0.260199010    
  -7.46999979     -0.262521863    
  -7.46000004     -0.264863282    
  -7.44999981     -0.267223299    
  -7.44000006     -0.269602269    