  -16.0000000       0.00000000    
  -15.9899998       0.00000000    
  -15.9799995       0.00000000    
  -15.9700003       0.00000000    
  -15.9600000       0.00000000    
  -15.9499998       0.00000000    
  -15.9399996       0.00000000    
  -15.9300003       0.00000000    
  -15.9200001       0.00000000    
  -15.9099998       2.06819295E-36
  -15.8999996      -1.40401918E-34
  -15.8900003      -2.66609117E-33
  -15.8800001      -2.38149454E-32
  -15.8699999      -1.41050565E-31
  -15.8599997      -6.25998279E-31
  -15.8500004      -2.20979377E-30
  -15.8400002      -6.39694321E-30
  -15.8299999      -1.53478426E-29
  -15.8199997      -3.01562051E-29
  -15.8100004      -4.57264760E-29
  -15.8000002      -4.09749871E-29
  -15.7900000       3.36316389E-29
  -15.7799997       2.62036587E-28
  -15.7700005       7.43562840E-28
  -15.7600002       1.52580172E-27
  -15.7500000       2.47871286E-27
  -15.7399998       3.14084449E-27
  -15.7299995       2.63926647E-27
  -15.7200003      -1.43785560E-28
  -15.7100000      -5.97717674E-27
  -15.6999998      -1.42210621E-26
  -15.6899996      -2.16053071E-26
  -15.6800003      -2.16365241E-26
  -15.6700001      -5.81215921E-27
  -15.6599998       3.23022887E-26
  -15.6499996       9.01367939E-26
  -15.6400003       1.48448042E-25
  -15.6300001       1.67678351E-25
  -15.6199999       9.48112940E-26
  -15.6099997      -1.14074205E-25
  -15.6000004      -4.56325465E-25
  -15.5900002      -8.41724644E-25
  -15.5799999      -1.07143049E-24
  -15.5699997      -8.66959022E-25
  -15.5600004       2.79605770E-26
  -15.5500002       1.67705222E-24
  -15.5400000       3.76211631E-24
  -15.5299997       5.47203346E-24
  -15.5200005       5.59143190E-24
  -15.5100002       2.87904964E-24
  -15.5000000      -3.27901493E-24
  -15.4899998      -1.21212399E-23
  -15.4799995      -2.10162422E-23
  -15.4700003      -2.56473448E-23
  -15.4600000      -2.11871678E-23
  -15.4499998      -4.41874638E-24
  -15.4399996       2.37758622E-23
  -15.4300003       5.66586029E-23
  -15.4200001       8.19148241E-23
  -15.4099998       8.48772051E-23
  -15.3999996       5.44975974E-23
  -15.3900003      -9.70858216E-24
  -15.3800001      -9.29410927E-23
  -15.3699999      -1.66200863E-22
  -15.3599997      -1.95351167E-22
  -15.3500004      -1.56955893E-22
  -15.3400002      -5.52456773E-23
  -15.3299999       6.90230320E-23
  -15.3199997       1.47252942E-22
  -15.3100004       1.13544511E-22
  -15.3000002      -4.90836828E-23
  -15.2900000      -2.65792028E-22
  -15.2799997      -3.58625053E-22
  -15.2700005      -9.35745354E-23
  -15.2600002       7.04694773E-22
  -15.2500000       1.99408063E-21
  -15.2399998       3.37481148E-21
  -15.2299995       4.05818928E-21
  -15.2200003       3.03037072E-21
  -15.2100000      -5.54181526E-22
  -15.1999998      -6.81299395E-21
  -15.1899996      -1.45927746E-20
  -15.1800003      -2.12207515E-20
  -15.1700001      -2.28369720E-20
  -15.1599998      -1.54728835E-20
  -15.1499996       3.21805106E-21
  -15.1400003       3.20164198E-20
  -15.1300001       6.47296682E-20
  -15.1199999       9.01975124E-20
  -15.1099997       9.43866975E-20
  -15.1000004       6.46733618E-20
  -15.0900002      -4.45662255E-21
  -15.0799999      -1.05972758E-19
  -15.0699997      -2.17408475E-19
  -15.0600004      -3.02698422E-19
  -15.0500002      -3.19929499E-19
  -15.0400000      -2.34347738E-19
  -15.0299997      -3.37107119E-20
  -15.0200005       2.58852111E-19
  -15.0100002       5.80048566E-19
  -15.0000000       8.34168841E-19
  -14.9899998       9.14717725E-19
  -14.9799995       7.36697238E-19
  -14.9700003       2.71558665E-19
  -14.9600000      -4.26409150E-19
  -14.9499998      -1.21362719E-18
  -14.9399996      -1.87823476E-18
  -14.9300003      -2.18866076E-18
  -14.9200001      -1.96057253E-18
  -14.9099998      -1.12472751E-18
  -14.8999996       2.25923240E-19
  -14.8900003       1.82928470E-18
  -14.8800001       3.29755448E-18
  -14.8699999       4.20688260E-18
  -14.8599997       4.21356746E-18
  -14.8500004       3.16528230E-18
  -14.8400002       1.17246834E-18
  -14.8299999      -1.38750490E-18
  -14.8199997      -3.94352319E-18
  -14.8100004      -5.86838612E-18
  -14.8000002      -6.64656621E-18
  -14.7900000      -6.02454872E-18
  -14.7799997      -4.09697925E-18
  -14.7700005      -1.29727418E-18
  -14.7600002       1.71165434E-18
  -14.7500000       4.22060057E-18
  -14.7399998       5.68061860E-18
  -14.7299995       5.87149342E-18
  -14.7200003       4.97796920E-18
  -14.7100000       3.54377699E-18
  -14.6999998       2.30685163E-18
  -14.6899996       1.95380123E-18
  -14.6800003       2.85674972E-18
  -14.6700001       4.86504168E-18
  -14.6599998       7.21680756E-18
  -14.6499996       8.61312566E-18
  -14.6400003       7.46644406E-18
  -14.6300001       2.30118296E-18
  -14.6199999      -7.74922237E-18
  -14.6099997      -2.24347413E-17
  -14.6000004      -3.99831282E-17
  -14.5900002      -5.69264506E-17
  -14.5799999      -6.82922497E-17
  -14.5699997      -6.82627161E-17
  -14.5600004      -5.13358909E-17
  -14.5500002      -1.39051691E-17
  -14.5400000       4.39804255E-17
  -14.5299997       1.17073837E-16
  -14.5200005       1.94117055E-16
  -14.5100002       2.58280569E-16
  -14.5000000       2.89231576E-16
  -14.4899998       2.66893544E-16
  -14.4799995       1.76507942E-16
  -14.4700003       1.41085513E-17
  -14.4600000      -2.08881647E-16
  -14.4499998      -4.63391238E-16
  -14.4399996      -7.04038380E-16
  -14.4300003      -8.74739924E-16
  -14.4200001      -9.18336498E-16
  -14.4099998      -7.88907535E-16
  -14.3999996      -4.64501963E-16
  -14.3900003       4.25561595E-17
  -14.3800001       6.80559474E-16
  -14.3699999       1.36053873E-15
  -14.3599997       1.96627836E-15
  -14.3500004       2.37123994E-15
  -14.3400002       2.45980231E-15
  -14.3299999       2.14909623E-15
  -14.3199997       1.40740623E-15
  -14.3100004       2.65661481E-16
  -14.3000002      -1.18012982E-15
  -14.2900000      -2.77586800E-15
  -14.2799997      -4.32443820E-15
  -14.2700005      -5.60626417E-15
  -14.2600002      -6.40229811E-15
  -14.2500000      -6.51672548E-15
  -14.2399998      -5.79764322E-15
  -14.2299995      -4.15515062E-15
  -14.2200003      -1.57715047E-15
  -14.2100000       1.85655773E-15
  -14.1999998       5.96186088E-15
  -14.1899996       1.04408390E-14
  -14.1800003       1.48777814E-14
  -14.1700001       1.87447443E-14
  -14.1599998       2.14210346E-14
  -14.1499996       2.22305457E-14
  -14.1400003       2.04993984E-14
  -14.1300001       1.56339006E-14
  -14.1199999       7.21622350E-15
  -14.1099997      -4.88739281E-15
  -14.1000004      -2.04131620E-14
  -14.0900002      -3.85896115E-14
  -14.0799999      -5.80400121E-14
  -14.0699997      -7.67074121E-14
  -14.0600004      -9.18111073E-14
  -14.0500002      -9.98447540E-14
  -14.0400000      -9.66221528E-14
  -14.0299997      -7.73793600E-14
  -14.0200005      -3.69338891E-14
  -14.0100002       3.00987974E-14
  -14.0000000       1.29040550E-13
  -13.9899998       2.64846305E-13
  -13.9799995       4.41780835E-13
  -13.9700003       6.63099241E-13
  -13.9600000       9.30746365E-13
  -13.9499998       1.24509897E-12
  -13.9399996       1.60476634E-12
  -13.9300003       2.00645707E-12
  -13.9200001       2.44491471E-12
  -13.9099998       2.91292598E-12
  -13.8999996       3.40138855E-12
  -13.8900003       3.89945064E-12
  -13.8800001       4.39470899E-12
  -13.8699999       4.87345364E-12
  -13.8599997       5.32098888E-12
  -13.8500004       5.72199840E-12
  -13.8400002       6.06092954E-12
  -13.8299999       6.32245818E-12
  -13.8199997       6.49189339E-12
  -13.8100004       6.55561369E-12
  -13.8000002       6.50142353E-12
  -13.7900000       6.31887901E-12
  -13.7799997       5.99951382E-12
  -13.7700005       5.53699794E-12
  -13.7600002       4.92723570E-12
  -13.7500000       4.16842472E-12
  -13.7399998       3.26104269E-12
  -13.7299995       2.20782919E-12
  -13.7200003       1.01375700E-12
  -13.7100000      -3.14028399E-13
  -13.6999998      -1.76627192E-12
  -13.6899996      -3.33177648E-12
  -13.6800003      -4.99751629E-12
  -13.6700001      -6.74885928E-12
  -13.6599998      -8.56978724E-12
  -13.6499996      -1.04431255E-11
  -13.6400003      -1.23507558E-11
  -13.6300001      -1.42738373E-11
  -13.6199999      -1.61929237E-11
  -13.6099997      -1.80881230E-11
  -13.6000004      -1.99391233E-11
  -13.5900002      -2.17253091E-11
  -13.5799999      -2.34257856E-11
  -13.5699997      -2.50194986E-11
  -13.5600004      -2.64853070E-11
  -13.5500002      -2.78021686E-11
  -13.5400000      -2.89492440E-11
  -13.5299997      -2.99061088E-11
  -13.5200005      -3.06529281E-11
  -13.5100002      -3.11704933E-11
  -13.5000000      -3.14405828E-11
  -13.4899998      -3.14458910E-11
  -13.4799995      -3.11703129E-11
  -13.4700003      -3.05990025E-11
  -13.4600000      -2.97186130E-11
  -13.4499998      -2.85173760E-11
  -13.4399996      -2.69853740E-11
  -13.4300003      -2.51146760E-11
  -13.4200001      -2.28996544E-11
  -13.4099998      -2.03371868E-11
  -13.3999996      -1.74269627E-11
  -13.3900003      -1.41718078E-11
  -13.3800001      -1.05782483E-11
  -13.3699999      -6.65655595E-12
  -13.3599997      -2.42135240E-12
  -13.3500004       2.10824023E-12
  -13.3400002       6.90854058E-12
  -13.3299999       1.19513878E-11
  -13.3199997       1.72044913E-11
  -13.3100004       2.26319432E-11
  -13.3000002       2.81948891E-11
  -13.2900000       3.38524660E-11
  -13.2799997       3.95624991E-11
  -13.2700005       4.52823577E-11
  -13.2600002       5.09695654E-11
  -13.2500000       5.65822493E-11
  -13.2399998       6.20794458E-11
  -13.2299995       6.74212144E-11
  -13.2200003       7.25684235E-11
  -13.2100000       7.74826800E-11
  -13.1999998       8.21258894E-11
  -13.1899996       8.64599781E-11
  -13.1800003       9.04465808E-11
  -13.1700001       9.40466247E-11
  -13.1599998       9.72201625E-11
  -13.1499996       9.99260188E-11
  -13.1400003       1.02122061E-10
  -13.1300001       1.03765010E-10
  -13.1199999       1.04810813E-10
  -13.1099997       1.05214885E-10
  -13.1000004       1.04932757E-10
  -13.0900002       1.03920476E-10
  -13.0799999       1.02135293E-10
  -13.0699997       9.95365249E-11
  -13.0600004       9.60856464E-11
  -13.0500002       9.17478107E-11
  -13.0400000       8.64915639E-11
  -13.0299997       8.02901357E-11
  -13.0200005       7.31218766E-11
  -13.0100002       6.49704873E-11
  -13.0000000       5.58259480E-11
  -12.9899998       4.56838664E-11
  -12.9799995       3.45463970E-11
  -12.9700003       2.24211830E-11
  -12.9600000       9.32138134E-12
  -12.9499998      -4.73548501E-12
  -12.9399996      -1.97280248E-11
  -12.9300003      -3.56317927E-11
  -12.9200001      -5.24207622E-11
  -12.9099998      -7.00677710E-11
  -12.8999996      -8.85451712E-11
  -12.8900003      -1.07825728E-10
  -12.8800001      -1.27882774E-10
  -12.8699999      -1.48690463E-10
  -12.8599997      -1.70224126E-10
  -12.8500004      -1.92460409E-10
  -12.8400002      -2.15377258E-10
  -12.8299999      -2.38954023E-10
  -12.8199997      -2.63171374E-10
  -12.8100004      -2.88012059E-10
  -12.8000002      -3.13459925E-10
  -12.7900000      -3.39500206E-10
  -12.7799997      -3.66119635E-10
  -12.7700005      -3.93305694E-10
  -12.7600002      -4.21046059E-10
  -12.7500000      -4.49328352E-10
  -12.7399998      -4.78139084E-10
  -12.7299995      -5.07463016E-10
  -12.7200003      -5.37281886E-10
  -12.7100000      -5.67573932E-10
  -12.6999998      -5.98312677E-10
  -12.6899996      -6.29466979E-10
  -12.6800003      -6.61000088E-10
  -12.6700001      -6.92868429E-10
  -12.6599998      -7.25023652E-10
  -12.6499996      -7.57411356E-10
  -12.6400003      -7.89971644E-10
  -12.6300001      -8.22640456E-10
  -12.6199999      -8.55350346E-10
  -12.6099997      -8.88030649E-10
  -12.6000004      -9.20610144E-10
  -12.5900002      -9.53016666E-10
  -12.5799999      -9.85179938E-10
  -12.5699997      -1.01703246E-09
  -12.5600004      -1.04850773E-09
  -12.5500002      -1.07954523E-09
  -12.5400000      -1.11009013E-09
  -12.5299997      -1.14009369E-09
  -12.5200005      -1.16951338E-09
  -12.5100002      -1.19831689E-09
  -12.5000000      -1.22648103E-09
  -12.4899998      -1.25398703E-09
  -12.4799995      -1.28083233E-09
  -12.4700003      -1.30701860E-09
  -12.4600000      -1.33255906E-09
  -12.4499998      -1.35747269E-09
  -12.4399996      -1.38179046E-09
  -12.4300003      -1.40554168E-09
  -12.4200001      -1.42877110E-09
  -12.4099998      -1.45151657E-09
  -12.3999996      -1.47382395E-09
  -12.3900003      -1.49574197E-09
  -12.3800001      -1.51731250E-09
  -12.3699999      -1.53858226E-09
  -12.3599997      -1.55959456E-09
  -12.3500004      -1.58039315E-09
  -12.3400002      -1.60101277E-09
  -12.3299999      -1.62149183E-09
  -12.3199997      -1.64185887E-09
  -12.3100004      -1.66214209E-09
  -12.3000002      -1.68236824E-09
  -12.2900000      -1.70254910E-09
  -12.2799997      -1.72270498E-09
  -12.2700005      -1.74283288E-09
  -12.2600002      -1.76294646E-09
  -12.2500000      -1.78302739E-09
  -12.2399998      -1.80307203E-09
  -12.2299995      -1.82305127E-09
  -12.2200003      -1.84293059E-09
  -12.2100000      -1.86267268E-09
  -12.1999998      -1.88222149E-09
  -12.1899996      -1.90151805E-09
  -12.1800003      -1.92048533E-09
  -12.1700001      -1.93903960E-09
  -12.1599998      -1.95708094E-09
  -12.1499996      -1.97451633E-09
  -12.1400003      -1.99122163E-09
  -12.1300001      -2.00706518E-09
  -12.1199999      -2.02193529E-09
  -12.1099997      -2.03568251E-09
  -12.1000004      -2.04818429E-09
  -12.0900002      -2.05928230E-09
  -12.0799999      -2.06884332E-09
  -12.0699997      -2.07673567E-09
  -12.0600004      -2.08283635E-09
  -12.0500002      -2.08700479E-09
  -12.0400000      -2.08913509E-09
  -12.0299997      -2.08910134E-09
  -12.0200005      -2.08682760E-09
  -12.0100002      -2.08222284E-09
  -12.0000000      -2.07520556E-09
  -11.9899998      -2.06572492E-09
  -11.9799995      -2.05374051E-09
  -11.9700003      -2.03921147E-09
  -11.9600000      -2.02214601E-09
  -11.9499998      -2.00252770E-09
  -11.9399996      -1.98039452E-09
  -11.9300003      -1.95578709E-09
  -11.9200001      -1.92876071E-09
  -11.9099998      -1.89941196E-09
  -11.8999996      -1.86783367E-09
  -11.8900003      -1.83413573E-09
  -11.8800001      -1.79846604E-09
  -11.8699999      -1.76098625E-09
  -11.8599997      -1.72186565E-09
  -11.8500004      -1.68128655E-09
  -11.8400002      -1.63945257E-09
  -11.8299999      -1.59660951E-09
  -11.8199997      -1.55299240E-09
  -11.8100004      -1.50884671E-09
  -11.8000002      -1.46445067E-09
  -11.7900000      -1.42007861E-09
  -11.7799997      -1.37600620E-09
  -11.7700005      -1.33252909E-09
  -11.7600002      -1.28996402E-09
  -11.7500000      -1.24862598E-09
  -11.7399998      -1.20882893E-09
  -11.7299995      -1.17085797E-09
  -11.7200003      -1.13503817E-09
  -11.7100000      -1.10171772E-09
  -11.6999998      -1.07116926E-09
  -11.6899996      -1.04372289E-09
  -11.6800003      -1.01968478E-09
  -11.6700001      -9.99354821E-10
  -11.6599998      -9.83030990E-10
  -11.6499996      -9.70980407E-10
  -11.6400003      -9.63498281E-10
  -11.6300001      -9.60858282E-10
  -11.6199999      -9.63319757E-10
  -11.6099997      -9.71110192E-10
  -11.6000004      -9.84482385E-10
  -11.5900002      -1.00367092E-09
  -11.5799999      -1.02886177E-09
  -11.5699997      -1.06024889E-09
  -11.5600004      -1.09799470E-09
  -11.5500002      -1.14227172E-09
  -11.5400000      -1.19318444E-09
  -11.5299997      -1.25085164E-09
  -11.5200005      -1.31538314E-09
  -11.5100002      -1.38684320E-09
  -11.5000000      -1.46526047E-09
  -11.4899998      -1.55068502E-09
  -11.4799995      -1.64316938E-09
  -11.4700003      -1.74264780E-09
  -11.4600000      -1.84916138E-09
  -11.4499998      -1.96261718E-09
  -11.4399996      -2.08299067E-09
  -11.4300003      -2.21021002E-09
  -11.4200001      -2.34420305E-09
  -11.4099998      -2.48484544E-09
  -11.3999996      -2.63210254E-09
  -11.3900003      -2.78580470E-09
  -11.3800001      -2.94586200E-09
  -11.3699999      -3.11214854E-09
  -11.3599997      -3.28449867E-09
  -11.3500004      -3.46278339E-09
  -11.3400002      -3.64688768E-09
  -11.3299999      -3.83659682E-09
  -11.3199997      -4.03179579E-09
  -11.3100004      -4.23228785E-09
  -11.3000002      -4.43793935E-09
  -11.2900000      -4.64858596E-09
  -11.2799997      -4.86404916E-09
  -11.2700005      -5.08413134E-09
  -11.2600002      -5.30868105E-09
  -11.2500000      -5.53754553E-09
  -11.2399998      -5.77052273E-09
  -11.2299995      -6.00746519E-09
  -11.2200003      -6.24817265E-09
  -11.2100000      -6.49245058E-09
  -11.1999998      -6.74017597E-09
  -11.1899996      -6.99113656E-09
  -11.1800003      -7.24512983E-09
  -11.1700001      -7.50195461E-09
  -11.1599998      -7.76149545E-09
  -11.1499996      -8.02353028E-09
  -11.1400003      -8.28790014E-09
  -11.1300001      -8.55436255E-09
  -11.1199999      -8.82274609E-09
  -11.1099997      -9.09288911E-09
  -11.1000004      -9.36457756E-09
  -11.0900002      -9.63760716E-09
  -11.0799999      -9.91178695E-09
  -11.0699997      -1.01869286E-08
  -11.0600004      -1.04628102E-08
  -11.0500002      -1.07392442E-08
  -11.0400000      -1.10160139E-08
  -11.0299997      -1.12929452E-08
  -11.0200005      -1.15697176E-08
  -11.0100002      -1.18462751E-08
  -11.0000000      -1.21222659E-08
  -10.9899998      -1.23976012E-08
  -10.9799995      -1.26720012E-08
  -10.9700003      -1.29453559E-08
  -10.9600000      -1.32173419E-08
  -10.9499998      -1.34878331E-08
  -10.9399996      -1.37565914E-08
  -10.9300003      -1.40234251E-08
  -10.9200001      -1.42882017E-08
  -10.9099998      -1.45507153E-08
  -10.8999996      -1.48107562E-08
  -10.8900003      -1.50681760E-08
  -10.8800001      -1.53227475E-08
  -10.8699999      -1.55743294E-08
  -10.8599997      -1.58227884E-08
  -10.8500004      -1.60679665E-08
  -10.8400002      -1.63096843E-08
  -10.8299999      -1.65478760E-08
  -10.8199997      -1.67823728E-08
  -10.8100004      -1.70129226E-08
  -10.8000002      -1.72396977E-08
  -10.7900000      -1.74623995E-08
  -10.7799997      -1.76809500E-08
  -10.7700005      -1.78952870E-08
  -10.7600002      -1.81054318E-08
  -10.7500000      -1.83113009E-08
  -10.7399998      -1.85128339E-08
  -10.7299995      -1.87100628E-08
  -10.7200003      -1.89028722E-08
  -10.7100000      -1.90914413E-08
  -10.6999998      -1.92757046E-08
  -10.6899996      -1.94556762E-08
  -10.6800003      -1.96315710E-08
  -10.6700001      -1.98033554E-08
  -10.6599998      -1.99712584E-08
  -10.6499996      -2.01351895E-08
  -10.6400003      -2.02953618E-08
  -10.6300001      -2.04520187E-08
  -10.6199999      -2.06051336E-08
  -10.6099997      -2.07550404E-08
  -10.6000004      -2.09017799E-08
  -10.5900002      -2.10456346E-08
  -10.5799999      -2.11867128E-08
  -10.5699997      -2.13252136E-08
  -10.5600004      -2.14614655E-08
  -10.5500002      -2.15955929E-08
  -10.5400000      -2.17278266E-08
  -10.5299997      -2.18583036E-08
  -10.5200005      -2.19873453E-08
  -10.5100002      -2.21151808E-08
  -10.5000000      -2.22420340E-08
  -10.4899998      -2.23681962E-08
  -10.4799995      -2.24936709E-08
  -10.4700003      -2.26188988E-08
  -10.4600000      -2.27440324E-08
  -10.4499998      -2.28692993E-08
  -10.4399996      -2.29949713E-08
  -10.4300003      -2.31211459E-08
  -10.4200001      -2.32482549E-08
  -10.4099998      -2.33763267E-08
  -10.3999996      -2.35055104E-08
  -10.3900003      -2.36361135E-08
  -10.3800001      -2.37683508E-08
  -10.3699999      -2.39021620E-08
  -10.3599997      -2.40381279E-08
  -10.3500004      -2.41760993E-08
  -10.3400002      -2.43164120E-08
  -10.3299999      -2.44590002E-08
  -10.3199997      -2.46042067E-08
  -10.3100004      -2.47519747E-08
  -10.3000002      -2.49026435E-08
  -10.2900000      -2.50560976E-08
  -10.2799997      -2.52127119E-08
  -10.2700005      -2.53724846E-08
  -10.2600002      -2.55353232E-08
  -10.2500000      -2.57016364E-08
  -10.2399998      -2.58713655E-08
  -10.2299995      -2.60444608E-08
  -10.2200003      -2.62210911E-08
  -10.2100000      -2.64010751E-08
  -10.1999998      -2.65849653E-08
  -10.1899996      -2.67723053E-08
  -10.1800003      -2.69632849E-08
  -10.1700001      -2.71580660E-08
  -10.1599998      -2.73567107E-08
  -10.1499996      -2.75589027E-08
  -10.1400003      -2.77651129E-08
  -10.1300001      -2.79750072E-08
  -10.1199999      -2.81889516E-08
  -10.1099997      -2.84065997E-08
  -10.1000004      -2.86280173E-08
  -10.0900002      -2.88534210E-08
  -10.0799999      -2.90827273E-08
  -10.0699997      -2.93157267E-08
  -10.0600004      -2.95529379E-08
  -10.0500002      -2.97940428E-08
  -10.0400000      -3.00389864E-08
  -10.0299997      -3.02881666E-08
  -10.0200005      -3.05410701E-08
  -10.0100002      -3.07980699E-08
  -10.0000000      -3.10592831E-08
  -9.98999977      -3.13246424E-08
  -9.97999954      -3.15939808E-08
  -9.97000027      -3.18676463E-08
  -9.96000004      -3.21456390E-08
  -9.94999981      -3.24277138E-08
  -9.93999958      -3.27141834E-08
  -9.93000031      -3.30049410E-08
  -9.92000008      -3.33003705E-08
  -9.90999985      -3.36001449E-08
  -9.89999962      -3.39047723E-08
  -9.89000034      -3.42138584E-08
  -9.88000011      -3.45275453E-08
  -9.86999989      -3.48462201E-08
  -9.85999966      -3.51698652E-08
  -9.85000038      -3.54982461E-08
  -9.84000015      -3.58318140E-08
  -9.82999992      -3.61704302E-08
  -9.81999969      -3.65142547E-08
  -9.81000042      -3.68633550E-08
  -9.80000019      -3.72179798E-08
  -9.78999996      -3.75780367E-08
  -9.77999973      -3.79437708E-08
  -9.77000046      -3.83152567E-08
  -9.76000023      -3.86926580E-08
  -9.75000000      -3.90755979E-08
  -9.73999977      -3.94648119E-08
  -9.72999954      -3.98602502E-08
  -9.72000027      -4.02620550E-08
  -9.71000004      -4.06701446E-08
  -9.69999981      -4.10849843E-08
  -9.68999958      -4.15063859E-08
  -9.68000031      -4.19344666E-08
  -9.67000008      -4.23693294E-08
  -9.65999985      -4.28110596E-08
  -9.64999962      -4.32600089E-08
  -9.64000034      -4.37161312E-08
  -9.63000011      -4.41794654E-08
  -9.61999989      -4.46507968E-08
  -9.60999966      -4.51291875E-08
  -9.60000038      -4.56150175E-08
  -9.59000015      -4.61089726E-08
  -9.57999992      -4.66108716E-08
  -9.56999969      -4.71209063E-08
  -9.56000042      -4.76391335E-08
  -9.55000019      -4.81659654E-08
  -9.53999996      -4.87011178E-08
  -9.52999973      -4.92447754E-08
  -9.52000046      -4.97972330E-08
  -9.51000023      -5.03585262E-08
  -9.50000000      -5.09288292E-08
  -9.48999977      -5.15082021E-08
  -9.47999954      -5.20968406E-08
  -9.47000027      -5.26949542E-08
  -9.46000004      -5.33025890E-08
  -9.44999981      -5.39198055E-08
  -9.43999958      -5.45465433E-08
  -9.43000031      -5.51833033E-08
  -9.42000008      -5.58302560E-08
  -9.40999985      -5.64876323E-08
  -9.39999962      -5.71548213E-08
  -9.39000034      -5.78327111E-08
  -9.38000011      -5.85208539E-08
  -9.36999989      -5.92194667E-08
  -9.35999966      -5.99294907E-08
  -9.35000038      -6.06497821E-08
  -9.34000015      -6.13811864E-08
  -9.32999992      -6.21241085E-08
  -9.31999969      -6.28775751E-08
  -9.31000042      -6.36430286E-08
  -9.30000019      -6.44188063E-08
  -9.28999996      -6.52064500E-08
  -9.27999973      -6.60059740E-08
  -9.27000046      -6.68167317E-08
  -9.26000023      -6.76388936E-08
  -9.25000000      -6.84727226E-08
  -9.23999977      -6.93179985E-08
  -9.22999954      -7.01748775E-08
  -9.22000027      -7.10439707E-08
  -9.21000004      -7.19243687E-08
  -9.19999981      -7.28164480E-08
  -9.18999958      -7.37207344E-08
  -9.18000031      -7.46359134E-08
  -9.17000008      -7.55631078E-08
  -9.15999985      -7.65023387E-08
  -9.14999962      -7.74528388E-08
  -9.14000034      -7.84147716E-08
  -9.13000011      -7.93886414E-08
  -9.11999989      -8.03737379E-08
  -9.10999966      -8.13703807E-08
  -9.10000038      -8.23779303E-08
  -9.09000015      -8.33970475E-08
  -9.07999992      -8.44271000E-08
  -9.06999969      -8.54684927E-08
  -9.06000042      -8.65213181E-08
  -9.05000019      -8.75844748E-08
  -9.03999996      -8.86589433E-08
  -9.02999973      -8.97437573E-08
  -9.02000046      -9.08395918E-08
  -9.01000023      -9.19456511E-08
  -9.00000000      -9.30625674E-08
  -8.98999977      -9.41889269E-08
  -8.97999954      -9.53263566E-08
  -8.97000027      -9.64733715E-08
  -8.96000004      -9.76313643E-08
  -8.94999981      -9.87994753E-08
  -8.93999958      -9.99768659E-08
  -8.93000031      -1.01164645E-07
  -8.92000008      -1.02362023E-07
  -8.90999985      -1.03569270E-07
  -8.89999962      -1.04785954E-07
  -8.89000034      -1.06012649E-07
  -8.88000011      -1.07248681E-07
  -8.86999989      -1.08494170E-07
  -8.85999966      -1.09749642E-07
  -8.85000038      -1.11014906E-07
  -8.84000015      -1.12288625E-07
  -8.82999992      -1.13572831E-07
  -8.81999969      -1.14866019E-07
  -8.81000042      -1.16168664E-07
  -8.80000019      -1.17481548E-07
  -8.78999996      -1.18803932E-07
  -8.77999973      -1.20135041E-07
  -8.77000046      -1.21476830E-07
  -8.76000023      -1.22828411E-07
  -8.75000000      -1.24190009E-07
  -8.73999977      -1.25561698E-07
  -8.72999954      -1.26943291E-07
  -8.72000027      -1.28334420E-07
  -8.71000004      -1.29736577E-07
  -8.69999981      -1.31149832E-07
  -8.68999958      -1.32572964E-07
  -8.68000031      -1.34008147E-07
  -8.67000008      -1.35453107E-07
  -8.65999985      -1.36909208E-07
  -8.64999962      -1.38377061E-07
  -8.64000034      -1.39856454E-07
  -8.63000011      -1.41347726E-07
  -8.61999989      -1.42850922E-07
  -8.60999966      -1.44366183E-07
  -8.60000038      -1.45894916E-07
  -8.59000015      -1.47435387E-07
  -8.57999992      -1.48989258E-07
  -8.56999969      -1.50556076E-07
  -8.56000042      -1.52135129E-07
  -8.55000019      -1.53729431E-07
  -8.53999996      -1.55337077E-07
  -8.52999973      -1.56958677E-07
  -8.52000046      -1.58595626E-07
  -8.51000023      -1.60245662E-07
  -8.50000000      -1.61913462E-07
  -8.48999977      -1.63594891E-07
  -8.47999954      -1.65292718E-07
  -8.47000027      -1.67007528E-07
  -8.46000004      -1.68736989E-07
  -8.44999981      -1.70483602E-07
  -8.43999958      -1.72245805E-07
  -8.43000031      -1.74027761E-07
  -8.42000008      -1.75825491E-07
  -8.40999985      -1.77642107E-07
  -8.39999962      -1.79476302E-07
  -8.39000034      -1.81328730E-07
  -8.38000011      -1.83200299E-07
  -8.36999989      -1.85091068E-07
  -8.35999966      -1.87001490E-07
  -8.35000038      -1.88931622E-07
  -8.34000015      -1.90880371E-07
  -8.32999992      -1.92850948E-07
  -8.31999969      -1.94840339E-07
  -8.31000042      -1.96851587E-07
  -8.30000019      -1.98882020E-07
  -8.28999996      -2.00935943E-07
  -8.27999973      -2.03009975E-07
  -8.27000046      -2.05107227E-07
  -8.26000023      -2.07227998E-07
  -8.25000000      -2.09368963E-07
  -8.23999977      -2.11533191E-07
  -8.22999954      -2.13721265E-07
  -8.22000027      -2.15931820E-07
  -8.21000004      -2.18165553E-07
  -8.19999981      -2.20422365E-07
  -8.18999958      -2.22703690E-07
  -8.18000031      -2.25008577E-07
  -8.17000008      -2.27338589E-07
  -8.15999985      -2.29693384E-07
  -8.14999962      -2.32070477E-07
  -8.14000034      -2.34474328E-07
  -8.13000011      -2.36903290E-07
  -8.11999989      -2.39358741E-07
  -8.10999966      -2.41840070E-07
  -8.10000038      -2.44344591E-07
  -8.09000015      -2.46877477E-07
  -8.07999992      -2.49433072E-07
  -8.06999969      -2.52016378E-07
  -8.06000042      -2.54628276E-07
  -8.05000019      -2.57266038E-07
  -8.03999996      -2.59929891E-07
  -8.02999973      -2.62619693E-07
  -8.02000046      -2.65337064E-07
  -8.01000023      -2.68082886E-07
  -8.00000000      -2.70854400E-07
  -7.98999977      -2.73654024E-07
  -7.98000002      -2.76480847E-07
  -7.96999979      -2.79335922E-07
  -7.96000004      -2.82217968E-07
  -7.94999981      -2.85126703E-07
  -7.94000006      -2.88065223E-07
  -7.92999983      -2.91030659E-07
  -7.92000008      -2.94026506E-07
  -7.90999985      -2.97050150E-07
  -7.90000010      -3.00101277E-07
  -7.88999987      -3.03179092E-07
  -7.88000011      -3.06285301E-07
  -7.86999989      -3.09419079E-07
  -7.86000013      -3.12585513E-07
  -7.84999990      -3.15778493E-07
  -7.84000015      -3.18999838E-07
  -7.82999992      -3.22250912E-07
  -7.82000017      -3.25531602E-07
  -7.80999994      -3.28838865E-07
  -7.80000019      -3.32173897E-07
  -7.78999996      -3.35542126E-07
  -7.78000021      -3.38937127E-07
  -7.76999998      -3.42364245E-07
  -7.76000023      -3.45818847E-07
  -7.75000000      -3.49302411E-07
  -7.73999977      -3.52816414E-07
  -7.73000002      -3.56361141E-07
  -7.71999979      -3.59936706E-07
  -7.71000004      -3.63542597E-07
  -7.69999981      -3.67177449E-07
  -7.69000006      -3.70843253E-07
  -7.67999983      -3.74539837E-07
  -7.67000008      -3.78267060E-07
  -7.65999985      -3.82023984E-07
  -7.65000010      -3.85812655E-07
  -7.63999987      -3.89633612E-07
  -7.63000011      -3.93485635E-07
  -7.61999989      -3.97368126E-07
  -7.61000013      -4.01282932E-07
  -7.59999990      -4.05231305E-07
  -7.59000015      -4.09211907E-07
  -7.57999992      -4.13224740E-07
  -7.57000017      -4.17269234E-07
  -7.55999994      -4.21349966E-07
  -7.55000019      -4.25459461E-07
  -7.53999996      -4.29605876E-07
  -7.53000021      -4.33787108E-07
  -7.51999998      -4.38001507E-07
  -7.51000023      -4.42250212E-07
  -7.50000000      -4.46535154E-07
  -7.48999977      -4.50855708E-07
  -7.48000002      -4.55211620E-07
  -7.46999979      -4.59604394E-07
  -7.46000004      -4.64034088E-07
  -7.44999981      -4.68498570E-07
  -7.44000006      -4.73004633E-07