  -16.0000000       0.00000000    
  -15.9899998       0.00000000    
  -15.9799995       0.00000000    
  -15.9700003       0.00000000    
  -15.9600000       0.00000000    
  -15.9499998       0.00000000    
  -15.9399996       0.00000000    
  -15.9300003       0.00000000    
  -15.9200001       0.00000000    
  -15.9099998       0.00000000    
  -15.8999996       0.00000000    
  -15.8900003       0.00000000    
  -15.8800001       0.00000000    
  -15.8699999      -0.00000000    
  -15.8599997      -4.20389539E-45
  -15.8500004      -5.60519386E-45
  -15.8400002       3.74146690E-43
  -15.8299999       4.97180695E-42
  -15.8199997       3.51641837E-41
  -15.8100004       1.64875376E-40
  -15.8000002       5.14653486E-40
  -15.7900000       7.54705722E-40
  -15.7799997      -2.56131575E-39
  -15.7700005      -2.51423213E-38
  -15.7600002      -1.18306002E-37
  -15.7500000      -4.13885272E-37
  -15.7399998      -1.18209261E-36
  -15.7299995      -2.84268079E-36
  -15.7200003      -5.76556877E-36
  -15.7100000      -9.54921704E-36
  -15.6999998      -1.13572140E-35
  -15.6899996      -3.04717423E-36
  -15.6800003       3.23527183E-35
  -15.6700001       1.22259563E-34
  -15.6599998       2.98303296E-34
  -15.6499996       5.72760036E-34
  -15.6400003       8.88664638E-34
  -15.6300001       1.04694477E-33
  -15.6199999       6.45283767E-34
  -15.6099997      -8.92465250E-34
  -15.6000004      -4.09951745E-33
  -15.5900002      -9.04990252E-33
  -15.5799999      -1.49806176E-32
  -15.5699997      -2.05108204E-32
  -15.5600004      -2.49659660E-32
  -15.5500002      -3.00986592E-32
  -15.5400000      -3.85705264E-32
  -15.5299997      -4.21425216E-32
  -15.5200005       6.46275700E-33
  -15.5100002       2.29821512E-31
  -15.5000000       8.27268349E-31
  -15.4899998       1.95175772E-30
  -15.4799995       3.35637717E-30
  -15.4700003       3.80512900E-30
  -15.4600000       5.51945473E-31
  -15.4499998      -1.02967565E-29
  -15.4399996      -3.12811377E-29
  -15.4300003      -5.79891849E-29
  -15.4200001      -7.13448290E-29
  -15.4099998      -3.28736501E-29
  -15.3999996       1.06794994E-28
  -15.3900003       3.73683180E-28
  -15.3800001       7.05556394E-28
  -15.3699999       8.75698583E-28
  -15.3599997       4.65287967E-28
  -15.3500004      -1.01620480E-27
  -15.3400002      -3.76521962E-27
  -15.3299999      -7.07439058E-27
  -15.3199997      -8.71264206E-27
  -15.3100004      -4.85382995E-27
  -15.3000002       8.64812110E-27
  -15.2900000       3.30119615E-26
  -15.2799997       6.16295610E-26
  -15.2700005       7.56737688E-26
  -15.2600002       4.45991665E-26
  -15.2500000      -6.29036761E-26
  -15.2399998      -2.54028718E-25
  -15.2299995      -4.76954868E-25
  -15.2200003      -5.92459783E-25
  -15.2100000      -3.82142539E-25
  -15.1999998       3.71896172E-25
  -15.1899996       1.71837393E-24
  -15.1800003       3.31102001E-24
  -15.1700001       4.23497019E-24
  -15.1599998       3.07065882E-24
  -15.1499996      -1.60310292E-24
  -15.1400003      -1.01802815E-23
  -15.1300001      -2.06793276E-23
  -15.1199999      -2.77153752E-23
  -15.1099997      -2.28343441E-23
  -15.1000004       2.69290252E-24
  -15.0900002       5.21687127E-23
  -15.0799999       1.15975490E-22
  -15.0699997       1.65655464E-22
  -15.0600004       1.54963546E-22
  -15.0500002       3.35735573E-23
  -15.0400000      -2.24079083E-22
  -15.0299997      -5.79940851E-22
  -15.0200005      -8.99468544E-22
  -15.0100002      -9.50708809E-22
  -15.0000000      -4.63300963E-22
  -14.9899998       7.38390720E-22
  -14.9799995       2.54764015E-21
  -14.9700003       4.40209649E-21
  -14.9600000       5.24077322E-21
  -14.9499998       3.72185272E-21
  -14.9399996      -1.21948798E-21
  -14.9300003      -9.53164097E-21
  -14.9200001      -1.91924320E-20
  -14.9099998      -2.58186463E-20
  -14.8999996      -2.33126978E-20
  -14.8900003      -5.95987105E-21
  -14.8800001       2.81193296E-20
  -14.8699999       7.30782147E-20
  -14.8599997       1.12828883E-19
  -14.8500004       1.22252448E-19
  -14.8400002       7.41145880E-20
  -14.8299999      -4.80209494E-20
  -14.8199997      -2.33573988E-19
  -14.8100004      -4.31678808E-19
  -14.8000002      -5.49753282E-19
  -14.7900000      -4.72531268E-19
  -14.7799997      -1.05298580E-19
  -14.7700005       5.64843332E-19
  -14.7600002       1.40890696E-18
  -14.7500000       2.12786857E-18
  -14.7399998       2.29042837E-18
  -14.7299995       1.45909046E-18
  -14.7200003      -6.02609245E-19
  -14.7100000      -3.69257437E-18
  -14.6999998      -6.99796949E-18
  -14.6899996      -9.10897825E-18
  -14.6800003      -8.32093486E-18
  -14.6700001      -3.25040642E-18
  -14.6599998       6.34120752E-18
  -14.6499996       1.87786907E-17
  -14.6400003       3.01407311E-17
  -14.6300001       3.47562500E-17
  -14.6199999       2.67579726E-17
  -14.6099997       2.56916591E-18
  -14.6000004      -3.62821931E-17
  -14.5900002      -8.10878272E-17
  -14.5799999      -1.15912912E-16
  -14.5699997      -1.20641500E-16
  -14.5600004      -7.73721452E-17
  -14.5500002       2.08888995E-17
  -14.5400000       1.61784881E-16
  -14.5299997       3.09091243E-16
  -14.5200005       4.05906420E-16
  -14.5100002       3.87902444E-16
  -14.5000000       2.05916899E-16
  -14.4899998      -1.47003177E-16
  -14.4799995      -6.13034749E-16
  -14.4700003      -1.06260273E-15
  -14.4600000      -1.31275548E-15
  -14.4499998      -1.17478017E-15
  -14.4399996      -5.25026067E-16
  -14.4300003       6.18804896E-16
  -14.4200001       2.04321118E-15
  -14.4099998       3.33641513E-15
  -14.3999996       3.96022674E-15
  -14.3900003       3.39914576E-15
  -14.3800001       1.36139381E-15
  -14.3699999      -2.02294401E-15
  -14.3599997      -6.08148438E-15
  -14.3500004      -9.63113561E-15
  -14.3400002      -1.12075749E-14
  -14.3299999      -9.48276424E-15
  -14.3199997      -3.78849589E-15
  -14.3100004       5.40360984E-15
  -14.3000002       1.62322514E-14
  -14.2900000       2.55955654E-14
  -14.2799997       2.97841823E-14
  -14.2700005       2.55412130E-14
  -14.2600002       1.13241724E-14
  -14.2500000      -1.15989253E-14
  -14.2399998      -3.86467422E-14
  -14.2299995      -6.23729380E-14
  -14.2200003      -7.40096732E-14
  -14.2100000      -6.59241677E-14
  -14.1999998      -3.44464718E-14
  -14.1899996       1.77540816E-14
  -14.1800003       8.06500049E-14
  -14.1700001       1.37907074E-13
  -14.1599998       1.70238091E-13
  -14.1499996       1.60607462E-13
  -14.1400003       1.00122276E-13
  -14.1300001      -7.06921458E-15
  -14.1199999      -1.41655269E-13
  -14.1099997      -2.71156172E-13
  -14.1000004      -3.56410566E-13
  -14.0900002      -3.61617474E-13
  -14.0799999      -2.65692280E-13
  -14.0699997      -7.18029558E-14
  -14.0600004       1.88160455E-13
  -14.0500002       4.56568431E-13
  -14.0400000       6.61114013E-13
  -14.0299997       7.32296277E-13
  -14.0200005       6.23456473E-13
  -14.0100002       3.28049057E-13
  -14.0000000      -1.11284205E-13
  -13.9899998      -6.05798181E-13
  -13.9799995      -1.03697552E-12
  -13.9700003      -1.28356353E-12
  -13.9600000      -1.25335452E-12
  -13.9499998      -9.11579623E-13
  -13.9399996      -2.97669685E-13
  -13.9300003       4.75617375E-13
  -13.9200001       1.24248658E-12
  -13.9099998       1.82039496E-12
  -13.8999996       2.05415676E-12
  -13.8900003       1.85677342E-12
  -13.8800001       1.23587609E-12
  -13.8699999       2.97785153E-13
  -13.8599997      -7.73193087E-13
  -13.8500004      -1.75593947E-12
  -13.8400002      -2.44402480E-12
  -13.8299999      -2.69413181E-12
  -13.8199997      -2.45842409E-12
  -13.8100004      -1.79209425E-12
  -13.8000002      -8.34278013E-13
  -13.7900000       2.31784860E-13
  -13.7799997       1.22726503E-12
  -13.7700005       2.02018328E-12
  -13.7600002       2.54883679E-12
  -13.7500000       2.81927628E-12
  -13.7399998       2.87839414E-12
  -13.7299995       2.77265428E-12
  -13.7200003       2.50820155E-12
  -13.7100000       2.02898354E-12
  -13.6999998       1.22492403E-12
  -13.6899996      -2.69586735E-14
  -13.6800003      -1.79681953E-12
  -13.6700001      -4.03001070E-12
  -13.6599998      -6.49285443E-12
  -13.6499996      -8.75921644E-12
  -13.6400003      -1.02530050E-11
  -13.6300001      -1.03483212E-11
  -13.6199999      -8.51332373E-12
  -13.6099997      -4.46990318E-12
  -13.6000004       1.66724035E-12
  -13.5900002       9.30906220E-12
  -13.5799999       1.73970335E-11
  -13.5699997       2.45081403E-11
  -13.5600004       2.90545036E-11
  -13.5500002       2.95528602E-11
  -13.5400000       2.49235858E-11
  -13.5299997       1.47697982E-11
  -13.5200005      -4.14214697E-13
  -13.5100002      -1.91497027E-11
  -13.5000000      -3.90271218E-11
  -13.4899998      -5.69211969E-11
  -13.4799995      -6.93615929E-11
  -13.4700003      -7.30312893E-11
  -13.4600000      -6.53424467E-11
  -13.4499998      -4.50181385E-11
  -13.4399996      -1.25912831E-11
  -13.4300003       2.92779863E-11
  -13.4200001       7.57622853E-11
  -13.4099998       1.20179686E-10
  -13.3999996       1.54694577E-10
  -13.3900003       1.71381936E-10
  -13.3800001       1.63556710E-10
  -13.3699999       1.27193991E-10
  -13.3599997       6.22043389E-11
  -13.3500004      -2.67025308E-11
  -13.3400002      -1.29815894E-10
  -13.3299999      -2.33063568E-10
  -13.3199997      -3.19549082E-10
  -13.3100004      -3.71882886E-10
  -13.3000002      -3.75034254E-10
  -13.2900000      -3.19283239E-10
  -13.2799997      -2.02764860E-10
  -13.2700005      -3.30935973E-11
  -13.2600002       1.72349399E-10
  -13.2500000       3.87700871E-10
  -13.2399998       5.81458104E-10
  -13.2299995       7.20597748E-10
  -13.2200003       7.75449704E-10
  -13.2100000       7.24634075E-10
  -13.1999998       5.59312929E-10
  -13.1899996       2.86062479E-10
  -13.1800003      -7.21604373E-11
  -13.1700001      -4.77238804E-10
  -13.1599998      -8.79302575E-10
  -13.1499996      -1.22204180E-09
  -13.1400003      -1.44940793E-09
  -13.1300001      -1.51301138E-09
  -13.1199999      -1.37940981E-09
  -13.1099997      -1.03644737E-09
  -13.1000004      -4.97811459E-10
  -13.0900002       1.94936706E-10
  -13.0799999       9.73476966E-10
  -13.0699997       1.74736947E-09
  -13.0600004       2.41228482E-09
  -13.0500002       2.86146085E-09
  -13.0400000       2.99951752E-09
  -13.0299997       2.75722867E-09
  -13.0200005       2.10537632E-09
  -13.0100002       1.06553510E-09
  -13.0000000      -2.84393398E-10
  -12.9899998      -1.81168303E-09
  -12.9799995      -3.33838135E-09
  -12.9700003      -4.65895544E-09
  -12.9600000      -5.56465141E-09
  -12.9499998      -5.87197979E-09
  -12.9399996      -5.45167156E-09
  -12.9300003      -4.25393143E-09
  -12.9200001      -2.32583774E-09
  -12.9099998       1.82502832E-10
  -12.8999996       3.02513237E-09
  -12.8900003       5.88106497E-09
  -12.8800001       8.38719583E-09
  -12.8699999       1.01799760E-08
  -12.8599997       1.09412053E-08
  -12.8500004       1.04425339E-08
  -12.8400002       8.58321592E-09
  -12.8299999       5.41619949E-09
  -12.8199997       1.15876109E-09
  -12.8100004      -3.81469922E-09
  -12.8000002      -8.99838426E-09
  -12.7900000      -1.37983527E-08
  -12.7799997      -1.75905566E-08
  -12.7700005      -1.97892724E-08
  -12.7600002      -1.99200070E-08
  -12.7500000      -1.76895689E-08
  -12.7399998      -1.30451454E-08
  -12.7299995      -6.21379614E-09
  -12.7200003       2.28547026E-09
  -12.7100000       1.16631860E-08
  -12.6999998       2.09174225E-08
  -12.6899996       2.89269870E-08
  -12.6800003       3.45733717E-08
  -12.6700001       3.68797934E-08
  -12.6599998       3.51511567E-08
  -12.6499996       2.90960873E-08
  -12.6400003       1.89118925E-08
  -12.6300001       5.31617905E-09
  -12.6199999      -1.04854996E-08
  -12.6099997      -2.68983182E-08
  -12.6000004      -4.20962394E-08
  -12.5900002      -5.42232570E-08
  -12.5799999      -6.16142799E-08
  -12.5699997      -6.30077750E-08
  -12.5600004      -5.77222075E-08
  -12.5500002      -4.57719374E-08
  -12.5400000      -2.79060082E-08
  -12.5299997      -5.56307311E-09
  -12.5200005       1.92536760E-08
  -12.5100002       4.41677059E-08
  -12.5000000       6.66651729E-08
  -12.4899998       8.43499492E-08
  -12.4799995       9.51909698E-08
  -12.4700003       9.77370078E-08
  -12.4600000       9.12786007E-08
  -12.4499998       7.59421042E-08
  -12.4399996       5.27074064E-08
  -12.4300003       2.33460362E-08
  -12.4200001      -9.71688952E-09
  -12.4099998      -4.36087397E-08
  -12.3999996      -7.52690639E-08
  -12.3900003      -1.01742941E-07
  -12.3800001      -1.20482142E-07
  -12.3699999      -1.29623999E-07
  -12.3599997      -1.28214651E-07
  -12.3500004      -1.16345262E-07
  -12.3400002      -9.51747055E-08
  -12.3299999      -6.68231124E-08
  -12.3199997      -3.41356099E-08
  -12.3100004      -3.33483019E-10
  -12.3000002       3.14123803E-08
  -12.2900000       5.84356492E-08
  -12.2799997       7.89976369E-08
  -12.2700005       9.26193593E-08
  -12.2600002       1.00271585E-07
  -12.2500000       1.04388121E-07
  -12.2399998       1.08690301E-07
  -12.2299995       1.17835917E-07
  -12.2200003       1.36929643E-07
  -12.2100000       1.70949150E-07
  -12.1999998       2.24153510E-07
  -12.1899996       2.99538044E-07
  -12.1800003       3.98395940E-07
  -12.1700001       5.20028834E-07
  -12.1599998       6.61632669E-07
  -12.1499996       8.18365606E-07
  -12.1400003       9.83587483E-07
  -12.1300001       1.14924705E-06
  -12.1199999       1.30638580E-06
  -12.1099997       1.44572050E-06
  -12.1000004       1.55826172E-06
  -12.0900002       1.63593074E-06
  -12.0799999       1.67212750E-06
  -12.0699997       1.66221196E-06
  -12.0600004       1.60385434E-06
  -12.0500002       1.49722223E-06
  -12.0400000       1.34497805E-06
  -12.0299997       1.15207558E-06
  -12.0200005       9.25368340E-07
  -12.0100002       6.73055808E-07
  -12.0000000       4.04025343E-07
  -11.9899998       1.27150287E-07
  -11.9799995      -1.49370848E-07
  -11.9700003      -4.18568476E-07
  -11.9600000      -6.75086653E-07
  -11.9499998      -9.15365149E-07
  -11.9399996      -1.13761064E-06
  -11.9300003      -1.34158358E-06
  -11.9200001      -1.52824464E-06
  -11.9099998      -1.69933037E-06
  -11.8999996      -1.85691806E-06
  -11.8900003      -2.00304544E-06
  -11.8800001      -2.13941325E-06
  -11.8699999      -2.26720476E-06
  -11.8599997      -2.38699477E-06
  -11.8500004      -2.49874438E-06
  -11.8400002      -2.60183492E-06
  -11.8299999      -2.69511747E-06
  -11.8199997      -2.77695699E-06
  -11.8100004      -2.84526209E-06
  -11.8000002      -2.89750710E-06
  -11.7900000      -2.93077665E-06
  -11.7799997      -2.94184110E-06
  -11.7700005      -2.92728942E-06
  -11.7600002      -2.88372007E-06
  -11.7500000      -2.80798213E-06
  -11.7399998      -2.69743873E-06
  -11.7299995      -2.55021655E-06
  -11.7200003      -2.36541268E-06
  -11.7100000      -2.14321949E-06
  -11.6999998      -1.88496676E-06
  -11.6899996      -1.59307456E-06
  -11.6800003      -1.27094233E-06
  -11.6700001      -9.22806180E-07
  -11.6599998      -5.53593622E-07
  -11.6499996      -1.68801265E-07
  -11.6400003       2.25594192E-07
  -11.6300001       6.23202823E-07
  -11.6199999       1.01728449E-06
  -11.6099997       1.40084194E-06
  -11.6000004       1.76677963E-06
  -11.5900002       2.10812891E-06
  -11.5799999       2.41836392E-06
  -11.5699997       2.69175712E-06
  -11.5600004       2.92376262E-06
  -11.5500002       3.11133704E-06
  -11.5400000       3.25318388E-06
  -11.5299997       3.34984179E-06
  -11.5200005       3.40361794E-06
  -11.5100002       3.41835948E-06
  -11.5000000       3.39908752E-06
  -11.4899998       3.35155573E-06
  -11.4799995       3.28176702E-06
  -11.4700003       3.19552078E-06
  -11.4600000       3.09803022E-06
  -11.4499998       2.99362409E-06
  -11.4399996       2.88555793E-06
  -11.4300003       2.77591289E-06
  -11.4200001       2.66556549E-06
  -11.4099998       2.55421446E-06
  -11.3999996       2.44044554E-06
  -11.3900003       2.32182538E-06
  -11.3800001       2.19503090E-06
  -11.3699999       2.05602396E-06
  -11.3599997       1.90027674E-06
  -11.3500004       1.72305863E-06
  -11.3400002       1.51977156E-06
  -11.3299999       1.28632564E-06
  -11.3199997       1.01952071E-06
  -11.3100004       7.17402486E-07
  -11.3000002       3.79560589E-07
  -11.2900000       7.33599981E-09
  -11.2799997      -3.96080594E-07
  -11.2700005      -8.25665950E-07
  -11.2600002      -1.27469070E-06
  -11.2500000      -1.73494811E-06
  -11.2399998      -2.19705862E-06
  -11.2299995      -2.65084668E-06
  -11.2200003      -3.08576296E-06
  -11.2100000      -3.49134302E-06
  -11.1999998      -3.85769772E-06
  -11.1899996      -4.17600677E-06
  -11.1800003      -4.43901399E-06
  -11.1700001      -4.64147888E-06
  -11.1599998      -4.78056199E-06
  -11.1499996      -4.85609917E-06
  -11.1400003      -4.87073385E-06
  -11.1300001      -4.82986979E-06
  -11.1199999      -4.74144645E-06
  -11.1099997      -4.61552781E-06
  -11.1000004      -4.46373178E-06
  -11.0900002      -4.29856664E-06
  -11.0799999      -4.13268208E-06
  -11.0699997      -3.97815256E-06
  -11.0600004      -3.84579107E-06
  -11.0500002      -3.74457659E-06
  -11.0400000      -3.68121914E-06
  -11.0299997      -3.65985784E-06
  -11.0200005      -3.68193105E-06
  -11.0100002      -3.74616934E-06
  -11.0000000      -3.84874284E-06
  -10.9899998      -3.98351267E-06
  -10.9799995      -4.14238821E-06
  -10.9700003      -4.31576973E-06
  -10.9600000      -4.49306253E-06
  -10.9499998      -4.66324491E-06
  -10.9399996      -4.81544748E-06
  -10.9300003      -4.93956168E-06
  -10.9200001      -5.02679177E-06
  -10.9099998      -5.07016466E-06
  -10.8999996      -5.06494189E-06
  -10.8900003      -5.00892429E-06
  -10.8800001      -4.90262028E-06
  -10.8699999      -4.74927811E-06
  -10.8599997      -4.55477493E-06
  -10.8500004      -4.32738079E-06
  -10.8400002      -4.07739662E-06
  -10.8299999      -3.81669815E-06
  -10.8199997      -3.55819770E-06
  -10.8100004      -3.31525212E-06
  -10.8000002      -3.10102746E-06
  -10.7900000      -2.92786763E-06
  -10.7799997      -2.80667814E-06
  -10.7700005      -2.74635590E-06
  -10.7600002      -2.75330967E-06
  -10.7500000      -2.83109603E-06
  -10.7399998      -2.98018563E-06
  -10.7299995      -3.19789865E-06
  -10.7200003      -3.47850141E-06
  -10.7100000      -3.81346695E-06
  -10.6999998      -4.19187836E-06
  -10.6899996      -4.60092815E-06
  -10.6800003      -5.02652847E-06
  -10.6700001      -5.45391276E-06
  -10.6599998      -5.86827673E-06
  -10.6499996      -6.25536586E-06
  -10.6400003      -6.60202750E-06
  -10.6300001      -6.89667240E-06
  -10.6199999      -7.12968586E-06
  -10.6099997      -7.29372960E-06
  -10.6000004      -7.38396329E-06
  -10.5900002      -7.39816142E-06
  -10.5799999      -7.33672778E-06
  -10.5699997      -7.20259914E-06
  -10.5600004      -7.00103237E-06
  -10.5500002      -6.73929753E-06
  -10.5400000      -6.42628765E-06
  -10.5299997      -6.07205720E-06
  -10.5200005      -5.68735049E-06
  -10.5100002      -5.28310920E-06
  -10.5000000      -4.87003535E-06
  -10.4899998      -4.45818796E-06
  -10.4799995      -4.05665378E-06
  -10.4700003      -3.67329199E-06
  -10.4600000      -3.31453862E-06
  -10.4499998      -2.98528062E-06
  -10.4399996      -2.68877875E-06
  -10.4300003      -2.42663782E-06
  -10.4200001      -2.19881917E-06
  -10.4099998      -2.00369755E-06
  -10.3999996      -1.83815916E-06
  -10.3900003      -1.69774398E-06
  -10.3800001      -1.57683212E-06
  -10.3699999      -1.46887044E-06
  -10.3599997      -1.36662413E-06
  -10.3500004      -1.26245845E-06
  -10.3400002      -1.14862144E-06
  -10.3299999      -1.01752573E-06
  -10.3199997      -8.62010552E-07
  -10.3100004      -6.75587842E-07
  -10.3000002      -4.52660231E-07
  -10.2900000      -1.88718431E-07
  -10.2799997       1.19468723E-07
  -10.2700005       4.73675357E-07
  -10.2600002       8.74033390E-07
  -10.2500000       1.31884678E-06
  -10.2399998       1.80443146E-06
  -10.2299995       2.32497973E-06
  -10.2200003       2.87250373E-06
  -10.2100000       3.43689680E-06
  -10.1999998       4.00612817E-06
  -10.1899996       4.56661519E-06
  -10.1800003       5.10375912E-06
  -10.1700001       5.60260969E-06
  -10.1599998       6.04861634E-06
  -10.1499996       6.42838040E-06
  -10.1400003       6.73033446E-06
  -10.1300001       6.94526761E-06
  -10.1199999       7.06664741E-06
  -10.1099997       7.09073811E-06
  -10.1000004       7.01648878E-06
  -10.0900002       6.84528277E-06
  -10.0799999       6.58057661E-06
  -10.0699997       6.22752532E-06
  -10.0600004       5.79263815E-06
  -10.0500002       5.28351393E-06
  -10.0400000       4.70866144E-06
  -10.0299997       4.07742209E-06
  -10.0200005       3.39994813E-06
  -10.0100002       2.68721033E-06
  -10.0000000       1.95101074E-06
  -9.98999977       1.20396783E-06
  -9.97999954       4.59426786E-07
  -9.97000027      -2.68677780E-07
  -9.96000004      -9.66070729E-07
  -9.94999981      -1.61845401E-06
  -9.93999958      -2.21189657E-06
  -9.93000031      -2.73331852E-06
  -9.92000008      -3.17095828E-06
  -9.90999985      -3.51486869E-06
  -9.89999962      -3.75731634E-06
  -9.89000034      -3.89310662E-06
  -9.88000011      -3.91972389E-06
  -9.86999989      -3.83736506E-06
  -9.85999966      -3.64878815E-06
  -9.85000038      -3.35906157E-06
  -9.84000015      -2.97526935E-06
  -9.82999992      -2.50617200E-06
  -9.81999969      -1.96193423E-06
  -9.81000042      -1.35386961E-06
  -9.80000019      -6.94286257E-07
  -9.78999996       3.66371022E-09
  -9.77999973       7.26129770E-07
  -9.77000046       1.45870604E-06
  -9.76000023       2.18665355E-06
  -9.75000000       2.89516106E-06
  -9.73999977       3.56967757E-06
  -9.72999954       4.19624621E-06
  -9.72000027       4.76191781E-06
  -9.71000004       5.25511405E-06
  -9.69999981       5.66603740E-06
  -9.68999958       5.98704901E-06
  -9.68000031       6.21305981E-06
  -9.67000008       6.34187472E-06
  -9.65999985       6.37450466E-06
  -9.64999962       6.31530384E-06
  -9.64000034       6.17208389E-06
  -9.63000011       5.95587244E-06
  -9.61999989       5.68064524E-06
  -9.60999966       5.36272091E-06
  -9.60000038       5.02014245E-06
  -9.59000015       4.67189830E-06
  -9.57999992       4.33721516E-06
  -9.56999969       4.03493050E-06
  -9.56000042       3.78294885E-06
  -9.55000019       3.59791625E-06
  -9.53999996       3.49501192E-06
  -9.52999973       3.48783738E-06
  -9.52000046       3.58835177E-06
  -9.51000023       3.80686515E-06
  -9.50000000       4.15195245E-06
  -9.48999977       4.63031165E-06
  -9.47999954       5.24666029E-06
  -9.47000027       6.00352496E-06
  -9.46000004       6.90107299E-06
  -9.44999981       7.93699564E-06
  -9.43999958       9.10637482E-06
  -9.43000031       1.04016672E-05
  -9.42000008       1.18128382E-05
  -9.40999985       1.33274716E-05
  -9.39999962       1.49310290E-05
  -9.39000034       1.66072459E-05
  -9.38000011       1.83385073E-05
  -9.36999989       2.01062885E-05
  -9.35999966       2.18916121E-05
  -9.35000038       2.36753840E-05
  -9.34000015       2.54387214E-05
  -9.32999992       2.71631616E-05
  -9.31999969       2.88307328E-05
  -9.31000042       3.04240220E-05
  -9.30000019       3.19261489E-05
  -9.28999996       3.33208518E-05
  -9.27999973       3.45923945E-05
  -9.27000046       3.57258250E-05
  -9.26000023       3.67071552E-05
  -9.25000000       3.75235722E-05
  -9.23999977       3.81637583E-05
  -9.22999954       3.86182983E-05
  -9.22000027       3.88798835E-05
  -9.21000004       3.89436573E-05
  -9.19999981       3.88073240E-05
  -9.18999958       3.84713967E-05
  -9.18000031       3.79391640E-05
  -9.17000008       3.72166614E-05
  -9.15999985       3.63126019E-05
  -9.14999962       3.52382340E-05
  -9.14000034       3.40070801E-05
  -9.13000011       3.26346235E-05
  -9.11999989       3.11381300E-05
  -9.10999966       2.95363880E-05
  -9.10000038       2.78493972E-05
  -9.09000015       2.60982961E-05
  -9.07999992       2.43050708E-05
  -9.06999969       2.24925607E-05
  -9.06000042       2.06843233E-05
  -9.05000019       1.89045986E-05
  -9.03999996       1.71781448E-05
  -9.02999973       1.55302569E-05
  -9.02000046       1.39865324E-05
  -9.01000023       1.25726838E-05
  -9.00000000       1.13143205E-05
  -8.98999977       1.02364993E-05
  -8.97999954       9.36327160E-06
  -8.97000027       8.71719840E-06
  -8.96000004       8.31865600E-06
  -8.94999981       8.18530134E-06
  -8.93999958       8.33164995E-06
  -8.93000031       8.76857666E-06
  -8.92000008       9.50329650E-06
  -8.90999985       1.05393638E-05
  -8.89999962       1.18769995E-05
  -8.89000034       1.35132223E-05
  -8.88000011       1.54424797E-05
  -8.86999989       1.76569138E-05
  -8.85999966       2.01463808E-05
  -8.85000038       2.28987774E-05
  -8.84000015       2.58998170E-05
  -8.82999992       2.91328724E-05
  -8.81999969       3.25789006E-05
  -8.81000042       3.62163009E-05
  -8.80000019       4.00209756E-05
  -8.78999996       4.39664327E-05
  -8.77999973       4.80239323E-05
  -8.77000046       5.21629408E-05
  -8.76000023       5.63511676E-05
  -8.75000000       6.05550777E-05
  -8.73999977       6.47401248E-05
  -8.72999954       6.88712171E-05
  -8.72000027       7.29131352E-05
  -8.71000004       7.68312093E-05
  -8.69999981       8.05919626E-05
  -8.68999958       8.41639267E-05
  -8.68000031       8.75182668E-05
  -8.67000008       9.06293935E-05
  -8.65999985       9.34752170E-05
  -8.64999962       9.60374236E-05
  -8.64000034       9.83014834E-05
  -8.63000011       1.00256460E-04
  -8.61999989       1.01895181E-04
  -8.60999966       1.03213955E-04
  -8.60000038       1.04212988E-04
  -8.59000015       1.04896324E-04
  -8.57999992       1.05271945E-04
  -8.56999969       1.05351734E-04
  -8.56000042       1.05151150E-04
  -8.55000019       1.04688734E-04
  -8.53999996       1.03985520E-04
  -8.52999973       1.03064333E-04
  -8.52000046       1.01949263E-04
  -8.51000023       1.00665333E-04
  -8.50000000       9.92383139E-05
  -8.48999977       9.76949304E-05
  -8.47999954       9.60629040E-05
  -8.47000027       9.43709965E-05
  -8.46000004       9.26487555E-05
  -8.44999981       9.09259834E-05
  -8.43999958       8.92320604E-05
  -8.43000031       8.75948608E-05
  -8.42000008       8.60401124E-05
  -8.40999985       8.45905452E-05
  -8.39999962       8.32656369E-05
  -8.39000034       8.20816931E-05
  -8.38000011       8.10518904E-05
  -8.36999989       8.01866336E-05
  -8.35999966       7.94937150E-05
  -8.35000038       7.89785481E-05
  -8.34000015       7.86436867E-05
  -8.32999992       7.84889271E-05
  -8.31999969       7.85109078E-05
  -8.31000042       7.87032550E-05
  -8.30000019       7.90570120E-05
  -8.28999996       7.95611340E-05
  -8.27999973       8.02033683E-05
  -8.27000046       8.09709454E-05
  -8.26000023       8.18510598E-05
  -8.25000000       8.28311167E-05
  -8.23999977       8.38985943E-05
  -8.22999954       8.50403667E-05
  -8.22000027       8.62426386E-05
  -8.21000004       8.74900361E-05
  -8.19999981       8.87662245E-05
  -8.18999958       9.00539308E-05
  -8.18000031       9.13356052E-05
  -8.17000008       9.25943459E-05
  -8.15999985       9.38144440E-05
  -8.14999962       9.49817913E-05
  -8.14000034       9.60842153E-05
  -8.13000011       9.71108602E-05
  -8.11999989       9.80521145E-05
  -8.10999966       9.88993197E-05
  -8.10000038       9.96446979E-05
  -8.09000015       1.00281497E-04
  -8.07999992       1.00804842E-04
  -8.06999969       1.01211910E-04
  -8.06000042       1.01502555E-04
  -8.05000019       1.01679689E-04
  -8.03999996       1.01748548E-04
  -8.02999973       1.01716556E-04
  -8.02000046       1.01592450E-04
  -8.01000023       1.01385784E-04
  -8.00000000       1.01106634E-04
  -7.98999977       1.00765523E-04
  -7.98000002       1.00374011E-04
  -7.96999979       9.99452095E-05
  -7.96000004       9.94942020E-05
  -7.94999981       9.90385161E-05
  -7.94000006       9.85975930E-05
  -7.92999983       9.81924532E-05
  -7.92000008       9.78448952E-05
  -7.90999985       9.75763614E-05
  -7.90000010       9.74077338E-05
  -7.88999987       9.73584756E-05
  -7.88000011       9.74471404E-05
  -7.86999989       9.76910742E-05
  -7.86000013       9.81070916E-05
  -7.84999990       9.87116218E-05
  -7.84000015       9.95201844E-05
  -7.82999992       1.00547026E-04
  -7.82000017       1.01804668E-04
  -7.80999994       1.03302664E-04
  -7.80000019       1.05047257E-04
  -7.78999996       1.07041466E-04
  -7.78000021       1.09284694E-04
  -7.76999998       1.11773588E-04
  -7.76000023       1.14502516E-04
  -7.75000000       1.17463802E-04
  -7.73999977       1.20648219E-04
  -7.73000002       1.24044673E-04
  -7.71999979       1.27639883E-04
  -7.71000004       1.31418303E-04
  -7.69999981       1.35361290E-04
  -7.69000006       1.39448151E-04
  -7.67999983       1.43656202E-04
  -7.67000008       1.47961546E-04
  -7.65999985       1.52340392E-04
  -7.65000010       1.56769995E-04
  -7.63999987       1.61229167E-04
  -7.63000011       1.65698715E-04
  -7.61999989       1.70161118E-04
  -7.61000013       1.74600282E-04
  -7.59999990       1.79000737E-04
  -7.59000015       1.83347423E-04
  -7.57999992       1.87625352E-04
  -7.57000017       1.91820276E-04
  -7.55999994       1.95918168E-04
  -7.55000019       1.99906819E-04
  -7.53999996       2.03775096E-04
  -7.53000021       2.07513993E-04
  -7.51999998       2.11115737E-04
  -7.51000023       2.14573622E-04
  -7.50000000       2.17881665E-04
  -7.48999977       2.21033682E-04
  -7.48000002       2.24023446E-04
  -7.46999979       2.26844626E-04
  -7.46000004       2.29491692E-04
  -7.44999981       2.31960308E-04
  -7.44000006       2.34248553E-04