  -16.0000000       0.00000000    
  -15.9899998       0.00000000    
  -15.9799995       0.00000000    
  -15.9700003       0.00000000    
  -15.9600000       0.00000000    
  -15.9499998       0.00000000    
  -15.9399996       0.00000000    
  -15.9300003       0.00000000    
  -15.9200001       0.00000000    
  -15.9099998       0.00000000    
  -15.8999996       0.00000000    
  -15.8900003       0.00000000    
  -15.8800001       4.20389539E-45
  -15.8699999       1.02294788E-43
  -15.8599997       1.40550236E-42
  -15.8500004       1.34384523E-41
  -15.8400002       9.93310416E-41
  -15.8299999       5.99388603E-40
  -15.8199997       3.04975375E-39
  -15.8100004       1.33600973E-38
  -15.8000002       5.11170642E-38
  -15.7900000       1.72543259E-37
  -15.7799997       5.17287960E-37
  -15.7700005       1.38247757E-36
  -15.7600002       3.29423897E-36
  -15.7500000       6.96655393E-36
  -15.7399998       1.29090962E-35
  -15.7299995       2.03356333E-35
  -15.7200003       2.51148041E-35
  -15.7100000       1.70818213E-35
  -15.6999998      -2.16858547E-35
  -15.6899996      -1.14253941E-34
  -15.6800003      -2.77354288E-34
  -15.6700001      -4.98100165E-34
  -15.6599998      -7.02489337E-34
  -15.6499996      -7.31044161E-34
  -15.6400003      -3.49529296E-34
  -15.6300001       6.73824907E-34
  -15.6199999       2.41064688E-33
  -15.6099997       4.56337193E-33
  -15.6000004       6.28938408E-33
  -15.5900002       6.17883765E-33
  -15.5799999       2.49051768E-33
  -15.5699997      -6.31472259E-33
  -15.5600004      -2.07529531E-32
  -15.5500002      -3.91637631E-32
  -15.5400000      -5.60394715E-32
  -15.5299997      -5.97318344E-32
  -15.5200005      -3.03573826E-32
  -15.5100002       5.89527932E-32
  -15.5000000       2.31091727E-31
  -15.4899998       4.76597320E-31
  -15.4799995       7.06059459E-31
  -15.4700003       7.00329583E-31
  -15.4600000       1.07132016E-31
  -15.4499998      -1.43738885E-30
  -15.4399996      -3.98916816E-30
  -15.4300003      -6.79222378E-30
  -15.4200001      -7.79869445E-30
  -15.4099998      -3.68539484E-30
  -15.3999996       8.98247783E-30
  -15.3900003       3.09664408E-29
  -15.3800001       5.62854471E-29
  -15.3699999       6.87031031E-29
  -15.3599997       4.23474620E-29
  -15.3500004      -4.91683445E-29
  -15.3400002      -2.12600951E-28
  -15.3299999      -4.07269665E-28
  -15.3199997      -5.22574031E-28
  -15.3100004      -3.83676758E-28
  -15.3000002       1.88961256E-28
  -15.2900000       1.25385185E-27
  -15.2799997       2.57993242E-27
  -15.2700005       3.51252605E-27
  -15.2600002       3.00221606E-27
  -15.2500000      -6.53260511E-29
  -15.2399998      -6.17717647E-27
  -15.2299995      -1.42658746E-26
  -15.2200003      -2.09473940E-26
  -15.2100000      -2.05747512E-26
  -15.1999998      -6.80059884E-27
  -15.1899996       2.40253382E-26
  -15.1800003       6.81834544E-26
  -15.1700001       1.10465277E-25
  -15.1599998       1.23610387E-25
  -15.1499996       7.45780102E-26
  -15.1400003      -6.05598040E-26
  -15.1300001      -2.75045846E-25
  -15.1199999      -5.10583023E-25
  -15.1099997      -6.49861494E-25
  -15.1000004      -5.37016124E-25
  -15.0900002      -3.55099296E-26
  -15.0799999       8.81159998E-25
  -15.0699997       2.03216466E-24
  -15.0600004       2.97409219E-24
  -15.0500002       3.04774616E-24
  -15.0400000       1.57370404E-24
  -15.0299997      -1.80405330E-24
  -15.0200005      -6.70576261E-24
  -15.0100002      -1.17029850E-23
  -15.0000000      -1.43325756E-23
  -14.9899998      -1.16451812E-23
  -14.9799995      -1.35781234E-24
  -14.9700003       1.65791425E-23
  -14.9600000       3.85141331E-23
  -14.9499998       5.65064790E-23
  -14.9399996       5.94433955E-23
  -14.9300003       3.63581700E-23
  -14.9200001      -1.83132197E-23
  -14.9099998      -9.88696159E-23
  -14.8999996      -1.84258647E-22
  -14.8900003      -2.38673918E-22
  -14.8800001      -2.19213515E-22
  -14.8699999      -9.10732026E-23
  -14.8599997       1.52396340E-22
  -14.8500004       4.71044624E-22
  -14.8400002       7.69663136E-22
  -14.8299999       9.09215179E-22
  -14.8199997       7.42867967E-22
  -14.8100004       1.74155244E-22
  -14.8000002      -7.76189906E-22
  -14.7900000      -1.91850689E-21
  -14.7799997      -2.88661356E-21
  -14.7700005      -3.19898612E-21
  -14.7600002      -2.39671564E-21
  -14.7500000      -2.38638653E-22
  -14.7399998       3.09807271E-21
  -14.7299995       6.88926340E-21
  -14.7200003       9.89053719E-21
  -14.7100000       1.05784429E-20
  -14.6999998       7.60718347E-21
  -14.6899996       3.99059589E-22
  -14.6800003      -1.02988962E-20
  -14.6700001      -2.21163620E-20
  -14.6599998      -3.12381333E-20
  -14.6499996      -3.31885800E-20
  -14.6400003      -2.41784053E-20
  -14.6300001      -2.74682185E-21
  -14.6199999       2.87776361E-20
  -14.6099997       6.35893157E-20
  -14.6000004       9.10266511E-20
  -14.5900002       9.87716853E-20
  -14.5799999       7.64411821E-20
  -14.5699997       1.98333079E-20
  -14.5600004      -6.53873026E-20
  -14.5500002      -1.62007562E-19
  -14.5400000      -2.42835542E-19
  -14.5299997      -2.76092416E-19
  -14.5200005      -2.34115145E-19
  -14.5100002      -1.03606944E-19
  -14.5000000       1.05378409E-19
  -14.4899998       3.54984482E-19
  -14.4799995       5.82426968E-19
  -14.4700003       7.11490046E-19
  -14.4600000       6.71609860E-19
  -14.4499998       4.20863214E-19
  -14.4399996      -3.30296062E-20
  -14.4300003      -6.20562941E-19
  -14.4200001      -1.21317100E-18
  -14.4099998      -1.64393306E-18
  -14.3999996      -1.74484631E-18
  -14.3900003      -1.39406041E-18
  -14.3800001      -5.62021870E-19
  -14.3699999       6.56774272E-19
  -14.3599997       2.03865714E-18
  -14.3500004       3.25973268E-18
  -14.3400002       3.95852204E-18
  -14.3299999       3.82260468E-18
  -14.3199997       2.68114528E-18
  -14.3100004       5.80103315E-19
  -14.3000002      -2.18282438E-18
  -14.2900000      -5.08015372E-18
  -14.2799997      -7.43830585E-18
  -14.2700005      -8.57303801E-18
  -14.2600002      -7.95203216E-18
  -14.2500000      -5.34957761E-18
  -14.2399998      -9.55030682E-19
  -14.2299995       4.59755215E-18
  -14.2200003       1.02969825E-17
  -14.2100000       1.49178467E-17
  -14.1999998       1.72549016E-17
  -14.1899996       1.63863553E-17
  -14.1800003       1.19125580E-17
  -14.1700001       4.11647383E-18
  -14.1599998      -5.99609288E-18
  -14.1499996      -1.67974938E-17
  -14.1400003      -2.62744839E-17
  -14.1300001      -3.23666509E-17
  -14.1199999      -3.33518958E-17
  -14.1099997      -2.82112959E-17
  -14.1000004      -1.69051994E-17
  -14.0900002      -5.03983570E-19
  -14.0799999       1.88613442E-17
  -14.0699997       3.82353352E-17
  -14.0600004       5.42379052E-17
  -14.0500002       6.35770291E-17
  -14.0400000       6.36034393E-17
  -14.0299997       5.28246837E-17
  -14.0200005       3.12962527E-17
  -14.0100002       8.18188539E-19
  -14.0000000      -3.51125498E-17
  -13.9899998      -7.16138895E-17
  -13.9799995      -1.02978553E-16
  -13.9700003      -1.23429416E-16
  -13.9600000      -1.27983198E-16
  -13.9499998      -1.13310125E-16
  -13.9399996      -7.84646853E-17
  -13.9300003      -2.53663571E-17
  -13.9200001       4.10687167E-17
  -13.9099998       1.13205305E-16
  -13.8999996       1.81385449E-16
  -13.8900003       2.34995712E-16
  -13.8800001       2.63803991E-16
  -13.8699999       2.59418822E-16
  -13.8599997       2.16697167E-16
  -13.8500004       1.34919603E-16
  -13.8400002       1.85625451E-17
  -13.8299999      -1.22469701E-16
  -13.8199997      -2.73247217E-16
  -13.8100004      -4.14890819E-16
  -13.8000002      -5.26301063E-16
  -13.7900000      -5.86455172E-16
  -13.7799997      -5.77116052E-16
  -13.7700005      -4.85726120E-16
  -13.7600002      -3.08185023E-16
  -13.7500000      -5.11457320E-17
  -13.7399998       2.66579559E-16
  -13.7299995       6.13914498E-16
  -13.7200003       9.49063360E-16
  -13.7100000       1.22291896E-15
  -13.6999998       1.38431971E-15
  -13.6899996       1.38685181E-15
  -13.6800003       1.19655241E-15
  -13.6700001       7.99552304E-16
  -13.6599998       2.08449620E-16
  -13.6499996      -5.33874755E-16
  -13.6400003      -1.35418302E-15
  -13.6300001      -2.15336210E-15
  -13.6199999      -2.81570608E-15
  -13.6099997      -3.22250127E-15
  -13.6000004      -3.26861142E-15
  -13.5900002      -2.88005115E-15
  -13.5799999      -2.03002288E-15
  -13.5699997      -7.50759977E-16
  -13.5600004       8.61249919E-16
  -13.5500002       2.64838086E-15
  -13.5400000       4.40401567E-15
  -13.5299997       5.89316693E-15
  -13.5200005       6.87971214E-15
  -13.5100002       7.15728610E-15
  -13.5000000       6.58006449E-15
  -13.4899998       5.08939535E-15
  -13.4799995       2.73243744E-15
  -13.4700003      -3.30282525E-16
  -13.4600000      -3.83036981E-15
  -13.4499998      -7.41062519E-15
  -13.4399996      -1.06566714E-14
  -13.4300003      -1.31386643E-14
  -13.4200001      -1.44592539E-14
  -13.4099998      -1.43031017E-14
  -13.3999996      -1.24825661E-14
  -13.3900003      -8.97413874E-15
  -13.3800001      -3.94067679E-15
  -13.3699999       2.26463639E-15
  -13.3599997       9.11503251E-15
  -13.3500004       1.59481023E-14
  -13.3400002       2.20230802E-14
  -13.3299999       2.65930500E-14
  -13.3199997       2.89854912E-14
  -13.3100004       2.86826328E-14
  -13.3000002       2.53922504E-14
  -13.2900000       1.90997747E-14
  -13.2799997       1.00939341E-14
  -13.2700005      -1.03901699E-15
  -13.2600002      -1.34538893E-14
  -13.2500000      -2.61152167E-14
  -13.2399998      -3.78892271E-14
  -13.2299995      -4.76491100E-14
  -13.2200003      -5.43817649E-14
  -13.2100000      -5.72834897E-14
  -13.1999998      -5.58340368E-14
  -13.1899996      -4.98410415E-14
  -13.1800003      -3.94510711E-14
  -13.1700001      -2.51281031E-14
  -13.1599998      -7.60472702E-15
  -13.1499996       1.21851958E-14
  -13.1400003       3.31813095E-14
  -13.1300001       5.42670055E-14
  -13.1199999       7.43242409E-14
  -13.1099997       9.22634704E-14
  -13.1000004       1.07023501E-13
  -13.0900002       1.17538967E-13
  -13.0799999       1.22677720E-13
  -13.0699997       1.21154524E-13
  -13.0600004       1.11431487E-13
  -13.0500002       9.16182684E-14
  -13.0400000       5.93867268E-14
  -13.0299997       1.19176392E-14
  -13.0200005      -5.41052087E-14
  -13.0100002      -1.42441966E-13
  -13.0000000      -2.57172322E-13
  -12.9899998      -4.02498076E-13
  -12.9799995      -5.82475799E-13
  -12.9700003      -8.00692032E-13
  -12.9600000      -1.05989642E-12
  -12.9499998      -1.36161742E-12
  -12.9399996      -1.70579675E-12
  -12.9300003      -2.09046734E-12
  -12.9200001      -2.51150338E-12
  -12.9099998      -2.96247727E-12
  -12.8999996      -3.43463821E-12
  -12.8900003      -3.91701949E-12
  -12.8800001      -4.39667573E-12
  -12.8699999      -4.85904936E-12
  -12.8599997      -5.28843636E-12
  -12.8500004      -5.66852164E-12
  -12.8400002      -5.98296629E-12
  -12.8299999      -6.21599517E-12
  -12.8199997      -6.35295722E-12
  -12.8100004      -6.38081862E-12
  -12.8000002      -6.28858077E-12
  -12.7900000      -6.06758220E-12
  -12.7799997      -5.71167896E-12
  -12.7700005      -5.21731183E-12
  -12.7600002      -4.58347076E-12
  -12.7500000      -3.81154353E-12
  -12.7399998      -2.90510107E-12
  -12.7299995      -1.86962403E-12
  -12.7200003      -7.12206119E-13
  -12.7100000       5.58747384E-13
  -12.6999998       1.93380359E-12
  -12.6899996       3.40274510E-12
  -12.6800003       4.95475536E-12
  -12.6700001       6.57855324E-12
  -12.6599998       8.26244888E-12
  -12.6499996       9.99433956E-12
  -12.6400003       1.17616368E-11
  -12.6300001       1.35511437E-11
  -12.6199999       1.53489148E-11
  -12.6099997       1.71400533E-11
  -12.6000004       1.89085622E-11
  -12.5900002       2.06371812E-11
  -12.5799999       2.23072828E-11
  -12.5699997       2.38988152E-11
  -12.5600004       2.53903443E-11
  -12.5500002       2.67591591E-11
  -12.5400000       2.79814800E-11
  -12.5299997       2.90327450E-11
  -12.5200005       2.98879914E-11
  -12.5100002       3.05223138E-11
  -12.5000000       3.09113880E-11
  -12.4899998       3.10319825E-11
  -12.4799995       3.08625868E-11
  -12.4700003       3.03838864E-11
  -12.4600000       2.95793633E-11
  -12.4499998       2.84356878E-11
  -12.4399996       2.69431508E-11
  -12.4300003       2.50958421E-11
  -12.4200001       2.28919210E-11
  -12.4099998       2.03335924E-11
  -12.3999996       1.74270928E-11
  -12.3900003       1.41825466E-11
  -12.3800001       1.06137607E-11
  -12.3699999       6.73799081E-12
  -12.3599997       2.57566971E-12
  -12.3500004      -1.84988873E-12
  -12.3400002      -6.51277860E-12
  -12.3299999      -1.13847551E-11
  -12.3199997      -1.64355526E-11
  -12.3100004      -2.16331536E-11
  -12.3000002      -2.69440321E-11
  -12.2900000      -3.23335039E-11
  -12.2799997      -3.77659397E-11
  -12.2700005      -4.32050888E-11
  -12.2600002      -4.86142758E-11
  -12.2500000      -5.39567002E-11
  -12.2399998      -5.91955304E-11
  -12.2299995      -6.42941880E-11
  -12.2200003      -6.92163063E-11
  -12.2100000      -7.39257544E-11
  -12.1999998      -7.83867762E-11
  -12.1899996      -8.25636781E-11
  -12.1800003      -8.64208288E-11
  -12.1700001      -8.99223335E-11
  -12.1599998      -9.30317698E-11
  -12.1499996      -9.57120286E-11
  -12.1400003      -9.79249390E-11
  -12.1300001      -9.96310812E-11
  -12.1199999      -1.00789564E-10
  -12.1099997      -1.01358054E-10
  -12.1000004      -1.01292925E-10
  -12.0900002      -1.00549236E-10
  -12.0799999      -9.90814306E-11
  -12.0699997      -9.68437899E-11
  -12.0600004      -9.37911901E-11
  -12.0500002      -8.98798883E-11
  -12.0400000      -8.50686466E-11
  -12.0299997      -7.93194815E-11
  -12.0200005      -7.25988228E-11
  -12.0100002      -6.48783111E-11
  -12.0000000      -5.61357731E-11
  -11.9899998      -4.63555860E-11
  -11.9799995      -3.55294127E-11
  -11.9700003      -2.36562141E-11
  -11.9600000      -1.07422335E-11
  -11.9499998       3.19939648E-12
  -11.9399996       1.81493275E-11
  -11.9300003       3.40827470E-11
  -11.9200001       5.09706131E-11
  -11.9099998       6.87807589E-11
  -11.8999996       8.74792738E-11
  -11.8900003       1.07031793E-10
  -11.8800001       1.27404823E-10
  -11.8699999       1.48566909E-10
  -11.8599997       1.70489636E-10
  -11.8500004       1.93148580E-10
  -11.8400002       2.16523757E-10
  -11.8299999       2.40600428E-10
  -11.8199997       2.65368422E-10
  -11.8100004       2.90822838E-10
  -11.8000002       3.16962817E-10
  -11.7900000       3.43791356E-10
  -11.7799997       3.71313730E-10
  -11.7700005       3.99536321E-10
  -11.7600002       4.28465624E-10
  -11.7500000       4.58106081E-10
  -11.7399998       4.88458773E-10
  -11.7299995       5.19520205E-10
  -11.7200003       5.51281076E-10
  -11.7100000       5.83724624E-10
  -11.6999998       6.16826978E-10
  -11.6899996       6.50555554E-10
  -11.6800003       6.84870272E-10
  -11.6700001       7.19723114E-10
  -11.6599998       7.55059903E-10
  -11.6499996       7.90819354E-10
  -11.6400003       8.26936575E-10
  -11.6300001       8.63343230E-10
  -11.6199999       8.99970487E-10
  -11.6099997       9.36749456E-10
  -11.6000004       9.73614633E-10
  -11.5900002       1.01050357E-09
  -11.5799999       1.04736064E-09
  -11.5699997       1.08413512E-09
  -11.5600004       1.12078746E-09
  -11.5500002       1.15728360E-09
  -11.5400000       1.19359944E-09
  -11.5299997       1.22971977E-09
  -11.5200005       1.26563637E-09
  -11.5100002       1.30134881E-09
  -11.5000000       1.33686096E-09
  -11.4899998       1.37218259E-09
  -11.4799995       1.40732614E-09
  -11.4700003       1.44230450E-09
  -11.4600000       1.47713153E-09
  -11.4499998       1.51181878E-09
  -11.4399996       1.54637503E-09
  -11.4300003       1.58080393E-09
  -11.4200001       1.61510438E-09
  -11.4099998       1.64926750E-09
  -11.3999996       1.68327974E-09
  -11.3900003       1.71711501E-09
  -11.3800001       1.75074411E-09
  -11.3699999       1.78412485E-09
  -11.3599997       1.81720994E-09
  -11.3500004       1.84994287E-09
  -11.3400002       1.88225968E-09
  -11.3299999       1.91409022E-09
  -11.3199997       1.94535899E-09
  -11.3100004       1.97598649E-09
  -11.3000002       2.00588945E-09
  -11.2900000       2.03498396E-09
  -11.2799997       2.06318718E-09
  -11.2700005       2.09041340E-09
  -11.2600002       2.11658624E-09
  -11.2500000       2.14162954E-09
  -11.2399998       2.16547669E-09
  -11.2299995       2.18806639E-09
  -11.2200003       2.20935159E-09
  -11.2100000       2.22929275E-09
  -11.1999998       2.24786012E-09
  -11.1899996       2.26503993E-09
  -11.1800003       2.28083041E-09
  -11.1700001       2.29524000E-09
  -11.1599998       2.30828778E-09
  -11.1499996       2.32000930E-09
  -11.1400003       2.33044450E-09
  -11.1300001       2.33964981E-09
  -11.1199999       2.34767916E-09
  -11.1099997       2.35460362E-09
  -11.1000004       2.36049003E-09
  -11.0900002       2.36541764E-09
  -11.0799999       2.36945774E-09
  -11.0699997       2.37268671E-09
  -11.0600004       2.37517916E-09
  -11.0500002       2.37700370E-09
  -11.0400000       2.37822828E-09
  -11.0299997       2.37891129E-09
  -11.0200005       2.37910447E-09
  -11.0100002       2.37885311E-09
  -11.0000000       2.37819187E-09
  -10.9899998       2.37714848E-09
  -10.9799995       2.37573916E-09
  -10.9700003       2.37396747E-09
  -10.9600000       2.37183539E-09
  -10.9499998       2.36933406E-09
  -10.9399996       2.36644193E-09
  -10.9300003       2.36312903E-09
  -10.9200001       2.35936670E-09
  -10.9099998       2.35511521E-09
  -10.8999996       2.35033615E-09
  -10.8900003       2.34498354E-09
  -10.8800001       2.33901187E-09
  -10.8699999       2.33237629E-09
  -10.8599997       2.32503661E-09
  -10.8500004       2.31694885E-09
  -10.8400002       2.30808150E-09
  -10.8299999       2.29840214E-09
  -10.8199997       2.28789676E-09
  -10.8100004       2.27654740E-09
  -10.8000002       2.26434382E-09
  -10.7900000       2.25130048E-09
  -10.7799997       2.23742691E-09
  -10.7700005       2.22275109E-09
  -10.7600002       2.20731189E-09
  -10.7500000       2.19116014E-09
  -10.7399998       2.17435736E-09
  -10.7299995       2.15697549E-09
  -10.7200003       2.13910156E-09
  -10.7100000       2.12082818E-09
  -10.6999998       2.10226303E-09
  -10.6899996       2.08352091E-09
  -10.6800003       2.06472373E-09
  -10.6700001       2.04600581E-09
  -10.6599998       2.02750194E-09
  -10.6499996       2.00935646E-09
  -10.6400003       1.99171790E-09
  -10.6300001       1.97472239E-09
  -10.6199999       1.95852401E-09
  -10.6099997       1.94326333E-09
  -10.6000004       1.92907867E-09
  -10.5900002       1.91609772E-09
  -10.5799999       1.90443861E-09
  -10.5699997       1.89420923E-09
  -10.5600004       1.88550375E-09
  -10.5500002       1.87839611E-09
  -10.5400000       1.87294180E-09
  -10.5299997       1.86917282E-09
  -10.5200005       1.86710447E-09
  -10.5100002       1.86671878E-09
  -10.5000000       1.86798244E-09
  -10.4899998       1.87082483E-09
  -10.4799995       1.87516069E-09
  -10.4700003       1.88086902E-09
  -10.4600000       1.88780769E-09
  -10.4499998       1.89580640E-09
  -10.4399996       1.90467264E-09
  -10.4300003       1.91418814E-09
  -10.4200001       1.92411465E-09
  -10.4099998       1.93418970E-09
  -10.3999996       1.94413596E-09
  -10.3900003       1.95365524E-09
  -10.3800001       1.96243399E-09
  -10.3699999       1.97014915E-09
  -10.3599997       1.97646499E-09
  -10.3500004       1.98103489E-09
  -10.3400002       1.98351446E-09
  -10.3299999       1.98355044E-09
  -10.3199997       1.98079952E-09
  -10.3100004       1.97491890E-09
  -10.3000002       1.96557570E-09
  -10.2900000       1.95245287E-09
  -10.2799997       1.93524707E-09
  -10.2700005       1.91367433E-09
  -10.2600002       1.88747640E-09
  -10.2500000       1.85642079E-09
  -10.2399998       1.82030557E-09
  -10.2299995       1.77895876E-09
  -10.2200003       1.73224701E-09
  -10.2100000       1.68007575E-09
  -10.1999998       1.62238711E-09
  -10.1899996       1.55916791E-09
  -10.1800003       1.49044665E-09
  -10.1700001       1.41629697E-09
  -10.1599998       1.33683731E-09
  -10.1499996       1.25223121E-09
  -10.1400003       1.16268695E-09
  -10.1300001       1.06846276E-09
  -10.1199999       9.69854530E-10
  -10.1099997       8.67207306E-10
  -10.1000004       7.60904340E-10
  -10.0900002       6.51371734E-10
  -10.0799999       5.39072398E-10
  -10.0699997       4.24505209E-10
  -10.0600004       3.08205211E-10
  -10.0500002       1.90737370E-10
  -10.0400000       7.26951832E-11
  -10.0299997      -4.53016444E-11
  -10.0200005      -1.62610883E-10
  -10.0100002      -2.78571888E-10
  -10.0000000      -3.92507860E-10
  -9.98999977      -5.03729836E-10
  -9.97999954      -6.11540429E-10
  -9.97000027      -7.15236759E-10
  -9.96000004      -8.14114332E-10
  -9.94999981      -9.07469488E-10
  -9.93999958      -9.94602400E-10
  -9.93000031      -1.07482068E-09
  -9.92000008      -1.14744036E-09
  -9.90999985      -1.21179167E-09
  -9.89999962      -1.26721877E-09
  -9.89000034      -1.31308298E-09
  -9.88000011      -1.34876577E-09
  -9.86999989      -1.37367118E-09
  -9.85999966      -1.38722545E-09
  -9.85000038      -1.38888223E-09
  -9.84000015      -1.37811917E-09
  -9.82999992      -1.35444422E-09
  -9.81999969      -1.31739186E-09
  -9.81000042      -1.26653221E-09
  -9.80000019      -1.20146315E-09
  -9.78999996      -1.12181442E-09
  -9.77999973      -1.02725317E-09
  -9.77000046      -9.17476151E-10
  -9.76000023      -7.92212573E-10
  -9.75000000      -6.51231458E-10
  -9.73999977      -4.94329577E-10
  -9.72999954      -3.21334931E-10
  -9.72000027      -1.32109670E-10
  -9.71000004       7.34528757E-11
  -9.69999981       2.95437785E-10
  -9.68999958       5.33895927E-10
  -9.68000031       7.88849985E-10
  -9.67000008       1.06029829E-09
  -9.65999985       1.34821387E-09
  -9.64999962       1.65254355E-09
  -9.64000034       1.97321137E-09
  -9.63000011       2.31012542E-09
  -9.61999989       2.66316480E-09
  -9.60999966       3.03219583E-09
  -9.60000038       3.41705730E-09
  -9.59000015       3.81757559E-09
  -9.57999992       4.23356017E-09
  -9.56999969       4.66480810E-09
  -9.56000042       5.11109910E-09
  -9.55000019       5.57220226E-09
  -9.53999996       6.04786221E-09
  -9.52999973       6.53782317E-09
  -9.52000046       7.04181868E-09
  -9.51000023       7.55956187E-09
  -9.50000000       8.09076184E-09
  -9.48999977       8.63511751E-09
  -9.47999954       9.19231269E-09
  -9.47000027       9.76201342E-09
  -9.46000004       1.03438955E-08
  -9.44999981       1.09376073E-08
  -9.43999958       1.15427907E-08
  -9.43000031       1.21590853E-08
  -9.42000008       1.27861064E-08
  -9.40999985       1.34234659E-08
  -9.39999962       1.40707668E-08
  -9.39000034       1.47275934E-08
  -9.38000011       1.53935265E-08
  -9.36999989       1.60681228E-08
  -9.35999966       1.67509349E-08
  -9.35000038       1.74415025E-08
  -9.34000015       1.81393442E-08
  -9.32999992       1.88439611E-08
  -9.31999969       1.95548502E-08
  -9.31000042       2.02714894E-08
  -9.30000019       2.09933368E-08
  -9.28999996       2.17198277E-08
  -9.27999973       2.24503935E-08
  -9.27000046       2.31844535E-08
  -9.26000023       2.39214089E-08
  -9.25000000       2.46606540E-08
  -9.23999977       2.54015706E-08
  -9.22999954       2.61435282E-08
  -9.22000027       2.68859015E-08
  -9.21000004       2.76280527E-08
  -9.19999981       2.83693460E-08
  -9.18999958       2.91091542E-08
  -9.18000031       2.98468450E-08
  -9.17000008       3.05817949E-08
  -9.15999985       3.13133945E-08
  -9.14999962       3.20410471E-08
  -9.14000034       3.27641629E-08
  -9.13000011       3.34821877E-08
  -9.11999989       3.41945601E-08
  -9.10999966       3.49007721E-08
  -9.10000038       3.56003440E-08
  -9.09000015       3.62928070E-08
  -9.07999992       3.69777240E-08
  -9.06999969       3.76547185E-08
  -9.06000042       3.83234102E-08
  -9.05000019       3.89835044E-08
  -9.03999996       3.96347097E-08
  -9.02999973       4.02767952E-08
  -9.02000046       4.09095655E-08
  -9.01000023       4.15328643E-08
  -9.00000000       4.21465813E-08
  -8.98999977       4.27506599E-08
  -8.97999954       4.33450680E-08
  -8.97000027       4.39298233E-08
  -8.96000004       4.45050006E-08
  -8.94999981       4.50707134E-08
  -8.93999958       4.56271074E-08
  -8.93000031       4.61743710E-08
  -8.92000008       4.67127350E-08
  -8.90999985       4.72424730E-08
  -8.89999962       4.77639119E-08
  -8.89000034       4.82773643E-08
  -8.88000011       4.87832565E-08
  -8.86999989       4.92819687E-08
  -8.85999966       4.97739769E-08
  -8.85000038       5.02597572E-08
  -8.84000015       5.07398035E-08
  -8.82999992       5.12146698E-08
  -8.81999969       5.16848822E-08
  -8.81000042       5.21510266E-08
  -8.80000019       5.26136503E-08
  -8.78999996       5.30733715E-08
  -8.77999973       5.35307585E-08
  -8.77000046       5.39864580E-08
  -8.76000023       5.44410170E-08
  -8.75000000       5.48950432E-08
  -8.73999977       5.53491581E-08
  -8.72999954       5.58039481E-08
  -8.72000027       5.62599212E-08
  -8.71000004       5.67176670E-08
  -8.69999981       5.71777541E-08
  -8.68999958       5.76406372E-08
  -8.68000031       5.81068491E-08
  -8.67000008       5.85768696E-08
  -8.65999985       5.90511249E-08
  -8.64999962       5.95300556E-08
  -8.64000034       6.00140879E-08
  -8.63000011       6.05035737E-08
  -8.61999989       6.09988788E-08
  -8.60999966       6.15003231E-08
  -8.60000038       6.20081906E-08
  -8.59000015       6.25227798E-08
  -8.57999992       6.30443679E-08
  -8.56999969       6.35731396E-08
  -8.56000042       6.41092868E-08
  -8.55000019       6.46530225E-08
  -8.53999996       6.52044818E-08
  -8.52999973       6.57637784E-08
  -8.52000046       6.63310615E-08
  -8.51000023       6.69063809E-08
  -8.50000000       6.74898146E-08
  -8.48999977       6.80814338E-08
  -8.47999954       6.86812669E-08
  -8.47000027       6.92893565E-08
  -8.46000004       6.99056883E-08
  -8.44999981       7.05302625E-08
  -8.43999958       7.11631429E-08
  -8.43000031       7.18042230E-08
  -8.42000008       7.24535028E-08
  -8.40999985       7.31110461E-08
  -8.39999962       7.37767252E-08
  -8.39000034       7.44506110E-08
  -8.38000011       7.51326539E-08
  -8.36999989       7.58228040E-08
  -8.35999966       7.65210970E-08
  -8.35000038       7.72274547E-08
  -8.34000015       7.79419125E-08
  -8.32999992       7.86644918E-08
  -8.31999969       7.93951571E-08
  -8.31000042       8.01339226E-08
  -8.30000019       8.08808451E-08
  -8.28999996       8.16359531E-08
  -8.27999973       8.23992039E-08
  -8.27000046       8.31707538E-08
  -8.26000023       8.39505603E-08
  -8.25000000       8.47387298E-08
  -8.23999977       8.55353974E-08
  -8.22999954       8.63404921E-08
  -8.22000027       8.71542269E-08
  -8.21000004       8.79767015E-08
  -8.19999981       8.88079299E-08
  -8.18999958       8.96481254E-08
  -8.18000031       9.04973518E-08
  -8.17000008       9.13557869E-08
  -8.15999985       9.22235159E-08
  -8.14999962       9.31007023E-08
  -8.14000034       9.39874241E-08
  -8.13000011       9.48838803E-08
  -8.11999989       9.57902913E-08
  -8.10999966       9.67066924E-08
  -8.10000038       9.76333752E-08
  -8.09000015       9.85704105E-08
  -8.07999992       9.95180471E-08
  -8.06999969       1.00476456E-07
  -8.06000042       1.01445849E-07
  -8.05000019       1.02426391E-07
  -8.03999996       1.03418316E-07
  -8.02999973       1.04421886E-07
  -8.02000046       1.05437309E-07
  -8.01000023       1.06464789E-07
  -8.00000000       1.07504569E-07
  -7.98999977       1.08556968E-07
  -7.98000002       1.09622228E-07
  -7.96999979       1.10700583E-07
  -7.96000004       1.11792403E-07
  -7.94999981       1.12897887E-07
  -7.94000006       1.14017418E-07
  -7.92999983       1.15151288E-07
  -7.92000008       1.16299844E-07
  -7.90999985       1.17463408E-07
  -7.90000010       1.18642319E-07
  -7.88999987       1.19836955E-07
  -7.88000011       1.21047734E-07
  -7.86999989       1.22274955E-07
  -7.86000013       1.23519030E-07
  -7.84999990       1.24780399E-07
  -7.84000015       1.26059447E-07
  -7.82999992       1.27356572E-07
  -7.82000017       1.28672269E-07
  -7.80999994       1.30006939E-07
  -7.80000019       1.31361034E-07
  -7.78999996       1.32735025E-07
  -7.78000021       1.34129337E-07
  -7.76999998       1.35544497E-07
  -7.76000023       1.36980915E-07
  -7.75000000       1.38439134E-07
  -7.73999977       1.39919663E-07
  -7.73000002       1.41422916E-07
  -7.71999979       1.42949560E-07
  -7.71000004       1.44499936E-07
  -7.69999981       1.46074555E-07
  -7.69000006       1.47674044E-07
  -7.67999983       1.49298799E-07
  -7.67000008       1.50949418E-07
  -7.65999985       1.52626271E-07
  -7.65000010       1.54329882E-07
  -7.63999987       1.56060864E-07
  -7.63000011       1.57819485E-07
  -7.61999989       1.59606273E-07
  -7.61000013       1.61421767E-07
  -7.59999990       1.63266307E-07
  -7.59000015       1.65140335E-07
  -7.57999992       1.67044334E-07
  -7.57000017       1.68978460E-07
  -7.55999994       1.70943338E-07
  -7.55000019       1.72939082E-07
  -7.53999996       1.74966203E-07
  -7.53000021       1.77024830E-07
  -7.51999998       1.79115361E-07
  -7.51000023       1.81238036E-07
  -7.50000000       1.83393112E-07
  -7.48999977       1.85580689E-07
  -7.48000002       1.87801049E-07
  -7.46999979       1.90054280E-07
  -7.46000004       1.92340451E-07
  -7.44999981       1.94659791E-07
  -7.44000006       1.97012255E-07