  -16.0000000       0.00000000    
  -15.9899998       0.00000000    
  -15.9799995       0.00000000    
  -15.9700003       0.00000000    
  -15.9600000       0.00000000    
  -15.9499998       0.00000000    
  -15.9399996       0.00000000    
  -15.9300003       0.00000000    
  -15.9200001       1.21302309E-30
  -15.9099998       2.94332181E-30
  -15.8999996      -7.48360524E-29
  -15.8900003      -8.01944421E-28
  -15.8800001      -4.41578258E-27
  -15.8699999      -1.65182574E-26
  -15.8599997      -4.43325315E-26
  -15.8500004      -7.74417232E-26
  -15.8400002      -1.91558554E-26
  -15.8299999       4.77265186E-25
  -15.8199997       2.28117925E-24
  -15.8100004       7.02136929E-24
  -15.8000002       1.67907513E-23
  -15.7900000       3.23798245E-23
  -15.7799997       4.90674449E-23
  -15.7700005       5.03375993E-23
  -15.7600002       3.48897125E-24
  -15.7500000      -1.33658256E-22
  -15.7399998      -3.82813725E-22
  -15.7299995      -6.86847281E-22
  -15.7200003      -8.42176038E-22
  -15.7100000      -4.80961804E-22
  -15.6999998       8.04740814E-22
  -15.6899996       3.12385728E-21
  -15.6800003       5.77944995E-21
  -15.6700001       6.86842717E-21
  -15.6599998       3.50022203E-21
  -15.6499996      -6.82159695E-21
  -15.6400003      -2.35502812E-20
  -15.6300001      -4.00967175E-20
  -15.6199999      -4.26986173E-20
  -15.6099997      -1.40971060E-20
  -15.6000004       5.61017931E-20
  -15.5900002       1.56173380E-19
  -15.5799999       2.39610830E-19
  -15.5699997       2.27461485E-19
  -15.5600004       3.76201743E-20
  -15.5500002      -3.57103978E-19
  -15.5400000      -8.60521316E-19
  -15.5299997      -1.21576515E-18
  -15.5200005      -1.05200076E-18
  -15.5100002      -4.96427792E-20
  -15.5000000       1.79882501E-18
  -15.4899998       3.94008625E-18
  -15.4799995       5.20333994E-18
  -15.4700003       4.11641427E-18
  -15.4600000      -3.47159431E-19
  -15.4499998      -7.77954846E-18
  -15.4399996      -1.55897936E-17
  -15.4300003      -1.91475669E-17
  -15.4200001      -1.33317460E-17
  -15.4099998       4.56793950E-18
  -15.3999996       3.15428419E-17
  -15.3900003       5.69628598E-17
  -15.3800001       6.41649163E-17
  -15.3699999       3.67688466E-17
  -15.3599997      -3.11674541E-17
  -15.3500004      -1.24905450E-16
  -15.3400002      -2.04763465E-16
  -15.3299999      -2.13977635E-16
  -15.3199997      -1.01353944E-16
  -15.3100004       1.45621560E-16
  -15.3000002       4.69999154E-16
  -15.2900000       7.35608781E-16
  -15.2799997       7.55745612E-16
  -15.2700005       3.66160220E-16
  -15.2600002      -4.72650261E-16
  -15.2500000      -1.58253431E-15
  -15.2399998      -2.53822931E-15
  -15.2299995      -2.75034520E-15
  -15.2200003      -1.67695773E-15
  -15.2100000       8.77087741E-16
  -15.1999998       4.47803026E-15
  -15.1899996       7.94550532E-15
  -15.1800003       9.53687355E-15
  -15.1700001       7.49094678E-15
  -15.1599998       8.45146446E-16
  -15.1499996      -9.72622099E-15
  -15.1400003      -2.14270418E-14
  -15.1300001      -2.95861798E-14
  -15.1199999      -2.88507045E-14
  -15.1099997      -1.52140026E-14
  -15.1000004       1.16415709E-14
  -15.0900002       4.65568000E-14
  -15.0799999       7.86481543E-14
  -15.0699997       9.33364375E-14
  -15.0600004       7.67393487E-14
  -15.0500002       2.15895569E-14
  -15.0400000      -6.70922804E-14
  -15.0299997      -1.68909672E-13
  -15.0200005      -2.49789745E-13
  -15.0100002      -2.69632109E-13
  -15.0000000      -1.95223557E-13
  -14.9899998      -1.54976655E-14
  -14.9799995       2.45700053E-13
  -14.9700003       5.24973565E-13
  -14.9600000       7.27504591E-13
  -14.9499998       7.49571737E-13
  -14.9399996       5.12473852E-13
  -14.9300003      -2.26447350E-16
  -14.9200001      -7.14160881E-13
  -14.9099998      -1.45734987E-12
  -14.8999996      -1.98495474E-12
  -14.8900003      -2.03772481E-12
  -14.8800001      -1.42534617E-12
  -14.8699999      -1.14457312E-13
  -14.8599997       1.70704737E-12
  -14.8500004       3.61881358E-12
  -14.8400002       5.03060657E-12
  -14.8299999       5.32093944E-12
  -14.8199997       4.02916936E-12
  -14.8100004       1.05389894E-12
  -14.8000002      -3.20555214E-12
  -14.7900000      -7.82722324E-12
  -14.7799997      -1.15051328E-11
  -14.7700005      -1.28482537E-11
  -14.7600002      -1.07874066E-11
  -14.7500000      -4.98911936E-12
  -14.7399998       3.85222279E-12
  -14.7299995       1.39653549E-11
  -14.7200003       2.27690280E-11
  -14.7100000       2.74448103E-11
  -14.6999998       2.57078230E-11
  -14.6899996       1.65836234E-11
  -14.6800003       9.59039814E-13
  -14.6700001      -1.83001479E-11
  -14.6599998      -3.67778030E-11
  -14.6499996      -4.94510544E-11
  -14.6400003      -5.19597629E-11
  -14.6300001      -4.18893462E-11
  -14.6199999      -1.97080043E-11
  -14.6099997       1.09455934E-11
  -14.6000004       4.37784357E-11
  -14.5900002       7.11098611E-11
  -14.5799999       8.56258675E-11
  -14.5699997       8.22103843E-11
  -14.5600004       5.94011992E-11
  -14.5500002       2.00955034E-11
  -14.5400000      -2.86947705E-11
  -14.5299997      -7.70183153E-11
  -14.5200005      -1.13870413E-10
  -14.5100002      -1.29432950E-10
  -14.5000000      -1.17267460E-10
  -14.4899998      -7.60858529E-11
  -14.4799995      -1.07907390E-11
  -14.4700003       6.74538550E-11
  -14.4600000       1.42303516E-10
  -14.4499998       1.94572830E-10
  -14.4399996       2.05806899E-10
  -14.4300003       1.62802938E-10
  -14.4200001       6.24293950E-11
  -14.4099998      -8.43408815E-11
  -14.3999996      -2.50598209E-10
  -14.3900003      -3.95293159E-10
  -14.3800001      -4.69641215E-10
  -14.3699999      -4.28072439E-10
  -14.3599997      -2.42208559E-10
  -14.3500004       8.51983623E-11
  -14.3400002       5.10553988E-10
  -14.3299999       9.48270684E-10
  -14.3199997       1.28128819E-09
  -14.3100004       1.38378231E-09
  -14.3000002       1.15303589E-09
  -14.2900000       5.43840306E-10
  -14.2799997      -4.03683614E-10
  -14.2700005      -1.55229696E-09
  -14.2600002      -2.67890532E-09
  -14.2500000      -3.51080831E-09
  -14.2399998      -3.78217724E-09
  -14.2299995      -3.29951710E-09
  -14.2200003      -2.00038941E-09
  -14.2100000       1.07767484E-11
  -14.1999998       2.46197662E-09
  -14.1899996       4.95212005E-09
  -14.1800003       7.02260650E-09
  -14.1700001       8.24644708E-09
  -14.1599998       8.31359781E-09
  -14.1499996       7.09124803E-09
  -14.1400003       4.64420102E-09
  -14.1300001       1.21175003E-09
  -14.1199999      -2.84955748E-09
  -14.1099997      -7.13740933E-09
  -14.1000004      -1.12651470E-08
  -14.0900002      -1.48926160E-08
  -14.0799999      -1.77173103E-08
  -14.0699997      -1.94326795E-08
  -14.0600004      -1.96758165E-08
  -14.0500002      -1.79962658E-08
  -14.0400000      -1.38767984E-08
  -14.0299997      -6.82508805E-09
  -14.0200005       3.46606299E-09
  -14.0100002       1.69169461E-08
  -14.0000000       3.28652945E-08
  -13.9899998       4.99347408E-08
  -13.9799995       6.60203483E-08
  -13.9700003       7.84241223E-08
  -13.9600000       8.41427550E-08
  -13.9499998       8.02760880E-08
  -13.9399996       6.44964686E-08
  -13.9300003       3.55057814E-08
  -13.9200001      -6.59131505E-09
  -13.9099998      -6.00493166E-08
  -13.8999996      -1.21402167E-07
  -13.8900003      -1.85533125E-07
  -13.8800001      -2.45862225E-07
  -13.8699999      -2.94607730E-07
  -13.8599997      -3.23082446E-07
  -13.8500004      -3.22000886E-07
  -13.8400002      -2.81792524E-07
  -13.8299999      -1.92935516E-07
  -13.8199997      -4.63310954E-08
  -13.8100004       1.66264073E-07
  -13.8000002       4.51744398E-07
  -13.7900000       8.15119904E-07
  -13.7799997       1.25897316E-06
  -13.7700005       1.78295591E-06
  -13.7600002       2.38337157E-06
  -13.7500000       3.05288518E-06
  -13.7399998       3.78038771E-06
  -13.7299995       4.55102600E-06
  -13.7200003       5.34641231E-06
  -13.7100000       6.14502005E-06
  -13.6999998       6.92276672E-06
  -13.6899996       7.65380810E-06
  -13.6800003       8.31152011E-06
  -13.6700001       8.86966245E-06
  -13.6599998       9.30364877E-06
  -13.6499996       9.59184581E-06
  -13.6400003       9.71675217E-06
  -13.6300001       9.66595962E-06
  -13.6199999       9.43273699E-06
  -13.6099997       9.01619933E-06
  -13.6000004       8.42103964E-06
  -13.5900002       7.65687946E-06
  -13.5799999       6.73737986E-06
  -13.5699997       5.67923735E-06
  -13.5600004       4.50121524E-06
  -13.5500002       3.22331766E-06
  -13.5400000       1.86615057E-06
  -13.5299997       4.50419009E-07
  -13.5200005      -1.00345414E-06
  -13.5100002      -2.47571825E-06
  -13.5000000      -3.94771041E-06
  -13.4899998      -5.40232713E-06
  -13.4799995      -6.82448945E-06
  -13.4700003      -8.20151945E-06
  -13.4600000      -9.52331902E-06
  -13.4499998      -1.07822843E-05
  -13.4399996      -1.19729075E-05
  -13.4300003      -1.30911712E-05
  -13.4200001      -1.41337732E-05
  -13.4099998      -1.50974083E-05
  -13.3999996      -1.59781739E-05
  -13.3900003      -1.67712151E-05
  -13.3800001      -1.74706438E-05
  -13.3699999      -1.80696370E-05
  -13.3599997      -1.85606277E-05
  -13.3500004      -1.89355087E-05
  -13.3400002      -1.91857634E-05
  -13.3299999      -1.93025080E-05
  -13.3199997      -1.92765074E-05
  -13.3100004      -1.90983119E-05
  -13.3000002      -1.87585447E-05
  -13.2900000      -1.82484819E-05
  -13.2799997      -1.75608311E-05
  -13.2700005      -1.66906957E-05
  -13.2600002      -1.56364931E-05
  -13.2500000      -1.44007327E-05
  -13.2399998      -1.29904438E-05
  -13.2299995      -1.14172226E-05
  -13.2200003      -9.69689791E-06
  -13.2100000      -7.84892654E-06
  -13.1999998      -5.89561751E-06
  -13.1899996      -3.86127522E-06
  -13.1800003      -1.77142158E-06
  -13.1700001       3.48061519E-07
  -13.1599998       2.47170260E-06
  -13.1499996       4.57534543E-06
  -13.1400003       6.63707351E-06
  -13.1300001       8.63813329E-06
  -13.1199999       1.05637082E-05
  -13.1099997       1.24032877E-05
  -13.1000004       1.41505298E-05
  -13.0900002       1.58024632E-05
  -13.0799999       1.73580702E-05
  -13.0699997       1.88164777E-05
  -13.0600004       2.01750063E-05
  -13.0500002       2.14275860E-05
  -13.0400000       2.25637741E-05
  -13.0299997       2.35686875E-05
  -13.0200005       2.44238527E-05
  -13.0100002       2.51088932E-05
  -13.0000000       2.56036383E-05
  -12.9899998       2.58903565E-05
  -12.9799995       2.59556455E-05
  -12.9700003       2.57917491E-05
  -12.9600000       2.53970666E-05
  -12.9499998       2.47760127E-05
  -12.9399996       2.39381607E-05
  -12.9300003       2.28971003E-05
  -12.9200001       2.16690460E-05
  -12.9099998       2.02715073E-05
  -12.8999996       1.87221176E-05
  -12.8900003       1.70376625E-05
  -12.8800001       1.52334142E-05
  -12.8699999       1.33228332E-05
  -12.8599997       1.13175174E-05
  -12.8500004       9.22760864E-06
  -12.8400002       7.06237279E-06
  -12.8299999       4.83103531E-06
  -12.8199997       2.54351835E-06
  -12.8100004       2.10857280E-07
  -12.8000002      -2.15481896E-06
  -12.7900000      -4.54098836E-06
  -12.7799997      -6.93600759E-06
  -12.7700005      -9.33079718E-06
  -12.7600002      -1.17203253E-05
  -12.7500000      -1.41047194E-05
  -12.7399998      -1.64892590E-05
  -12.7299995      -1.88831982E-05
  -12.7200003      -2.12974301E-05
  -12.7100000      -2.37413769E-05
  -12.6999998      -2.62195917E-05
  -12.6899996      -2.87290095E-05
  -12.6800003      -3.12573102E-05
  -12.6700001      -3.37828023E-05
  -12.6599998      -3.62758256E-05
  -12.6499996      -3.87013315E-05
  -12.6400003      -4.10221037E-05
  -12.6300001      -4.32017368E-05
  -12.6199999      -4.52071072E-05
  -12.6099997      -4.70100058E-05
  -12.6000004      -4.85879609E-05
  -12.5900002      -4.99246016E-05
  -12.5799999      -5.10102182E-05
  -12.5699997      -5.18423913E-05
  -12.5600004      -5.24272036E-05
  -12.5500002      -5.27803641E-05
  -12.5400000      -5.29279423E-05
  -12.5299997      -5.29060926E-05
  -12.5200005      -5.27592092E-05
  -12.5100002      -5.25366268E-05
  -12.5000000      -5.22883311E-05
  -12.4899998      -5.20603280E-05
  -12.4799995      -5.18908528E-05
  -12.4700003      -5.18081797E-05
  -12.4600000      -5.18306333E-05
  -12.4499998      -5.19686291E-05
  -12.4399996      -5.22282389E-05
  -12.4300003      -5.26150725E-05
  -12.4200001      -5.31375736E-05
  -12.4099998      -5.38085988E-05
  -12.3999996      -5.46448609E-05
  -12.3900003      -5.56645209E-05
  -12.3800001      -5.68833239E-05
  -12.3699999      -5.83102992E-05
  -12.3599997      -5.99440464E-05
  -12.3500004      -6.17703845E-05
  -12.3400002      -6.37615012E-05
  -12.3299999      -6.58769641E-05
  -12.3199997      -6.80658341E-05
  -12.3100004      -7.02697289E-05
  -12.3000002      -7.24261263E-05
  -12.2900000      -7.44715217E-05
  -12.2799997      -7.63443095E-05
  -12.2700005      -7.79873226E-05
  -12.2600002      -7.93496292E-05
  -12.2500000      -8.03879302E-05
  -12.2399998      -8.10674537E-05
  -12.2299995      -8.13621664E-05
  -12.2200003      -8.12543076E-05
  -12.2100000      -8.07336546E-05
  -12.1999998      -7.97967587E-05
  -12.1899996      -7.84461590E-05
  -12.1800003      -7.66903468E-05
  -12.1700001      -7.45442085E-05
  -12.1599998      -7.20299067E-05
  -12.1499996      -6.91779496E-05
  -12.1400003      -6.60281439E-05
  -12.1300001      -6.26295368E-05
  -12.1199999      -5.90395393E-05
  -12.1099997      -5.53218597E-05
  -12.1000004      -5.15439169E-05
  -12.0900002      -4.77736794E-05
  -12.0799999      -4.40772419E-05
  -12.0699997      -4.05169885E-05
  -12.0600004      -3.71506721E-05
  -12.0500002      -3.40316656E-05
  -12.0400000      -3.12096781E-05
  -12.0299997      -2.87315379E-05
  -12.0200005      -2.66415354E-05
  -12.0100002      -2.49811965E-05
  -12.0000000      -2.37883160E-05
  -11.9899998      -2.30954793E-05
  -11.9799995      -2.29285979E-05
  -11.9700003      -2.33059072E-05
  -11.9600000      -2.42377737E-05
  -11.9499998      -2.57271622E-05
  -11.9399996      -2.77712752E-05
  -11.9300003      -3.03630768E-05
  -11.9200001      -3.34928955E-05
  -11.9099998      -3.71492060E-05
  -11.8999996      -4.13184498E-05
  -11.8900003      -4.59839212E-05
  -11.8800001      -5.11237922E-05
  -11.8699999      -5.67091411E-05
  -11.8599997      -6.27020490E-05
  -11.8500004      -6.90546367E-05
  -11.8400002      -7.57094531E-05
  -11.8299999      -8.26005926E-05
  -11.8199997      -8.96557540E-05
  -11.8100004      -9.67984815E-05
  -11.8000002      -1.03950217E-04
  -11.7900000      -1.11031310E-04
  -11.7799997      -1.17961681E-04
  -11.7700005      -1.24660612E-04
  -11.7600002      -1.31046676E-04
  -11.7500000      -1.37038034E-04
  -11.7399998      -1.42553647E-04
  -11.7299995      -1.47515661E-04
  -11.7200003      -1.51852684E-04
  -11.7100000      -1.55502901E-04
  -11.6999998      -1.58417650E-04
  -11.6899996      -1.60563228E-04
  -11.6800003      -1.61921576E-04
  -11.6700001      -1.62489596E-04
  -11.6599998      -1.62277051E-04
  -11.6499996      -1.61303891E-04
  -11.6400003      -1.59597810E-04
  -11.6300001      -1.57191564E-04
  -11.6199999      -1.54121473E-04
  -11.6099997      -1.50426160E-04
  -11.6000004      -1.46145801E-04
  -11.5900002      -1.41321478E-04
  -11.5799999      -1.35994822E-04
  -11.5699997      -1.30207918E-04
  -11.5600004      -1.24003855E-04
  -11.5500002      -1.17427408E-04
  -11.5400000      -1.10526817E-04
  -11.5299997      -1.03355815E-04
  -11.5200005      -9.59753743E-05
  -11.5100002      -8.84550318E-05
  -11.5000000      -8.08728437E-05
  -11.4899998      -7.33144770E-05
  -11.4799995      -6.58702920E-05
  -11.4700003      -5.86323367E-05
  -11.4600000      -5.16909895E-05
  -11.4499998      -4.51315755E-05
  -11.4399996      -3.90328460E-05
  -11.4300003      -3.34655597E-05
  -11.4200001      -2.84922880E-05
  -11.4099998      -2.41678572E-05
  -11.3999996      -2.05397664E-05
  -11.3900003      -1.76483572E-05
  -11.3800001      -1.55273829E-05
  -11.3699999      -1.42036997E-05
  -11.3599997      -1.36981989E-05
  -11.3500004      -1.40260163E-05
  -11.3400002      -1.51974036E-05
  -11.3299999      -1.72184664E-05
  -11.3199997      -2.00919840E-05
  -11.3100004      -2.38173016E-05
  -11.3000002      -2.83897625E-05
  -11.2900000      -3.38005302E-05
  -11.2799997      -4.00355129E-05
  -11.2700005      -4.70749765E-05
  -11.2600002      -5.48934622E-05
  -11.2500000      -6.34604803E-05
  -11.2399998      -7.27408915E-05
  -11.2299995      -8.26955948E-05
  -11.2200003      -9.32817275E-05
  -11.2100000      -1.04452214E-04
  -11.1999998      -1.16155650E-04
  -11.1899996      -1.28335814E-04
  -11.1800003      -1.40931937E-04
  -11.1700001      -1.53879388E-04
  -11.1599998      -1.67111502E-04
  -11.1499996      -1.80561139E-04
  -11.1400003      -1.94162742E-04
  -11.1300001      -2.07853052E-04
  -11.1199999      -2.21571492E-04
  -11.1099997      -2.35260493E-04
  -11.1000004      -2.48864293E-04
  -11.0900002      -2.62328918E-04
  -11.0799999      -2.75602884E-04
  -11.0699997      -2.88639189E-04
  -11.0600004      -3.01396620E-04
  -11.0500002      -3.13842873E-04
  -11.0400000      -3.25955596E-04
  -11.0299997      -3.37723090E-04
  -11.0200005      -3.49143404E-04
  -11.0100002      -3.60221777E-04
  -11.0000000      -3.70968366E-04
  -10.9899998      -3.81395774E-04
  -10.9799995      -3.91516660E-04
  -10.9700003      -4.01343394E-04
  -10.9600000      -4.10887442E-04
  -10.9499998      -4.20160446E-04
  -10.9399996      -4.29173873E-04
  -10.9300003      -4.37939627E-04
  -10.9200001      -4.46469261E-04
  -10.9099998      -4.54774912E-04
  -10.8999996      -4.62867843E-04
  -10.8900003      -4.70760977E-04
  -10.8800001      -4.78469301E-04
  -10.8699999      -4.86011762E-04
  -10.8599997      -4.93412605E-04
  -10.8500004      -5.00701775E-04
  -10.8400002      -5.07913472E-04
  -10.8299999      -5.15083841E-04
  -10.8199997      -5.22248098E-04
  -10.8100004      -5.29437733E-04
  -10.8000002      -5.36677893E-04
  -10.7900000      -5.43987204E-04
  -10.7799997      -5.51377016E-04
  -10.7700005      -5.58854896E-04
  -10.7600002      -5.66424045E-04
  -10.7500000      -5.74085861E-04
  -10.7399998      -5.81839238E-04
  -10.7299995      -5.89680625E-04
  -10.7200003      -5.97602630E-04
  -10.7100000      -6.05594541E-04
  -10.6999998      -6.13641809E-04
  -10.6899996      -6.21728774E-04
  -10.6800003      -6.29840360E-04
  -10.6700001      -6.37964346E-04
  -10.6599998      -6.46093395E-04
  -10.6499996      -6.54224888E-04
  -10.6400003      -6.62358420E-04
  -10.6300001      -6.70494512E-04
  -10.6199999      -6.78629614E-04
  -10.6099997      -6.86754182E-04
  -10.6000004      -6.94851857E-04
  -10.5900002      -7.02898193E-04
  -10.5799999      -7.10863678E-04
  -10.5699997      -7.18715426E-04
  -10.5600004      -7.26420083E-04
  -10.5500002      -7.33945111E-04
  -10.5400000      -7.41260301E-04
  -10.5299997      -7.48336897E-04
  -10.5200005      -7.55148882E-04
  -10.5100002      -7.61670759E-04
  -10.5000000      -7.67879130E-04
  -10.4899998      -7.73753796E-04
  -10.4799995      -7.79278576E-04
  -10.4700003      -7.84442585E-04
  -10.4600000      -7.89242506E-04
  -10.4499998      -7.93680083E-04
  -10.4399996      -7.97765038E-04
  -10.4300003      -8.01511516E-04
  -10.4200001      -8.04938201E-04
  -10.4099998      -8.08066921E-04
  -10.3999996      -8.10921891E-04
  -10.3900003      -8.13529477E-04
  -10.3800001      -8.15919775E-04
  -10.3699999      -8.18122702E-04
  -10.3599997      -8.20172543E-04
  -10.3500004      -8.22103582E-04
  -10.3400002      -8.23950570E-04
  -10.3299999      -8.25750292E-04
  -10.3199997      -8.27539130E-04
  -10.3100004      -8.29354802E-04
  -10.3000002      -8.31237179E-04
  -10.2900000      -8.33227125E-04
  -10.2799997      -8.35369807E-04
  -10.2700005      -8.37711559E-04
  -10.2600002      -8.40300519E-04
  -10.2500000      -8.43185233E-04
  -10.2399998      -8.46413081E-04
  -10.2299995      -8.50029814E-04
  -10.2200003      -8.54077050E-04
  -10.2100000      -8.58594547E-04
  -10.1999998      -8.63617286E-04
  -10.1899996      -8.69176467E-04
  -10.1800003      -8.75300029E-04
  -10.1700001      -8.82008637E-04
  -10.1599998      -8.89319461E-04
  -10.1499996      -8.97241815E-04
  -10.1400003      -9.05780937E-04
  -10.1300001      -9.14937584E-04
  -10.1199999      -9.24709893E-04
  -10.1099997      -9.35096934E-04
  -10.1000004      -9.46097425E-04
  -10.0900002      -9.57710610E-04
  -10.0799999      -9.69937071E-04
  -10.0699997      -9.82774771E-04
  -10.0600004      -9.96218063E-04
  -10.0500002      -1.01025589E-03
  -10.0400000      -1.02487113E-03
  -10.0299997      -1.04004273E-03
  -10.0200005      -1.05574576E-03
  -10.0100002      -1.07195356E-03
  -10.0000000      -1.08864217E-03
  -9.98999977      -1.10578712E-03
  -9.97999954      -1.12336676E-03
  -9.97000027      -1.14135793E-03
  -9.96000004      -1.15973514E-03
  -9.94999981      -1.17847079E-03
  -9.93999958      -1.19753322E-03
  -9.93000031      -1.21688796E-03
  -9.92000008      -1.23650033E-03
  -9.90999985      -1.25633879E-03
  -9.89999962      -1.27637293E-03
  -9.89000034      -1.29657856E-03
  -9.88000011      -1.31693424E-03
  -9.86999989      -1.33741950E-03
  -9.85999966      -1.35801279E-03
  -9.85000038      -1.37869036E-03
  -9.84000015      -1.39942754E-03
  -9.82999992      -1.42019836E-03
  -9.81999969      -1.44097873E-03
  -9.81000042      -1.46174815E-03
  -9.80000019      -1.48249359E-03
  -9.78999996      -1.50320632E-03
  -9.77999973      -1.52388157E-03
  -9.77000046      -1.54451700E-03
  -9.76000023      -1.56510749E-03
  -9.75000000      -1.58564467E-03
  -9.73999977      -1.60611724E-03
  -9.72999954      -1.62651076E-03
  -9.72000027      -1.64681219E-03
  -9.71000004      -1.66701386E-03
  -9.69999981      -1.68711017E-03
  -9.68999958      -1.70710741E-03
  -9.68000031      -1.72701478E-03
  -9.67000008      -1.74684788E-03
  -9.65999985      -1.76662463E-03
  -9.64999962      -1.78636354E-03
  -9.64000034      -1.80608372E-03
  -9.63000011      -1.82580668E-03
  -9.61999989      -1.84555340E-03
  -9.60999966      -1.86534855E-03
  -9.60000038      -1.88521924E-03
  -9.59000015      -1.90519285E-03
  -9.57999992      -1.92529627E-03
  -9.56999969      -1.94555393E-03
  -9.56000042      -1.96598331E-03
  -9.55000019      -1.98660186E-03
  -9.53999996      -2.00741901E-03
  -9.52999973      -2.02844571E-03
  -9.52000046      -2.04969291E-03
  -9.51000023      -2.07117619E-03
  -9.50000000      -2.09291000E-03
  -9.48999977      -2.11491250E-03
  -9.47999954      -2.13720277E-03
  -9.47000027      -2.15979503E-03
  -9.46000004      -2.18270347E-03
  -9.44999981      -2.20593973E-03
  -9.43999958      -2.22951337E-03
  -9.43000031      -2.25343346E-03
  -9.42000008      -2.27771117E-03
  -9.40999985      -2.30235467E-03
  -9.39999962      -2.32737418E-03
  -9.39000034      -2.35277321E-03
  -9.38000011      -2.37855269E-03
  -9.36999989      -2.40470376E-03
  -9.35999966      -2.43121292E-03
  -9.35000038      -2.45806389E-03
  -9.34000015      -2.48523941E-03
  -9.32999992      -2.51272484E-03
  -9.31999969      -2.54051341E-03
  -9.31000042      -2.56860186E-03
  -9.30000019      -2.59699370E-03
  -9.28999996      -2.62569380E-03
  -9.27999973      -2.65470799E-03
  -9.27000046      -2.68404186E-03
  -9.26000023      -2.71370192E-03
  -9.25000000      -2.74369144E-03
  -9.23999977      -2.77401926E-03
  -9.22999954      -2.80469772E-03
  -9.22000027      -2.83574197E-03
  -9.21000004      -2.86716805E-03
  -9.19999981      -2.89899390E-03
  -9.18999958      -2.93123303E-03
  -9.18000031      -2.96389475E-03
  -9.17000008      -2.99697975E-03
  -9.15999985      -3.03048617E-03
  -9.14999962      -3.06441518E-03
  -9.14000034      -3.09876096E-03
  -9.13000011      -3.13352770E-03
  -9.11999989      -3.16872052E-03
  -9.10999966      -3.20435455E-03
  -9.10000038      -3.24044097E-03
  -9.09000015      -3.27699934E-03
  -9.07999992      -3.31404316E-03
  -9.06999969      -3.35158664E-03
  -9.06000042      -3.38964374E-03
  -9.05000019      -3.42822727E-03
  -9.03999996      -3.46735190E-03
  -9.02999973      -3.50703485E-03
  -9.02000046      -3.54728964E-03
  -9.01000023      -3.58813512E-03
  -9.00000000      -3.62958061E-03
  -8.98999977      -3.67163494E-03
  -8.97999954      -3.71430069E-03
  -8.97000027      -3.75757786E-03
  -8.96000004      -3.80146340E-03
  -8.94999981      -3.84595478E-03
  -8.93999958      -3.89104616E-03
  -8.93000031      -3.93673638E-03
  -8.92000008      -3.98301845E-03
  -8.90999985      -4.02989006E-03
  -8.89999962      -4.07734280E-03
  -8.89000034      -4.12536366E-03
  -8.88000011      -4.17394238E-03
  -8.86999989      -4.22306685E-03
  -8.85999966      -4.27272636E-03
  -8.85000038      -4.32291301E-03
  -8.84000015      -4.37362585E-03
  -8.82999992      -4.42486256E-03
  -8.81999969      -4.47661942E-03
  -8.81000042      -4.52889362E-03
  -8.80000019      -4.58167400E-03
  -8.78999996      -4.63495171E-03
  -8.77999973      -4.68870718E-03
  -8.77000046      -4.74292645E-03
  -8.76000023      -4.79758997E-03
  -8.75000000      -4.85268049E-03
  -8.73999977      -4.90818871E-03
  -8.72999954      -4.96409554E-03
  -8.72000027      -5.02038235E-03
  -8.71000004      -5.07703004E-03
  -8.69999981      -5.13401721E-03
  -8.68999958      -5.19131077E-03
  -8.68000031      -5.24889305E-03
  -8.67000008      -5.30674169E-03
  -8.65999985      -5.36483945E-03
  -8.64999962      -5.42318122E-03
  -8.64000034      -5.48176281E-03
  -8.63000011      -5.54058654E-03
  -8.61999989      -5.59965475E-03
  -8.60999966      -5.65897254E-03
  -8.60000038      -5.71854040E-03
  -8.59000015      -5.77836251E-03
  -8.57999992      -5.83843887E-03
  -8.56999969      -5.89877274E-03
  -8.56000042      -5.95937297E-03
  -8.55000019      -6.02025865E-03
  -8.53999996      -6.08144747E-03
  -8.52999973      -6.14296179E-03
  -8.52000046      -6.20482210E-03
  -8.51000023      -6.26705354E-03
  -8.50000000      -6.32967008E-03
  -8.48999977      -6.39269035E-03
  -8.47999954      -6.45613158E-03
  -8.47000027      -6.52001612E-03
  -8.46000004      -6.58435700E-03
  -8.44999981      -6.64918078E-03
  -8.43999958      -6.71451353E-03
  -8.43000031      -6.78038737E-03
  -8.42000008      -6.84682606E-03
  -8.40999985      -6.91386405E-03
  -8.39999962      -6.98152557E-03
  -8.39000034      -7.04984320E-03
  -8.38000011      -7.11884955E-03
  -8.36999989      -7.18857441E-03
  -8.35999966      -7.25905458E-03
  -8.35000038      -7.33032124E-03
  -8.34000015      -7.40240933E-03
  -8.32999992      -7.47534772E-03
  -8.31999969      -7.54915969E-03
  -8.31000042      -7.62386527E-03
  -8.30000019      -7.69948214E-03
  -8.28999996      -7.77602661E-03
  -8.27999973      -7.85351451E-03
  -8.27000046      -7.93196354E-03
  -8.26000023      -8.01139232E-03
  -8.25000000      -8.09181761E-03
  -8.23999977      -8.17325991E-03
  -8.22999954      -8.25573783E-03
  -8.22000027      -8.33926536E-03
  -8.21000004      -8.42386857E-03
  -8.19999981      -8.50955583E-03
  -8.18999958      -8.59635137E-03
  -8.18000031      -8.68427940E-03
  -8.17000008      -8.77336878E-03
  -8.15999985      -8.86363909E-03
  -8.14999962      -8.95512104E-03
  -8.14000034      -9.04783420E-03
  -8.13000011      -9.14179627E-03
  -8.11999989      -9.23700724E-03
  -8.10999966      -9.33346245E-03
  -8.10000038      -9.43117123E-03
  -8.09000015      -9.53012239E-03
  -8.07999992      -9.63031128E-03
  -8.06999969      -9.73174628E-03
  -8.06000042      -9.83443856E-03
  -8.05000019      -9.93839279E-03
  -8.03999996      -1.00436220E-02
  -8.02999973      -1.01501439E-02
  -8.02000046      -1.02579575E-02
  -8.01000023      -1.03670787E-02
  -8.00000000      -1.04775056E-02
  -7.98999977      -1.05892494E-02
  -7.98000002      -1.07023166E-02
  -7.96999979      -1.08167203E-02
  -7.96000004      -1.09324818E-02
  -7.94999981      -1.10496255E-02
  -7.94000006      -1.11681558E-02
  -7.92999983      -1.12880915E-02
  -7.92000008      -1.14094298E-02
  -7.90999985      -1.15321511E-02
  -7.90000010      -1.16562508E-02
  -7.88999987      -1.17817037E-02
  -7.88000011      -1.19084772E-02
  -7.86999989      -1.20365731E-02
  -7.86000013      -1.21659711E-02
  -7.84999990      -1.22966804E-02
  -7.84000015      -1.24287065E-02
  -7.82999992      -1.25620542E-02
  -7.82000017      -1.26967449E-02
  -7.80999994      -1.28327832E-02
  -7.80000019      -1.29701775E-02
  -7.78999996      -1.31089371E-02
  -7.78000021      -1.32490704E-02
  -7.76999998      -1.33905793E-02
  -7.76000023      -1.35334767E-02
  -7.75000000      -1.36777824E-02
  -7.73999977      -1.38235018E-02
  -7.73000002      -1.39706433E-02
  -7.71999979      -1.41192107E-02
  -7.71000004      -1.42692020E-02
  -7.69999981      -1.44205997E-02
  -7.69000006      -1.45733925E-02
  -7.67999983      -1.47275561E-02
  -7.67000008      -1.48830703E-02
  -7.65999985      -1.50399031E-02
  -7.65000010      -1.51980398E-02
  -7.63999987      -1.53574785E-02
  -7.63000011      -1.55182192E-02
  -7.61999989      -1.56802684E-02
  -7.61000013      -1.58436392E-02
  -7.59999990      -1.60083417E-02
  -7.59000015      -1.61744040E-02
  -7.57999992      -1.63418353E-02
  -7.57000017      -1.65106487E-02
  -7.55999994      -1.66808628E-02
  -7.55000019      -1.68524832E-02
  -7.53999996      -1.70255154E-02
  -7.53000021      -1.71999671E-02
  -7.51999998      -1.73758324E-02
  -7.51000023      -1.75531153E-02
  -7.50000000      -1.77318137E-02
  -7.48999977      -1.79119334E-02
  -7.48000002      -1.80934798E-02
  -7.46999979      -1.82764307E-02
  -7.46000004      -1.84608046E-02
  -7.44999981      -1.86465923E-02
  -7.44000006      -1.88337993E-02