  -16.0000000       0.00000000    
  -15.9899998       0.00000000    
  -15.9799995       0.00000000    
  -15.9700003       0.00000000    
  -15.9600000       0.00000000    
  -15.9499998       0.00000000    
  -15.9399996       0.00000000    
  -15.9300003       0.00000000    
  -15.9200001       0.00000000    
  -15.9099998       0.00000000    
  -15.8999996       0.00000000    
  -15.8900003       0.00000000    
  -15.8800001       0.00000000    
  -15.8699999       0.00000000    
  -15.8599997       1.40129846E-45
  -15.8500004       9.80908925E-45
  -15.8400002       1.06498683E-43
  -15.8299999       8.77212839E-43
  -15.8199997       5.64302892E-42
  -15.8100004       2.99023079E-41
  -15.8000002       1.34935233E-40
  -15.7900000       5.30556822E-40
  -15.7799997       1.84669417E-39
  -15.7700005       5.75194904E-39
  -15.7600002       1.61448949E-38
  -15.7500000       4.09899391E-38
  -15.7399998       9.41757767E-38
  -15.7299995       1.95116193E-37
  -15.7200003       3.61089368E-37
  -15.7100000       5.84651539E-37
  -15.6999998       7.89360438E-37
  -15.6899996       7.67696588E-37
  -15.6800003       1.31727863E-37
  -15.6700001      -1.65167431E-36
  -15.6599998      -5.03459588E-36
  -15.6499996      -9.88668953E-36
  -15.6400003      -1.47831114E-35
  -15.6300001      -1.64601753E-35
  -15.6199999      -1.02096728E-35
  -15.6099997       7.85776719E-36
  -15.6000004       3.63579169E-35
  -15.5900002       6.35384830E-35
  -15.5799999       6.60788709E-35
  -15.5699997       1.87788322E-35
  -15.5600004      -7.94469107E-35
  -15.5500002      -1.67817006E-34
  -15.5400000      -9.87678249E-35
  -15.5299997       3.26108627E-34
  -15.5200005       1.20454752E-33
  -15.5100002       2.25338226E-33
  -15.5000000       2.50294798E-33
  -15.4899998       2.48207377E-34
  -15.4799995      -6.31327453E-33
  -15.4700003      -1.73988298E-32
  -15.4600000      -2.90784359E-32
  -15.4499998      -3.10703669E-32
  -15.4399996      -7.46210720E-33
  -15.4300003       5.63981207E-32
  -15.4200001       1.59022557E-31
  -15.4099998       2.62975225E-31
  -15.3999996       2.81383043E-31
  -15.3900003       9.03035743E-32
  -15.3800001      -4.12239474E-31
  -15.3699999      -1.19478685E-30
  -15.3599997      -1.96010862E-30
  -15.3500004      -2.07710999E-30
  -15.3400002      -7.05415194E-31
  -15.3299999       2.77250593E-30
  -15.3199997       8.01777500E-30
  -15.3100004       1.29519767E-29
  -15.3000002       1.34827193E-29
  -15.2900000       4.48568531E-30
  -15.2799997      -1.74026909E-29
  -15.2700005      -4.94410411E-29
  -15.2600002      -7.85748663E-29
  -15.2500000      -8.06226113E-29
  -15.2399998      -2.67956258E-29
  -15.2299995       1.00065313E-28
  -15.2200003       2.81914255E-28
  -15.2100000       4.44457687E-28
  -15.1999998       4.55886588E-28
  -15.1899996       1.64541668E-28
  -15.1800003      -5.15069597E-28
  -15.1700001      -1.48337878E-27
  -15.1599998      -2.35556909E-27
  -15.1499996      -2.46404190E-27
  -15.1400003      -1.05110583E-27
  -15.1300001       2.31211183E-27
  -15.1199999       7.16284546E-27
  -15.1099997       1.16843081E-26
  -15.1000004       1.27239612E-26
  -15.0900002       6.67421932E-27
  -15.0799999      -8.64216458E-27
  -15.0699997      -3.14567191E-26
  -15.0600004      -5.39686000E-26
  -15.0500002      -6.23007645E-26
  -15.0400000      -4.01006964E-26
  -15.0299997       2.36040387E-26
  -15.0200005       1.23776109E-25
  -15.0100002       2.30181132E-25
  -15.0000000       2.86084426E-25
  -14.9899998       2.21317540E-25
  -14.9799995      -1.74805044E-26
  -14.9700003      -4.24495076E-25
  -14.9600000      -8.95673658E-25
  -14.9499998      -1.21713231E-24
  -14.9399996      -1.10628384E-24
  -14.9300003      -3.18741467E-25
  -14.9200001       1.19331906E-24
  -14.9099998       3.12296070E-24
  -14.8999996       4.73536083E-24
  -14.8900003       4.97355225E-24
  -14.8800001       2.80136498E-24
  -14.8699999      -2.24617454E-24
  -14.8599997      -9.46097134E-24
  -14.8500004      -1.65861255E-23
  -14.8400002      -1.99952463E-23
  -14.8299999      -1.56696127E-23
  -14.8199997      -9.56760088E-25
  -14.8100004       2.33053824E-23
  -14.8000002       5.11345350E-23
  -14.7900000       7.12980249E-23
  -14.7799997       6.96809988E-23
  -14.7700005       3.43707233E-23
  -14.7600002      -3.74727926E-23
  -14.7500000      -1.33240589E-22
  -14.7399998      -2.22255060E-22
  -14.7299995      -2.60124473E-22
  -14.7200003      -2.01715533E-22
  -14.7100000      -2.12562720E-23
  -14.6999998       2.65940687E-22
  -14.6899996       5.89135763E-22
  -14.6800003       8.25315114E-22
  -14.6700001       8.27051164E-22
  -14.6599998       4.74772440E-22
  -14.6499996      -2.57767331E-22
  -14.6400003      -1.24707767E-21
  -14.6300001      -2.20118618E-21
  -14.6199999      -2.70399445E-21
  -14.6099997      -2.33258289E-21
  -14.6000004      -8.30628881E-22
  -14.5900002       1.70996933E-21
  -14.5799999       4.73141010E-21
  -14.5699997       7.23262009E-21
  -14.5600004       7.98263622E-21
  -14.5500002       5.91780560E-21
  -14.5400000       6.37893729E-22
  -14.5299997      -7.15829581E-21
  -14.5200005      -1.54966019E-20
  -14.5100002      -2.13836722E-20
  -14.5000000      -2.15642658E-20
  -14.4899998      -1.36764540E-20
  -14.4799995       2.49394470E-21
  -14.4700003       2.41082242E-20
  -14.4600000       4.51973425E-20
  -14.4499998       5.77447742E-20
  -14.4399996       5.39362892E-20
  -14.4300003       2.91415859E-20
  -14.4200001      -1.52361289E-20
  -14.4099998      -7.01531231E-20
  -14.3999996      -1.19581326E-19
  -14.3900003      -1.43947405E-19
  -14.3800001      -1.26013806E-19
  -14.3699999      -5.78527600E-20
  -14.3599997       5.32675622E-20
  -14.3500004       1.82557805E-19
  -14.3400002       2.90896441E-19
  -14.3299999       3.34099077E-19
  -14.3199997       2.76828477E-19
  -14.3100004       1.07620644E-19
  -14.3000002      -1.49931359E-19
  -14.2900000      -4.34881780E-19
  -14.2799997      -6.58897541E-19
  -14.2700005      -7.28532604E-19
  -14.2600002      -5.75600660E-19
  -14.2500000      -1.87466760E-19
  -14.2399998       3.73122614E-19
  -14.2299995       9.68259161E-19
  -14.2200003       1.41046444E-18
  -14.2100000       1.51177514E-18
  -14.1999998       1.14603723E-18
  -14.1899996       3.07050064E-19
  -14.1800003      -8.57812868E-19
  -14.1700001      -2.05586043E-18
  -14.1599998      -2.90704954E-18
  -14.1499996      -3.04509296E-18
  -14.1400003      -2.23944282E-18
  -14.1300001      -5.03771967E-19
  -14.1199999       1.84723844E-18
  -14.1099997       4.22338320E-18
  -14.1000004       5.87812741E-18
  -14.0900002       6.10576007E-18
  -14.0799999       4.47268179E-18
  -14.0699997       1.01828901E-18
  -14.0600004      -3.64391051E-18
  -14.0500002      -8.37878953E-18
  -14.0400000      -1.17539710E-17
  -14.0299997      -1.24057943E-17
  -14.0200005      -9.46694811E-18
  -14.0100002      -2.94061033E-18
  -14.0000000       6.10237566E-18
  -13.9899998       1.55994005E-17
  -13.9799995       2.28799200E-17
  -13.9700003       2.53086926E-17
  -13.9600000       2.10544912E-17
  -13.9499998       9.78758896E-18
  -13.9399996      -6.90822411E-18
  -13.9300003      -2.55825324E-17
  -13.9200001      -4.14995984E-17
  -13.9099998      -4.96926106E-17
  -13.8999996      -4.62850368E-17
  -13.8900003      -2.97621437E-17
  -13.8800001      -1.83283971E-18
  -13.8699999       3.24261980E-17
  -13.8599997       6.53085034E-17
  -13.8500004       8.80476720E-17
  -13.8400002       9.29351513E-17
  -13.8299999       7.55083087E-17
  -13.8199997       3.62371051E-17
  -13.8100004      -1.88138045E-17
  -13.8000002      -7.86744120E-17
  -13.7900000      -1.29524440E-16
  -13.7799997      -1.57766914E-16
  -13.7700005      -1.53456244E-16
  -13.7600002      -1.13236791E-16
  -13.7500000      -4.19705586E-17
  -13.7399998       4.75210133E-17
  -13.7299995       1.36745211E-16
  -13.7200003       2.05480757E-16
  -13.7100000       2.36523363E-16
  -13.6999998       2.20083962E-16
  -13.6899996       1.56671846E-16
  -13.6800003       5.75923178E-17
  -13.6700001      -5.72460004E-17
  -13.6599998      -1.63820672E-16
  -13.6499996      -2.39733617E-16
  -13.6400003      -2.69730760E-16
  -13.6300001      -2.49498107E-16
  -13.6199999      -1.86608360E-16
  -13.6099997      -9.82310859E-17
  -13.6000004      -6.12672455E-18
  -13.5900002       6.97261442E-17
  -13.5799999       1.17018753E-16
  -13.5699997       1.34677722E-16
  -13.5600004       1.32834142E-16
  -13.5500002       1.28936268E-16
  -13.5400000       1.40932267E-16
  -13.5299997       1.79481636E-16
  -13.5200005       2.41692222E-16
  -13.5100002       3.08704996E-16
  -13.5000000       3.48540452E-16
  -13.4899998       3.24156333E-16
  -13.4799995       2.05041358E-16
  -13.4700003      -2.06677512E-17
  -13.4600000      -3.37153471E-16
  -13.4499998      -6.98188294E-16
  -13.4399996      -1.03253274E-15
  -13.4300003      -1.25720600E-15
  -13.4200001      -1.29611436E-15
  -13.4099998      -1.09973877E-15
  -13.3999996      -6.60807936E-16
  -13.3900003      -2.14710246E-17
  -13.3800001       7.30635533E-16
  -13.3699999       1.47727723E-15
  -13.3599997       2.09235836E-15
  -13.3500004       2.46713868E-15
  -13.3400002       2.53161101E-15
  -13.3299999       2.26653946E-15
  -13.3199997       1.70310045E-15
  -13.3100004       9.10554066E-16
  -13.3000002      -2.40542335E-17
  -13.2900000      -1.01751569E-15
  -13.2799997      -2.00604041E-15
  -13.2700005      -2.94895368E-15
  -13.2600002      -3.81830255E-15
  -13.2500000      -4.57700818E-15
  -13.2399998      -5.15297787E-15
  -13.2299995      -5.41973481E-15
  -13.2200003      -5.19445750E-15
  -13.2100000      -4.26124361E-15
  -13.1999998      -2.42120387E-15
  -13.1899996       4.37067545E-16
  -13.1800003       4.26110300E-15
  -13.1700001       8.77234923E-15
  -13.1599998       1.34395440E-14
  -13.1499996       1.75050743E-14
  -13.1400003       2.00721855E-14
  -13.1300001       2.02478754E-14
  -13.1199999       1.73218898E-14
  -13.1099997       1.09503267E-14
  -13.1000004       1.30563014E-15
  -13.0900002      -1.08439419E-14
  -13.0799999      -2.41529836E-14
  -13.0699997      -3.68264819E-14
  -13.0600004      -4.68463193E-14
  -13.0500002      -5.22662019E-14
  -13.0400000      -5.15284599E-14
  -13.0299997      -4.37487842E-14
  -13.0200005      -2.89178912E-14
  -13.0100002      -7.98249355E-15
  -13.0000000       1.72112233E-14
  -12.9899998       4.41040637E-14
  -12.9799995       6.97105066E-14
  -12.9700003       9.09600764E-14
  -12.9600000       1.05042223E-13
  -12.9499998       1.09707897E-13
  -12.9399996       1.03494998E-13
  -12.9300003       8.58629845E-14
  -12.9200001       5.72399523E-14
  -12.9099998       1.89996944E-14
  -12.8999996      -2.66093672E-14
  -12.8900003      -7.65640535E-14
  -12.8800001      -1.27187133E-13
  -12.8699999      -1.74293495E-13
  -12.8599997      -2.13378130E-13
  -12.8500004      -2.39866097E-13
  -12.8400002      -2.49439358E-13
  -12.8299999      -2.38438853E-13
  -12.8199997      -2.04318198E-13
  -12.8100004      -1.46100119E-13
  -12.8000002      -6.47680491E-14
  -12.7900000       3.64824205E-14
  -12.7799997       1.52200138E-13
  -12.7700005       2.74885773E-13
  -12.7600002       3.95456671E-13
  -12.7500000       5.03932020E-13
  -12.7399998       5.90260479E-13
  -12.7299995       6.45187137E-13
  -12.7200003       6.61041534E-13
  -12.7100000       6.32348720E-13
  -12.6999998       5.56192896E-13
  -12.6899996       4.32311738E-13
  -12.6800003       2.62953830E-13
  -12.6700001       5.25717673E-14
  -12.6599998      -1.92541946E-13
  -12.6499996      -4.64567512E-13
  -12.6400003      -7.54324608E-13
  -12.6300001      -1.05123451E-12
  -12.6199999      -1.34306975E-12
  -12.6099997      -1.61553301E-12
  -12.6000004      -1.85174272E-12
  -12.5900002      -2.03174608E-12
  -12.5799999      -2.13216163E-12
  -12.5699997      -2.12607297E-12
  -12.5600004      -1.98326099E-12
  -12.5500002      -1.67083166E-12
  -12.5400000      -1.15427405E-12
  -12.5299997      -3.98983364E-13
  -12.5200005       6.27806346E-13
  -12.5100002       1.95466668E-12
  -12.5000000       3.60327285E-12
  -12.4899998       5.58544010E-12
  -12.4799995       7.90010678E-12
  -12.4700003       1.05303665E-11
  -12.4600000       1.34409272E-11
  -12.4499998       1.65762196E-11
  -12.4399996       1.98595168E-11
  -12.4300003       2.31933205E-11
  -12.4200001       2.64613088E-11
  -12.4099998       2.95317694E-11
  -12.3999996       3.22626023E-11
  -12.3900003       3.45075080E-11
  -12.3800001       3.61230559E-11
  -12.3699999       3.69759778E-11
  -12.3599997       3.69501860E-11
  -12.3500004       3.59527373E-11
  -12.3400002       3.39184653E-11
  -12.3299999       3.08127586E-11
  -12.3199997       2.66322884E-11
  -12.3100004       2.14038908E-11
  -12.3000002       1.51817777E-11
  -12.2900000       8.04350076E-12
  -12.2799997       8.51641349E-14
  -12.2700005      -8.58345339E-12
  -12.2600002      -1.78436068E-11
  -12.2500000      -2.75714850E-11
  -12.2399998      -3.76412616E-11
  -12.2299995      -4.79271414E-11
  -12.2200003      -5.83044793E-11
  -12.2100000      -6.86501550E-11
  -12.1999998      -7.88424187E-11
  -12.1899996      -8.87603255E-11
  -12.1800003      -9.82833051E-11
  -12.1700001      -1.07290482E-10
  -12.1599998      -1.15660412E-10
  -12.1499996      -1.23271088E-10
  -12.1400003      -1.29999941E-10
  -12.1300001      -1.35724570E-10
  -12.1199999      -1.40323614E-10
  -12.1099997      -1.43678167E-10
  -12.1000004      -1.45673695E-10
  -12.0900002      -1.46202245E-10
  -12.0799999      -1.45165158E-10
  -12.0699997      -1.42475948E-10
  -12.0600004      -1.38063075E-10
  -12.0500002      -1.31872818E-10
  -12.0400000      -1.23871052E-10
  -12.0299997      -1.14045010E-10
  -12.0200005      -1.02403815E-10
  -12.0100002      -8.89786647E-11
  -12.0000000      -7.38218653E-11
  -11.9899998      -5.70059937E-11
  -11.9799995      -3.86225912E-11
  -11.9700003      -1.87807374E-11
  -11.9600000       2.39414738E-12
  -11.9499998       2.47610942E-11
  -11.9399996       4.81645765E-11
  -11.9300003       7.24351967E-11
  -11.9200001       9.73904568E-11
  -11.9099998       1.22835783E-10
  -11.8999996       1.48565757E-10
  -11.8900003       1.74365716E-10
  -11.8800001       2.00013520E-10
  -11.8699999       2.25281849E-10
  -11.8599997       2.49940735E-10
  -11.8500004       2.73760237E-10
  -11.8400002       2.96513258E-10
  -11.8299999       3.17978838E-10
  -11.8199997       3.37944867E-10
  -11.8100004       3.56211449E-10
  -11.8000002       3.72593095E-10
  -11.7900000       3.86920912E-10
  -11.7799997       3.99043548E-10
  -11.7700005       4.08827416E-10
  -11.7600002       4.16155360E-10
  -11.7500000       4.20924129E-10
  -11.7399998       4.23041019E-10
  -11.7299995       4.22420487E-10
  -11.7200003       4.18978713E-10
  -11.7100000       4.12631596E-10
  -11.6999998       4.03290901E-10
  -11.6899996       3.90863869E-10
  -11.6800003       3.75253661E-10
  -11.6700001       3.56362106E-10
  -11.6599998       3.34093364E-10
  -11.6499996       3.08359893E-10
  -11.6400003       2.79088530E-10
  -11.6300001       2.46227316E-10
  -11.6199999       2.09750814E-10
  -11.6099997       1.69665615E-10
  -11.6000004       1.26013602E-10
  -11.5900002       7.88733592E-11
  -11.5799999       2.83605361E-11
  -11.5699997      -2.53744786E-11
  -11.5600004      -8.21496621E-11
  -11.5500002      -1.41755288E-10
  -11.5400000      -2.03959127E-10
  -11.5299997      -2.68511213E-10
  -11.5200005      -3.35147993E-10
  -11.5100002      -4.03597988E-10
  -11.5000000      -4.73585671E-10
  -11.4899998      -5.44836176E-10
  -11.4799995      -6.17080553E-10
  -11.4700003      -6.90060287E-10
  -11.4600000      -7.63533292E-10
  -11.4499998      -8.37279635E-10
  -11.4399996      -9.11105580E-10
  -11.4300003      -9.84848647E-10
  -11.4200001      -1.05837872E-09
  -11.4099998      -1.13159859E-09
  -11.3999996      -1.20444144E-09
  -11.3900003      -1.27686517E-09
  -11.3800001      -1.34884626E-09
  -11.3699999      -1.42036904E-09
  -11.3599997      -1.49141721E-09
  -11.3500004      -1.56196589E-09
  -11.3400002      -1.63196945E-09
  -11.3299999      -1.70135639E-09
  -11.3199997      -1.77002590E-09
  -11.3100004      -1.83784121E-09
  -11.3000002      -1.90463378E-09
  -11.2900000      -1.97020023E-09
  -11.2799997      -2.03431161E-09
  -11.2700005      -2.09671414E-09
  -11.2600002      -2.15714158E-09
  -11.2500000      -2.21531860E-09
  -11.2399998      -2.27097119E-09
  -11.2299995      -2.32383845E-09
  -11.2200003      -2.37367836E-09
  -11.2100000      -2.42028375E-09
  -11.1999998      -2.46348053E-09
  -11.1899996      -2.50314836E-09
  -11.1800003      -2.53922194E-09
  -11.1700001      -2.57169930E-09
  -11.1599998      -2.60064192E-09
  -11.1499996      -2.62617728E-09
  -11.1400003      -2.64849498E-09
  -11.1300001      -2.66783706E-09
  -11.1199999      -2.68448375E-09
  -11.1099997      -2.69873635E-09
  -11.1000004      -2.71089751E-09
  -11.0900002      -2.72125034E-09
  -11.0799999      -2.73003464E-09
  -11.0699997      -2.73743295E-09
  -11.0600004      -2.74356093E-09
  -11.0500002      -2.74845502E-09
  -11.0400000      -2.75207457E-09
  -11.0299997      -2.75430856E-09
  -11.0200005      -2.75498535E-09
  -11.0100002      -2.75389200E-09
  -11.0000000      -2.75078338E-09
  -10.9899998      -2.74540279E-09
  -10.9799995      -2.73750311E-09
  -10.9700003      -2.72684852E-09
  -10.9600000      -2.71322964E-09
  -10.9499998      -2.69648215E-09
  -10.9399996      -2.67647682E-09
  -10.9300003      -2.65313549E-09
  -10.9200001      -2.62642930E-09
  -10.9099998      -2.59638266E-09
  -10.8999996      -2.56306998E-09
  -10.8900003      -2.52662202E-09
  -10.8800001      -2.48721865E-09
  -10.8699999      -2.44509102E-09
  -10.8599997      -2.40051135E-09
  -10.8500004      -2.35379138E-09
  -10.8400002      -2.30527331E-09
  -10.8299999      -2.25531882E-09
  -10.8199997      -2.20430962E-09
  -10.8100004      -2.15262963E-09
  -10.8000002      -2.10066431E-09
  -10.7900000      -2.04879136E-09
  -10.7799997      -1.99738426E-09
  -10.7700005      -1.94680005E-09
  -10.7600002      -1.89737537E-09
  -10.7500000      -1.84943161E-09
  -10.7399998      -1.80326776E-09
  -10.7299995      -1.75915216E-09
  -10.7200003      -1.71732217E-09
  -10.7100000      -1.67797731E-09
  -10.6999998      -1.64127334E-09
  -10.6899996      -1.60732561E-09
  -10.6800003      -1.57620250E-09
  -10.6700001      -1.54794133E-09
  -10.6599998      -1.52254265E-09
  -10.6499996      -1.49999246E-09
  -10.6400003      -1.48025947E-09
  -10.6300001      -1.46330803E-09
  -10.6199999      -1.44911116E-09
  -10.6099997      -1.43764933E-09
  -10.6000004      -1.42891254E-09
  -10.5900002      -1.42290002E-09
  -10.5799999      -1.41961209E-09
  -10.5699997      -1.41904721E-09
  -10.5600004      -1.42119450E-09
  -10.5500002      -1.42603085E-09
  -10.5400000      -1.43351420E-09
  -10.5299997      -1.44359336E-09
  -10.5200005      -1.45619605E-09
  -10.5100002      -1.47124923E-09
  -10.5000000      -1.48867374E-09
  -10.4899998      -1.50838930E-09
  -10.4799995      -1.53032098E-09
  -10.4700003      -1.55440127E-09
  -10.4600000      -1.58055513E-09
  -10.4499998      -1.60870983E-09
  -10.4399996      -1.63877489E-09
  -10.4300003      -1.67063374E-09
  -10.4200001      -1.70414094E-09
  -10.4099998      -1.73911574E-09
  -10.3999996      -1.77534443E-09
  -10.3900003      -1.81258353E-09
  -10.3800001      -1.85057136E-09
  -10.3699999      -1.88903160E-09
  -10.3599997      -1.92770666E-09
  -10.3500004      -1.96635264E-09
  -10.3400002      -2.00476635E-09
  -10.3299999      -2.04278172E-09
  -10.3199997      -2.08028172E-09
  -10.3100004      -2.11718176E-09
  -10.3000002      -2.15344076E-09
  -10.2900000      -2.18904050E-09
  -10.2799997      -2.22398344E-09
  -10.2700005      -2.25827845E-09
  -10.2600002      -2.29194264E-09
  -10.2500000      -2.32499819E-09
  -10.2399998      -2.35746511E-09
  -10.2299995      -2.38936404E-09
  -10.2200003      -2.42072140E-09
  -10.2100000      -2.45156273E-09
  -10.1999998      -2.48191290E-09
  -10.1899996      -2.51180032E-09
  -10.1800003      -2.54124477E-09
  -10.1700001      -2.57026378E-09
  -10.1599998      -2.59887267E-09
  -10.1499996      -2.62708233E-09
  -10.1400003      -2.65491029E-09
  -10.1300001      -2.68238143E-09
  -10.1199999      -2.70952616E-09
  -10.1099997      -2.73639911E-09
  -10.1000004      -2.76307111E-09
  -10.0900002      -2.78963808E-09
  -10.0799999      -2.81621393E-09
  -10.0699997      -2.84293478E-09
  -10.0600004      -2.86995250E-09
  -10.0500002      -2.89742252E-09
  -10.0400000      -2.92550362E-09
  -10.0299997      -2.95434543E-09
  -10.0200005      -2.98408587E-09
  -10.0100002      -3.01484993E-09
  -10.0000000      -3.04673065E-09
  -9.98999977      -3.07980530E-09
  -9.97999954      -3.11411963E-09
  -9.97000027      -3.14970405E-09
  -9.96000004      -3.18656235E-09
  -9.94999981      -3.22467075E-09
  -9.93999958      -3.26398641E-09
  -9.93000031      -3.30444005E-09
  -9.92000008      -3.34592687E-09
  -9.90999985      -3.38831496E-09
  -9.89999962      -3.43144491E-09
  -9.89000034      -3.47512996E-09
  -9.88000011      -3.51917384E-09
  -9.86999989      -3.56338226E-09
  -9.85999966      -3.60758179E-09
  -9.85000038      -3.65164188E-09
  -9.84000015      -3.69549347E-09
  -9.82999992      -3.73913567E-09
  -9.81999969      -3.78263554E-09
  -9.81000042      -3.82612964E-09
  -9.80000019      -3.86981291E-09
  -9.78999996      -3.91389943E-09
  -9.77999973      -3.95863298E-09
  -9.77000046      -4.00424893E-09
  -9.76000023      -4.05096801E-09
  -9.75000000      -4.09899403E-09
  -9.73999977      -4.14850598E-09
  -9.72999954      -4.19966995E-09
  -9.72000027      -4.25264624E-09
  -9.71000004      -4.30758540E-09
  -9.69999981      -4.36463932E-09
  -9.68999958      -4.42394743E-09
  -9.68000031      -4.48563497E-09
  -9.67000008      -4.54979121E-09
  -9.65999985      -4.61646721E-09
  -9.64999962      -4.68565542E-09
  -9.64000034      -4.75727457E-09
  -9.63000011      -4.83117679E-09
  -9.61999989      -4.90711916E-09
  -9.60999966      -4.98479480E-09
  -9.60000038      -5.06379871E-09
  -9.59000015      -5.14366816E-09
  -9.57999992      -5.22386934E-09
  -9.56999969      -5.30382227E-09
  -9.56000042      -5.38290346E-09
  -9.55000019      -5.46045520E-09
  -9.53999996      -5.53581048E-09
  -9.52999973      -5.60831070E-09
  -9.52000046      -5.67728620E-09
  -9.51000023      -5.74209125E-09
  -9.50000000      -5.80210191E-09
  -9.48999977      -5.85670845E-09
  -9.47999954      -5.90533533E-09
  -9.47000027      -5.94743632E-09
  -9.46000004      -5.98251404E-09
  -9.44999981      -6.01010397E-09
  -9.43999958      -6.02981931E-09
  -9.43000031      -6.04133410E-09
  -9.42000008      -6.04438899E-09
  -9.40999985      -6.03880190E-09
  -9.39999962      -6.02445294E-09
  -9.39000034      -6.00128436E-09
  -9.38000011      -5.96929040E-09
  -9.36999989      -5.92850657E-09
  -9.35999966      -5.87901727E-09
  -9.35000038      -5.82098503E-09
  -9.34000015      -5.75461678E-09
  -9.32999992      -5.68022651E-09
  -9.31999969      -5.59822944E-09
  -9.31000042      -5.50915491E-09
  -9.30000019      -5.41364598E-09
  -9.28999996      -5.31243316E-09
  -9.27999973      -5.20635579E-09
  -9.27000046      -5.09630871E-09
  -9.26000023      -4.98325914E-09
  -9.25000000      -4.86822360E-09
  -9.23999977      -4.75225059E-09
  -9.22999954      -4.63644856E-09
  -9.22000027      -4.52197613E-09
  -9.21000004      -4.41004611E-09
  -9.19999981      -4.30192104E-09
  -9.18999958      -4.19890744E-09
  -9.18000031      -4.10233758E-09
  -9.17000008      -4.01355260E-09
  -9.15999985      -3.93388655E-09
  -9.14999962      -3.86464993E-09
  -9.14000034      -3.80711551E-09
  -9.13000011      -3.76253517E-09
  -9.11999989      -3.73213460E-09
  -9.10999966      -3.71710529E-09
  -9.10000038      -3.71863607E-09
  -9.09000015      -3.73788822E-09
  -9.07999992      -3.77598885E-09
  -9.06999969      -3.83404686E-09
  -9.06000042      -3.91310895E-09
  -9.05000019      -4.01416633E-09
  -9.03999996      -4.13814316E-09
  -9.02999973      -4.28588853E-09
  -9.02000046      -4.45817694E-09
  -9.01000023      -4.65569405E-09
  -9.00000000      -4.87903540E-09
  -8.98999977      -5.12869525E-09
  -8.97999954      -5.40505996E-09
  -8.97000027      -5.70840708E-09
  -8.96000004      -6.03888539E-09
  -8.94999981      -6.39653619E-09
  -8.93999958      -6.78128531E-09
  -8.93000031      -7.19296134E-09
  -8.92000008      -7.63129648E-09
  -8.90999985      -8.09593192E-09
  -8.89999962      -8.58643823E-09
  -8.89000034      -9.10227715E-09
  -8.88000011      -9.64281988E-09
  -8.86999989      -1.02073399E-08
  -8.85999966      -1.07949862E-08
  -8.85000038      -1.14048095E-08
  -8.84000015      -1.20357484E-08
  -8.82999992      -1.26866579E-08
  -8.81999969      -1.33563463E-08
  -8.81000042      -1.40435716E-08
  -8.80000019      -1.47470693E-08
  -8.78999996      -1.54655613E-08
  -8.77999973      -1.61977614E-08
  -8.77000046      -1.69423746E-08
  -8.76000023      -1.76980990E-08
  -8.75000000      -1.84636129E-08
  -8.73999977      -1.92376017E-08
  -8.72999954      -2.00187369E-08
  -8.72000027      -2.08057305E-08
  -8.71000004      -2.15973319E-08
  -8.69999981      -2.23923102E-08
  -8.68999958      -2.31895125E-08
  -8.68000031      -2.39878588E-08
  -8.67000008      -2.47863206E-08
  -8.65999985      -2.55839048E-08
  -8.64999962      -2.63797162E-08
  -8.64000034      -2.71728506E-08
  -8.63000011      -2.79624857E-08
  -8.61999989      -2.87478343E-08
  -8.60999966      -2.95281399E-08
  -8.60000038      -3.03026759E-08
  -8.59000015      -3.10707797E-08
  -8.57999992      -3.18317532E-08
  -8.56999969      -3.25849108E-08
  -8.56000042      -3.33295915E-08
  -8.55000019      -3.40650566E-08
  -8.53999996      -3.47905811E-08
  -8.52999973      -3.55053587E-08
  -8.52000046      -3.62086325E-08
  -8.51000023      -3.68995927E-08
  -8.50000000      -3.75774079E-08
  -8.48999977      -3.82412360E-08
  -8.47999954      -3.88902457E-08
  -8.47000027      -3.95235098E-08
  -8.46000004      -4.01401081E-08
  -8.44999981      -4.07389784E-08
  -8.43999958      -4.13191081E-08
  -8.43000031      -4.18793213E-08
  -8.42000008      -4.24184634E-08
  -8.40999985      -4.29353442E-08
  -8.39999962      -4.34287664E-08
  -8.39000034      -4.38975221E-08
  -8.38000011      -4.43404531E-08
  -8.36999989      -4.47564084E-08
  -8.35999966      -4.51442830E-08
  -8.35000038      -4.55030076E-08
  -8.34000015      -4.58315625E-08
  -8.32999992      -4.61289922E-08
  -8.31999969      -4.63944083E-08
  -8.31000042      -4.66270826E-08
  -8.30000019      -4.68264005E-08
  -8.28999996      -4.69918859E-08
  -8.27999973      -4.71232333E-08
  -8.27000046      -4.72202437E-08
  -8.26000023      -4.72829065E-08
  -8.25000000      -4.73112642E-08
  -8.23999977      -4.73054413E-08
  -8.22999954      -4.72657185E-08
  -8.22000027      -4.71923869E-08
  -8.21000004      -4.70858161E-08
  -8.19999981      -4.69465178E-08
  -8.18999958      -4.67750496E-08
  -8.18000031      -4.65721328E-08
  -8.17000008      -4.63385526E-08
  -8.15999985      -4.60752041E-08
  -8.14999962      -4.57830787E-08
  -8.14000034      -4.54632847E-08
  -8.13000011      -4.51169804E-08
  -8.11999989      -4.47454163E-08
  -8.10999966      -4.43499104E-08
  -8.10000038      -4.39320118E-08
  -8.09000015      -4.34932232E-08
  -8.07999992      -4.30353033E-08
  -8.06999969      -4.25599609E-08
  -8.06000042      -4.20690967E-08
  -8.05000019      -4.15645687E-08
  -8.03999996      -4.10484162E-08
  -8.02999973      -4.05225578E-08
  -8.02000046      -3.99890361E-08
  -8.01000023      -3.94498869E-08
  -8.00000000      -3.89072561E-08
  -7.98999977      -3.83633072E-08
  -7.98000002      -3.78202536E-08
  -7.96999979      -3.72803832E-08
  -7.96000004      -3.67460053E-08
  -7.94999981      -3.62195394E-08
  -7.94000006      -3.57033620E-08
  -7.92999983      -3.51998395E-08
  -7.92000008      -3.47113307E-08
  -7.90999985      -3.42401520E-08
  -7.90000010      -3.37885844E-08
  -7.88999987      -3.33588623E-08
  -7.88000011      -3.29530927E-08
  -7.86999989      -3.25733858E-08
  -7.86000013      -3.22216493E-08
  -7.84999990      -3.18998623E-08
  -7.84000015      -3.16097371E-08
  -7.82999992      -3.13529718E-08
  -7.82000017      -3.11310338E-08
  -7.80999994      -3.09453512E-08
  -7.80000019      -3.07971781E-08
  -7.78999996      -3.06877013E-08
  -7.78000021      -3.06179722E-08
  -7.76999998      -3.05888364E-08
  -7.76000023      -3.06011287E-08
  -7.75000000      -3.06555563E-08
  -7.73999977      -3.07525880E-08
  -7.73000002      -3.08925401E-08
  -7.71999979      -3.10755723E-08
  -7.71000004      -3.13017097E-08
  -7.69999981      -3.15708206E-08
  -7.69000006      -3.18825606E-08
  -7.67999983      -3.22365530E-08
  -7.67000008      -3.26322862E-08
  -7.65999985      -3.30691030E-08
  -7.65000010      -3.35463533E-08
  -7.63999987      -3.40631630E-08
  -7.63000011      -3.46186404E-08
  -7.61999989      -3.52118157E-08
  -7.61000013      -3.58415626E-08
  -7.59999990      -3.65066448E-08
  -7.59000015      -3.72058331E-08
  -7.57999992      -3.79377703E-08
  -7.57000017      -3.87010992E-08
  -7.55999994      -3.94944308E-08
  -7.55000019      -4.03164044E-08
  -7.53999996      -4.11656522E-08
  -7.53000021      -4.20407531E-08
  -7.51999998      -4.29403677E-08
  -7.51000023      -4.38631638E-08
  -7.50000000      -4.48077913E-08
  -7.48999977      -4.57728468E-08
  -7.48000002      -4.67569983E-08
  -7.46999979      -4.77589452E-08
  -7.46000004      -4.87773555E-08
  -7.44999981      -4.98109110E-08
  -7.44000006      -5.08584002E-08