  -16.0000000       0.00000000    
  -15.9899998       0.00000000    
  -15.9799995       0.00000000    
  -15.9700003       0.00000000    
  -15.9600000       0.00000000    
  -15.9499998       0.00000000    
  -15.9399996       0.00000000    
  -15.9300003       0.00000000    
  -15.9200001       0.00000000    
  -15.9099998       0.00000000    
  -15.8999996       0.00000000    
  -15.8900003       0.00000000    
  -15.8800001       0.00000000    
  -15.8699999       0.00000000    
  -15.8599997       0.00000000    
  -15.8500004       0.00000000    
  -15.8400002       0.00000000    
  -15.8299999      -0.00000000    
  -15.8199997       0.00000000    
  -15.8100004       5.60519386E-45
  -15.8000002       3.08285662E-44
  -15.7900000       1.90576591E-43
  -15.7799997       9.72501134E-43
  -15.7700005       4.35803822E-42
  -15.7600002       1.74041269E-41
  -15.7500000       6.26352388E-41
  -15.7399998       2.04920282E-40
  -15.7299995       6.13586559E-40
  -15.7200003       1.68995894E-39
  -15.7100000       4.29648619E-39
  -15.6999998       1.01038524E-38
  -15.6899996       2.19904871E-38
  -15.6800003       4.42402341E-38
  -15.6700001       8.19696375E-38
  -15.6599998       1.38853802E-37
  -15.6499996       2.12079258E-37
  -15.6400003       2.84046562E-37
  -15.6300001       3.12326334E-37
  -15.6199999       2.23096334E-37
  -15.6099997      -8.19613530E-38
  -15.6000004      -6.92227765E-37
  -15.5900002      -1.61851417E-36
  -15.5799999      -2.69303485E-36
  -15.5699997      -3.47450524E-36
  -15.5600004      -3.23054568E-36
  -15.5500002      -1.09219507E-36
  -15.5400000       3.54917395E-36
  -15.5299997       1.04327032E-35
  -15.5200005       1.78113266E-35
  -15.5100002       2.22177343E-35
  -15.5000000       1.90719137E-35
  -15.4899998       4.39236120E-36
  -15.4799995      -2.26535583E-35
  -15.4700003      -5.73381119E-35
  -15.4600000      -8.85764897E-35
  -15.4499998      -1.00982174E-34
  -15.4399996      -7.97478097E-35
  -15.4300003      -1.64445461E-35
  -15.4200001       8.73832195E-35
  -15.4099998       2.20835601E-34
  -15.3999996       3.66359253E-34
  -15.3900003       4.97198708E-34
  -15.3800001       5.61255665E-34
  -15.3699999       4.52675436E-34
  -15.3599997      -5.08532710E-36
  -15.3500004      -1.01507693E-33
  -15.3400002      -2.64688487E-33
  -15.3299999      -4.55344671E-33
  -15.3199997      -5.67313778E-33
  -15.3100004      -4.17965494E-33
  -15.3000002       1.96495360E-33
  -15.2900000       1.36167532E-32
  -15.2799997       2.84284140E-32
  -15.2700005       3.91557844E-32
  -15.2600002       3.39662178E-32
  -15.2500000       5.13843295E-34
  -15.2399998      -6.56439127E-32
  -15.2299995      -1.50437675E-31
  -15.2200003      -2.14181230E-31
  -15.2100000      -1.96105642E-31
  -15.1999998      -3.72917266E-32
  -15.1899996       2.78572084E-31
  -15.1800003       6.79957654E-31
  -15.1700001       9.84634223E-31
  -15.1599998       9.31357810E-31
  -15.1499996       2.85819218E-31
  -15.1400003      -9.94196070E-31
  -15.1300001      -2.59861759E-30
  -15.1199999      -3.81484780E-30
  -15.1099997      -3.69196783E-30
  -15.1000004      -1.45539780E-30
  -15.0900002       2.92734863E-30
  -15.0799999       8.28568766E-30
  -15.0699997       1.22338817E-29
  -15.0600004       1.18744384E-29
  -15.0500002       5.19084500E-30
  -15.0400000      -7.33982886E-30
  -15.0299997      -2.17782924E-29
  -15.0200005      -3.13236707E-29
  -15.0100002      -2.89109830E-29
  -15.0000000      -1.11944467E-29
  -14.9899998       1.78923150E-29
  -14.9799995       4.64515585E-29
  -14.9700003       5.86258432E-29
  -14.9600000       4.29113321E-29
  -14.9499998       1.29101817E-30
  -14.9399996      -4.66898412E-29
  -14.9300003      -7.03523310E-29
  -14.9200001      -4.57073220E-29
  -14.9099998       2.23378985E-29
  -14.8999996       8.79302876E-29
  -14.8900003       7.83636459E-29
  -14.8800001      -5.93496618E-29
  -14.8699999      -2.94044628E-28
  -14.8599997      -4.67161801E-28
  -14.8500004      -3.22212533E-28
  -14.8400002       3.58650598E-28
  -14.8299999       1.53169777E-27
  -14.8199997       2.68371963E-27
  -14.8100004       2.80835927E-27
  -14.8000002       7.34001994E-28
  -14.7900000      -4.14876780E-27
  -14.7799997      -1.09520356E-26
  -14.7700005      -1.66246150E-26
  -14.7600002      -1.62082212E-26
  -14.7500000      -4.54914013E-27
  -14.7399998       2.05436759E-26
  -14.7299995       5.46100117E-26
  -14.7200003       8.41954264E-26
  -14.7100000       8.82005472E-26
  -14.6999998       4.46602262E-26
  -14.6899996      -5.73134811E-26
  -14.6800003      -2.03800452E-25
  -14.6700001      -3.47043578E-25
  -14.6599998      -4.09008849E-25
  -14.6499996      -3.03327569E-25
  -14.6400003       2.49927313E-26
  -14.6300001       5.52417500E-25
  -14.6199999       1.14226221E-24
  -14.6099997       1.54712683E-24
  -14.6000004       1.46730002E-24
  -14.5900002       6.66056907E-25
  -14.5799999      -8.84817058E-25
  -14.5699997      -2.88392223E-24
  -14.5600004      -4.67294418E-24
  -14.5500002      -5.36075082E-24
  -14.5400000      -4.11174380E-24
  -14.5299997      -5.40501657E-25
  -14.5200005       4.91937763E-24
  -14.5100002       1.08484451E-23
  -14.5000000       1.50335873E-23
  -14.4899998       1.50774559E-23
  -14.4799995       9.32005160E-24
  -14.4700003      -2.20944360E-24
  -14.4600000      -1.72067003E-23
  -14.4499998      -3.12447925E-23
  -14.4399996      -3.88399990E-23
  -14.4300003      -3.52661845E-23
  -14.4200001      -1.85786162E-23
  -14.4099998       8.93617531E-24
  -14.3999996       4.06339160E-23
  -14.3900003       6.70752209E-23
  -14.3800001       7.89888318E-23
  -14.3699999       7.06514303E-23
  -14.3599997       4.22924676E-23
  -14.3500004       2.88758319E-25
  -14.3400002      -4.52694331E-23
  -14.3299999      -8.48067567E-23
  -14.3199997      -1.13277851E-22
  -14.3100004      -1.31530414E-22
  -14.3000002      -1.43387031E-22
  -14.2900000      -1.48891930E-22
  -14.2799997      -1.36864616E-22
  -14.2700005      -8.19430338E-23
  -14.2600002       4.87331351E-23
  -14.2500000       2.77131582E-22
  -14.2399998       5.88030752E-22
  -14.2299995       9.05461767E-22
  -14.2200003       1.08718270E-21
  -14.2100000       9.51442689E-22
  -14.1999998       3.41412537E-22
  -14.1899996      -7.83467924E-22
  -14.1800003      -2.25876267E-21
  -14.1700001      -3.67226146E-21
  -14.1599998      -4.41052864E-21
  -14.1499996      -3.81827782E-21
  -14.1400003      -1.45472948E-21
  -14.1300001       2.61848122E-21
  -14.1199999       7.62587823E-21
  -14.1099997       1.20652936E-20
  -14.1000004       1.39841183E-20
  -14.0900002       1.15534263E-20
  -14.0799999       3.83152887E-21
  -14.0699997      -8.50984512E-21
  -14.0600004      -2.27950103E-20
  -14.0500002      -3.45679457E-20
  -14.0400000      -3.85727567E-20
  -14.0299997      -3.03953429E-20
  -14.0200005      -8.38757425E-21
  -14.0100002       2.47402273E-20
  -14.0000000       6.13550492E-20
  -13.9899998       8.99137765E-20
  -13.9799995       9.77055981E-20
  -13.9700003       7.49044938E-20
  -13.9600000       1.89166416E-20
  -13.9499998      -6.24032227E-20
  -13.9399996      -1.50120201E-19
  -13.9300003      -2.17157296E-19
  -13.9200001      -2.34847329E-19
  -13.9099998      -1.81935946E-19
  -13.8999996      -5.37272161E-20
  -13.8900003       1.31596461E-19
  -13.8800001       3.32305154E-19
  -13.8699999       4.89814793E-19
  -13.8599997       5.42518606E-19
  -13.8500004       4.44194024E-19
  -13.8400002       1.82360807E-19
  -13.8299999      -2.09119091E-19
  -13.8199997      -6.48455523E-19
  -13.8100004      -1.01842746E-18
  -13.8000002      -1.19244279E-18
  -13.7900000      -1.06944579E-18
  -13.7799997      -6.09303772E-19
  -13.7700005       1.41562126E-19
  -13.7600002       1.04378747E-18
  -13.7500000       1.88369167E-18
  -13.7399998       2.41666813E-18
  -13.7299995       2.42796204E-18
  -13.7200003       1.79724696E-18
  -13.7100000       5.49915927E-19
  -13.6999998      -1.12126204E-18
  -13.6899996      -2.87505895E-18
  -13.6800003      -4.28299315E-18
  -13.6700001      -4.92347041E-18
  -13.6599998      -4.48934452E-18
  -13.6499996      -2.88320461E-18
  -13.6400003      -2.74463490E-19
  -13.6300001       2.90097287E-18
  -13.6199999       6.00538543E-18
  -13.6099997       8.31974207E-18
  -13.6000004       9.19701839E-18
  -13.5900002       8.21546106E-18
  -13.5799999       5.29677330E-18
  -13.5699997       7.60487366E-19
  -13.5600004      -4.70084385E-18
  -13.5500002      -1.01237130E-17
  -13.5400000      -1.44346756E-17
  -13.5299997      -1.66404122E-17
  -13.5200005      -1.60126169E-17
  -13.5100002      -1.22370817E-17
  -13.5000000      -5.50516201E-18
  -13.4899998       3.46313101E-18
  -13.4799995       1.34663176E-17
  -13.4700003       2.29354519E-17
  -13.4600000       3.01098110E-17
  -13.4499998       3.32685690E-17
  -13.4399996       3.10084601E-17
  -13.4300003       2.25472660E-17
  -13.4200001       8.01552986E-18
  -13.4099998      -1.13211661E-17
  -13.3999996      -3.29822983E-17
  -13.3900003      -5.34082894E-17
  -13.3800001      -6.83632417E-17
  -13.3699999      -7.36070969E-17
  -13.3599997      -6.57710099E-17
  -13.3500004      -4.32949741E-17
  -13.3400002      -7.22535565E-18
  -13.3299999       3.83526096E-17
  -13.3199997       8.64456944E-17
  -13.3100004       1.27956265E-16
  -13.3000002       1.53134015E-16
  -13.2900000       1.53492429E-16
  -13.2799997       1.23861218E-16
  -13.2700005       6.41466190E-17
  -13.2600002      -1.96408097E-17
  -13.2500000      -1.15452960E-16
  -13.2399998      -2.06553259E-16
  -13.2299995      -2.74092741E-16
  -13.2200003      -3.00589150E-16
  -13.2100000      -2.73739211E-16
  -13.1999998      -1.89828196E-16
  -13.1899996      -5.59576369E-17
  -13.1800003       1.09578244E-16
  -13.1700001       2.79170783E-16
  -13.1599998       4.20031092E-16
  -13.1499996       5.00100587E-16
  -13.1400003       4.94794455E-16
  -13.1300001       3.93270489E-16
  -13.1199999       2.02785299E-16
  -13.1099997      -5.01380474E-17
  -13.1000004      -3.22515074E-16
  -13.0900002      -5.61688617E-16
  -13.0799999      -7.15190946E-16
  -13.0699997      -7.41909170E-16
  -13.0600004      -6.22214045E-16
  -13.0500002      -3.64633284E-16
  -13.0400000      -7.16176449E-18
  -13.0299997       3.87639837E-16
  -13.0200005       7.43203278E-16
  -13.0100002       9.83240504E-16
  -13.0000000       1.04683246E-15
  -12.9899998       9.01099484E-16
  -12.9799995       5.48802070E-16
  -12.9700003       2.94707743E-17
  -12.9600000      -5.85702054E-16
  -12.9499998      -1.20352709E-15
  -12.9399996      -1.72054086E-15
  -12.9300003      -2.03447488E-15
  -12.9200001      -2.05420016E-15
  -12.9099998      -1.70845773E-15
  -12.8999996      -9.55040554E-16
  -12.8900003       2.07553076E-16
  -12.8800001       1.72503014E-15
  -12.8699999       3.47037212E-15
  -12.8599997       5.23000366E-15
  -12.8500004       6.70091661E-15
  -12.8400002       7.50767907E-15
  -12.8299999       7.24630757E-15
  -12.8199997       5.55655350E-15
  -12.8100004       2.21592099E-15
  -12.8000002      -2.76036454E-15
  -12.7900000      -9.03658879E-15
  -12.7799997      -1.59169349E-14
  -12.7700005      -2.23713243E-14
  -12.7600002      -2.71382461E-14
  -12.7500000      -2.89001340E-14
  -12.7399998      -2.65088244E-14
  -12.7299995      -1.92234432E-14
  -12.7200003      -6.91498809E-15
  -12.7100000       9.80584717E-15
  -12.6999998       2.95681584E-14
  -12.6899996       5.03369658E-14
  -12.6800003       6.96117561E-14
  -12.6700001       8.46922155E-14
  -12.6599998       9.29654438E-14
  -12.6499996       9.21700867E-14
  -12.6400003       8.06075855E-14
  -12.6300001       5.72922989E-14
  -12.6199999       2.20552184E-14
  -12.6099997      -2.43688380E-14
  -12.6000004      -8.02400681E-14
  -12.5900002      -1.42683120E-13
  -12.5799999      -2.07540907E-13
  -12.5699997      -2.69261420E-13
  -12.5600004      -3.20894244E-13
  -12.5500002      -3.54285774E-13
  -12.5400000      -3.60550619E-13
  -12.5299997      -3.30854620E-13
  -12.5200005      -2.57491050E-13
  -12.5100002      -1.35162077E-13
  -12.5000000       3.76776518E-14
  -12.4899998       2.57595757E-13
  -12.4799995       5.15252392E-13
  -12.4700003       7.94916379E-13
  -12.4600000       1.07450626E-12
  -12.4499998       1.32617257E-12
  -12.4399996       1.51735569E-12
  -12.4300003       1.61221134E-12
  -12.4200001       1.57326550E-12
  -12.4099998       1.36318886E-12
  -12.3999996       9.46585583E-13
  -12.3900003       2.91776613E-13
  -12.3800001      -6.27438531E-13
  -12.3699999      -1.83001270E-12
  -12.3599997      -3.32587625E-12
  -12.3500004      -5.11414262E-12
  -12.3400002      -7.18140651E-12
  -12.3299999      -9.50021659E-12
  -12.3199997      -1.20279368E-11
  -12.3100004      -1.47061321E-11
  -12.3000002      -1.74607603E-11
  -12.2900000      -2.02032401E-11
  -12.2799997      -2.28325709E-11
  -12.2700005      -2.52384866E-11
  -12.2600002      -2.73056387E-11
  -12.2500000      -2.89185325E-11
  -12.2399998      -2.99670289E-11
  -12.2299995      -3.03520022E-11
  -12.2200003      -2.99906489E-11
  -12.2100000      -2.88211139E-11
  -12.1999998      -2.68057503E-11
  -12.1899996      -2.39330049E-11
  -12.1800003      -2.02173608E-11
  -12.1700001      -1.56977348E-11
  -12.1599998      -1.04341535E-11
  -12.1499996      -4.50362794E-12
  -12.1400003       2.00468266E-12
  -12.1300001       8.99402341E-12
  -12.1199999       1.63641357E-11
  -12.1099997       2.40141917E-11
  -12.1000004       3.18447838E-11
  -12.0900002       3.97589149E-11
  -12.0799999       4.76623845E-11
  -12.0699997       5.54637655E-11
  -12.0600004       6.30746011E-11
  -12.0500002       7.04094838E-11
  -12.0400000       7.73867567E-11
  -12.0299997       8.39288014E-11
  -12.0200005       8.99624888E-11
  -12.0100002       9.54187840E-11
  -12.0000000       1.00232045E-10
  -11.9899998       1.04338503E-10
  -11.9799995       1.07674723E-10
  -11.9700003       1.10175841E-10
  -11.9600000       1.11774680E-10
  -11.9499998       1.12401824E-10
  -11.9399996       1.11986469E-10
  -11.9300003       1.10458642E-10
  -11.9200001       1.07752016E-10
  -11.9099998       1.03807025E-10
  -11.8999996       9.85736909E-11
  -11.8900003       9.20140908E-11
  -11.8800001       8.41040432E-11
  -11.8699999       7.48343332E-11
  -11.8599997       6.42114695E-11
  -11.8500004       5.22586037E-11
  -11.8400002       3.90164429E-11
  -11.8299999       2.45442486E-11
  -11.8199997       8.92100890E-12
  -11.8100004      -7.75396414E-12
  -11.8000002      -2.53614022E-11
  -11.7900000      -4.37632673E-11
  -11.7799997      -6.28052887E-11
  -11.7700005      -8.23207544E-11
  -11.7600002      -1.02134877E-10
  -11.7500000      -1.22069924E-10
  -11.7399998      -1.41948744E-10
  -11.7299995      -1.61598721E-10
  -11.7200003      -1.80854068E-10
  -11.7100000      -1.99557343E-10
  -11.6999998      -2.17559790E-10
  -11.6899996      -2.34721298E-10
  -11.6800003      -2.50909571E-10
  -11.6700001      -2.65998917E-10
  -11.6599998      -2.79868739E-10
  -11.6499996      -2.92401686E-10
  -11.6400003      -3.03480185E-10
  -11.6300001      -3.12985360E-10
  -11.6199999      -3.20793447E-10
  -11.6099997      -3.26775662E-10
  -11.6000004      -3.30798083E-10
  -11.5900002      -3.32725320E-10
  -11.5799999      -3.32424754E-10
  -11.5699997      -3.29773681E-10
  -11.5600004      -3.24665961E-10
  -11.5500002      -3.17018883E-10
  -11.5400000      -3.06775993E-10
  -11.5299997      -2.93907620E-10
  -11.5200005      -2.78407603E-10
  -11.5100002      -2.60285571E-10
  -11.5000000      -2.39558512E-10
  -11.4899998      -2.16240983E-10
  -11.4799995      -1.90339799E-10
  -11.4700003      -1.61850408E-10
  -11.4600000      -1.30758473E-10
  -11.4499998      -9.70484110E-11
  -11.4399996      -6.07114012E-11
  -11.4300003      -2.17584336E-11
  -11.4200001       1.97694968E-11
  -11.4099998       6.37945113E-11
  -11.3999996       1.10199357E-10
  -11.3900003       1.58832017E-10
  -11.3800001       2.09511464E-10
  -11.3699999       2.62042055E-10
  -11.3599997       3.16224491E-10
  -11.3500004       3.71869119E-10
  -11.3400002       4.28805019E-10
  -11.3299999       4.86886031E-10
  -11.3199997       5.45992085E-10
  -11.3100004       6.06027672E-10
  -11.3000002       6.66916800E-10
  -11.2900000       7.28595739E-10
  -11.2799997       7.91006427E-10
  -11.2700005       8.54088800E-10
  -11.2600002       9.17775522E-10
  -11.2500000       9.81988491E-10
  -11.2399998       1.04663733E-09
  -11.2299995       1.11161824E-09
  -11.2200003       1.17681875E-09
  -11.2100000       1.24211963E-09
  -11.1999998       1.30740019E-09
  -11.1899996       1.37254286E-09
  -11.1800003       1.43743872E-09
  -11.1700001       1.50198731E-09
  -11.1599998       1.56610269E-09
  -11.1499996       1.62970837E-09
  -11.1400003       1.69273950E-09
  -11.1300001       1.75513837E-09
  -11.1199999       1.81685156E-09
  -11.1099997       1.87783034E-09
  -11.1000004       1.93802863E-09
  -11.0900002       1.99740469E-09
  -11.0799999       2.05591721E-09
  -11.0699997       2.11353246E-09
  -11.0600004       2.17021889E-09
  -11.0500002       2.22594898E-09
  -11.0400000       2.28069408E-09
  -11.0299997       2.33442332E-09
  -11.0200005       2.38710007E-09
  -11.0100002       2.43868681E-09
  -11.0000000       2.48914556E-09
  -10.9899998       2.53843724E-09
  -10.9799995       2.58653299E-09
  -10.9700003       2.63341771E-09
  -10.9600000       2.67910161E-09
  -10.9499998       2.72361023E-09
  -10.9399996       2.76698686E-09
  -10.9300003       2.80928303E-09
  -10.9200001       2.85054913E-09
  -10.9099998       2.89082047E-09
  -10.8999996       2.93010594E-09
  -10.8900003       2.96838354E-09
  -10.8800001       3.00559622E-09
  -10.8699999       3.04164605E-09
  -10.8599997       3.07642400E-09
  -10.8500004       3.10980308E-09
  -10.8400002       3.14165605E-09
  -10.8299999       3.17188120E-09
  -10.8199997       3.20039306E-09
  -10.8100004       3.22715699E-09
  -10.8000002       3.25215166E-09
  -10.7900000       3.27540994E-09
  -10.7799997       3.29698646E-09
  -10.7700005       3.31695182E-09
  -10.7600002       3.33538974E-09
  -10.7500000       3.35238015E-09
  -10.7399998       3.36801120E-09
  -10.7299995       3.38235706E-09
  -10.7200003       3.39548056E-09
  -10.7100000       3.40743767E-09
  -10.6999998       3.41829920E-09
  -10.6899996       3.42813133E-09
  -10.6800003       3.43702666E-09
  -10.6700001       3.44509599E-09
  -10.6599998       3.45247142E-09
  -10.6499996       3.45931528E-09
  -10.6400003       3.46580364E-09
  -10.6300001       3.47213658E-09
  -10.6199999       3.47850859E-09
  -10.6099997       3.48512064E-09
  -10.6000004       3.49216123E-09
  -10.5900002       3.49982732E-09
  -10.5799999       3.50828611E-09
  -10.5699997       3.51771146E-09
  -10.5600004       3.52829566E-09
  -10.5500002       3.54018148E-09
  -10.5400000       3.55354168E-09
  -10.5299997       3.56851171E-09
  -10.5200005       3.58523677E-09
  -10.5100002       3.60381325E-09
  -10.5000000       3.62431285E-09
  -10.4899998       3.64680308E-09
  -10.4799995       3.67131769E-09
  -10.4700003       3.69786690E-09
  -10.4600000       3.72644982E-09
  -10.4499998       3.75703380E-09
  -10.4399996       3.78958065E-09
  -10.4300003       3.82402776E-09
  -10.4200001       3.86028054E-09
  -10.4099998       3.89821642E-09
  -10.3999996       3.93770083E-09
  -10.3900003       3.97855882E-09
  -10.3800001       4.02062472E-09
  -10.3699999       4.06372314E-09
  -10.3599997       4.10770662E-09
  -10.3500004       4.15245438E-09
  -10.3400002       4.19785007E-09
  -10.3299999       4.24383106E-09
  -10.3199997       4.29036673E-09
  -10.3100004       4.33743130E-09
  -10.3000002       4.38496661E-09
  -10.2900000       4.43294157E-09
  -10.2799997       4.48128645E-09
  -10.2700005       4.52991866E-09
  -10.2600002       4.57872895E-09
  -10.2500000       4.62758498E-09
  -10.2399998       4.67638506E-09
  -10.2299995       4.72502260E-09
  -10.2200003       4.77344120E-09
  -10.2100000       4.82160978E-09
  -10.1999998       4.86960960E-09
  -10.1899996       4.91749619E-09
  -10.1800003       4.96544805E-09
  -10.1700001       5.01365349E-09
  -10.1599998       5.06232389E-09
  -10.1499996       5.11168796E-09
  -10.1400003       5.16193310E-09
  -10.1300001       5.21325383E-09
  -10.1199999       5.26579358E-09
  -10.1099997       5.31965938E-09
  -10.1000004       5.37496669E-09
  -10.0900002       5.43181589E-09
  -10.0799999       5.49030998E-09
  -10.0699997       5.55058177E-09
  -10.0600004       5.61277336E-09
  -10.0500002       5.67704950E-09
  -10.0400000       5.74360470E-09
  -10.0299997       5.81262105E-09
  -10.0200005       5.88427707E-09
  -10.0100002       5.95869531E-09
  -10.0000000       6.03602324E-09
  -9.98999977       6.11635942E-09
  -9.97999954       6.19986151E-09
  -9.97000027       6.28671204E-09
  -9.96000004       6.37705844E-09
  -9.94999981       6.47112008E-09
  -9.93999958       6.56913413E-09
  -9.93000031       6.67136346E-09
  -9.92000008       6.77793466E-09
  -9.90999985       6.88900981E-09
  -9.89999962       7.00462177E-09
  -9.89000034       7.12476877E-09
  -9.88000011       7.24935001E-09
  -9.86999989       7.37817185E-09
  -9.85999966       7.51110019E-09
  -9.85000038       7.64795338E-09
  -9.84000015       7.78860887E-09
  -9.82999992       7.93295918E-09
  -9.81999969       8.08099898E-09
  -9.81000042       8.23275403E-09
  -9.80000019       8.38829717E-09
  -9.78999996       8.54773763E-09
  -9.77999973       8.71122197E-09
  -9.77000046       8.87894203E-09
  -9.76000023       9.05115094E-09
  -9.75000000       9.22808407E-09
  -9.73999977       9.41008960E-09
  -9.72999954       9.59749080E-09
  -9.72000027       9.79072290E-09
  -9.71000004       9.99017580E-09
  -9.69999981       1.01962154E-08
  -9.68999958       1.04091660E-08
  -9.68000031       1.06292335E-08
  -9.67000008       1.08565388E-08
  -9.65999985       1.10910454E-08
  -9.64999962       1.13325926E-08
  -9.64000034       1.15808669E-08
  -9.63000011       1.18354819E-08
  -9.61999989       1.20958523E-08
  -9.60999966       1.23614390E-08
  -9.60000038       1.26315713E-08
  -9.59000015       1.29054625E-08
  -9.57999992       1.31822837E-08
  -9.56999969       1.34611007E-08
  -9.56000042       1.37408582E-08
  -9.55000019       1.40203573E-08
  -9.53999996       1.42982435E-08
  -9.52999973       1.45730699E-08
  -9.52000046       1.48432706E-08
  -9.51000023       1.51072932E-08
  -9.50000000       1.53634847E-08
  -9.48999977       1.56103415E-08
  -9.47999954       1.58463553E-08
  -9.47000027       1.60703042E-08
  -9.46000004       1.62810618E-08
  -9.44999981       1.64777703E-08
  -9.43999958       1.66598610E-08
  -9.43000031       1.68270979E-08
  -9.42000008       1.69795662E-08
  -9.40999985       1.71176460E-08
  -9.39999962       1.72421775E-08
  -9.39000034       1.73542514E-08
  -9.38000011       1.74553687E-08
  -9.36999989       1.75473804E-08
  -9.35999966       1.76323667E-08
  -9.35000038       1.77127522E-08
  -9.34000015       1.77910611E-08
  -9.32999992       1.78700841E-08
  -9.31999969       1.79526420E-08
  -9.31000042       1.80416109E-08
  -9.30000019       1.81398132E-08
  -9.28999996       1.82500912E-08
  -9.27999973       1.83750206E-08
  -9.27000046       1.85171842E-08
  -9.26000023       1.86789695E-08
  -9.25000000       1.88625364E-08
  -9.23999977       1.90698994E-08
  -9.22999954       1.93028935E-08
  -9.22000027       1.95631298E-08
  -9.21000004       1.98520169E-08
  -9.19999981       2.01706367E-08
  -9.18999958       2.05199147E-08
  -9.18000031       2.09005648E-08
  -9.17000008       2.13129745E-08
  -9.15999985       2.17573231E-08
  -9.14999962       2.22334720E-08
  -9.14000034       2.27412134E-08
  -9.13000011       2.32800357E-08
  -9.11999989       2.38492728E-08
  -9.10999966       2.44479228E-08
  -9.10000038       2.50748791E-08
  -9.09000015       2.57286779E-08
  -9.07999992       2.64076014E-08
  -9.06999969       2.71096550E-08
  -9.06000042       2.78325736E-08
  -9.05000019       2.85738455E-08
  -9.03999996       2.93308222E-08
  -9.02999973       3.01004803E-08
  -9.02000046       3.08798391E-08
  -9.01000023       3.16657669E-08
  -9.00000000       3.24549490E-08
  -8.98999977       3.32440955E-08
  -8.97999954       3.40297248E-08
  -8.97000027       3.48084477E-08
  -8.96000004       3.55767220E-08
  -8.94999981       3.63311337E-08
  -8.93999958       3.70681938E-08
  -8.93000031       3.77844351E-08
  -8.92000008       3.84766885E-08
  -8.90999985       3.91416606E-08
  -8.89999962       3.97763564E-08
  -8.89000034       4.03779588E-08
  -8.88000011       4.09438776E-08
  -8.86999989       4.14716439E-08
  -8.85999966       4.19592645E-08
  -8.85000038       4.24047677E-08
  -8.84000015       4.28065725E-08
  -8.82999992       4.31635421E-08
  -8.81999969       4.34746248E-08
  -8.81000042       4.37394334E-08
  -8.80000019       4.39576056E-08
  -8.78999996       4.41292265E-08
  -8.77999973       4.42546941E-08
  -8.77000046       4.43347723E-08
  -8.76000023       4.43704238E-08
  -8.75000000       4.43627819E-08
  -8.73999977       4.43135022E-08
  -8.72999954       4.42242012E-08
  -8.72000027       4.40967973E-08
  -8.71000004       4.39333157E-08
  -8.69999981       4.37358096E-08
  -8.68999958       4.35063434E-08
  -8.68000031       4.32471161E-08
  -8.67000008       4.29602949E-08
  -8.65999985       4.26481108E-08
  -8.64999962       4.23128128E-08
  -8.64000034       4.19566000E-08
  -8.63000011       4.15818846E-08
  -8.61999989       4.11906633E-08
  -8.60999966       4.07853591E-08
  -8.60000038       4.03681426E-08
  -8.59000015       3.99414049E-08
  -8.57999992       3.95071105E-08
  -8.56999969       3.90673982E-08
  -8.56000042       3.86242149E-08
  -8.55000019       3.81795360E-08
  -8.53999996       3.77349139E-08
  -8.52999973       3.72923949E-08
  -8.52000046       3.68534181E-08
  -8.51000023       3.64192765E-08
  -8.50000000       3.59916683E-08
  -8.48999977       3.55715954E-08
  -8.47999954       3.51602587E-08
  -8.47000027       3.47584965E-08
  -8.46000004       3.43672291E-08
  -8.44999981       3.39869395E-08
  -8.43999958       3.36183454E-08
  -8.43000031       3.32619372E-08
  -8.42000008       3.29182903E-08
  -8.40999985       3.25880478E-08
  -8.39999962       3.22715223E-08
  -8.39000034       3.19691118E-08
  -8.38000011       3.16817363E-08
  -8.36999989       3.14098187E-08
  -8.35999966       3.11541903E-08
  -8.35000038       3.09153698E-08
  -8.34000015       3.06943981E-08
  -8.32999992       3.04920249E-08
  -8.31999969       3.03091809E-08
  -8.31000042       3.01468503E-08
  -8.30000019       3.00059781E-08
  -8.28999996       2.98874880E-08
  -8.27999973       2.97924085E-08
  -8.27000046       2.97216971E-08
  -8.26000023       2.96761602E-08
  -8.25000000       2.96570608E-08
  -8.23999977       2.96653493E-08
  -8.22999954       2.97022265E-08
  -8.22000027       2.97687812E-08
  -8.21000004       2.98662108E-08
  -8.19999981       2.99961584E-08
  -8.18999958       3.01595264E-08
  -8.18000031       3.03581089E-08
  -8.17000008       3.05928722E-08
  -8.15999985       3.08653227E-08
  -8.14999962       3.11770094E-08
  -8.14000034       3.15291970E-08
  -8.13000011       3.19233600E-08
  -8.11999989       3.23608624E-08
  -8.10999966       3.28430296E-08
  -8.10000038       3.33709096E-08
  -8.09000015       3.39457458E-08
  -8.07999992       3.45684690E-08
  -8.06999969       3.52397862E-08
  -8.06000042       3.59602090E-08
  -8.05000019       3.67302349E-08
  -8.03999996       3.75500022E-08
  -8.02999973       3.84193477E-08
  -8.02000046       3.93379942E-08
  -8.01000023       4.03054621E-08
  -8.00000000       4.13208632E-08
  -7.98999977       4.23833946E-08
  -7.98000002       4.34915570E-08
  -7.96999979       4.46438158E-08
  -7.96000004       4.58385472E-08
  -7.94999981       4.70733355E-08
  -7.94000006       4.83459743E-08
  -7.92999983       4.96540302E-08
  -7.92000008       5.09947675E-08
  -7.90999985       5.23656851E-08
  -7.90000010       5.37636460E-08
  -7.88999987       5.51858079E-08
  -7.88000011       5.66291476E-08
  -7.86999989       5.80906523E-08
  -7.86000013       5.95672489E-08
  -7.84999990       6.10557365E-08
  -7.84000015       6.25536600E-08
  -7.82999992       6.40580140E-08
  -7.82000017       6.55660557E-08
  -7.80999994       6.70754972E-08
  -7.80000019       6.85836454E-08
  -7.78999996       7.00885749E-08
  -7.78000021       7.15882109E-08
  -7.76999998       7.30800167E-08
  -7.76000023       7.45624362E-08
  -7.75000000       7.60336007E-08
  -7.73999977       7.74922171E-08
  -7.73000002       7.89370844E-08
  -7.71999979       8.03666893E-08
  -7.71000004       8.17801151E-08
  -7.69999981       8.31768716E-08
  -7.69000006       8.45563335E-08
  -7.67999983       8.59178684E-08
  -7.67000008       8.72615900E-08
  -7.65999985       8.85878677E-08
  -7.65000010       8.98962611E-08
  -7.63999987       9.11870259E-08
  -7.63000011       9.24608798E-08
  -7.61999989       9.37182989E-08
  -7.61000013       9.49606118E-08
  -7.59999990       9.61887139E-08
  -7.59000015       9.74033227E-08
  -7.57999992       9.86056889E-08
  -7.57000017       9.97977949E-08
  -7.55999994       1.00980380E-07
  -7.55000019       1.02154850E-07
  -7.53999996       1.03322641E-07
  -7.53000021       1.04485942E-07
  -7.51999998       1.05645668E-07
  -7.51000023       1.06804116E-07
  -7.50000000       1.07962840E-07
  -7.48999977       1.09123889E-07
  -7.48000002       1.10288887E-07
  -7.46999979       1.11460032E-07
  -7.46000004       1.12638830E-07
  -7.44999981       1.13826992E-07
  -7.44000006       1.15026793E-07