  -16.0000000       0.00000000    
  -15.9899998       0.00000000    
  -15.9799995       0.00000000    
  -15.9700003       0.00000000    
  -15.9600000       0.00000000    
  -15.9499998       0.00000000    
  -15.9399996       0.00000000    
  -15.9300003       0.00000000    
  -15.9200001       0.00000000    
  -15.9099998       0.00000000    
  -15.8999996       0.00000000    
  -15.8900003       0.00000000    
  -15.8800001       0.00000000    
  -15.8699999       0.00000000    
  -15.8599997       0.00000000    
  -15.8500004       0.00000000    
  -15.8400002       0.00000000    
  -15.8299999       0.00000000    
  -15.8199997       1.40129846E-45
  -15.8100004       9.80908925E-45
  -15.8000002       6.30584309E-44
  -15.7900000       3.26502542E-43
  -15.7799997       1.45735040E-42
  -15.7700005       5.77334967E-42
  -15.7600002       2.05080030E-41
  -15.7500000       6.59058694E-41
  -15.7399998       1.92897141E-40
  -15.7299995       5.16560653E-40
  -15.7200003       1.26914060E-39
  -15.7100000       2.86313162E-39
  -15.6999998       5.92194897E-39
  -15.6899996       1.11773409E-38
  -15.6800003       1.90618042E-38
  -15.6700001       2.87922722E-38
  -15.6599998       3.68542729E-38
  -15.6499996       3.51955055E-38
  -15.6400003       1.02134956E-38
  -15.6300001      -5.53655994E-38
  -15.6199999      -1.74957685E-37
  -15.6099997      -3.42985220E-37
  -15.6000004      -5.13794579E-37
  -15.5900002      -5.83312929E-37
  -15.5799999      -3.90901825E-37
  -15.5699997       2.35911892E-37
  -15.5600004       1.37812964E-36
  -15.5500002       2.87514787E-36
  -15.5400000       4.18766239E-36
  -15.5299997       4.38518691E-36
  -15.5200005       2.38689728E-36
  -15.5100002      -2.48176604E-36
  -15.5000000      -9.73226958E-36
  -15.4899998      -1.71241905E-35
  -15.4799995      -2.08045740E-35
  -15.4700003      -1.66528433E-35
  -15.4600000      -2.76800580E-36
  -15.4499998       1.79299623E-35
  -15.4399996       3.69716162E-35
  -15.4300003       4.35941206E-35
  -15.4200001       3.24952556E-35
  -15.4099998       1.30452566E-35
  -15.3999996       1.26478988E-35
  -15.3900003       6.50109619E-35
  -15.3800001       1.78457629E-34
  -15.3699999       2.92484553E-34
  -15.3599997       2.49972708E-34
  -15.3500004      -1.72289923E-34
  -15.3400002      -1.13709756E-33
  -15.3299999      -2.52715049E-33
  -15.3199997      -3.71266519E-33
  -15.3100004      -3.47663364E-33
  -15.3000002      -3.14635022E-34
  -15.2900000       6.74295959E-33
  -15.2799997       1.68746887E-32
  -15.2700005       2.62496881E-32
  -15.2600002       2.77163583E-32
  -15.2500000       1.24298786E-32
  -15.2399998      -2.59170085E-32
  -15.2299995      -8.46868095E-32
  -15.2200003      -1.45868763E-31
  -15.2100000      -1.73609290E-31
  -15.1999998      -1.20611480E-31
  -15.1899996       5.29280731E-32
  -15.1800003       3.48621626E-31
  -15.1700001       6.95894536E-31
  -15.1599998       9.32317954E-31
  -15.1499996       8.22375566E-31
  -15.1400003       1.36345225E-31
  -15.1300001      -1.20674144E-30
  -15.1199999      -2.96387773E-30
  -15.1099997      -4.44032327E-30
  -15.1000004      -4.52948593E-30
  -15.0900002      -2.04090251E-30
  -15.0799999       3.64044469E-30
  -15.0699997       1.16947183E-29
  -15.0600004       1.91832944E-29
  -15.0500002       2.11300003E-29
  -15.0400000       1.19689113E-29
  -15.0299997      -1.14191764E-29
  -15.0200005      -4.57188595E-29
  -15.0100002      -7.80567610E-29
  -15.0000000      -8.65300162E-29
  -14.9899998      -4.70993390E-29
  -14.9799995       5.24122334E-29
  -14.9700003       1.94615799E-28
  -14.9600000       3.19885504E-28
  -14.9499998       3.31372810E-28
  -14.9399996       1.29021911E-28
  -14.9300003      -3.26124675E-28
  -14.9200001      -9.35205870E-28
  -14.9099998      -1.41320704E-27
  -14.8999996      -1.32438075E-27
  -14.8900003      -2.46642942E-28
  -14.8800001       1.93773705E-27
  -14.8699999       4.71217511E-27
  -14.8599997       6.73838668E-27
  -14.8500004       6.04611810E-27
  -14.8400002       7.79154700E-28
  -14.8299999      -9.53421681E-27
  -14.8199997      -2.25701178E-26
  -14.8100004      -3.24220754E-26
  -14.8000002      -3.03988752E-26
  -14.7900000      -8.12646140E-27
  -14.7799997       3.71797694E-26
  -14.7700005       9.67942500E-26
  -14.7600002       1.46919341E-25
  -14.7500000       1.51267086E-25
  -14.7399998       7.26963735E-26
  -14.7299995      -1.06326198E-25
  -14.7200003      -3.59835697E-25
  -14.7100000      -6.02039957E-25
  -14.6999998      -6.92740916E-25
  -14.6899996      -4.76166747E-25
  -14.6800003       1.45710177E-25
  -14.6700001       1.12221420E-24
  -14.6599998       2.18242432E-24
  -14.6499996       2.83321918E-24
  -14.6400003       2.47180670E-24
  -14.6300001       6.25533221E-25
  -14.6199999      -2.72614985E-24
  -14.6099997      -6.86182770E-24
  -14.6000004      -1.02259866E-23
  -14.5900002      -1.06974453E-23
  -14.5799999      -6.29502167E-24
  -14.5699997       3.77559203E-24
  -14.5600004       1.80514867E-23
  -14.5500002       3.22241318E-23
  -14.5400000       3.95817743E-23
  -14.5299997       3.28346123E-23
  -14.5200005       7.20389199E-24
  -14.5100002      -3.60019393E-23
  -14.5000000      -8.67330793E-23
  -14.4899998      -1.26169037E-22
  -14.4799995      -1.30668397E-22
  -14.4700003      -7.99078042E-23
  -14.4600000       3.23774422E-23
  -14.4499998       1.88582135E-22
  -14.4399996       3.43157195E-22
  -14.4300003       4.28808329E-22
  -14.4200001       3.75097958E-22
  -14.4099998       1.37142635E-22
  -14.3999996      -2.73330484E-22
  -14.3900003      -7.66768508E-22
  -14.3800001      -1.17780694E-21
  -14.3699999      -1.29987000E-21
  -14.3599997      -9.52026522E-22
  -14.3500004      -6.41773498E-23
  -14.3400002       1.24674526E-21
  -14.3299999       2.64435283E-21
  -14.3199997       3.61513955E-21
  -14.3100004       3.59865854E-21
  -14.3000002       2.18846989E-21
  -14.2900000      -6.47929403E-22
  -14.2799997      -4.40905846E-21
  -14.2700005      -8.04403177E-21
  -14.2600002      -1.01413749E-20
  -14.2500000      -9.32442738E-21
  -14.2399998      -4.77769344E-21
  -14.2299995       3.24732731E-21
  -14.2200003       1.31421511E-20
  -14.2100000       2.20473683E-20
  -14.1999998       2.64478965E-20
  -14.1899996       2.32019977E-20
  -14.1800003       1.07740808E-20
  -14.1700001      -9.70247235E-21
  -14.1599998      -3.39581778E-20
  -14.1499996      -5.50578266E-20
  -14.1400003      -6.49227632E-20
  -14.1300001      -5.66890397E-20
  -14.1199999      -2.73425812E-20
  -14.1099997       2.01701385E-20
  -14.1000004       7.61906110E-20
  -14.0900002       1.25555626E-19
  -14.0799999       1.50875366E-19
  -14.0699997       1.37357425E-19
  -14.0600004       7.80445683E-20
  -14.0500002      -2.20476446E-20
  -14.0400000      -1.44399614E-19
  -14.0299997      -2.59099515E-19
  -14.0200005      -3.30767090E-19
  -14.0100002      -3.27388238E-19
  -14.0000000      -2.30157189E-19
  -13.9899998      -4.17989162E-20
  -13.9799995       2.09195347E-19
  -13.9700003       4.70341462E-19
  -13.9600000       6.73639451E-19
  -13.9499998       7.49872002E-19
  -13.9399996       6.46259307E-19
  -13.9300003       3.43787533E-19
  -13.9200001      -1.30044967E-19
  -13.9099998      -6.97046697E-19
  -13.8999996      -1.23554944E-18
  -13.8900003      -1.59989945E-18
  -13.8800001      -1.65056602E-18
  -13.8699999      -1.29043319E-18
  -13.8599997      -5.00281523E-19
  -13.8500004       6.35308004E-19
  -13.8400002       1.92068609E-18
  -13.8299999       3.06778190E-18
  -13.8199997       3.74371812E-18
  -13.8100004       3.64395270E-18
  -13.8000002       2.57961154E-18
  -13.7900000       5.60130005E-19
  -13.7799997      -2.15253881E-18
  -13.7700005      -5.04166377E-18
  -13.7600002      -7.40175936E-18
  -13.7500000      -8.47499891E-18
  -13.7399998      -7.64064250E-18
  -13.7299995      -4.61965524E-18
  -13.7200003       3.58677844E-19
  -13.7100000       6.48555591E-18
  -13.6999998       1.24427692E-17
  -13.6899996       1.66315515E-17
  -13.6800003       1.75364920E-17
  -13.6700001       1.41559041E-17
  -13.6599998       6.39367683E-18
  -13.6499996      -4.70660226E-18
  -13.6400003      -1.69876759E-17
  -13.6300001      -2.75163434E-17
  -13.6199999      -3.32072252E-17
  -13.6099997      -3.16201039E-17
  -13.6000004      -2.17450232E-17
  -13.5900002      -4.55461072E-18
  -13.5799999       1.68760958E-17
  -13.5699997       3.77993548E-17
  -13.5600004       5.27591280E-17
  -13.5500002       5.69226191E-17
  -13.5400000       4.74776856E-17
  -13.5299997       2.47223175E-17
  -13.5200005      -7.50746394E-18
  -13.5100002      -4.23011166E-17
  -13.5000000      -7.10483031E-17
  -13.4899998      -8.54934243E-17
  -13.4799995      -8.00109638E-17
  -13.4700003      -5.35066577E-17
  -13.4600000      -1.03598441E-17
  -13.4499998       4.00022989E-17
  -13.4399996       8.49869515E-17
  -13.4300003       1.11868025E-16
  -13.4200001       1.11291632E-16
  -13.4099998       8.03408831E-17
  -13.3999996       2.42310484E-17
  -13.3900003      -4.40471459E-17
  -13.3800001      -1.06341334E-16
  -13.3699999      -1.43803602E-16
  -13.3599997      -1.42215058E-16
  -13.3500004      -9.67790133E-17
  -13.3400002      -1.49302891E-17
  -13.3299999       8.39504479E-17
  -13.3199997       1.72318636E-16
  -13.3100004       2.21209166E-16
  -13.3000002       2.08479452E-16
  -13.2900000       1.26433683E-16
  -13.2799997      -1.34473644E-17
  -13.2700005      -1.80487117E-16
  -13.2600002      -3.30273631E-16
  -13.2500000      -4.14946035E-16
  -13.2399998      -3.96197438E-16
  -13.2299995      -2.57796145E-16
  -13.2200003      -1.40633277E-17
  -13.2100000       2.88680872E-16
  -13.1999998       5.79210235E-16
  -13.1899996       7.76420575E-16
  -13.1800003       8.09440249E-16
  -13.1700001       6.38180986E-16
  -13.1599998       2.68912526E-16
  -13.1499996      -2.39983836E-16
  -13.1400003      -7.84970208E-16
  -13.1300001      -1.23693015E-15
  -13.1199999      -1.46996120E-15
  -13.1099997      -1.39315448E-15
  -13.1000004      -9.77620334E-16
  -13.0900002      -2.71366063E-16
  -13.0799999       6.03042142E-16
  -13.0699997       1.46923413E-15
  -13.0600004       2.13283934E-15
  -13.0500002       2.42485246E-15
  -13.0400000       2.24255806E-15
  -13.0299997       1.57784249E-15
  -13.0200005       5.25204632E-16
  -13.0100002      -7.33594219E-16
  -13.0000000      -1.96557468E-15
  -12.9899998      -2.93526139E-15
  -12.9799995      -3.45453854E-15
  -12.9700003      -3.42146275E-15
  -12.9600000      -2.83847919E-15
  -12.9499998      -1.80576942E-15
  -12.9399996      -4.92120319E-16
  -12.9300003       9.08090047E-16
  -12.9200001       2.21926063E-15
  -12.9099998       3.31734122E-15
  -12.8999996       4.14149814E-15
  -12.8900003       4.68167773E-15
  -12.8800001       4.94691255E-15
  -12.8699999       4.92606029E-15
  -12.8599997       4.55642316E-15
  -12.8500004       3.71475998E-15
  -12.8400002       2.23963473E-15
  -12.8299999      -1.51926443E-17
  -12.8199997      -3.10692130E-15
  -12.8100004      -6.92853342E-15
  -12.8000002      -1.11554044E-14
  -12.7900000      -1.52346668E-14
  -12.7799997      -1.84300275E-14
  -12.7700005      -1.99219235E-14
  -12.7600002      -1.89489842E-14
  -12.7500000      -1.49650071E-14
  -12.7399998      -7.77972403E-15
  -12.7299995       2.34701988E-15
  -12.7200003       1.46790590E-14
  -12.7100000       2.80531603E-14
  -12.6999998       4.09952766E-14
  -12.6899996       5.18822893E-14
  -12.6800003       5.91202909E-14
  -12.6700001       6.13108739E-14
  -12.6599998       5.73845374E-14
  -12.6499996       4.66926370E-14
  -12.6400003       2.90622154E-14
  -12.6300001       4.82774221E-15
  -12.6199999      -2.51433192E-14
  -12.6099997      -5.94196459E-14
  -12.6000004      -9.59691108E-14
  -12.5900002      -1.32130418E-13
  -12.5799999      -1.64620271E-13
  -12.5699997      -1.89610128E-13
  -12.5600004      -2.02903260E-13
  -12.5500002      -2.00230417E-13
  -12.5400000      -1.77660390E-13
  -12.5299997      -1.32097079E-13
  -12.5200005      -6.18121480E-14
  -12.5100002       3.30531297E-14
  -12.5000000       1.50086513E-13
  -12.4899998       2.84362784E-13
  -12.4799995       4.28397145E-13
  -12.4700003       5.72302026E-13
  -12.4600000       7.04125018E-13
  -12.4499998       8.10318392E-13
  -12.4399996       8.76284234E-13
  -12.4300003       8.86935870E-13
  -12.4200001       8.27235795E-13
  -12.4099998       6.82696575E-13
  -12.3999996       4.39858680E-13
  -12.3900003       8.67865756E-14
  -12.3800001      -3.86369593E-13
  -12.3699999      -9.86697920E-13
  -12.3599997      -1.71772969E-12
  -12.3500004      -2.57854306E-12
  -12.3400002      -3.56284642E-12
  -12.3299999      -4.65815841E-12
  -12.3199997      -5.84523836E-12
  -12.3100004      -7.09789866E-12
  -12.3000002      -8.38330880E-12
  -12.2900000      -9.66285212E-12
  -12.2799997      -1.08934719E-11
  -12.2700005      -1.20293931E-11
  -12.2600002      -1.30240428E-11
  -12.2500000      -1.38319503E-11
  -12.2399998      -1.44103965E-11
  -12.2299995      -1.47207090E-11
  -12.2200003      -1.47291276E-11
  -12.2100000      -1.44073017E-11
  -12.1999998      -1.37324986E-11
  -12.1899996      -1.26877640E-11
  -12.1800003      -1.12621874E-11
  -12.1700001      -9.45129131E-12
  -12.1599998      -7.25770442E-12
  -12.1499996      -4.69184544E-12
  -12.1400003      -1.77251139E-12
  -12.1300001       1.47286697E-12
  -12.1199999       5.00849579E-12
  -12.1099997       8.79116224E-12
  -12.1000004       1.27718166E-11
  -12.0900002       1.68974678E-11
  -12.0799999       2.11133108E-11
  -12.0699997       2.53644605E-11
  -12.0600004       2.95972240E-11
  -12.0500002       3.37596236E-11
  -12.0400000       3.78011372E-11
  -12.0299997       4.16718951E-11
  -12.0200005       4.53216110E-11
  -12.0100002       4.86987950E-11
  -12.0000000       5.17503575E-11
  -11.9899998       5.44221161E-11
  -11.9799995       5.66599476E-11
  -11.9700003       5.84115881E-11
  -11.9600000       5.96286978E-11
  -11.9499998       6.02686928E-11
  -11.9399996       6.02960876E-11
  -11.9300003       5.96828906E-11
  -11.9200001       5.84083684E-11
  -11.9099998       5.64580917E-11
  -11.8999996       5.38226165E-11
  -11.8900003       5.04964404E-11
  -11.8800001       4.64771763E-11
  -11.8699999       4.17657159E-11
  -11.8599997       3.63668783E-11
  -11.8500004       3.02908254E-11
  -11.8400002       2.35544501E-11
  -11.8299999       1.61827426E-11
  -11.8199997       8.21007238E-12
  -11.8100004      -3.19773505E-13
  -11.8000002      -9.35379031E-12
  -11.7900000      -1.88306714E-11
  -11.7799997      -2.86819266E-11
  -11.7700005      -3.88332977E-11
  -11.7600002      -4.92057402E-11
  -11.7500000      -5.97161903E-11
  -11.7399998      -7.02782485E-11
  -11.7299995      -8.08022330E-11
  -11.7200003      -9.11958356E-11
  -11.7100000      -1.01364347E-10
  -11.6999998      -1.11211727E-10
  -11.6899996      -1.20641830E-10
  -11.6800003      -1.29559974E-10
  -11.6700001      -1.37874767E-10
  -11.6599998      -1.45499904E-10
  -11.6499996      -1.52355836E-10
  -11.6400003      -1.58370997E-10
  -11.6300001      -1.63482297E-10
  -11.6199999      -1.67635072E-10
  -11.6099997      -1.70782277E-10
  -11.6000004      -1.72882972E-10
  -11.5900002      -1.73900380E-10
  -11.5799999      -1.73799627E-10
  -11.5699997      -1.72545700E-10
  -11.5600004      -1.70101724E-10
  -11.5500002      -1.66427858E-10
  -11.5400000      -1.61481384E-10
  -11.5299997      -1.55218213E-10
  -11.5200005      -1.47594867E-10
  -11.5100002      -1.38571793E-10
  -11.5000000      -1.28117156E-10
  -11.4899998      -1.16210590E-10
  -11.4799995      -1.02845718E-10
  -11.4700003      -8.80325951E-11
  -11.4600000      -7.17973528E-11
  -11.4499998      -5.41818326E-11
  -11.4399996      -3.52402135E-11
  -11.4300003      -1.50355891E-11
  -11.4200001       6.36435045E-12
  -11.4099998       2.88913615E-11
  -11.3999996       5.24803360E-11
  -11.3900003       7.70716685E-11
  -11.3800001       1.02611579E-10
  -11.3699999       1.29052810E-10
  -11.3599997       1.56351154E-10
  -11.3500004       1.84463722E-10
  -11.3400002       2.13345369E-10
  -11.3299999       2.42945525E-10
  -11.3199997       2.73205764E-10
  -11.3100004       3.04057779E-10
  -11.3000002       3.35424521E-10
  -11.2900000       3.67220865E-10
  -11.2799997       3.99357158E-10
  -11.2700005       4.31742864E-10
  -11.2600002       4.64291078E-10
  -11.2500000       4.96922781E-10
  -11.2399998       5.29570054E-10
  -11.2299995       5.62177971E-10
  -11.2200003       5.94704286E-10
  -11.2100000       6.27118302E-10
  -11.1999998       6.59397037E-10
  -11.1899996       6.91521840E-10
  -11.1800003       7.23473725E-10
  -11.1700001       7.55230267E-10
  -11.1599998       7.86762211E-10
  -11.1499996       8.18033974E-10
  -11.1400003       8.49003645E-10
  -11.1300001       8.79623818E-10
  -11.1199999       9.09846365E-10
  -11.1099997       9.39624267E-10
  -11.1000004       9.68914060E-10
  -11.0900002       9.97678717E-10
  -11.0799999       1.02589015E-09
  -11.0699997       1.05352704E-09
  -11.0600004       1.08057874E-09
  -11.0500002       1.10704135E-09
  -11.0400000       1.13291976E-09
  -11.0299997       1.15822407E-09
  -11.0200005       1.18297039E-09
  -11.0100002       1.20717725E-09
  -11.0000000       1.23086097E-09
  -10.9899998       1.25403532E-09
  -10.9799995       1.27670619E-09
  -10.9700003       1.29887001E-09
  -10.9600000       1.32051126E-09
  -10.9499998       1.34160238E-09
  -10.9399996       1.36210576E-09
  -10.9300003       1.38197698E-09
  -10.9200001       1.40116696E-09
  -10.9099998       1.41963286E-09
  -10.8999996       1.43733792E-09
  -10.8900003       1.45425771E-09
  -10.8800001       1.47038182E-09
  -10.8699999       1.48571366E-09
  -10.8599997       1.50027202E-09
  -10.8500004       1.51408042E-09
  -10.8400002       1.52717428E-09
  -10.8299999       1.53958213E-09
  -10.8199997       1.55133018E-09
  -10.8100004       1.56244118E-09
  -10.8000002       1.57292745E-09
  -10.7900000       1.58279978E-09
  -10.7799997       1.59206315E-09
  -10.7700005       1.60072855E-09
  -10.7600002       1.60881253E-09
  -10.7500000       1.61634162E-09
  -10.7399998       1.62335945E-09
  -10.7299995       1.62991920E-09
  -10.7200003       1.63608971E-09
  -10.7100000       1.64194913E-09
  -10.6999998       1.64757730E-09
  -10.6899996       1.65306180E-09
  -10.6800003       1.65848490E-09
  -10.6700001       1.66392200E-09
  -10.6599998       1.66945113E-09
  -10.6499996       1.67514014E-09
  -10.6400003       1.68105774E-09
  -10.6300001       1.68728798E-09
  -10.6199999       1.69391667E-09
  -10.6099997       1.70103887E-09
  -10.6000004       1.70877179E-09
  -10.5900002       1.71723691E-09
  -10.5799999       1.72656389E-09
  -10.5699997       1.73688497E-09
  -10.5600004       1.74832637E-09
  -10.5500002       1.76099946E-09
  -10.5400000       1.77501247E-09
  -10.5299997       1.79043691E-09
  -10.5200005       1.80733473E-09
  -10.5100002       1.82574755E-09
  -10.5000000       1.84568827E-09
  -10.4899998       1.86715732E-09
  -10.4799995       1.89013893E-09
  -10.4700003       1.91461158E-09
  -10.4600000       1.94054461E-09
  -10.4499998       1.96790673E-09
  -10.4399996       1.99666150E-09
  -10.4300003       2.02677497E-09
  -10.4200001       2.05822226E-09
  -10.4099998       2.09096496E-09
  -10.3999996       2.12497486E-09
  -10.3900003       2.16021312E-09
  -10.3800001       2.19662799E-09
  -10.3699999       2.23415575E-09
  -10.3599997       2.27272468E-09
  -10.3500004       2.31221953E-09
  -10.3400002       2.35251862E-09
  -10.3299999       2.39347497E-09
  -10.3199997       2.43492115E-09
  -10.3100004       2.47668219E-09
  -10.3000002       2.51857490E-09
  -10.2900000       2.56042232E-09
  -10.2799997       2.60207722E-09
  -10.2700005       2.64339617E-09
  -10.2600002       2.68428235E-09
  -10.2500000       2.72467537E-09
  -10.2399998       2.76454992E-09
  -10.2299995       2.80389378E-09
  -10.2200003       2.84275314E-09
  -10.2100000       2.88117352E-09
  -10.1999998       2.91921931E-09
  -10.1899996       2.95694513E-09
  -10.1800003       2.99442982E-09
  -10.1700001       3.03172643E-09
  -10.1599998       3.06890313E-09
  -10.1499996       3.10601256E-09
  -10.1400003       3.14312687E-09
  -10.1300001       3.18031668E-09
  -10.1199999       3.21767812E-09
  -10.1099997       3.25532978E-09
  -10.1000004       3.29340888E-09
  -10.0900002       3.33206152E-09
  -10.0799999       3.37146555E-09
  -10.0699997       3.41180617E-09
  -10.0600004       3.45328521E-09
  -10.0500002       3.49606966E-09
  -10.0400000       3.54034846E-09
  -10.0299997       3.58627350E-09
  -10.0200005       3.63398400E-09
  -10.0100002       3.68358877E-09
  -10.0000000       3.73514686E-09
  -9.98999977       3.78870935E-09
  -9.97999954       3.84431909E-09
  -9.97000027       3.90196897E-09
  -9.96000004       3.96165323E-09
  -9.94999981       4.02338962E-09
  -9.93999958       4.08717105E-09
  -9.93000031       4.15303614E-09
  -9.92000008       4.22102353E-09
  -9.90999985       4.29117764E-09
  -9.89999962       4.36358594E-09
  -9.89000034       4.43832660E-09
  -9.88000011       4.51550219E-09
  -9.86999989       4.59517979E-09
  -9.85999966       4.67747174E-09
  -9.85000038       4.76246287E-09
  -9.84000015       4.85027263E-09
  -9.82999992       4.94098495E-09
  -9.81999969       5.03474062E-09
  -9.81000042       5.13167775E-09
  -9.80000019       5.23196286E-09
  -9.78999996       5.33574518E-09
  -9.77999973       5.44319922E-09
  -9.77000046       5.55451640E-09
  -9.76000023       5.66985348E-09
  -9.75000000       5.78937476E-09
  -9.73999977       5.91326321E-09
  -9.72999954       6.04164629E-09
  -9.72000027       6.17466567E-09
  -9.71000004       6.31242836E-09
  -9.69999981       6.45506137E-09
  -9.68999958       6.60264110E-09
  -9.68000031       6.75519285E-09
  -9.67000008       6.91272062E-09
  -9.65999985       7.07517067E-09
  -9.64999962       7.24244309E-09
  -9.64000034       7.41434869E-09
  -9.63000011       7.59065966E-09
  -9.61999989       7.77102827E-09
  -9.60999966       7.95510147E-09
  -9.60000038       8.14241297E-09
  -9.59000015       8.33244851E-09
  -9.57999992       8.52463788E-09
  -9.56999969       8.71836559E-09
  -9.56000042       8.91290863E-09
  -9.55000019       9.10753251E-09
  -9.53999996       9.30143962E-09
  -9.52999973       9.49378887E-09
  -9.52000046       9.68371161E-09
  -9.51000023       9.87035520E-09
  -9.50000000       1.00528412E-08
  -9.48999977       1.02303215E-08
  -9.47999954       1.04020330E-08
  -9.47000027       1.05672431E-08
  -9.46000004       1.07253246E-08
  -9.44999981       1.08757288E-08
  -9.43999958       1.10180141E-08
  -9.43000031       1.11519016E-08
  -9.42000008       1.12771872E-08
  -9.40999985       1.13938556E-08
  -9.39999962       1.15020171E-08
  -9.39000034       1.16019363E-08
  -9.38000011       1.16939836E-08
  -9.36999989       1.17787975E-08
  -9.35999966       1.18571037E-08
  -9.35000038       1.19297905E-08
  -9.34000015       1.19978960E-08
  -9.32999992       1.20626460E-08
  -9.31999969       1.21253825E-08
  -9.31000042       1.21875807E-08
  -9.30000019       1.22507950E-08
  -9.28999996       1.23167094E-08
  -9.27999973       1.23870363E-08
  -9.27000046       1.24636124E-08
  -9.26000023       1.25482087E-08
  -9.25000000       1.26426496E-08
  -9.23999977       1.27487372E-08
  -9.22999954       1.28682016E-08
  -9.22000027       1.30027917E-08
  -9.21000004       1.31540503E-08
  -9.19999981       1.33235023E-08
  -9.18999958       1.35125031E-08
  -9.18000031       1.37222429E-08
  -9.17000008       1.39537661E-08
  -9.15999985       1.42079566E-08
  -9.14999962       1.44854342E-08
  -9.14000034       1.47866031E-08
  -9.13000011       1.51116808E-08
  -9.11999989       1.54606141E-08
  -9.10999966       1.58331428E-08
  -9.10000038       1.62287837E-08
  -9.09000015       1.66468226E-08
  -9.07999992       1.70863661E-08
  -9.06999969       1.75462560E-08
  -9.06000042       1.80251725E-08
  -9.05000019       1.85215789E-08
  -9.03999996       1.90337577E-08
  -9.02999973       1.95597885E-08
  -9.02000046       2.00976178E-08
  -9.01000023       2.06450359E-08
  -9.00000000       2.11997762E-08
  -8.98999977       2.17593641E-08
  -8.97999954       2.23213803E-08
  -8.97000027       2.28832242E-08
  -8.96000004       2.34423680E-08
  -8.94999981       2.39962095E-08
  -8.93999958       2.45421230E-08
  -8.93000031       2.50774814E-08
  -8.92000008       2.55996930E-08
  -8.90999985       2.61062265E-08
  -8.89999962       2.65946003E-08
  -8.89000034       2.70623985E-08
  -8.88000011       2.75074097E-08
  -8.86999989       2.79275305E-08
  -8.85999966       2.83208177E-08
  -8.85000038       2.86854611E-08
  -8.84000015       2.90199136E-08
  -8.82999992       2.93227753E-08
  -8.81999969       2.95929130E-08
  -8.81000042       2.98293124E-08
  -8.80000019       3.00312593E-08
  -8.78999996       3.01982119E-08
  -8.77999973       3.03299004E-08
  -8.77000046       3.04261754E-08
  -8.76000023       3.04872572E-08
  -8.75000000       3.05133980E-08
  -8.73999977       3.05052232E-08
  -8.72999954       3.04634362E-08
  -8.72000027       3.03889749E-08
  -8.71000004       3.02829868E-08
  -8.69999981       3.01466230E-08
  -8.68999958       2.99813259E-08
  -8.68000031       2.97886054E-08
  -8.67000008       2.95700655E-08
  -8.65999985       2.93274027E-08
  -8.64999962       2.90623667E-08
  -8.64000034       2.87767232E-08
  -8.63000011       2.84722539E-08
  -8.61999989       2.81507457E-08
  -8.60999966       2.78140249E-08
  -8.60000038       2.74638374E-08
  -8.59000015       2.71018834E-08
  -8.57999992       2.67297171E-08
  -8.56999969       2.63489035E-08
  -8.56000042       2.59608903E-08
  -8.55000019       2.55670454E-08
  -8.53999996       2.51687116E-08
  -8.52999973       2.47669849E-08
  -8.52000046       2.43630787E-08
  -8.51000023       2.39579645E-08
  -8.50000000       2.35526159E-08
  -8.48999977       2.31478836E-08
  -8.47999954       2.27445422E-08
  -8.47000027       2.23433112E-08
  -8.46000004       2.19449685E-08
  -8.44999981       2.15499156E-08
  -8.43999958       2.11588471E-08
  -8.43000031       2.07723119E-08
  -8.42000008       2.03908694E-08
  -8.40999985       2.00150438E-08
  -8.39999962       1.96454319E-08
  -8.39000034       1.92825578E-08
  -8.38000011       1.89270928E-08
  -8.36999989       1.85795432E-08
  -8.35999966       1.82406552E-08
  -8.35000038       1.79110966E-08
  -8.34000015       1.75914945E-08
  -8.32999992       1.72826375E-08
  -8.31999969       1.69852559E-08
  -8.31000042       1.67002305E-08
  -8.30000019       1.64283662E-08
  -8.28999996       1.61705653E-08
  -8.27999973       1.59277196E-08
  -8.27000046       1.57008557E-08
  -8.26000023       1.54908850E-08
  -8.25000000       1.52989070E-08
  -8.23999977       1.51259361E-08
  -8.22999954       1.49730663E-08
  -8.22000027       1.48414081E-08
  -8.21000004       1.47319446E-08
  -8.19999981       1.46460382E-08
  -8.18999958       1.45847165E-08
  -8.18000031       1.45492436E-08
  -8.17000008       1.45406842E-08
  -8.15999985       1.45601575E-08
  -8.14999962       1.46089443E-08
  -8.14000034       1.46879833E-08
  -8.13000011       1.47982320E-08
  -8.11999989       1.49406727E-08
  -8.10999966       1.51162354E-08
  -8.10000038       1.53256945E-08
  -8.09000015       1.55696842E-08
  -8.07999992       1.58489506E-08
  -8.06999969       1.61639715E-08
  -8.06000042       1.65152194E-08
  -8.05000019       1.69029857E-08
  -8.03999996       1.73275065E-08
  -8.02999973       1.77889454E-08
  -8.02000046       1.82870750E-08
  -8.01000023       1.88217211E-08
  -8.00000000       1.93924379E-08
  -7.98999977       1.99987955E-08
  -7.98000002       2.06399875E-08
  -7.96999979       2.13152322E-08
  -7.96000004       2.20234107E-08
  -7.94999981       2.27633929E-08
  -7.94000006       2.35338735E-08
  -7.92999983       2.43334632E-08
  -7.92000008       2.51606309E-08
  -7.90999985       2.60137050E-08
  -7.90000010       2.68908469E-08
  -7.88999987       2.77905059E-08
  -7.88000011       2.87106126E-08
  -7.86999989       2.96496125E-08
  -7.86000013       3.06055696E-08
  -7.84999990       3.15764730E-08
  -7.84000015       3.25605356E-08
  -7.82999992       3.35559385E-08
  -7.82000017       3.45609656E-08
  -7.80999994       3.55737058E-08
  -7.80000019       3.65923327E-08
  -7.78999996       3.76154006E-08
  -7.78000021       3.86411330E-08
  -7.76999998       3.96680129E-08
  -7.76000023       4.06945091E-08
  -7.75000000       4.17191650E-08
  -7.73999977       4.27406626E-08
  -7.73000002       4.37575167E-08
  -7.71999979       4.47687576E-08
  -7.71000004       4.57729179E-08
  -7.69999981       4.67690988E-08
  -7.69000006       4.77564406E-08
  -7.67999983       4.87341545E-08
  -7.67000008       4.97014518E-08
  -7.65999985       5.06577216E-08
  -7.65000010       5.16027541E-08
  -7.63999987       5.25359880E-08
  -7.63000011       5.34575371E-08
  -7.61999989       5.43673977E-08
  -7.61000013       5.52656765E-08
  -7.59999990       5.61526718E-08
  -7.59000015       5.70286574E-08
  -7.57999992       5.78942831E-08
  -7.57000017       5.87502313E-08
  -7.55999994       5.95973084E-08
  -7.55000019       6.04364274E-08
  -7.53999996       6.12682101E-08
  -7.53000021       6.20936689E-08
  -7.51999998       6.29139407E-08
  -7.51000023       6.37306030E-08
  -7.50000000       6.45444729E-08
  -7.48999977       6.53570638E-08
  -7.48000002       6.61695765E-08
  -7.46999979       6.69836595E-08
  -7.46000004       6.78008831E-08
  -7.44999981       6.86226045E-08
  -7.44000006       6.94505431E-08