  -16.0000000       0.00000000    
  -15.9899998       0.00000000    
  -15.9799995       0.00000000    
  -15.9700003       0.00000000    
  -15.9600000       0.00000000    
  -15.9499998       0.00000000    
  -15.9399996       0.00000000    
  -15.9300003       0.00000000    
  -15.9200001       0.00000000    
  -15.9099998       0.00000000    
  -15.8999996       0.00000000    
  -15.8900003       0.00000000    
  -15.8800001       0.00000000    
  -15.8699999       2.59240216E-41
  -15.8599997       1.26496894E-39
  -15.8500004       2.35877460E-38
  -15.8400002       2.63030089E-37
  -15.8299999       2.07422019E-36
  -15.8199997       1.25880421E-35
  -15.8100004       6.17818135E-35
  -15.8000002       2.52934196E-34
  -15.7900000       8.80606991E-34
  -15.7799997       2.63419468E-33
  -15.7700005       6.77770133E-33
  -15.7600002       1.48169373E-32
  -15.7500000       2.64131494E-32
  -15.7399998       3.33347922E-32
  -15.7299995       6.97056542E-33
  -15.7200003      -1.20461758E-31
  -15.7100000      -4.71974053E-31
  -15.6999998      -1.21203464E-30
  -15.6899996      -2.45121718E-30
  -15.6800003      -4.00276590E-30
  -15.6700001      -4.95926923E-30
  -15.6599998      -3.20303779E-30
  -15.6499996       4.73116841E-30
  -15.6400003       2.26076987E-29
  -15.6300001       5.11946244E-29
  -15.6199999       8.22627212E-29
  -15.6099997       9.17065247E-29
  -15.6000004       3.79133724E-29
  -15.5900002      -1.23788979E-28
  -15.5799999      -3.99750304E-28
  -15.5699997      -6.91860240E-28
  -15.5600004      -7.41655688E-28
  -15.5500002      -1.66106318E-28
  -15.5400000       1.30732519E-27
  -15.5299997       3.35868970E-27
  -15.5200005       4.51518675E-27
  -15.5100002       2.04933660E-27
  -15.5000000      -6.79997946E-27
  -15.4899998      -2.15841958E-26
  -15.4799995      -3.39234564E-26
  -15.4700003      -2.44181539E-26
  -15.4600000       3.26752751E-26
  -15.4499998       1.50102851E-25
  -15.4399996       2.92368245E-25
  -15.4300003       3.38784032E-25
  -15.4200001       8.18826526E-26
  -15.4099998      -6.84733632E-25
  -15.3999996      -1.94962555E-24
  -15.3900003      -3.17314250E-24
  -15.3800001      -3.06085092E-24
  -15.3699999       2.41825730E-25
  -15.3599997       8.14825079E-24
  -15.3500004       1.96904936E-23
  -15.3400002       2.92071617E-23
  -15.3299999       2.52863163E-23
  -15.3199997      -6.49979458E-24
  -15.3100004      -7.47587072E-23
  -15.3000002      -1.67530264E-22
  -15.2900000      -2.37100564E-22
  -15.2799997      -1.96607854E-22
  -15.2700005       5.50271502E-23
  -15.2600002       5.67718127E-22
  -15.2500000       1.24131153E-21
  -15.2399998       1.73421707E-21
  -15.2299995       1.45911065E-21
  -15.2200003      -2.37467378E-22
  -15.2100000      -3.65335990E-21
  -15.1999998      -8.13022980E-21
  -15.1899996      -1.15341653E-20
  -15.1800003      -1.02784962E-20
  -15.1700001      -4.11514353E-22
  -15.1599998       1.99578309E-20
  -15.1499996       4.73053477E-20
  -15.1400003       6.98478547E-20
  -15.1300001       6.76354051E-20
  -15.1199999       1.82390062E-20
  -15.1099997      -9.06636480E-20
  -15.1000004      -2.43909817E-19
  -15.0900002      -3.83776778E-19
  -15.0799999      -4.08967969E-19
  -15.0699997      -2.00449502E-19
  -15.0600004       3.19326510E-19
  -15.0500002       1.10273029E-18
  -15.0400000       1.90029153E-18
  -15.0299997       2.24363042E-18
  -15.0200005       1.54649181E-18
  -15.0100002      -6.42653523E-19
  -15.0000000      -4.26708150E-18
  -14.9899998      -8.39255547E-18
  -14.9799995      -1.10604727E-17
  -14.9700003      -9.61553291E-18
  -14.9600000      -1.67535155E-18
  -14.9499998       1.33323797E-17
  -14.9399996       3.25111792E-17
  -14.9300003       4.85465254E-17
  -14.9200001       5.04878852E-17
  -14.9099998       2.70483527E-17
  -14.8999996      -2.76161477E-17
  -14.8900003      -1.07037575E-16
  -14.8800001      -1.87372516E-16
  -14.8699999      -2.27991967E-16
  -14.8599997      -1.81124020E-16
  -14.8500004      -1.14604377E-17
  -14.8400002       2.77907725E-16
  -14.8299999       6.22316006E-16
  -14.8199997       8.88436341E-16
  -14.8100004       8.96704442E-16
  -14.8000002       4.80114368E-16
  -14.7900000      -4.27466135E-16
  -14.7799997      -1.69873813E-15
  -14.7700005      -2.95806648E-15
  -14.7600002      -3.61205808E-15
  -14.7500000      -2.99990356E-15
  -14.7399998      -6.60360385E-16
  -14.7299995       3.34367103E-15
  -14.7200003       8.16092358E-15
  -14.7100000       1.21010286E-14
  -14.6999998       1.29341135E-14
  -14.6899996       8.59040486E-15
  -14.6800003      -1.84418512E-15
  -14.6700001      -1.71247243E-14
  -14.6599998      -3.32722029E-14
  -14.6499996      -4.38904386E-14
  -14.6400003      -4.16763588E-14
  -14.6300001      -2.10570205E-14
  -14.6199999       1.86306100E-14
  -14.6099997       7.04983963E-14
  -14.6000004       1.19360915E-13
  -14.5900002       1.44063201E-13
  -14.5799999       1.23310203E-13
  -14.5699997       4.41780740E-14
  -14.5600004      -8.89695557E-14
  -14.5500002      -2.48575439E-13
  -14.5400000      -3.84618444E-13
  -14.5299997      -4.34501664E-13
  -14.5200005      -3.41962976E-13
  -14.5100002      -8.13077565E-14
  -14.5000000       3.20283432E-13
  -14.4899998       7.71728222E-13
  -14.4799995       1.12687323E-12
  -14.4700003       1.21734979E-12
  -14.4600000       9.06251365E-13
  -14.4499998       1.50098927E-13
  -14.4399996      -9.50685169E-13
  -14.4300003      -2.13558728E-12
  -14.4200001      -3.01985889E-12
  -14.4099998      -3.18737723E-12
  -14.3999996      -2.32633682E-12
  -14.3900003      -3.73501929E-13
  -14.3800001       2.38131325E-12
  -14.3699999       5.27993578E-12
  -14.3599997       7.40285350E-12
  -14.3500004       7.79862720E-12
  -14.3400002       5.79362123E-12
  -14.3299999       1.29964941E-12
  -14.3199997      -4.98571106E-12
  -14.3100004      -1.15828232E-11
  -14.3000002      -1.64927429E-11
  -14.2900000      -1.77010958E-11
  -14.2799997      -1.38178175E-11
  -14.2700005      -4.68080436E-12
  -14.2600002       8.28463166E-12
  -14.2500000       2.21224809E-11
  -14.2399998       3.28990724E-11
  -14.2299995       3.66871152E-11
  -14.2200003       3.07643008E-11
  -14.2100000       1.46958556E-11
  -14.1999998      -9.06125782E-12
  -14.1899996      -3.53117605E-11
  -14.1800003      -5.71331489E-11
  -14.1700001      -6.75838066E-11
  -14.1599998      -6.17169787E-11
  -14.1499996      -3.83348041E-11
  -14.1400003      -9.19539618E-13
  -14.1300001       4.26631681E-11
  -14.1199999       8.17696882E-11
  -14.1099997       1.05603179E-10
  -14.1000004       1.06176477E-10
  -14.0900002       8.08185741E-11
  -14.0799999       3.34006642E-11
  -14.0699997      -2.61708051E-11
  -14.0600004      -8.42174802E-11
  -14.0500002      -1.26764571E-10
  -14.0400000      -1.43272449E-10
  -14.0299997      -1.29551758E-10
  -14.0200005      -8.89284757E-11
  -14.0100002      -3.12473762E-11
  -14.0000000       3.00324418E-11
  -13.9899998       8.18059370E-11
  -13.9799995       1.15030985E-10
  -13.9700003       1.27016786E-10
  -13.9600000       1.21434029E-10
  -13.9499998       1.06002498E-10
  -13.9399996       8.86707374E-11
  -13.9300003       7.36640540E-11
  -13.9200001       5.89965993E-11
  -13.9099998       3.66395768E-11
  -13.8999996      -4.31463936E-12
  -13.8900003      -7.22911106E-11
  -13.8800001      -1.67387840E-10
  -13.8699999      -2.77309675E-10
  -13.8599997      -3.76984777E-10
  -13.8500004      -4.32927333E-10
  -13.8400002      -4.11782664E-10
  -13.8299999      -2.91050906E-10
  -13.8199997      -6.88788887E-11
  -13.8100004       2.30337152E-10
  -13.8000002       5.56980240E-10
  -13.7900000       8.44556924E-10
  -13.7799997       1.02381237E-09
  -13.7700005       1.03929287E-09
  -13.7600002       8.63881522E-10
  -13.7500000       5.07187126E-10
  -13.7399998       1.52696553E-11
  -13.7299995      -5.38391609E-10
  -13.7200003      -1.06818843E-09
  -13.7100000      -1.49334611E-09
  -13.6999998      -1.75191717E-09
  -13.6899996      -1.80783311E-09
  -13.6800003      -1.65005321E-09
  -13.6700001      -1.28548994E-09
  -13.6599998      -7.30348282E-10
  -13.6499996      -4.69889752E-12
  -13.6400003       8.65067629E-10
  -13.6300001       1.83574722E-09
  -13.6199999       2.83139245E-09
  -13.6099997       3.72974229E-09
  -13.6000004       4.35947101E-09
  -13.5900002       4.51598670E-09
  -13.5799999       3.99904065E-09
  -13.5699997       2.66748512E-09
  -13.5600004       5.00205377E-10
  -13.5500002      -2.35420017E-09
  -13.5400000      -5.55657875E-09
  -13.5299997      -8.60025917E-09
  -13.5200005      -1.08814797E-08
  -13.5100002      -1.18094148E-08
  -13.5000000      -1.09359606E-08
  -13.4899998      -8.07449396E-09
  -13.4799995      -3.37891715E-09
  -13.4700003       2.64251243E-09
  -13.4600000       9.18716658E-09
  -13.4499998       1.52834687E-08
  -13.4399996       1.99560031E-08
  -13.4300003       2.23931025E-08
  -13.4200001       2.20785417E-08
  -13.4099998       1.88602840E-08
  -13.3999996       1.29440334E-08
  -13.3900003       4.82663198E-09
  -13.3800001      -4.80275864E-09
  -13.3699999      -1.51538249E-08
  -13.3599997      -2.53859991E-08
  -13.3500004      -3.46056126E-08
  -13.3400002      -4.18225916E-08
  -13.3299999      -4.59076404E-08
  -13.3199997      -4.56038585E-08
  -13.3100004      -3.96483166E-08
  -13.3000002      -2.70263687E-08
  -13.2900000      -7.34516803E-09
  -13.2799997       1.87481906E-08
  -13.2700005       4.92170997E-08
  -13.2600002       8.04881566E-08
  -13.2500000       1.07634257E-07
  -13.2399998       1.24942787E-07
  -13.2299995       1.26852640E-07
  -13.2200003       1.09130482E-07
  -13.2100000       7.00610769E-08
  -13.1999998       1.14000756E-08
  -13.1899996      -6.12082829E-08
  -13.1800003      -1.38508071E-07
  -13.1700001      -2.08691972E-07
  -13.1599998      -2.59127461E-07
  -13.1499996      -2.78485970E-07
  -13.1400003      -2.58917566E-07
  -13.1300001      -1.97807495E-07
  -13.1199999      -9.87894708E-08
  -13.1099997       2.82507227E-08
  -13.1000004       1.68227601E-07
  -13.0900002       3.02790824E-07
  -13.0799999       4.12824875E-07
  -13.0699997       4.81088080E-07
  -13.0600004       4.94572191E-07
  -13.0500002       4.46234424E-07
  -13.0400000       3.35932270E-07
  -13.0299997       1.70581032E-07
  -13.0200005      -3.64054422E-08
  -13.0100002      -2.66108174E-07
  -13.0000000      -4.95430641E-07
  -12.9899998      -6.98626877E-07
  -12.9799995      -8.49075093E-07
  -12.9700003      -9.21401181E-07
  -12.9600000      -8.94076095E-07
  -12.9499998      -7.52504718E-07
  -12.9399996      -4.92401398E-07
  -12.9300003      -1.23025089E-07
  -12.9200001       3.30455521E-07
  -12.9099998       8.26291796E-07
  -12.8999996       1.30787589E-06
  -12.8900003       1.70840906E-06
  -12.8800001       1.95843290E-06
  -12.8699999       1.99560441E-06
  -12.8599997       1.77547020E-06
  -12.8500004       1.28143540E-06
  -12.8400002       5.32143190E-07
  -12.8299999      -4.15460960E-07
  -12.8199997      -1.46855643E-06
  -12.8100004      -2.50656467E-06
  -12.8000002      -3.39422490E-06
  -12.7900000      -3.99816054E-06
  -12.7799997      -4.20441984E-06
  -12.7700005      -3.93470646E-06
  -12.7600002      -3.15885563E-06
  -12.7500000      -1.90197557E-06
  -12.7399998      -2.45176608E-07
  -12.7299995       1.67967937E-06
  -12.7200003       3.70060798E-06
  -12.7100000       5.61998968E-06
  -12.6999998       7.23132598E-06
  -12.6899996       8.33680951E-06
  -12.6800003       8.76458398E-06
  -12.6700001       8.38487813E-06
  -12.6599998       7.12437713E-06
  -12.6499996       4.97818428E-06
  -12.6400003       2.01862122E-06
  -12.6300001      -1.60054879E-06
  -12.6199999      -5.64564562E-06
  -12.6099997      -9.81203812E-06
  -12.6000004      -1.37414554E-05
  -12.5900002      -1.70473850E-05
  -12.5799999      -1.93479100E-05
  -12.5699997      -2.03024465E-05
  -12.5600004      -1.96489509E-05
  -12.5500002      -1.72365399E-05
  -12.5400000      -1.30490589E-05
  -12.5299997      -7.21557990E-06
  -12.5200005      -6.49370646E-09
  -12.5100002       8.18510853E-06
  -12.5000000       1.68732022E-05
  -12.4899998       2.55157465E-05
  -12.4799995       3.35527475E-05
  -12.4700003       4.04397942E-05
  -12.4600000       4.56728922E-05
  -12.4499998       4.88020341E-05
  -12.4399996       4.94338674E-05
  -12.4300003       4.72255451E-05
  -12.4200001       4.18742275E-05
  -12.4099998       3.31059891E-05
  -12.3999996       2.06704353E-05
  -12.3900003       4.34120693E-06
  -12.3800001      -1.60742056E-05
  -12.3699999      -4.07173065E-05
  -12.3599997      -6.96557545E-05
  -12.3500004      -1.02857688E-04
  -12.3400002      -1.40167103E-04
  -12.3299999      -1.81279232E-04
  -12.3199997      -2.25721393E-04
  -12.3100004      -2.72833422E-04
  -12.3000002      -3.21753643E-04
  -12.2900000      -3.71405302E-04
  -12.2799997      -4.20489901E-04
  -12.2700005      -4.67481063E-04
  -12.2600002      -5.10639919E-04
  -12.2500000      -5.48033218E-04
  -12.2399998      -5.77585190E-04
  -12.2299995      -5.97135397E-04
  -12.2200003      -6.04534929E-04
  -12.2100000      -5.97745355E-04
  -12.1999998      -5.74953912E-04
  -12.1899996      -5.34684514E-04
  -12.1800003      -4.75901033E-04
  -12.1700001      -3.98069649E-04
  -12.1599998      -3.01219698E-04
  -12.1499996      -1.85942685E-04
  -12.1400003      -5.33753810E-05
  -12.1300001       9.48576053E-05
  -12.1199999       2.56703002E-04
  -12.1099997       4.29765554E-04
  -12.1000004       6.11382478E-04
  -12.0900002       7.98696827E-04
  -12.0799999       9.88721382E-04
  -12.0699997       1.17839000E-03
  -12.0600004       1.36461190E-03
  -12.0500002       1.54431455E-03
  -12.0400000       1.71449012E-03
  -12.0299997       1.87224650E-03
  -12.0200005       2.01485958E-03
  -12.0100002       2.13981746E-03
  -12.0000000       2.24486669E-03
  -11.9899998       2.32803822E-03
  -11.9799995       2.38766195E-03
  -11.9700003       2.42235814E-03
  -11.9600000       2.43102084E-03
  -11.9499998       2.41279230E-03
  -11.9399996       2.36701733E-03
  -11.9300003       2.29321839E-03
  -11.9200001       2.19107745E-03
  -11.9099998       2.06042244E-03
  -11.8999996       1.90122926E-03
  -11.8900003       1.71364646E-03
  -11.8800001       1.49800256E-03
  -11.8699999       1.25484366E-03
  -11.8599997       9.84935206E-04
  -11.8500004       6.89290871E-04
  -11.8400002       3.69185902E-04
  -11.8299999       2.61416371E-05
  -11.8199997      -3.38033133E-04
  -11.8100004      -7.21251476E-04
  -11.8000002      -1.12111995E-03
  -11.7900000      -1.53491460E-03
  -11.7799997      -1.95955788E-03
  -11.7700005      -2.39159283E-03
  -11.7600002      -2.82720570E-03
  -11.7500000      -3.26220086E-03
  -11.7399998      -3.69208702E-03
  -11.7299995      -4.11211932E-03
  -11.7200003      -4.51739645E-03
  -11.7100000      -4.90297517E-03
  -11.6999998      -5.26397116E-03
  -11.6899996      -5.59568824E-03
  -11.6800003      -5.89369470E-03
  -11.6700001      -6.15391834E-03
  -11.6599998      -6.37269532E-03
  -11.6499996      -6.54681912E-03
  -11.6400003      -6.67353114E-03
  -11.6300001      -6.75055385E-03
  -11.6199999      -6.77605579E-03
  -11.6099997      -6.74864324E-03
  -11.6000004      -6.66733785E-03
  -11.5900002      -6.53153704E-03
  -11.5799999      -6.34099357E-03
  -11.5699997      -6.09576330E-03
  -11.5600004      -5.79616800E-03
  -11.5500002      -5.44276275E-03
  -11.5400000      -5.03627071E-03
  -11.5299997      -4.57758131E-03
  -11.5200005      -4.06770175E-03
  -11.5100002      -3.50776943E-03
  -11.5000000      -2.89904559E-03
  -11.4899998      -2.24296097E-03
  -11.4799995      -1.54112012E-03
  -11.4700003      -7.95366301E-04
  -11.4600000      -7.80347000E-06
  -11.4499998       8.19179171E-04
  -11.4399996       1.68286823E-03
  -11.4300003       2.58024246E-03
  -11.4200001       3.50797293E-03
  -11.4099998       4.46245586E-03
  -11.3999996       5.43982629E-03
  -11.3900003       6.43600477E-03
  -11.3800001       7.44673423E-03
  -11.3699999       8.46760813E-03
  -11.3599997       9.49412864E-03
  -11.3500004       1.05217267E-02
  -11.3400002       1.15458388E-02
  -11.3299999       1.25619555E-02
  -11.3199997       1.35656958E-02
  -11.3100004       1.45528894E-02
  -11.3000002       1.55196544E-02
  -11.2900000       1.64624825E-02
  -11.2799997       1.73783191E-02
  -11.2700005       1.82645824E-02
  -11.2600002       1.91192403E-02
  -11.2500000       1.99407712E-02
  -11.2399998       2.07281411E-02
  -11.2299995       2.14808006E-02
  -11.2200003       2.21985374E-02
  -11.2100000       2.28814743E-02
  -11.1999998       2.35299505E-02
  -11.1899996       2.41444595E-02
  -11.1800003       2.47255694E-02
  -11.1700001       2.52738763E-02
  -11.1599998       2.57899538E-02
  -11.1499996       2.62743328E-02
  -11.1400003       2.67274659E-02
  -11.1300001       2.71496978E-02
  -11.1199999       2.75412779E-02
  -11.1099997       2.79023759E-02
  -11.1000004       2.82330606E-02
  -11.0900002       2.85333563E-02
  -11.0799999       2.88032629E-02
  -11.0699997       2.90428139E-02
  -11.0600004       2.92521138E-02
  -11.0500002       2.94313878E-02
  -11.0400000       2.95810383E-02
  -11.0299997       2.97016650E-02
  -11.0200005       2.97940765E-02
  -11.0100002       2.98593454E-02
  -11.0000000       2.98987310E-02
  -10.9899998       2.99136676E-02
  -10.9799995       2.99057178E-02
  -10.9700003       2.98765283E-02
  -10.9600000       2.98277382E-02
  -10.9499998       2.97609027E-02
  -10.9399996       2.96774767E-02
  -10.9300003       2.95787230E-02
  -10.9200001       2.94656437E-02
  -10.9099998       2.93389931E-02
  -10.8999996       2.91992426E-02
  -10.8900003       2.90465672E-02
  -10.8800001       2.88808495E-02
  -10.8699999       2.87016984E-02
  -10.8599997       2.85084955E-02
  -10.8500004       2.83004344E-02
  -10.8400002       2.80764624E-02
  -10.8299999       2.78354473E-02
  -10.8199997       2.75761057E-02
  -10.8100004       2.72971410E-02
  -10.8000002       2.69972030E-02
  -10.7900000       2.66749728E-02
  -10.7799997       2.63292138E-02
  -10.7700005       2.59588286E-02
  -10.7600002       2.55628619E-02
  -10.7500000       2.51406170E-02
  -10.7399998       2.46916655E-02
  -10.7299995       2.42158566E-02
  -10.7200003       2.37134062E-02
  -10.7100000       2.31848769E-02
  -10.6999998       2.26311870E-02
  -10.6899996       2.20536347E-02
  -10.6800003       2.14538705E-02
  -10.6700001       2.08339151E-02
  -10.6599998       2.01960895E-02
  -10.6499996       1.95430350E-02
  -10.6400003       1.88776087E-02
  -10.6300001       1.82029381E-02
  -10.6199999       1.75222903E-02
  -10.6099997       1.68390330E-02
  -10.6000004       1.61566492E-02
  -10.5900002       1.54786156E-02
  -10.5799999       1.48083707E-02
  -10.5699997       1.41493119E-02
  -10.5600004       1.35046951E-02
  -10.5500002       1.28776673E-02
  -10.5400000       1.22711835E-02
  -10.5299997       1.16879744E-02
  -10.5200005       1.11305667E-02
  -10.5100002       1.06011955E-02
  -10.5000000       1.01018110E-02
  -10.4899998       9.63408872E-03
  -10.4799995       9.19936225E-03
  -10.4700003       8.79865885E-03
  -10.4600000       8.43265373E-03
  -10.4499998       8.10173061E-03
  -10.4399996       7.80596724E-03
  -10.4300003       7.54512241E-03
  -10.4200001       7.31876725E-03
  -10.4099998       7.12616136E-03
  -10.3999996       6.96641905E-03
  -10.3900003       6.83845067E-03
  -10.3800001       6.74098637E-03
  -10.3699999       6.67268177E-03
  -10.3599997       6.63200300E-03
  -10.3500004       6.61728624E-03
  -10.3400002       6.62675686E-03
  -10.3299999       6.65848982E-03
  -10.3199997       6.71046181E-03
  -10.3100004       6.78058853E-03
  -10.3000002       6.86667394E-03
  -10.2900000       6.96656294E-03
  -10.2799997       7.07818568E-03
  -10.2700005       7.19948905E-03
  -10.2600002       7.32863788E-03
  -10.2500000       7.46393576E-03
  -10.2399998       7.60388421E-03
  -10.2299995       7.74716213E-03
  -10.2200003       7.89260026E-03
  -10.2100000       8.03921465E-03
  -10.1999998       8.18610657E-03
  -10.1899996       8.33250768E-03
  -10.1800003       8.47784150E-03
  -10.1700001       8.62162467E-03
  -10.1599998       8.76360293E-03
  -10.1499996       8.90374836E-03
  -10.1400003       9.04226024E-03
  -10.1300001       9.17970110E-03
  -10.1199999       9.31685418E-03
  -10.1099997       9.45484545E-03
  -10.1000004       9.59511474E-03
  -10.0900002       9.73930303E-03
  -10.0799999       9.88922734E-03
  -10.0699997       1.00468425E-02
  -10.0600004       1.02141462E-02
  -10.0500002       1.03931576E-02
  -10.0400000       1.05857346E-02
  -10.0299997       1.07937399E-02
  -10.0200005       1.10186990E-02
  -10.0100002       1.12621859E-02
  -10.0000000       1.15255108E-02
  -9.98999977       1.18098827E-02
  -9.97999954       1.21164499E-02
  -9.97000027       1.24462973E-02
  -9.96000004       1.28005622E-02
  -9.94999981       1.31803825E-02
  -9.93999958       1.35869039E-02
  -9.93000031       1.40212858E-02
  -9.92000008       1.44848367E-02
  -9.90999985       1.49787702E-02
  -9.89999962       1.55043313E-02
  -9.89000034       1.60627365E-02
  -9.88000011       1.66551694E-02
  -9.86999989       1.72827374E-02
  -9.85999966       1.79463513E-02
  -9.85000038       1.86468810E-02
  -9.84000015       1.93848163E-02
  -9.82999992       2.01604869E-02
  -9.81999969       2.09737513E-02
  -9.81000042       2.18240730E-02
  -9.80000019       2.27105375E-02
  -9.78999996       2.36316938E-02
  -9.77999973       2.45857537E-02
  -9.77000046       2.55706348E-02
  -9.76000023       2.65839901E-02
  -9.75000000       2.76232120E-02
  -9.73999977       2.86857281E-02
  -9.72999954       2.97687743E-02
  -9.72000027       3.08698043E-02
  -9.71000004       3.19860317E-02
  -9.69999981       3.31148393E-02
  -9.68999958       3.42536084E-02
  -9.68000031       3.53998430E-02
  -9.67000008       3.65509503E-02
  -9.65999985       3.77046615E-02
  -9.64999962       3.88587341E-02
  -9.64000034       4.00111414E-02
  -9.63000011       4.11603078E-02
  -9.61999989       4.23045531E-02
  -9.60999966       4.34428304E-02
  -9.60000038       4.45741490E-02
  -9.59000015       4.56976518E-02
  -9.57999992       4.68127392E-02
  -9.56999969       4.79187258E-02
  -9.56000042       4.90150042E-02
  -9.55000019       5.01008332E-02
  -9.53999996       5.11753708E-02
  -9.52999973       5.22376262E-02
  -9.52000046       5.32864146E-02
  -9.51000023       5.43203130E-02
  -9.50000000       5.53379394E-02
  -9.48999977       5.63377589E-02
  -9.47999954       5.73182218E-02
  -9.47000027       5.82778566E-02
  -9.46000004       5.92155568E-02
  -9.44999981       6.01301789E-02
  -9.43999958       6.10210821E-02
  -9.43000031       6.18878826E-02
  -9.42000008       6.27303794E-02
  -9.40999985       6.35488853E-02
  -9.39999962       6.43434823E-02
  -9.39000034       6.51150271E-02
  -9.38000011       6.58639669E-02
  -9.36999989       6.65911287E-02
  -9.35999966       6.72975779E-02
  -9.35000038       6.79842532E-02
  -9.34000015       6.86525106E-02
  -9.32999992       6.93037063E-02
  -9.31999969       6.99393302E-02
  -9.31000042       7.05610663E-02
  -9.30000019       7.11707175E-02
  -9.28999996       7.17700422E-02
  -9.27999973       7.23607540E-02
  -9.27000046       7.29447976E-02
  -9.26000023       7.35239387E-02
  -9.25000000       7.41000399E-02
  -9.23999977       7.46748969E-02
  -9.22999954       7.52505213E-02
  -9.22000027       7.58288130E-02
  -9.21000004       7.64117911E-02
  -9.19999981       7.70014748E-02
  -9.18999958       7.75996894E-02
  -9.18000031       7.82084987E-02
  -9.17000008       7.88293928E-02
  -9.15999985       7.94640481E-02
  -9.14999962       8.01139176E-02
  -9.14000034       8.07802975E-02
  -9.13000011       8.14643428E-02
  -9.11999989       8.21673051E-02
  -9.10999966       8.28900561E-02
  -9.10000038       8.36336762E-02
  -9.09000015       8.43988582E-02
  -9.07999992       8.51864889E-02
  -9.06999969       8.59968811E-02
  -9.06000042       8.68303180E-02
  -9.05000019       8.76868814E-02
  -9.03999996       8.85661170E-02
  -9.02999973       8.94675553E-02
  -9.02000046       9.03905109E-02
  -9.01000023       9.13335234E-02
  -9.00000000       9.22955945E-02
  -8.98999977       9.32748392E-02
  -8.97999954       9.42692384E-02
  -8.97000027       9.52771306E-02
  -8.96000004       9.62960795E-02
  -8.94999981       9.73238200E-02
  -8.93999958       9.83581319E-02
  -8.93000031       9.93969142E-02
  -8.92000008      0.100438148    
  -8.90999985      0.101480030    
  -8.89999962      0.102521233    
  -8.89000034      0.103560612    
  -8.88000011      0.104597613    
  -8.86999989      0.105631955    
  -8.85999966      0.106664009    
  -8.85000038      0.107694432    
  -8.84000015      0.108724497    
  -8.82999992      0.109755874    
  -8.81999969      0.110790715    
  -8.81000042      0.111831531    
  -8.80000019      0.112881228    
  -8.78999996      0.113943093    
  -8.77999973      0.115020387    
  -8.77000046      0.116116881    
  -8.76000023      0.117236331    
  -8.75000000      0.118382618    
  -8.73999977      0.119559906    
  -8.72999954      0.120772094    
  -8.72000027      0.122023150    
  -8.71000004      0.123316832    
  -8.69999981      0.124657378    
  -8.68999958      0.126047999    
  -8.68000031      0.127491981    
  -8.67000008      0.128992409    
  -8.65999985      0.130552083    
  -8.64999962      0.132173076    
  -8.64000034      0.133857325    
  -8.63000011      0.135606125    
  -8.61999989      0.137420267    
  -8.60999966      0.139299795    
  -8.60000038      0.141244605    
  -8.59000015      0.143253207    
  -8.57999992      0.145324513    
  -8.56999969      0.147456273    
  -8.56000042      0.149646133    
  -8.55000019      0.151891336    
  -8.53999996      0.154189095    
  -8.52999973      0.156536579    
  -8.52000046      0.158930883    
  -8.51000023      0.161369205    
  -8.50000000      0.163848534    
  -8.48999977      0.166366890    
  -8.47999954      0.168921247    
  -8.47000027      0.171509326    
  -8.46000004      0.174128756    
  -8.44999981      0.176777095    
  -8.43999958      0.179452538    
  -8.43000031      0.182152733    
  -8.42000008      0.184876144    
  -8.40999985      0.187620431    
  -8.39999962      0.190384492    
  -8.39000034      0.193166450    
  -8.38000011      0.195964828    
  -8.36999989      0.198778197    
  -8.35999966      0.201604903    
  -8.35000038      0.204443797    
  -8.34000015      0.207293719    
  -8.32999992      0.210153162    
  -8.31999969      0.213021547    
  -8.31000042      0.215897366    
  -8.30000019      0.218780011    
  -8.28999996      0.221668541    
  -8.27999973      0.224561870    
  -8.27000046      0.227459341    
  -8.26000023      0.230359718    
  -8.25000000      0.233262405    
  -8.23999977      0.236165985    
  -8.22999954      0.239069223    
  -8.22000027      0.241971835    
  -8.21000004      0.244872034    
  -8.19999981      0.247768551    
  -8.18999958      0.250660598    
  -8.18000031      0.253545970    
  -8.17000008      0.256423682    
  -8.15999985      0.259291828    
  -8.14999962      0.262148142    
  -8.14000034      0.264990836    
  -8.13000011      0.267817557    
  -8.11999989      0.270625830    
  -8.10999966      0.273412794    
  -8.10000038      0.276175737    
  -8.09000015      0.278911710    
  -8.07999992      0.281617194    
  -8.06999969      0.284288496    
  -8.06000042      0.286921352    
  -8.05000019      0.289511651    
  -8.03999996      0.292054832    
  -8.02999973      0.294546396    
  -8.02000046      0.296981931    
  -8.01000023      0.299356759    
  -8.00000000      0.301666349    
  -7.98999977      0.303906590    
  -7.98000002      0.306072831    
  -7.96999979      0.308161497    
  -7.96000004      0.310168833    
  -7.94999981      0.312091380    
  -7.94000006      0.313926905    
  -7.92999983      0.315672278    
  -7.92000008      0.317325711    
  -7.90999985      0.318886608    
  -7.90000010      0.320353955    
  -7.88999987      0.321727753    
  -7.88000011      0.323008627    
  -7.86999989      0.324198008    
  -7.86000013      0.325298041    
  -7.84999990      0.326311409    
  -7.84000015      0.327241510    
  -7.82999992      0.328092158    
  -7.82000017      0.328869283    
  -7.80999994      0.329577446    
  -7.80000019      0.330223203    
  -7.78999996      0.330813497    
  -7.78000021      0.331354976    
  -7.76999998      0.331855834    
  -7.76000023      0.332323045    
  -7.75000000      0.332765788    
  -7.73999977      0.333192676    
  -7.73000002      0.333612621    
  -7.71999979      0.334035516    
  -7.71000004      0.334470540    
  -7.69999981      0.334928721    
  -7.69000006      0.335418850    
  -7.67999983      0.335952520    
  -7.67000008      0.336538702    
  -7.65999985      0.337186128    
  -7.65000010      0.337904990    
  -7.63999987      0.338703692    
  -7.63000011      0.339589894    
  -7.61999989      0.340572834    
  -7.61000013      0.341659814    
  -7.59999990      0.342857838    
  -7.59000015      0.344174922    
  -7.57999992      0.345618486    
  -7.57000017      0.347194344    
  -7.55999994      0.348909378    
  -7.55000019      0.350769013    
  -7.53999996      0.352778643    
  -7.53000021      0.354942977    
  -7.51999998      0.357266277    
  -7.51000023      0.359751612    
  -7.50000000      0.362402081    
  -7.48999977      0.365220249    
  -7.48000002      0.368208230    
  -7.46999979      0.371365696    
  -7.46000004      0.374694169    
  -7.44999981      0.378193468    
  -7.44000006      0.381862998    