  -16.0000000       0.00000000    
  -15.9899998       0.00000000    
  -15.9799995       0.00000000    
  -15.9700003       0.00000000    
  -15.9600000       0.00000000    
  -15.9499998       0.00000000    
  -15.9399996       0.00000000    
  -15.9300003       0.00000000    
  -15.9200001       0.00000000    
  -15.9099998       0.00000000    
  -15.8999996       0.00000000    
  -15.8900003       0.00000000    
  -15.8800001       0.00000000    
  -15.8699999       6.00848756E-41
  -15.8599997       7.30649631E-40
  -15.8500004       1.77982982E-39
  -15.8400002      -3.27780807E-38
  -15.8299999      -4.37132567E-37
  -15.8199997      -3.07709000E-36
  -15.8100004      -1.55058022E-35
  -15.8000002      -6.12602797E-35
  -15.7900000      -1.97347800E-34
  -15.7799997      -5.26347248E-34
  -15.7700005      -1.15705663E-33
  -15.7600002      -2.02258974E-33
  -15.7500000      -2.45591296E-33
  -15.7399998      -5.26690805E-34
  -15.7299995       7.64247652E-33
  -15.7200003       2.82766077E-32
  -15.7100000       7.01450687E-32
  -15.6999998       1.44842651E-31
  -15.6899996       2.63816056E-31
  -15.6800003       4.14361006E-31
  -15.6700001       4.69781944E-31
  -15.6599998      -2.31466358E-32
  -15.6499996      -2.14546753E-30
  -15.6400003      -7.63194428E-30
  -15.6300001      -1.76501278E-29
  -15.6199999      -2.88823318E-29
  -15.6099997      -2.63526679E-29
  -15.6000004       2.33674886E-29
  -15.5900002       1.66487676E-28
  -15.5799999       4.22788278E-28
  -15.5699997       6.94990020E-28
  -15.5600004       6.45325487E-28
  -15.5500002      -3.56483590E-28
  -15.5400000      -2.99727701E-27
  -15.5299997      -7.24134406E-27
  -15.5200005      -1.09756614E-26
  -15.5100002      -8.71552248E-27
  -15.5000000       7.93323516E-27
  -15.4899998       4.55330699E-26
  -15.4799995       9.80463818E-26
  -15.4700003       1.32356734E-25
  -15.4600000       8.03097256E-26
  -15.4499998      -1.43615320E-25
  -15.4399996      -5.78263492E-25
  -15.4300003      -1.10272973E-24
  -15.4200001      -1.31878315E-24
  -15.4099998      -5.42201899E-25
  -15.3999996       1.93260075E-24
  -15.3900003       6.17213489E-24
  -15.3800001       1.06425556E-23
  -15.3699999       1.14561079E-23
  -15.3599997       2.80618670E-24
  -15.3500004      -2.02623814E-23
  -15.3400002      -5.62712722E-23
  -15.3299999      -9.03595107E-23
  -15.3199997      -9.03781783E-23
  -15.3100004      -1.31005996E-23
  -15.3000002       1.72656232E-22
  -15.2900000       4.45534654E-22
  -15.2799997       6.87153182E-22
  -15.2700005       6.65338414E-22
  -15.2600002       8.95308281E-23
  -15.2500000      -1.22599829E-21
  -15.2399998      -3.10169708E-21
  -15.2299995      -4.73185034E-21
  -15.2200003      -4.62098027E-21
  -15.2100000      -9.69413067E-22
  -15.1999998       7.31916225E-21
  -15.1899996       1.91195528E-20
  -15.1800003       2.96453744E-20
  -15.1700001       3.01901537E-20
  -15.1599998       1.03654721E-20
  -15.1499996      -3.63522776E-20
  -15.1400003      -1.04484905E-19
  -15.1300001      -1.68959886E-19
  -15.1199999      -1.83645599E-19
  -15.1099997      -9.24717550E-20
  -15.1000004       1.43041707E-19
  -15.0900002       5.03388775E-19
  -15.0799999       8.72646595E-19
  -15.0699997       1.02802058E-18
  -15.0600004       6.87292118E-19
  -15.0500002      -3.67506704E-19
  -15.0400000      -2.10398952E-18
  -15.0299997      -4.05385212E-18
  -15.0200005      -5.23955515E-18
  -15.0100002      -4.34481208E-18
  -15.0000000      -2.16436641E-19
  -14.9899998       7.34231237E-18
  -14.9799995       1.67256300E-17
  -14.9700003       2.40701402E-17
  -14.9600000       2.37353571E-17
  -14.9499998       1.01255791E-17
  -14.9399996      -1.91988322E-17
  -14.9300003      -5.99238488E-17
  -14.9200001      -9.85172176E-17
  -14.9099998      -1.13004346E-16
  -14.8999996      -7.87672481E-17
  -14.8900003       2.03439033E-17
  -14.8800001       1.77906009E-16
  -14.8699999       3.53207074E-16
  -14.8599997       4.69497022E-16
  -14.8500004       4.29432893E-16
  -14.8400002       1.50692416E-16
  -14.8299999      -3.83616775E-16
  -14.8199997      -1.07578912E-15
  -14.8100004      -1.69059412E-15
  -14.8000002      -1.88543774E-15
  -14.7900000      -1.31025684E-15
  -14.7799997       2.30370118E-16
  -14.7700005       2.59456568E-15
  -14.7600002       5.17456324E-15
  -14.7500000       6.91281249E-15
  -14.7399998       6.53507433E-15
  -14.7299995       3.01093849E-15
  -14.7200003      -3.84638466E-15
  -14.7100000      -1.28399920E-14
  -14.6999998      -2.11825762E-14
  -14.6899996      -2.48880116E-14
  -14.6800003      -1.98919606E-14
  -14.6700001      -3.77564682E-15
  -14.6599998       2.23605788E-14
  -14.6499996       5.26106123E-14
  -14.6400003       7.63988685E-14
  -14.6300001       8.06560358E-14
  -14.6199999       5.40740921E-14
  -14.6099997      -7.38758589E-15
  -14.6000004      -9.54622666E-14
  -14.5900002      -1.87296549E-13
  -14.5799999      -2.48081557E-13
  -14.5699997      -2.39674573E-13
  -14.5600004      -1.34295637E-13
  -14.5500002       7.00352726E-14
  -14.5400000       3.37733395E-13
  -14.5299997       5.93706453E-13
  -14.5200005       7.35973945E-13
  -14.5100002       6.63713767E-13
  -14.5000000       3.15971208E-13
  -14.4899998      -2.89686135E-13
  -14.4799995      -1.03333423E-12
  -14.4700003      -1.69810975E-12
  -14.4600000      -2.01369585E-12
  -14.4499998      -1.73528336E-12
  -14.4399996      -7.41469928E-13
  -14.4300003       8.78213680E-13
  -14.4200001       2.78159939E-12
  -14.4099998       4.40839119E-12
  -14.3999996       5.10367139E-12
  -14.3900003       4.31491778E-12
  -14.3800001       1.81643589E-12
  -14.3699999      -2.10963668E-12
  -14.3599997      -6.61154985E-12
  -14.3500004      -1.03829298E-11
  -14.3400002      -1.19656628E-11
  -14.3299999      -1.01917433E-11
  -14.3199997      -4.65184922E-12
  -14.3100004       3.95942957E-12
  -14.3000002       1.37703347E-11
  -14.2900000       2.20257337E-11
  -14.2799997       2.57432894E-11
  -14.2700005       2.26066926E-11
  -14.2600002       1.18603235E-11
  -14.2500000      -5.08370906E-12
  -14.2399998      -2.45873200E-11
  -14.2299995      -4.14157424E-11
  -14.2200003      -5.00015619E-11
  -14.2100000      -4.60741549E-11
  -14.1999998      -2.82125972E-11
  -14.1899996       1.17753160E-12
  -14.1800003       3.58738456E-11
  -14.1700001       6.70103001E-11
  -14.1599998       8.52453871E-11
  -14.1499996       8.34259675E-11
  -14.1400003       5.90070562E-11
  -14.1300001       1.54486805E-11
  -14.1199999      -3.79761361E-11
  -14.1099997      -8.81223011E-11
  -14.1000004      -1.21292407E-10
  -14.0900002      -1.27092989E-10
  -14.0799999      -1.01715081E-10
  -14.0699997      -4.95776684E-11
  -14.0600004       1.73276792E-11
  -14.0500002       8.24004476E-11
  -14.0400000       1.28985225E-10
  -14.0299997       1.45221946E-10
  -14.0200005       1.27684710E-10
  -14.0100002       8.25671059E-11
  -14.0000000       2.38527947E-11
  -13.9899998      -3.11203077E-11
  -13.9799995      -6.74099873E-11
  -13.9700003      -7.76507192E-11
  -13.9600000      -6.48288090E-11
  -13.9499998      -4.14301683E-11
  -13.9399996      -2.49216047E-11
  -13.9300003      -3.07712571E-11
  -13.9200001      -6.52852772E-11
  -13.9099998      -1.20881805E-10
  -13.8999996      -1.75939194E-10
  -13.8900003      -2.00057707E-10
  -13.8800001      -1.63807079E-10
  -13.8699999      -5.03126672E-11
  -13.8599997       1.35003175E-10
  -13.8500004       3.60206004E-10
  -13.8400002       5.70584469E-10
  -13.8299999       7.00534686E-10
  -13.8199997       6.91223967E-10
  -13.8100004       5.09438991E-10
  -13.8000002       1.62060282E-10
  -13.7900000      -2.98856134E-10
  -13.7799997      -7.83130394E-10
  -13.7700005      -1.18112398E-09
  -13.7600002      -1.38991529E-09
  -13.7500000      -1.34031120E-09
  -13.7399998      -1.01714059E-09
  -13.7299995      -4.66653716E-10
  -13.7200003       2.11957729E-10
  -13.7100000       8.89195273E-10
  -13.6999998       1.43641077E-09
  -13.6899996       1.75671533E-09
  -13.6800003       1.80681581E-09
  -13.6700001       1.60321534E-09
  -13.6599998       1.21098231E-09
  -13.6499996       7.18624382E-10
  -13.6400003       2.07308809E-10
  -13.6300001      -2.75005907E-10
  -13.6199999      -7.25018212E-10
  -13.6099997      -1.17603394E-09
  -13.6000004      -1.67174519E-09
  -13.5900002      -2.22987317E-09
  -13.5799999      -2.80840839E-09
  -13.5699997      -3.28848704E-09
  -13.5600004      -3.48413320E-09
  -13.5500002      -3.18172400E-09
  -13.5400000      -2.20287610E-09
  -13.5299997      -4.75078699E-10
  -13.5200005       1.91007987E-09
  -13.5100002       4.67174299E-09
  -13.5000000       7.36089811E-09
  -13.4899998       9.43030187E-09
  -13.4799995       1.03422533E-08
  -13.4700003       9.69100888E-09
  -13.4600000       7.31077376E-09
  -13.4499998       3.34115358E-09
  -13.4399996      -1.76941162E-09
  -13.4300003      -7.32674277E-09
  -13.4200001      -1.25084849E-08
  -13.4099998      -1.65085972E-08
  -13.3999996      -1.86782039E-08
  -13.3900003      -1.86279756E-08
  -13.3800001      -1.62727769E-08
  -13.3699999      -1.18140608E-08
  -13.3599997      -5.67290659E-09
  -13.3500004       1.59956748E-09
  -13.3400002       9.40358191E-09
  -13.3299999       1.71411916E-08
  -13.3199997       2.42189770E-08
  -13.3100004       3.00213721E-08
  -13.3000002       3.38720625E-08
  -13.2900000       3.50248790E-08
  -13.2799997       3.27137037E-08
  -13.2700005       2.62767763E-08
  -13.2600002       1.53499897E-08
  -13.2500000       8.73485104E-11
  -13.2399998      -1.86457410E-08
  -13.2299995      -3.91758626E-08
  -13.2200003      -5.90745586E-08
  -13.2100000      -7.53918954E-08
  -13.1999998      -8.50524486E-08
  -13.1899996      -8.53622524E-08
  -13.1800003      -7.45367430E-08
  -13.1700001      -5.21397112E-08
  -13.1599998      -1.93462437E-08
  -13.1499996       2.10397104E-08
  -13.1400003       6.48306795E-08
  -13.1300001       1.06922016E-07
  -13.1199999       1.41912139E-07
  -13.1099997       1.64765581E-07
  -13.1000004       1.71430159E-07
  -13.0900002       1.59325680E-07
  -13.0799999       1.27666880E-07
  -13.0699997       7.76231133E-08
  -13.0600004       1.23265664E-08
  -13.0500002      -6.32332728E-08
  -13.0400000      -1.42422635E-07
  -13.0299997      -2.17297014E-07
  -13.0200005      -2.79091097E-07
  -13.0100002      -3.18915568E-07
  -13.0000000      -3.28682489E-07
  -12.9899998      -3.02234042E-07
  -12.9799995      -2.36579027E-07
  -12.9700003      -1.33017352E-07
  -12.9600000       2.03324801E-09
  -12.9499998       1.56841651E-07
  -12.9399996       3.14934340E-07
  -12.9300003       4.56593654E-07
  -12.9200001       5.61153854E-07
  -12.9099998       6.09891572E-07
  -12.8999996       5.89067270E-07
  -12.8900003       4.92625134E-07
  -12.8800001       3.24048102E-07
  -12.8699999       9.69542526E-08
  -12.8599997      -1.65756731E-07
  -12.8500004      -4.34207209E-07
  -12.8400002      -6.74981379E-07
  -12.8299999      -8.55263920E-07
  -12.8199997      -9.47081787E-07
  -12.8100004      -9.31099407E-07
  -12.8000002      -7.99435668E-07
  -12.7900000      -5.57274291E-07
  -12.7799997      -2.23091547E-07
  -12.7700005       1.72457092E-07
  -12.7600002       5.88806643E-07
  -12.7500000       9.78730213E-07
  -12.7399998       1.29239743E-06
  -12.7299995       1.48205197E-06
  -12.7200003       1.50714118E-06
  -12.7100000       1.33962249E-06
  -12.6999998       9.69137545E-07
  -12.6899996       4.07361000E-07
  -12.6800003      -3.09050165E-07
  -12.6700001      -1.11785539E-06
  -12.6599998      -1.93365236E-06
  -12.6499996      -2.65381868E-06
  -12.6400003      -3.16792375E-06
  -12.6300001      -3.37020037E-06
  -12.6199999      -3.17375498E-06
  -12.6099997      -2.52485347E-06
  -12.6000004      -1.41523662E-06
  -12.5900002       1.09435057E-07
  -12.5799999       1.94673976E-06
  -12.5699997       3.94123890E-06
  -12.5600004       5.89485808E-06
  -12.5500002       7.58316310E-06
  -12.5400000       8.77606726E-06
  -12.5299997       9.26068515E-06
  -12.5200005       8.86436646E-06
  -12.5100002       7.47541935E-06
  -12.5000000       5.05989919E-06
  -12.4899998       1.67343217E-06
  -12.4799995      -2.53327971E-06
  -12.4700003      -7.31495129E-06
  -12.4600000      -1.23385244E-05
  -12.4499998      -1.71961874E-05
  -12.4399996      -2.14241536E-05
  -12.4300003      -2.45267966E-05
  -12.4200001      -2.60057914E-05
  -12.4099998      -2.53919825E-05
  -12.3999996      -2.22799863E-05
  -12.3900003      -1.63610439E-05
  -12.3800001      -7.45302805E-06
  -12.3699999       4.47594084E-06
  -12.3599997       1.92937860E-05
  -12.3500004       3.67012653E-05
  -12.3400002       5.62408968E-05
  -12.3299999       7.73174688E-05
  -12.3199997       9.92274290E-05
  -12.3100004       1.21194855E-04
  -12.3000002       1.42410063E-04
  -12.2900000       1.62065873E-04
  -12.2799997       1.79390394E-04
  -12.2700005       1.93672851E-04
  -12.2600002       2.04281590E-04
  -12.2500000       2.10673417E-04
  -12.2399998       2.12400220E-04
  -12.2299995       2.09108577E-04
  -12.2200003       2.00536902E-04
  -12.2100000       1.86515055E-04
  -12.1999998       1.66958052E-04
  -12.1899996       1.41865763E-04
  -12.1800003       1.11318026E-04
  -12.1700001       7.54705616E-05
  -12.1599998       3.45514272E-05
  -12.1499996      -1.11453828E-05
  -12.1400003      -6.12628210E-05
  -12.1300001      -1.15385039E-04
  -12.1199999      -1.73034903E-04
  -12.1099997      -2.33671439E-04
  -12.1000004      -2.96681159E-04
  -12.0900002      -3.61368584E-04
  -12.0799999      -4.26946004E-04
  -12.0699997      -4.92526102E-04
  -12.0600004      -5.57121064E-04
  -12.0500002      -6.19647733E-04
  -12.0400000      -6.78943412E-04
  -12.0299997      -7.33789289E-04
  -12.0200005      -7.82940013E-04
  -12.0100002      -8.25158029E-04
  -12.0000000      -8.59248452E-04
  -11.9899998      -8.84089561E-04
  -11.9799995      -8.98659171E-04
  -11.9700003      -9.02058382E-04
  -11.9600000      -8.93524557E-04
  -11.9499998      -8.72447912E-04
  -11.9399996      -8.38379841E-04
  -11.9300003      -7.91047234E-04
  -11.9200001      -7.30366679E-04
  -11.9099998      -6.56456628E-04
  -11.8999996      -5.69650612E-04
  -11.8900003      -4.70503845E-04
  -11.8800001      -3.59792466E-04
  -11.8699999      -2.38501467E-04
  -11.8599997      -1.07802603E-04
  -11.8500004       3.09825409E-05
  -11.8400002       1.76421570E-04
  -11.8299999       3.27021349E-04
  -11.8199997       4.81273077E-04
  -11.8100004       6.37690828E-04
  -11.8000002       7.94843945E-04
  -11.7900000       9.51379479E-04
  -11.7799997       1.10602740E-03
  -11.7700005       1.25760492E-03
  -11.7600002       1.40500546E-03
  -11.7500000       1.54719164E-03
  -11.7399998       1.68317789E-03
  -11.7299995       1.81201834E-03
  -11.7200003       1.93279027E-03
  -11.7100000       2.04457832E-03
  -11.6999998       2.14645592E-03
  -11.6899996       2.23746686E-03
  -11.6800003       2.31660577E-03
  -11.6700001       2.38279835E-03
  -11.6599998       2.43488932E-03
  -11.6499996       2.47163838E-03
  -11.6400003       2.49172328E-03
  -11.6300001       2.49376334E-03
  -11.6199999       2.47634877E-03
  -11.6099997       2.43809214E-03
  -11.6000004       2.37767794E-03
  -11.5900002       2.29392760E-03
  -11.5799999       2.18586042E-03
  -11.5699997       2.05274648E-03
  -11.5600004       1.89416192E-03
  -11.5500002       1.71002292E-03
  -11.5400000       1.50061131E-03
  -11.5299997       1.26658531E-03
  -11.5200005       1.00897974E-03
  -11.5100002       7.29194784E-04
  -11.5000000       4.28963802E-04
  -11.4899998       1.10328190E-04
  -11.4799995      -2.24419724E-04
  -11.4700003      -5.72783931E-04
  -11.4600000      -9.32128169E-04
  -11.4499998      -1.29974668E-03
  -11.4399996      -1.67293439E-03
  -11.4300003      -2.04905984E-03
  -11.4200001      -2.42563058E-03
  -11.4099998      -2.80035683E-03
  -11.3999996      -3.17120156E-03
  -11.3900003      -3.53641110E-03
  -11.3800001      -3.89454141E-03
  -11.3699999      -4.24445421E-03
  -11.3599997      -4.58530430E-03
  -11.3500004      -4.91651520E-03
  -11.3400002      -5.23773441E-03
  -11.3299999      -5.54878078E-03
  -11.3199997      -5.84958587E-03
  -11.3100004      -6.14013989E-03
  -11.3000002      -6.42041862E-03
  -11.2900000      -6.69032987E-03
  -11.2799997      -6.94965478E-03
  -11.2700005      -7.19800452E-03
  -11.2600002      -7.43478071E-03
  -11.2500000      -7.65915355E-03
  -11.2399998      -7.87006319E-03
  -11.2299995      -8.06622393E-03
  -11.2200003      -8.24617594E-03
  -11.2100000      -8.40831641E-03
  -11.1999998      -8.55098665E-03
  -11.1899996      -8.67253914E-03
  -11.1800003      -8.77142232E-03
  -11.1700001      -8.84626806E-03
  -11.1599998      -8.89595784E-03
  -11.1499996      -8.91970005E-03
  -11.1400003      -8.91706254E-03
  -11.1300001      -8.88800621E-03
  -11.1199999      -8.83290265E-03
  -11.1099997      -8.75253137E-03
  -11.1000004      -8.64806026E-03
  -11.0900002      -8.52101669E-03
  -11.0799999      -8.37324746E-03
  -11.0699997      -8.20686389E-03
  -11.0600004      -8.02418403E-03
  -11.0500002      -7.82765634E-03
  -11.0400000      -7.61979027E-03
  -11.0299997      -7.40305614E-03
  -11.0200005      -7.17980368E-03
  -11.0100002      -6.95218705E-03
  -11.0000000      -6.72206422E-03
  -10.9899998      -6.49096398E-03
  -10.9799995      -6.26000809E-03
  -10.9700003      -6.02990855E-03
  -10.9600000      -5.80095546E-03
  -10.9499998      -5.57303429E-03
  -10.9399996      -5.34565514E-03
  -10.9300003      -5.11801103E-03
  -10.9200001      -4.88904538E-03
  -10.9099998      -4.65750322E-03
  -10.8999996      -4.42201598E-03
  -10.8900003      -4.18117037E-03
  -10.8800001      -3.93355964E-03
  -10.8699999      -3.67786339E-03
  -10.8599997      -3.41288163E-03
  -10.8500004      -3.13758524E-03
  -10.8400002      -2.85115093E-03
  -10.8299999      -2.55297613E-03
  -10.8199997      -2.24269903E-03
  -10.8100004      -1.92018657E-03
  -10.8000002      -1.58555619E-03
  -10.7900000      -1.23913621E-03
  -10.7799997      -8.81448505E-04
  -10.7700005      -5.13190287E-04
  -10.7600002      -1.35173206E-04
  -10.7500000       2.51702528E-04
  -10.7399998       6.46510918E-04
  -10.7299995       1.04835001E-03
  -10.7200003       1.45640806E-03
  -10.7100000       1.87000423E-03
  -10.6999998       2.28863582E-03
  -10.6899996       2.71202042E-03
  -10.6800003       3.14010261E-03
  -10.6700001       3.57306283E-03
  -10.6599998       4.01130877E-03
  -10.6499996       4.45543975E-03
  -10.6400003       4.90620919E-03
  -10.6300001       5.36446972E-03
  -10.6199999       5.83112426E-03
  -10.6099997       6.30705664E-03
  -10.6000004       6.79307990E-03
  -10.5900002       7.28988321E-03
  -10.5799999       7.79798348E-03
  -10.5699997       8.31769872E-03
  -10.5600004       8.84912908E-03
  -10.5500002       9.39213205E-03
  -10.5400000       9.94633418E-03
  -10.5299997       1.05111608E-02
  -10.5200005       1.10857943E-02
  -10.5100002       1.16692251E-02
  -10.5000000       1.22602377E-02
  -10.4899998       1.28574194E-02
  -10.4799995       1.34591460E-02
  -10.4700003       1.40635753E-02
  -10.4600000       1.46686323E-02
  -10.4499998       1.52720306E-02
  -10.4399996       1.58712305E-02
  -10.4300003       1.64634995E-02
  -10.4200001       1.70459002E-02
  -10.4099998       1.76153556E-02
  -10.3999996       1.81686934E-02
  -10.3900003       1.87026765E-02
  -10.3800001       1.92141086E-02
  -10.3699999       1.96998585E-02
  -10.3599997       2.01569572E-02
  -10.3500004       2.05826443E-02
  -10.3400002       2.09744498E-02
  -10.3299999       2.13302188E-02
  -10.3199997       2.16482021E-02
  -10.3100004       2.19270308E-02
  -10.3000002       2.21657865E-02
  -10.2900000       2.23639701E-02
  -10.2799997       2.25215293E-02
  -10.2700005       2.26388108E-02
  -10.2600002       2.27165949E-02
  -10.2500000       2.27560569E-02
  -10.2399998       2.27587912E-02
  -10.2299995       2.27268059E-02
  -10.2200003       2.26625521E-02
  -10.2100000       2.25689057E-02
  -10.1999998       2.24491693E-02
  -10.1899996       2.23070327E-02
  -10.1800003       2.21465416E-02
  -10.1700001       2.19720248E-02
  -10.1599998       2.17879396E-02
  -10.1499996       2.15988215E-02
  -10.1400003       2.14091409E-02
  -10.1300001       2.12231781E-02
  -10.1199999       2.10449435E-02
  -10.1099997       2.08780579E-02
  -10.1000004       2.07257569E-02
  -10.0900002       2.05907580E-02
  -10.0799999       2.04753503E-02
  -10.0699997       2.03813314E-02
  -10.0600004       2.03100294E-02
  -10.0500002       2.02623382E-02
  -10.0400000       2.02387497E-02
  -10.0299997       2.02392749E-02
  -10.0200005       2.02636141E-02
  -10.0100002       2.03110185E-02
  -10.0000000       2.03803852E-02
  -9.98999977       2.04702374E-02
  -9.97999954       2.05787793E-02
  -9.97000027       2.07039248E-02
  -9.96000004       2.08434127E-02
  -9.94999981       2.09948625E-02
  -9.93999958       2.11559553E-02
  -9.93000031       2.13245824E-02
  -9.92000008       2.14989483E-02
  -9.90999985       2.16777790E-02
  -9.89999962       2.18603536E-02
  -9.89000034       2.20466778E-02
  -9.88000011       2.22374834E-02
  -9.86999989       2.24341303E-02
  -9.85999966       2.26386841E-02
  -9.85000038       2.28537936E-02
  -9.84000015       2.30824985E-02
  -9.82999992       2.33282391E-02
  -9.81999969       2.35946309E-02
  -9.81000042       2.38854028E-02
  -9.80000019       2.42043231E-02
  -9.78999996       2.45549995E-02
  -9.77999973       2.49409061E-02
  -9.77000046       2.53652129E-02
  -9.76000023       2.58307550E-02
  -9.75000000       2.63399743E-02
  -9.73999977       2.68948339E-02
  -9.72999954       2.74967719E-02
  -9.72000027       2.81467102E-02
  -9.71000004       2.88449451E-02
  -9.69999981       2.95911822E-02
  -9.68999958       3.03844605E-02
  -9.68000031       3.12230848E-02
  -9.67000008       3.21046449E-02
  -9.65999985       3.30259092E-02
  -9.64999962       3.39827687E-02
  -9.64000034       3.49702500E-02
  -9.63000011       3.59825790E-02
  -9.61999989       3.70131209E-02
  -9.60999966       3.80545482E-02
  -9.60000038       3.90989371E-02
  -9.59000015       4.01378907E-02
  -9.57999992       4.11627628E-02
  -9.56999969       4.21648175E-02
  -9.56000042       4.31353897E-02
  -9.55000019       4.40659635E-02
  -9.53999996       4.49484996E-02
  -9.52999973       4.57752421E-02
  -9.52000046       4.65390831E-02
  -9.51000023       4.72334847E-02
  -9.50000000       4.78524826E-02
  -9.48999977       4.83909473E-02
  -9.47999954       4.88443226E-02
  -9.47000027       4.92089838E-02
  -9.46000004       4.94822301E-02
  -9.44999981       4.96623106E-02
  -9.43999958       4.97486033E-02
  -9.43000031       4.97418195E-02
  -9.42000008       4.96440046E-02
  -9.40999985       4.94587980E-02
  -9.39999962       4.91913259E-02
  -9.39000034       4.88484167E-02
  -9.38000011       4.84384075E-02
  -9.36999989       4.79711555E-02
  -9.35999966       4.74578440E-02
  -9.35000038       4.69108745E-02
  -9.34000015       4.63435724E-02
  -9.32999992       4.57701124E-02
  -9.31999969       4.52051647E-02
  -9.31000042       4.46640253E-02
  -9.30000019       4.41621393E-02
  -9.28999996       4.37151790E-02
  -9.27999973       4.33388501E-02
  -9.27000046       4.30486985E-02
  -9.26000023       4.28599790E-02
  -9.25000000       4.27874885E-02
  -9.23999977       4.28453237E-02
  -9.22999954       4.30467315E-02
  -9.22000027       4.34039235E-02
  -9.21000004       4.39280644E-02
  -9.19999981       4.46288288E-02
  -9.18999958       4.55144569E-02
  -9.18000031       4.65918332E-02
  -9.17000008       4.78660315E-02
  -9.15999985       4.93404865E-02
  -9.14999962       5.10167442E-02
  -9.14000034       5.28945103E-02
  -9.13000011       5.49714975E-02
  -9.11999989       5.72434589E-02
  -9.10999966       5.97041063E-02
  -9.10000038       6.23451285E-02
  -9.09000015       6.51563033E-02
  -9.07999992       6.81255236E-02
  -9.06999969       7.12388456E-02
  -9.06000042       7.44807273E-02
  -9.05000019       7.78338686E-02
  -9.03999996       8.12796205E-02
  -9.02999973       8.47979188E-02
  -9.02000046       8.83675441E-02
  -9.01000023       9.19662043E-02
  -9.00000000       9.55707431E-02
  -8.98999977       9.91575345E-02
  -8.97999954      0.102702305    
  -8.97000027      0.106180906    
  -8.96000004      0.109569028    
  -8.94999981      0.112842776    
  -8.93999958      0.115978904    
  -8.93000031      0.118954703    
  -8.92000008      0.121748731    
  -8.90999985      0.124340564    
  -8.89999962      0.126711190    
  -8.89000034      0.128843248    
  -8.88000011      0.130721003    
  -8.86999989      0.132330447    
  -8.85999966      0.133659720    
  -8.85000038      0.134698674    
  -8.84000015      0.135439366    
  -8.82999992      0.135875821    
  -8.81999969      0.136004150    
  -8.81000042      0.135822535    
  -8.80000019      0.135331243    
  -8.78999996      0.134532794    
  -8.77999973      0.133431479    
  -8.77000046      0.132033825    
  -8.76000023      0.130348250    
  -8.75000000      0.128385052    
  -8.73999977      0.126156121    
  -8.72999954      0.123675026    
  -8.72000027      0.120956823    
  -8.71000004      0.118017517    
  -8.69999981      0.114874572    
  -8.68999958      0.111545905    
  -8.68000031      0.108050361    
  -8.67000008      0.104407147    
  -8.65999985      0.100635767    
  -8.64999962       9.67559665E-02
  -8.64000034       9.27871913E-02
  -8.63000011       8.87487978E-02
  -8.61999989       8.46598297E-02
  -8.60999966       8.05384368E-02
  -8.60000038       7.64024407E-02
  -8.59000015       7.22690374E-02
  -8.57999992       6.81542382E-02
  -8.56999969       6.40732050E-02
  -8.56000042       6.00402579E-02
  -8.55000019       5.60683869E-02
  -8.53999996       5.21693453E-02
  -8.52999973       4.83538806E-02
  -8.52000046       4.46312167E-02
  -8.51000023       4.10090834E-02
  -8.50000000       3.74942087E-02
  -8.48999977       3.40917557E-02
  -8.47999954       3.08057591E-02
  -8.47000027       2.76392605E-02
  -8.46000004       2.45938469E-02
  -8.44999981       2.16704905E-02
  -8.43999958       1.88691467E-02
  -8.43000031       1.61887985E-02
  -8.42000008       1.36277564E-02
  -8.40999985       1.11840460E-02
  -8.39999962       8.85490701E-03
  -8.39000034       6.63776509E-03
  -8.38000011       4.52979561E-03
  -8.36999989       2.52873846E-03
  -8.35999966       6.32642710E-04
  -8.35000038      -1.16022886E-03
  -8.34000015      -2.85047526E-03
  -8.32999992      -4.43826104E-03
  -8.31999969      -5.92313241E-03
  -8.31000042      -7.30389869E-03
  -8.30000019      -8.57835822E-03
  -8.28999996      -9.74417571E-03
  -8.27999973      -1.07980017E-02
  -8.27000046      -1.17356274E-02
  -8.26000023      -1.25523973E-02
  -8.25000000      -1.32425008E-02
  -8.23999977      -1.37998648E-02
  -8.22999954      -1.42175220E-02
  -8.22000027      -1.44878132E-02
  -8.21000004      -1.46028874E-02
  -8.19999981      -1.45545304E-02
  -8.18999958      -1.43342493E-02
  -8.18000031      -1.39331231E-02
  -8.17000008      -1.33421747E-02
  -8.15999985      -1.25521561E-02
  -8.14999962      -1.15540866E-02
  -8.14000034      -1.03387097E-02
  -8.13000011      -8.89691990E-03
  -8.11999989      -7.22021563E-03
  -8.10999966      -5.30072302E-03
  -8.10000038      -3.13087506E-03
  -8.09000015      -7.04337028E-04
  -8.07999992       1.98449590E-03
  -8.06999969       4.93956171E-03
  -8.06000042       8.16422142E-03
  -8.05000019       1.16604986E-02
  -8.03999996       1.54286968E-02
  -8.02999973       1.94679145E-02
  -8.02000046       2.37761382E-02
  -8.01000023       2.83493474E-02
  -8.00000000       3.31821479E-02
  -7.98999977       3.82677503E-02
  -7.98000002       4.35979031E-02
  -7.96999979       4.91632484E-02
  -7.96000004       5.49525358E-02
  -7.94999981       6.09540567E-02
  -7.94000006       6.71545714E-02
  -7.92999983       7.35402405E-02
  -7.92000008       8.00955370E-02
  -7.90999985       8.68050978E-02
  -7.90000010       9.36517641E-02
  -7.88999987      0.100617938    
  -7.88000011      0.107685238    
  -7.86999989      0.114835128    
  -7.86000013      0.122047849    
  -7.84999990      0.129304245    
  -7.84000015      0.136584714    
  -7.82999992      0.143869355    
  -7.82000017      0.151138589    
  -7.80999994      0.158373609    
  -7.80000019      0.165555835    
  -7.78999996      0.172666833    
  -7.78000021      0.179689765    
  -7.76999998      0.186607644    
  -7.76000023      0.193405628    
  -7.75000000      0.200069204    
  -7.73999977      0.206585094    
  -7.73000002      0.212941691    
  -7.71999979      0.219128042    
  -7.71000004      0.225134060    
  -7.69999981      0.230951950    
  -7.69000006      0.236574307    
  -7.67999983      0.241995692    
  -7.67000008      0.247212276    
  -7.65999985      0.252221078    
  -7.65000010      0.257020861    
  -7.63999987      0.261612475    
  -7.63000011      0.265998125    
  -7.61999989      0.270181298    
  -7.61000013      0.274166048    
  -7.59999990      0.277959943    
  -7.59000015      0.281569332    
  -7.57999992      0.285003334    
  -7.57000017      0.288271546    
  -7.55999994      0.291384757    
  -7.55000019      0.294354588    
  -7.53999996      0.297194362    
  -7.53000021      0.299916923    
  -7.51999998      0.302536845    
  -7.51000023      0.305068046    
  -7.50000000      0.307525605    
  -7.48999977      0.309924394    
  -7.48000002      0.312279403    
  -7.46999979      0.314605027    
  -7.46000004      0.316916287    
  -7.44999981      0.319226712    
  -7.44000006      0.321550369    