  -16.0000000       0.00000000    
  -15.9899998       0.00000000    
  -15.9799995       0.00000000    
  -15.9700003       0.00000000    
  -15.9600000       0.00000000    
  -15.9499998       0.00000000    
  -15.9399996       0.00000000    
  -15.9300003       0.00000000    
  -15.9200001       0.00000000    
  -15.9099998       0.00000000    
  -15.8999996       0.00000000    
  -15.8900003       0.00000000    
  -15.8800001      -0.00000000    
  -15.8699999      -6.86636248E-43
  -15.8599997      -4.27396032E-41
  -15.8500004      -1.03412183E-39
  -15.8400002      -1.47418196E-38
  -15.8299999      -1.48191483E-37
  -15.8199997      -1.14872018E-36
  -15.8100004      -7.24287976E-36
  -15.8000002      -3.84771443E-35
  -15.7900000      -1.76510590E-34
  -15.7799997      -7.11773906E-34
  -15.7700005      -2.55659901E-33
  -15.7600002      -8.26081079E-33
  -15.7500000      -2.41870717E-32
  -15.7399998      -6.44985757E-32
  -15.7299995      -1.57121418E-31
  -15.7200003      -3.49951110E-31
  -15.7100000      -7.11327414E-31
  -15.6999998      -1.31203912E-30
  -15.6899996      -2.16915665E-30
  -15.6800003      -3.13184477E-30
  -15.6700001      -3.70858086E-30
  -15.6599998      -2.88821257E-30
  -15.6499996       9.00919183E-31
  -15.6400003       9.44424135E-30
  -15.6300001       2.37140175E-29
  -15.6199999       4.20188111E-29
  -15.6099997       5.76679338E-29
  -15.6000004       5.73382266E-29
  -15.5900002       2.23066247E-29
  -15.5799999      -6.48500214E-29
  -15.5699997      -2.06623563E-28
  -15.5600004      -3.72220941E-28
  -15.5500002      -4.82887211E-28
  -15.5400000      -4.15806108E-28
  -15.5299997      -4.33797935E-29
  -15.5200005       6.84688943E-28
  -15.5100002       1.63419162E-27
  -15.5000000       2.40883454E-27
  -15.4899998       2.38826907E-27
  -15.4799995       9.61606518E-28
  -15.4700003      -2.03982443E-27
  -15.4600000      -5.85957137E-27
  -15.4499998      -8.61110626E-27
  -15.4399996      -7.75971195E-27
  -15.4300003      -1.51941197E-27
  -15.4200001       9.15038591E-27
  -15.4099998       1.90599595E-26
  -15.3999996       1.95401879E-26
  -15.3900003       2.87642895E-27
  -15.3800001      -2.99205450E-26
  -15.3699999      -6.15922010E-26
  -15.3599997      -5.82429010E-26
  -15.3500004       1.64639077E-26
  -15.3400002       1.70380150E-25
  -15.3299999       3.45436422E-25
  -15.3199997       3.99626827E-25
  -15.3100004       1.43383112E-25
  -15.3000002      -5.46316499E-25
  -15.2900000      -1.55294734E-24
  -15.2799997      -2.37413389E-24
  -15.2700005      -2.14728688E-24
  -15.2600002       9.86559001E-27
  -15.2500000       4.31966861E-24
  -15.2399998       9.54777917E-24
  -15.2299995       1.26041024E-23
  -15.2200003       9.20803729E-24
  -15.2100000      -3.94524248E-24
  -15.1999998      -2.58466868E-23
  -15.1899996      -4.81664806E-23
  -15.1800003      -5.51188853E-23
  -15.1700001      -2.87421976E-23
  -15.1599998       3.97630072E-23
  -15.1499996       1.35948843E-22
  -15.1400003       2.13373773E-22
  -15.1300001       2.01014103E-22
  -15.1199999       3.46890318E-23
  -15.1099997      -2.90730054E-22
  -15.1000004      -6.69254395E-22
  -15.0900002      -8.69567964E-22
  -15.0799999      -5.99549131E-22
  -15.0699997       3.33088957E-22
  -15.0600004       1.80105876E-21
  -15.0500002       3.18685851E-21
  -15.0400000       3.42070485E-21
  -15.0299997       1.36696453E-21
  -15.0200005      -3.43222762E-21
  -15.0100002      -9.88631970E-21
  -15.0000000      -1.48534965E-20
  -14.9899998      -1.36358123E-20
  -14.9799995      -1.91658657E-21
  -14.9700003       2.10341044E-20
  -14.9600000       4.90255021E-20
  -14.9499998       6.75690367E-20
  -14.9399996       5.68285295E-20
  -14.9300003       2.63422643E-22
  -14.9200001      -1.02287171E-19
  -14.9099998      -2.22019412E-19
  -14.8999996      -2.97295045E-19
  -14.8900003      -2.47184056E-19
  -14.8800001      -6.68195045E-21
  -14.8699999       4.22269602E-19
  -14.8599997       9.23374997E-19
  -14.8500004       1.25282397E-18
  -14.8400002       1.09183105E-18
  -14.8299999       1.79236881E-19
  -14.8199997      -1.49797053E-18
  -14.8100004      -3.52620767E-18
  -14.8000002      -5.00801695E-18
  -14.7900000      -4.73763022E-18
  -14.7799997      -1.66362461E-18
  -14.7700005       4.43141375E-18
  -14.7600002       1.22668660E-17
  -14.7500000       1.87845587E-17
  -14.7399998       1.96450366E-17
  -14.7299995       1.07146525E-17
  -14.7200003      -9.63346701E-18
  -14.7100000      -3.81143717E-17
  -14.6999998      -6.52053573E-17
  -14.6899996      -7.62251236E-17
  -14.6800003      -5.56768256E-17
  -14.6700001       5.43742213E-18
  -14.6599998       1.01289126E-16
  -14.6499996       2.05445472E-16
  -14.6400003       2.71930187E-16
  -14.6300001       2.46422451E-16
  -14.6199999       8.77608256E-17
  -14.6099997      -2.04969307E-16
  -14.6000004      -5.69654168E-16
  -14.5900002      -8.75821003E-16
  -14.5799999      -9.48469907E-16
  -14.5699997      -6.25274534E-16
  -14.5600004       1.61980982E-16
  -14.5500002       1.30667421E-15
  -14.5400000       2.48447829E-15
  -14.5299997       3.18673488E-15
  -14.5200005       2.85310025E-15
  -14.5100002       1.09331318E-15
  -14.5000000      -2.05650240E-15
  -14.4899998      -5.93843491E-15
  -14.4799995      -9.25293963E-15
  -14.4700003      -1.03051892E-14
  -14.4600000      -7.53723967E-15
  -14.4499998      -2.51068057E-16
  -14.4399996       1.06953080E-14
  -14.4300003       2.25219793E-14
  -14.4200001       3.07930392E-14
  -14.4099998       3.04820493E-14
  -14.3999996       1.77524282E-14
  -14.3900003      -7.96379869E-15
  -14.3800001      -4.23000902E-14
  -14.3699999      -7.55451609E-14
  -14.3599997      -9.41789303E-14
  -14.3500004      -8.45541492E-14
  -14.3400002      -3.81570352E-14
  -14.3299999       4.29620058E-14
  -14.3199997       1.42621199E-13
  -14.3100004       2.30914734E-13
  -14.3000002       2.69997024E-13
  -14.2900000       2.25134391E-13
  -14.2799997       7.88908462E-14
  -14.2700005      -1.55672567E-13
  -14.2600002      -4.28047002E-13
  -14.2500000      -6.54445682E-13
  -14.2399998      -7.35661044E-13
  -14.2299995      -5.87044139E-13
  -14.2200003      -1.74143902E-13
  -14.2100000       4.56781477E-13
  -14.1999998       1.16604957E-12
  -14.1899996       1.73623821E-12
  -14.1800003       1.92053816E-12
  -14.1700001       1.51780585E-12
  -14.1599998       4.57271861E-13
  -14.1499996      -1.13308831E-12
  -14.1400003      -2.90335703E-12
  -14.1300001      -4.32586085E-12
  -14.1199999      -4.81330947E-12
  -14.1099997      -3.89443035E-12
  -14.1000004      -1.40624686E-12
  -14.0900002       2.35550555E-12
  -14.0799999       6.59001673E-12
  -14.0699997       1.00952606E-11
  -14.0600004       1.15321650E-11
  -14.0500002       9.81066617E-12
  -14.0400000       4.50816381E-12
  -14.0299997      -3.80352520E-12
  -14.0200005      -1.34520979E-11
  -14.0100002      -2.18730294E-11
  -14.0000000      -2.61523667E-11
  -13.9899998      -2.38237190E-11
  -13.9799995      -1.37399363E-11
  -13.9700003       3.22909104E-12
  -13.9600000       2.39299865E-11
  -13.9499998       4.32790505E-11
  -13.9399996       5.52807071E-11
  -13.9300003       5.45673368E-11
  -13.9200001       3.81230325E-11
  -13.9099998       6.72543531E-12
  -13.8999996      -3.43848318E-11
  -13.8900003      -7.59767319E-11
  -13.8800001      -1.06556479E-10
  -13.8699999      -1.15119830E-10
  -13.8599997      -9.43536776E-11
  -13.8500004      -4.34606170E-11
  -13.8400002       3.02703661E-11
  -13.8299999       1.11841626E-10
  -13.8199997       1.81138021E-10
  -13.8100004       2.17416446E-10
  -13.8000002       2.04789991E-10
  -13.7900000       1.37358042E-10
  -13.7799997       2.25105212E-11
  -13.7700005      -1.18802870E-10
  -13.7600002      -2.55387822E-10
  -13.7500000      -3.52351398E-10
  -13.7399998      -3.79578258E-10
  -13.7299995      -3.20119875E-10
  -13.7200003      -1.76235582E-10
  -13.7100000       2.88172975E-11
  -13.6999998       2.54223836E-10
  -13.6899996       4.49916215E-10
  -13.6800003       5.68044778E-10
  -13.6700001       5.74847447E-10
  -13.6599998       4.59803556E-10
  -13.6499996       2.39463283E-10
  -13.6400003      -4.53876173E-11
  -13.6300001      -3.38776895E-10
  -13.6199999      -5.82574822E-10
  -13.6099997      -7.30014937E-10
  -13.6000004      -7.55934482E-10
  -13.5900002      -6.60819455E-10
  -13.5799999      -4.67576589E-10
  -13.5699997      -2.12270326E-10
  -13.5600004       6.78577750E-11
  -13.5500002       3.44671708E-10
  -13.5400000       6.03652628E-10
  -13.5299997       8.40475467E-10
  -13.5200005       1.05044895E-09
  -13.5100002       1.21486332E-09
  -13.5000000       1.29046207E-09
  -13.4899998       1.20867161E-09
  -13.4799995       8.89034790E-10
  -13.4700003       2.66955735E-10
  -13.4600000      -6.69768574E-10
  -13.4499998      -1.84626370E-09
  -13.4399996      -3.08127923E-09
  -13.4300003      -4.09562473E-09
  -13.4200001      -4.55545690E-09
  -13.4099998      -4.14809742E-09
  -13.3999996      -2.67723088E-09
  -13.3900003      -1.54786101E-10
  -13.3800001       3.13832849E-09
  -13.3699999       6.64827571E-09
  -13.3599997       9.61674829E-09
  -13.3500004       1.12206360E-08
  -13.3400002       1.07615268E-08
  -13.3299999       7.86588217E-09
  -13.3199997       2.64569833E-09
  -13.3100004      -4.22938706E-09
  -13.3000002      -1.15834258E-08
  -13.2900000      -1.79169835E-08
  -13.2799997      -2.16983622E-08
  -13.2700005      -2.17074074E-08
  -13.2600002      -1.73560064E-08
  -13.2500000      -8.90503138E-09
  -13.2399998       2.48709742E-09
  -13.2299995       1.49140345E-08
  -13.2200003       2.60541491E-08
  -13.2100000       3.36245662E-08
  -13.1999998       3.58601397E-08
  -13.1899996       3.19091704E-08
  -13.1800003       2.20499707E-08
  -13.1700001       7.67295649E-09
  -13.1599998      -8.97272123E-09
  -13.1499996      -2.52115200E-08
  -13.1400003      -3.84507750E-08
  -13.1300001      -4.66472230E-08
  -13.1199999      -4.86242975E-08
  -13.1099997      -4.41757599E-08
  -13.1000004      -3.39541444E-08
  -13.0900002      -1.92022735E-08
  -13.0799999      -1.43197809E-09
  -13.0699997       1.78358661E-08
  -13.0600004       3.71826054E-08
  -13.0500002       5.52248807E-08
  -13.0400000       7.04172791E-08
  -13.0299997       8.08346741E-08
  -13.0200005       8.40847179E-08
  -13.0100002       7.74832998E-08
  -13.0000000       5.85621329E-08
  -12.9899998       2.58721808E-08
  -12.9799995      -2.00714965E-08
  -12.9700003      -7.59581127E-08
  -12.9600000      -1.35259057E-07
  -12.9499998      -1.88477884E-07
  -12.9399996      -2.24219534E-07
  -12.9300003      -2.31041923E-07
  -12.9200001      -1.99845118E-07
  -12.9099998      -1.26368107E-07
  -12.8999996      -1.32494886E-08
  -12.8900003       1.28895635E-07
  -12.8800001       2.81790932E-07
  -12.8699999       4.21392315E-07
  -12.8599997       5.21213565E-07
  -12.8500004       5.56643329E-07
  -12.8400002       5.09539348E-07
  -12.8299999       3.72274542E-07
  -12.8199997       1.50434715E-07
  -12.8100004      -1.36430685E-07
  -12.8000002      -4.56268509E-07
  -12.7900000      -7.68064808E-07
  -12.7799997      -1.02696890E-06
  -12.7700005      -1.19020433E-06
  -12.7600002      -1.22286679E-06
  -12.7500000      -1.10273243E-06
  -12.7399998      -8.23451728E-07
  -12.7299995      -3.95837617E-07
  -12.7200003       1.52742146E-07
  -12.7100000       7.80458322E-07
  -12.6999998       1.43414502E-06
  -12.6899996       2.05287051E-06
  -12.6800003       2.57160877E-06
  -12.6700001       2.92488266E-06
  -12.6599998       3.05049412E-06
  -12.6499996       2.89368427E-06
  -12.6400003       2.41204270E-06
  -12.6300001       1.58135492E-06
  -12.6199999       4.02201437E-07
  -12.6099997      -1.09333951E-06
  -12.6000004      -2.83586905E-06
  -12.5900002      -4.71511748E-06
  -12.5799999      -6.58009003E-06
  -12.5699997      -8.24381459E-06
  -12.5600004      -9.49361674E-06
  -12.5500002      -1.01063824E-05
  -12.5400000      -9.86829036E-06
  -12.5299997      -8.59703960E-06
  -12.5200005      -6.16508623E-06
  -12.5100002      -2.52135897E-06
  -12.5000000       2.29005536E-06
  -12.4899998       8.11578411E-06
  -12.4799995       1.46843786E-05
  -12.4700003       2.16035223E-05
  -12.4600000       2.83633999E-05
  -12.4499998       3.43464490E-05
  -12.4399996       3.88427543E-05
  -12.4300003       4.10744724E-05
  -12.4200001       4.02248006E-05
  -12.4099998       3.54769654E-05
  -12.3999996       2.60584984E-05
  -12.3900003       1.12911875E-05
  -12.3800001      -9.35664775E-06
  -12.3699999      -3.62173196E-05
  -12.3599997      -6.93784095E-05
  -12.3500004      -1.08643428E-04
  -12.3400002      -1.53508998E-04
  -12.3299999      -2.03153060E-04
  -12.3199997      -2.56444007E-04
  -12.3100004      -3.11962445E-04
  -12.3000002      -3.68037756E-04
  -12.2900000      -4.22799611E-04
  -12.2799997      -4.74233413E-04
  -12.2700005      -5.20246744E-04
  -12.2600002      -5.58737607E-04
  -12.2500000      -5.87667048E-04
  -12.2399998      -6.05131441E-04
  -12.2299995      -6.09427458E-04
  -12.2200003      -5.99127088E-04
  -12.2100000      -5.73124504E-04
  -12.1999998      -5.30691585E-04
  -12.1899996      -4.71498119E-04
  -12.1800003      -3.95633600E-04
  -12.1700001      -3.03594250E-04
  -12.1599998      -1.96254638E-04
  -12.1499996      -7.48284874E-05
  -12.1400003       5.91899407E-05
  -12.1300001       2.04081734E-04
  -12.1199999       3.57968442E-04
  -12.1099997       5.18867571E-04
  -12.1000004       6.84735773E-04
  -12.0900002       8.53515114E-04
  -12.0799999       1.02314982E-03
  -12.0699997       1.19161501E-03
  -12.0600004       1.35692290E-03
  -12.0500002       1.51712599E-03
  -12.0400000       1.67032308E-03
  -12.0299997       1.81464967E-03
  -12.0200005       1.94827060E-03
  -12.0100002       2.06936337E-03
  -12.0000000       2.17611832E-03
  -11.9899998       2.26670271E-03
  -11.9799995       2.33926415E-03
  -11.9700003       2.39192904E-03
  -11.9600000       2.42281030E-03
  -11.9499998       2.43004039E-03
  -11.9399996       2.41181091E-03
  -11.9300003       2.36643292E-03
  -11.9200001       2.29240721E-03
  -11.9099998       2.18850980E-03
  -11.8999996       2.05383403E-03
  -11.8900003       1.88787817E-03
  -11.8800001       1.69056945E-03
  -11.8699999       1.46228774E-03
  -11.8599997       1.20387156E-03
  -11.8500004       9.16587305E-04
  -11.8400002       6.02105225E-04
  -11.8299999       2.62446760E-04
  -11.8199997      -1.00053941E-04
  -11.8100004      -4.82802949E-04
  -11.8000002      -8.82972148E-04
  -11.7900000      -1.29753968E-03
  -11.7799997      -1.72330928E-03
  -11.7700005      -2.15692725E-03
  -11.7600002      -2.59489636E-03
  -11.7500000      -3.03360471E-03
  -11.7399998      -3.46933142E-03
  -11.7299995      -3.89828580E-03
  -11.7200003      -4.31664521E-03
  -11.7100000      -4.72057750E-03
  -11.6999998      -5.10630291E-03
  -11.6899996      -5.47010638E-03
  -11.6800003      -5.80839999E-03
  -11.6700001      -6.11772342E-03
  -11.6599998      -6.39477884E-03
  -11.6499996      -6.63643517E-03
  -11.6400003      -6.83974568E-03
  -11.6300001      -7.00194528E-03
  -11.6199999      -7.12045189E-03
  -11.6099997      -7.19289389E-03
  -11.6000004      -7.21708825E-03
  -11.5900002      -7.19108013E-03
  -11.5799999      -7.11309025E-03
  -11.5699997      -6.98158471E-03
  -11.5600004      -6.79518422E-03
  -11.5500002      -6.55270275E-03
  -11.5400000      -6.25312934E-03
  -11.5299997      -5.89558994E-03
  -11.5200005      -5.47940657E-03
  -11.5100002      -5.00409584E-03
  -11.5000000      -4.46942402E-03
  -11.4899998      -3.87547933E-03
  -11.4799995      -3.22273583E-03
  -11.4700003      -2.51213973E-03
  -11.4600000      -1.74512877E-03
  -11.4499998      -9.23681771E-04
  -11.4399996      -5.02734983E-05
  -11.4300003       8.72167409E-04
  -11.4200001       1.84034614E-03
  -11.4099998       2.85070576E-03
  -11.3999996       3.89956101E-03
  -11.3900003       4.98318532E-03
  -11.3800001       6.09790673E-03
  -11.3699999       7.24017899E-03
  -11.3599997       8.40658974E-03
  -11.3500004       9.59388725E-03
  -11.3400002       1.07989591E-02
  -11.3299999       1.20188249E-02
  -11.3199997       1.32505968E-02
  -11.3100004       1.44914463E-02
  -11.3000002       1.57385841E-02
  -11.2900000       1.69892386E-02
  -11.2799997       1.82406139E-02
  -11.2700005       1.94898602E-02
  -11.2600002       2.07340904E-02
  -11.2500000       2.19702870E-02
  -11.2399998       2.31954046E-02
  -11.2299995       2.44063567E-02
  -11.2200003       2.56000720E-02
  -11.2100000       2.67735869E-02
  -11.1999998       2.79241465E-02
  -11.1899996       2.90492084E-02
  -11.1800003       3.01466770E-02
  -11.1700001       3.12147625E-02
  -11.1599998       3.22520658E-02
  -11.1499996       3.32575552E-02
  -11.1400003       3.42303999E-02
  -11.1300001       3.51700485E-02
  -11.1199999       3.60759459E-02
  -11.1099997       3.69476639E-02
  -11.1000004       3.77847590E-02
  -11.0900002       3.85867693E-02
  -11.0799999       3.93533260E-02
  -11.0699997       4.00841087E-02
  -11.0600004       4.07789648E-02
  -11.0500002       4.14378196E-02
  -11.0400000       4.20608222E-02
  -11.0299997       4.26482186E-02
  -11.0200005       4.32003774E-02
  -11.0100002       4.37177531E-02
  -11.0000000       4.42008115E-02
  -10.9899998       4.46500406E-02
  -10.9799995       4.50659767E-02
  -10.9700003       4.54490893E-02
  -10.9600000       4.57999706E-02
  -10.9499998       4.61191759E-02
  -10.9399996       4.64072116E-02
  -10.9300003       4.66645509E-02
  -10.9200001       4.68915179E-02
  -10.9099998       4.70882133E-02
  -10.8999996       4.72544692E-02
  -10.8900003       4.73897494E-02
  -10.8800001       4.74931635E-02
  -10.8699999       4.75635417E-02
  -10.8599997       4.75994349E-02
  -10.8500004       4.75993082E-02
  -10.8400002       4.75615263E-02
  -10.8299999       4.74846661E-02
  -10.8199997       4.73674424E-02
  -10.8100004       4.72089127E-02
  -10.8000002       4.70085219E-02
  -10.7900000       4.67660092E-02
  -10.7799997       4.64815125E-02
  -10.7700005       4.61554751E-02
  -10.7600002       4.57885936E-02
  -10.7500000       4.53817844E-02
  -10.7399998       4.49361056E-02
  -10.7299995       4.44528088E-02
  -10.7200003       4.39332239E-02
  -10.7100000       4.33787443E-02
  -10.6999998       4.27909046E-02
  -10.6899996       4.21713442E-02
  -10.6800003       4.15216722E-02
  -10.6700001       4.08436209E-02
  -10.6599998       4.01389375E-02
  -10.6499996       3.94092984E-02
  -10.6400003       3.86564694E-02
  -10.6300001       3.78820859E-02
  -10.6199999       3.70879360E-02
  -10.6099997       3.62758562E-02
  -10.6000004       3.54480222E-02
  -10.5900002       3.46067771E-02
  -10.5799999       3.37549970E-02
  -10.5699997       3.28959450E-02
  -10.5600004       3.20333615E-02
  -10.5500002       3.11712604E-02
  -10.5400000       3.03139370E-02
  -10.5299997       2.94657145E-02
  -10.5200005       2.86308751E-02
  -10.5100002       2.78134160E-02
  -10.5000000       2.70170346E-02
  -10.4899998       2.62450278E-02
  -10.4799995       2.55002696E-02
  -10.4700003       2.47853044E-02
  -10.4600000       2.41022576E-02
  -10.4499998       2.34530363E-02
  -10.4399996       2.28391271E-02
  -10.4300003       2.22616754E-02
  -10.4200001       2.17215624E-02
  -10.4099998       2.12193634E-02
  -10.3999996       2.07552686E-02
  -10.3900003       2.03292444E-02
  -10.3800001       1.99411325E-02
  -10.3699999       1.95905548E-02
  -10.3599997       1.92771442E-02
  -10.3500004       1.90004762E-02
  -10.3400002       1.87600981E-02
  -10.3299999       1.85555089E-02
  -10.3199997       1.83860399E-02
  -10.3100004       1.82509515E-02
  -10.3000002       1.81492195E-02
  -10.2900000       1.80796403E-02
  -10.2799997       1.80409234E-02
  -10.2700005       1.80315524E-02
  -10.2600002       1.80500336E-02
  -10.2500000       1.80949010E-02
  -10.2399998       1.81646552E-02
  -10.2299995       1.82580352E-02
  -10.2200003       1.83737818E-02
  -10.2100000       1.85108259E-02
  -10.1999998       1.86682586E-02
  -10.1899996       1.88452099E-02
  -10.1800003       1.90410502E-02
  -10.1700001       1.92551278E-02
  -10.1599998       1.94870289E-02
  -10.1499996       1.97363850E-02
  -10.1400003       2.00030040E-02
  -10.1300001       2.02868022E-02
  -10.1199999       2.05880087E-02
  -10.1099997       2.09067762E-02
  -10.1000004       2.12438125E-02
  -10.0900002       2.15996765E-02
  -10.0799999       2.19753310E-02
  -10.0699997       2.23717727E-02
  -10.0600004       2.27899961E-02
  -10.0500002       2.32310500E-02
  -10.0400000       2.36956086E-02
  -10.0299997       2.41842791E-02
  -10.0200005       2.46972702E-02
  -10.0100002       2.52345577E-02
  -10.0000000       2.57960577E-02
  -9.98999977       2.63813585E-02
  -9.97999954       2.69901939E-02
  -9.97000027       2.76221931E-02
  -9.96000004       2.82772183E-02
  -9.94999981       2.89552920E-02
  -9.93999958       2.96563078E-02
  -9.93000031       3.03804372E-02
  -9.92000008       3.11277695E-02
  -9.90999985       3.18985507E-02
  -9.89999962       3.26929130E-02
  -9.89000034       3.35110947E-02
  -9.88000011       3.43534239E-02
  -9.86999989       3.52201648E-02
  -9.85999966       3.61116491E-02
  -9.85000038       3.70280966E-02
  -9.84000015       3.79697643E-02
  -9.82999992       3.89367118E-02
  -9.81999969       3.99289541E-02
  -9.81000042       4.09464687E-02
  -9.80000019       4.19893302E-02
  -9.78999996       4.30576690E-02
  -9.77999973       4.41518798E-02
  -9.77000046       4.52725887E-02
  -9.76000023       4.64206338E-02
  -9.75000000       4.75970767E-02
  -9.73999977       4.88030128E-02
  -9.72999954       5.00394292E-02
  -9.72000027       5.13075329E-02
  -9.71000004       5.26080467E-02
  -9.69999981       5.39417081E-02
  -9.68999958       5.53089678E-02
  -9.68000031       5.67100719E-02
  -9.67000008       5.81448562E-02
  -9.65999985       5.96129857E-02
  -9.64999962       6.11134283E-02
  -9.64000034       6.26447573E-02
  -9.63000011       6.42051920E-02
  -9.61999989       6.57920912E-02
  -9.60999966       6.74026459E-02
  -9.60000038       6.90335706E-02
  -9.59000015       7.06816390E-02
  -9.57999992       7.23432824E-02
  -9.56999969       7.40149915E-02
  -9.56000042       7.56936148E-02
  -9.55000019       7.73760602E-02
  -9.53999996       7.90592507E-02
  -9.52999973       8.07405189E-02
  -9.52000046       8.24169293E-02
  -9.51000023       8.40857252E-02
  -9.50000000       8.57442543E-02
  -9.48999977       8.73901397E-02
  -9.47999954       8.90207589E-02
  -9.47000027       9.06340405E-02
  -9.46000004       9.22280177E-02
  -9.44999981       9.38009843E-02
  -9.43999958       9.53517854E-02
  -9.43000031       9.68794301E-02
  -9.42000008       9.83830690E-02
  -9.40999985       9.98624116E-02
  -9.39999962      0.101317495    
  -9.39000034      0.102748737    
  -9.38000011      0.104156829    
  -9.36999989      0.105543025    
  -9.35999966      0.106908932    
  -9.35000038      0.108256526    
  -9.34000015      0.109588750    
  -9.32999992      0.110908419    
  -9.31999969      0.112219304    
  -9.31000042      0.113525346    
  -9.30000019      0.114831120    
  -9.28999996      0.116141118    
  -9.27999973      0.117460348    
  -9.27000046      0.118793957    
  -9.26000023      0.120147020    
  -9.25000000      0.121524781    
  -9.23999977      0.122932255    
  -9.22999954      0.124374710    
  -9.22000027      0.125856653    
  -9.21000004      0.127382606    
  -9.19999981      0.128956944    
  -9.18999958      0.130582795    
  -9.18000031      0.132263571    
  -9.17000008      0.134001434    
  -9.15999985      0.135797828    
  -9.14999962      0.137653366    
  -9.14000034      0.139568314    
  -9.13000011      0.141541883    
  -9.11999989      0.143572405    
  -9.10999966      0.145658001    
  -9.10000038      0.147796065    
  -9.09000015      0.149983793    
  -9.07999992      0.152217776    
  -9.06999969      0.154494584    
  -9.06000042      0.156810209    
  -9.05000019      0.159161031    
  -9.03999996      0.161543116    
  -9.02999973      0.163951829    
  -9.02000046      0.166382998    
  -9.01000023      0.168831840    
  -9.00000000      0.171293527    
  -8.98999977      0.173762903    
  -8.97999954      0.176234752    
  -8.97000027      0.178703994    
  -8.96000004      0.181165516    
  -8.94999981      0.183614179    
  -8.93999958      0.186045766    
  -8.93000031      0.188455641    
  -8.92000008      0.190839648    
  -8.90999985      0.193194404    
  -8.89999962      0.195516169    
  -8.89000034      0.197801813    
  -8.88000011      0.200048745    
  -8.86999989      0.202254206    
  -8.85999966      0.204416677    
  -8.85000038      0.206534848    
  -8.84000015      0.208607614    
  -8.82999992      0.210634932    
  -8.81999969      0.212616935    
  -8.81000042      0.214553982    
  -8.80000019      0.216447011    
  -8.78999996      0.218296871    
  -8.77999973      0.220105410    
  -8.77000046      0.221874073    
  -8.76000023      0.223605976    
  -8.75000000      0.225304112    
  -8.73999977      0.226972595    
  -8.72999954      0.228615925    
  -8.72000027      0.230239600    
  -8.71000004      0.231848642    
  -8.69999981      0.233450189    
  -8.68999958      0.235049665    
  -8.68000031      0.236654714    
  -8.67000008      0.238272145    
  -8.65999985      0.239910379    
  -8.64999962      0.241576761    
  -8.64000034      0.243280247    
  -8.63000011      0.245028615    
  -8.61999989      0.246828943    
  -8.60999966      0.248688385    
  -8.60000038      0.250612706    
  -8.59000015      0.252606064    
  -8.57999992      0.254672289    
  -8.56999969      0.256813407    
  -8.56000042      0.259031117    
  -8.55000019      0.261325479    
  -8.53999996      0.263696253    
  -8.52999973      0.266143084    
  -8.52000046      0.268664241    
  -8.51000023      0.271257997    
  -8.50000000      0.273921490    
  -8.48999977      0.276652277    
  -8.47999954      0.279447824    
  -8.47000027      0.282305568    
  -8.46000004      0.285222590    
  -8.44999981      0.288196594    
  -8.43999958      0.291225970    
  -8.43000031      0.294307977    
  -8.42000008      0.297441244    
  -8.40999985      0.300623596    
  -8.39999962      0.303853989    
  -8.39000034      0.307131886    
  -8.38000011      0.310456187    
  -8.36999989      0.313828528    
  -8.35999966      0.317249656    
  -8.35000038      0.320722282    
  -8.34000015      0.324249208    
  -8.32999992      0.327833116    
  -8.31999969      0.331477314    
  -8.31000042      0.335184097    
  -8.30000019      0.338955939    
  -8.28999996      0.342795074    
  -8.27999973      0.346703857    
  -8.27000046      0.350683540    
  -8.26000023      0.354737073    
  -8.25000000      0.358864993    
  -8.23999977      0.363069534    
  -8.22999954      0.367350191    
  -8.22000027      0.371707886    
  -8.21000004      0.376140118    
  -8.19999981      0.380645931    
  -8.18999958      0.385221899    
  -8.18000031      0.389864922    
  -8.17000008      0.394572020    
  -8.15999985      0.399339527    
  -8.14999962      0.404164135    
  -8.14000034      0.409043103    
  -8.13000011      0.413972139    
  -8.11999989      0.418948442    
  -8.10999966      0.423967183    
  -8.10000038      0.429024816    
  -8.09000015      0.434117556    
  -8.07999992      0.439241230    
  -8.06999969      0.444391668    
  -8.06000042      0.449565798    
  -8.05000019      0.454759836    
  -8.03999996      0.459970802    
  -8.02999973      0.465194076    
  -8.02000046      0.470425308    
  -8.01000023      0.475660741    
  -8.00000000      0.480893880    
  -7.98999977      0.486119032    
  -7.98000002      0.491330951    
  -7.96999979      0.496522516    
  -7.96000004      0.501687825    
  -7.94999981      0.506820083    
  -7.94000006      0.511912763    
  -7.92999983      0.516958773    
  -7.92000008      0.521950781    
  -7.90999985      0.526881695    
  -7.90000010      0.531744897    
  -7.88999987      0.536533356    
  -7.88000011      0.541241825    
  -7.86999989      0.545865536    
  -7.86000013      0.550400078    
  -7.84999990      0.554842472    
  -7.84000015      0.559191048    
  -7.82999992      0.563443542    
  -7.82000017      0.567600310    
  -7.80999994      0.571661174    
  -7.80000019      0.575627387    
  -7.78999996      0.579500437    
  -7.78000021      0.583284199    
  -7.76999998      0.586982787    
  -7.76000023      0.590600133    
  -7.75000000      0.594141781    
  -7.73999977      0.597614467    
  -7.73000002      0.601024270    
  -7.71999979      0.604377806    
  -7.71000004      0.607680798    
  -7.69999981      0.610941112    
  -7.69000006      0.614165545    
  -7.67999983      0.617362022    
  -7.67000008      0.620538175    
  -7.65999985      0.623703301    
  -7.65000010      0.626866043    
  -7.63999987      0.630034745    
  -7.63000011      0.633219957    
  -7.61999989      0.636431098    
  -7.61000013      0.639677882    
  -7.59999990      0.642969728    
  -7.59000015      0.646317244    
  -7.57999992      0.649730146    
  -7.57000017      0.653219402    
  -7.55999994      0.656795025    
  -7.55000019      0.660467386    
  -7.53999996      0.664247036    
  -7.53000021      0.668143868    
  -7.51999998      0.672169447    
  -7.51000023      0.676332593    
  -7.50000000      0.680643857    
  -7.48999977      0.685111821    
  -7.48000002      0.689746439    
  -7.46999979      0.694557071    
  -7.46000004      0.699550271    
  -7.44999981      0.704735160    
  -7.44000006      0.710119247    