  -16.0000000       0.00000000    
  -15.9899998       0.00000000    
  -15.9799995       0.00000000    
  -15.9700003       0.00000000    
  -15.9600000       0.00000000    
  -15.9499998       0.00000000    
  -15.9399996       0.00000000    
  -15.9300003       0.00000000    
  -15.9200001       0.00000000    
  -15.9099998       0.00000000    
  -15.8999996       0.00000000    
  -15.8900003       0.00000000    
  -15.8800001      -3.50324616E-44
  -15.8699999      -1.68576205E-42
  -15.8599997      -2.79797264E-41
  -15.8500004      -2.72209233E-40
  -15.8400002      -1.85670365E-39
  -15.8299999      -9.62896214E-39
  -15.8199997      -3.92136027E-38
  -15.8100004      -1.23829763E-37
  -15.8000002      -2.70767566E-37
  -15.7900000      -1.40852154E-37
  -15.7799997       2.27498712E-36
  -15.7700005       1.47696302E-35
  -15.7600002       6.11668313E-35
  -15.7500000       2.01812383E-34
  -15.7399998       5.64598753E-34
  -15.7299995       1.37161043E-33
  -15.7200003       2.91329487E-33
  -15.7100000       5.37454862E-33
  -15.6999998       8.38606486E-33
  -15.6899996       1.02323485E-32
  -15.6800003       6.90042661E-33
  -15.6700001      -8.32192548E-33
  -15.6599998      -4.32732267E-32
  -15.6499996      -1.01451898E-31
  -15.6400003      -1.71349190E-31
  -15.6300001      -2.12250081E-31
  -15.6199999      -1.44554678E-31
  -15.6099997       1.38086638E-31
  -15.6000004       7.09896132E-31
  -15.5900002       1.48718317E-30
  -15.5799999       2.04989626E-30
  -15.5699997       1.50517077E-30
  -15.5600004      -1.39100441E-30
  -15.5500002      -7.53590432E-30
  -15.5400000      -1.59532872E-29
  -15.5299997      -2.16397413E-29
  -15.5200005      -1.40017996E-29
  -15.5100002       2.14805076E-29
  -15.5000000       9.47698366E-29
  -15.4899998       1.93645864E-28
  -15.4799995       2.60333006E-28
  -15.4700003       1.76940601E-28
  -15.4600000      -2.12189211E-28
  -15.4499998      -1.00727147E-27
  -15.4399996      -2.07391243E-27
  -15.4300003      -2.82360994E-27
  -15.4200001      -2.10284221E-27
  -15.4099998       1.55312171E-27
  -15.3999996       9.02906002E-27
  -15.3900003       1.90392951E-26
  -15.3800001       2.63211853E-26
  -15.3699999       2.09222383E-26
  -15.3599997      -9.37501559E-27
  -15.3500004      -7.15582383E-26
  -15.3400002      -1.54801331E-25
  -15.3299999      -2.17055448E-25
  -15.3199997      -1.80987717E-25
  -15.3100004       4.60256858E-26
  -15.3000002       5.15331176E-25
  -15.2900000       1.14628540E-24
  -15.2799997       1.63410742E-24
  -15.2700005       1.42776034E-24
  -15.2600002      -1.24646827E-25
  -15.2500000      -3.38676959E-24
  -15.2399998      -7.82908713E-24
  -15.2299995      -1.14320287E-23
  -15.2200003      -1.05582256E-23
  -15.2100000      -8.96859119E-25
  -15.1999998       2.00767514E-23
  -15.1899996       4.93383745E-23
  -15.1800003       7.46371279E-23
  -15.1700001       7.36545985E-23
  -15.1599998       1.95049030E-23
  -15.1499996      -1.04927411E-22
  -15.1400003      -2.85090469E-22
  -15.1300001      -4.53145382E-22
  -15.1199999      -4.81880114E-22
  -15.1099997      -2.13356886E-22
  -15.1000004       4.64010004E-22
  -15.0900002       1.49618929E-21
  -15.0799999       2.54246442E-21
  -15.0699997       2.93120295E-21
  -15.0600004       1.79179337E-21
  -15.0500002      -1.56405334E-21
  -15.0400000      -7.03524058E-21
  -15.0299997      -1.30879635E-20
  -15.0200005      -1.64531297E-20
  -15.0100002      -1.26494471E-20
  -15.0000000       2.28919367E-21
  -14.9899998       2.89344999E-20
  -14.9799995       6.12382681E-20
  -14.9700003       8.46379216E-20
  -14.9600000       7.77229696E-20
  -14.9499998       1.93386636E-20
  -14.9399996      -9.87493514E-20
  -14.9300003      -2.56695496E-19
  -14.9200001      -3.95818693E-19
  -14.9099998      -4.21871625E-19
  -14.8999996      -2.31150246E-19
  -14.8900003       2.38201728E-19
  -14.8800001       9.39881800E-19
  -14.8699999       1.66417707E-18
  -14.8599997       2.03251532E-18
  -14.8500004       1.58067122E-18
  -14.8400002      -5.17338401E-20
  -14.8299999      -2.85335828E-18
  -14.8199997      -6.18441502E-18
  -14.8100004      -8.67569939E-18
  -14.8000002      -8.44267931E-18
  -14.7900000      -3.71390943E-18
  -14.7799997       6.17839687E-18
  -14.7700005       1.97200139E-17
  -14.7600002       3.25446337E-17
  -14.7500000       3.77751515E-17
  -14.7399998       2.78450964E-17
  -14.7299995      -2.18529785E-18
  -14.7200003      -5.05425585E-17
  -14.7100000      -1.05429185E-16
  -14.6999998      -1.44581007E-16
  -14.6899996      -1.39623124E-16
  -14.6800003      -6.59567152E-17
  -14.6700001       8.33325506E-17
  -14.6599998       2.83843520E-16
  -14.6499996       4.73104959E-16
  -14.6400003       5.57742979E-16
  -14.6300001       4.38986789E-16
  -14.6199999       5.48103605E-17
  -14.6099997      -5.71596679E-16
  -14.6000004      -1.29573319E-15
  -14.5900002      -1.85098256E-15
  -14.5799999      -1.90197903E-15
  -14.5699997      -1.15637584E-15
  -14.5600004       4.84656953E-16
  -14.5500002       2.78393620E-15
  -14.5400000       5.10012344E-15
  -14.5299997       6.46025168E-15
  -14.5200005       5.81016406E-15
  -14.5100002       2.42110117E-15
  -14.5000000      -3.64657679E-15
  -14.4899998      -1.11919852E-14
  -14.4799995      -1.78344583E-14
  -14.4700003      -2.04457372E-14
  -14.4600000      -1.60872207E-14
  -14.4499998      -3.29117299E-15
  -14.4399996       1.66876553E-14
  -14.4300003       3.91723668E-14
  -14.4200001       5.64360367E-14
  -14.4099998       5.94499425E-14
  -14.3999996       4.08844406E-14
  -14.3900003      -1.31207331E-15
  -14.3800001      -6.09327449E-14
  -14.3699999      -1.22538915E-13
  -14.3599997      -1.63667365E-13
  -14.3500004      -1.60605063E-13
  -14.3400002      -9.68831542E-14
  -14.3299999       2.77265851E-14
  -14.3199997       1.90944089E-13
  -14.3100004       3.47817234E-13
  -14.3000002       4.38942855E-13
  -14.2900000       4.07009685E-13
  -14.2799997       2.18463851E-13
  -14.2700005      -1.15911783E-13
  -14.2600002      -5.29422101E-13
  -14.2500000      -9.04147796E-13
  -14.2399998      -1.09560744E-12
  -14.2299995      -9.75049360E-13
  -14.2200003      -4.79914773E-13
  -14.2100000       3.42906882E-13
  -14.1999998       1.31859215E-12
  -14.1899996       2.16478810E-12
  -14.1800003       2.55553369E-12
  -14.1700001       2.21940370E-12
  -14.1599998       1.04793528E-12
  -14.1499996      -8.20006498E-13
  -14.1400003      -2.97359815E-12
  -14.1300001      -4.79016479E-12
  -14.1199999      -5.58287661E-12
  -14.1099997      -4.80988686E-12
  -14.1000004      -2.29118027E-12
  -14.0900002       1.63703567E-12
  -14.0799999       6.09740296E-12
  -14.0699997       9.81660586E-12
  -14.0600004       1.14349996E-11
  -14.0500002       9.91959639E-12
  -14.0400000       4.97119316E-12
  -14.0299997      -2.70689612E-12
  -14.0200005      -1.13962069E-11
  -14.0100002      -1.86681781E-11
  -14.0000000      -2.19801070E-11
  -13.9899998      -1.94370284E-11
  -13.9799995      -1.05156639E-11
  -13.9700003       3.48338459E-12
  -13.9600000       1.94511785E-11
  -13.9499998       3.30428289E-11
  -13.9399996       3.97404748E-11
  -13.9300003       3.61767387E-11
  -13.9200001       2.13655014E-11
  -13.9099998      -2.54986462E-12
  -13.8999996      -3.03443659E-11
  -13.8900003      -5.46842432E-11
  -13.8800001      -6.78977360E-11
  -13.8699999      -6.41568326E-11
  -13.8599997      -4.14954286E-11
  -13.8500004      -3.04342012E-12
  -13.8400002       4.30133464E-11
  -13.8299999       8.49415885E-11
  -13.8199997       1.10233572E-10
  -13.8100004       1.09041519E-10
  -13.8000002       7.73880543E-11
  -13.7900000       1.91995933E-11
  -13.7799997      -5.35914091E-11
  -13.7700005      -1.23186294E-10
  -13.7600002      -1.70017209E-10
  -13.7500000      -1.77921095E-10
  -13.7399998      -1.39084466E-10
  -13.7299995      -5.73415031E-11
  -13.7200003       5.13152645E-11
  -13.7100000       1.61515190E-10
  -13.6999998       2.44223919E-10
  -13.6899996       2.74165135E-10
  -13.6800003       2.37094067E-10
  -13.6700001       1.34885506E-10
  -13.6599998      -1.32228204E-11
  -13.6499996      -1.73998385E-10
  -13.6400003      -3.07742165E-10
  -13.6300001      -3.78299420E-10
  -13.6199999      -3.62994274E-10
  -13.6099997      -2.59691657E-10
  -13.6000004      -8.87424995E-11
  -13.5900002       1.11162170E-10
  -13.5799999       2.92512264E-10
  -13.5699997       4.11508744E-10
  -13.5600004       4.40131764E-10
  -13.5500002       3.74122844E-10
  -13.5400000       2.34205599E-10
  -13.5299997       5.97607727E-11
  -13.5200005      -1.03493783E-10
  -13.5100002      -2.18180418E-10
  -13.5000000      -2.67528333E-10
  -13.4899998      -2.60788391E-10
  -13.4799995      -2.29220809E-10
  -13.4700003      -2.13079249E-10
  -13.4600000      -2.43291914E-10
  -13.4499998      -3.24030913E-10
  -13.4399996      -4.23081820E-10
  -13.4300003      -4.75341988E-10
  -13.4200001      -4.01037897E-10
  -13.4099998      -1.35258083E-10
  -13.3999996       3.39377609E-10
  -13.3900003       9.67989022E-10
  -13.3800001       1.61742575E-09
  -13.3699999       2.09576956E-09
  -13.3599997       2.19709362E-09
  -13.3500004       1.76286641E-09
  -13.3400002       7.44169892E-10
  -13.3299999      -7.54645679E-10
  -13.3199997      -2.46835441E-09
  -13.3100004      -4.00909750E-09
  -13.3000002      -4.94820096E-09
  -13.2900000      -4.92582863E-09
  -13.2799997      -3.76172782E-09
  -13.2700005      -1.53552904E-09
  -13.2600002       1.39116563E-09
  -13.2500000       4.42619230E-09
  -13.2399998       6.86824153E-09
  -13.2299995       8.07441847E-09
  -13.2200003       7.63376917E-09
  -13.2100000       5.49972468E-09
  -13.1999998       2.04003592E-09
  -13.1899996      -2.01905226E-09
  -13.1800003      -5.75069015E-09
  -13.1700001      -8.25469648E-09
  -13.1599998      -8.89841889E-09
  -13.1499996      -7.50561124E-09
  -13.1400003      -4.43541914E-09
  -13.1300001      -5.18526722E-10
  -13.1199999       3.14547477E-09
  -13.1099997       5.48557200E-09
  -13.1000004       5.77607562E-09
  -13.0900002       3.88341803E-09
  -13.0799999       3.64060754E-10
  -13.0699997      -3.63150998E-09
  -13.0600004      -6.64322286E-09
  -13.0500002      -7.31412131E-09
  -13.0400000      -4.82725149E-09
  -13.0299997       7.56866680E-10
  -13.0200005       8.37268388E-09
  -13.0100002       1.60967843E-08
  -13.0000000       2.15652296E-08
  -12.9899998       2.25803234E-08
  -12.9799995       1.77631652E-08
  -12.9700003       7.07765135E-09
  -12.9600000      -7.93461030E-09
  -12.9499998      -2.43103724E-08
  -12.9399996      -3.82203744E-08
  -12.9300003      -4.58276652E-08
  -12.9200001      -4.42608901E-08
  -12.9099998      -3.24643317E-08
  -12.8999996      -1.16940742E-08
  -12.8900003       1.45018841E-08
  -12.8800001       4.08651317E-08
  -12.8699999       6.14772944E-08
  -12.8599997       7.10621464E-08
  -12.8500004       6.62442616E-08
  -12.8400002       4.64613024E-08
  -12.8299999       1.42961909E-08
  -12.8199997      -2.48741650E-08
  -12.8100004      -6.38543227E-08
  -12.8000002      -9.50193950E-08
  -12.7900000      -1.11805875E-07
  -12.7799997      -1.09969235E-07
  -12.7700005      -8.83363072E-08
  -12.7600002      -4.89131544E-08
  -12.7500000       3.62412633E-09
  -12.7399998       6.28739087E-08
  -12.7299995       1.21808142E-07
  -12.7200003       1.73731635E-07
  -12.7100000       2.12882185E-07
  -12.6999998       2.34593855E-07
  -12.6899996       2.35112594E-07
  -12.6800003       2.11290583E-07
  -12.6700001       1.60448323E-07
  -12.6599998       8.06555462E-08
  -12.6499996      -2.84552719E-08
  -12.6400003      -1.64430048E-07
  -12.6300001      -3.20584633E-07
  -12.6199999      -4.84895281E-07
  -12.6099997      -6.39676557E-07
  -12.6000004      -7.62437423E-07
  -12.5900002      -8.28078953E-07
  -12.5799999      -8.12284782E-07
  -12.5699997      -6.95638278E-07
  -12.5600004      -4.67752983E-07
  -12.5500002      -1.30603937E-07
  -12.5400000       2.99668869E-07
  -12.5299997       7.92955802E-07
  -12.5200005       1.30745582E-06
  -12.5100002       1.79370159E-06
  -12.5000000       2.19963613E-06
  -12.4899998       2.47583876E-06
  -12.4799995       2.58000409E-06
  -12.4700003       2.47997559E-06
  -12.4600000       2.15502314E-06
  -12.4499998       1.59547437E-06
  -12.4399996       8.01207079E-07
  -12.4300003      -2.20251081E-07
  -12.4200001      -1.45524245E-06
  -12.4099998      -2.88455544E-06
  -12.3999996      -4.48285664E-06
  -12.3900003      -6.21723620E-06
  -12.3800001      -8.04550200E-06
  -12.3699999      -9.91508205E-06
  -12.3599997      -1.17633608E-05
  -12.3500004      -1.35199598E-05
  -12.3400002      -1.51109989E-05
  -12.3299999      -1.64648027E-05
  -12.3199997      -1.75180194E-05
  -12.3100004      -1.82208623E-05
  -12.3000002      -1.85402878E-05
  -12.2900000      -1.84602632E-05
  -12.2799997      -1.79789713E-05
  -12.2700005      -1.71036136E-05
  -12.2600002      -1.58440362E-05
  -12.2500000      -1.42069366E-05
  -12.2399998      -1.21922767E-05
  -12.2299995      -9.79316064E-06
  -12.2200003      -6.99963402E-06
  -12.2100000      -3.80582924E-06
  -12.1999998      -2.19045049E-07
  -12.1899996       3.73132730E-06
  -12.1800003       7.98719884E-06
  -12.1700001       1.24593971E-05
  -12.1599998       1.70303974E-05
  -12.1499996       2.15622076E-05
  -12.1400003       2.59080534E-05
  -12.1300001       2.99259573E-05
  -12.1199999       3.34917022E-05
  -12.1099997       3.65089109E-05
  -12.1000004       3.89147317E-05
  -12.0900002       4.06804502E-05
  -12.0799999       4.18076124E-05
  -12.0699997       4.23209640E-05
  -12.0600004       4.22601588E-05
  -12.0500002       4.16721341E-05
  -12.0400000       4.06054605E-05
  -12.0299997       3.91075009E-05
  -12.0200005       3.72239228E-05
  -12.0100002       3.49999173E-05
  -12.0000000       3.24815228E-05
  -11.9899998       2.97161059E-05
  -11.9799995       2.67511095E-05
  -11.9700003       2.36309133E-05
  -11.9600000       2.03925701E-05
  -11.9499998       1.70615112E-05
  -11.9399996       1.36485769E-05
  -11.9300003       1.01495443E-05
  -11.9200001       6.54776295E-06
  -11.9099998       2.81972416E-06
  -11.8999996      -1.05738343E-06
  -11.8900003      -5.09751089E-06
  -11.8800001      -9.29872931E-06
  -11.8699999      -1.36388117E-05
  -11.8599997      -1.80743227E-05
  -11.8500004      -2.25434396E-05
  -11.8400002      -2.69718166E-05
  -11.8299999      -3.12803022E-05
  -11.8199997      -3.53928408E-05
  -11.8100004      -3.92431029E-05
  -11.8000002      -4.27786108E-05
  -11.7900000      -4.59618605E-05
  -11.7799997      -4.87686266E-05
  -11.7700005      -5.11841972E-05
  -11.7600002      -5.31987316E-05
  -11.7500000      -5.48029566E-05
  -11.7399998      -5.59852160E-05
  -11.7299995      -5.67303287E-05
  -11.7200003      -5.70203338E-05
  -11.7100000      -5.68364630E-05
  -11.6999998      -5.61617198E-05
  -11.6899996      -5.49830111E-05
  -11.6800003      -5.32924278E-05
  -11.6700001      -5.10874343E-05
  -11.6599998      -4.83702897E-05
  -11.6499996      -4.51473825E-05
  -11.6400003      -4.14292917E-05
  -11.6300001      -3.72321010E-05
  -11.6199999      -3.25801993E-05
  -11.6099997      -2.75101484E-05
  -11.6000004      -2.20745369E-05
  -11.5900002      -1.63445657E-05
  -11.5799999      -1.04100554E-05
  -11.5699997      -4.37593553E-06
  -11.5600004       1.64479457E-06
  -11.5500002       7.54096754E-06
  -11.5400000       1.32142659E-05
  -11.5299997       1.85892968E-05
  -11.5200005       2.36205506E-05
  -11.5100002       2.82946257E-05
  -11.5000000       3.26270747E-05
  -11.4899998       3.66544555E-05
  -11.4799995       4.04230814E-05
  -11.4700003       4.39769938E-05
  -11.4600000       4.73475920E-05
  -11.4499998       5.05470452E-05
  -11.4399996       5.35667168E-05
  -11.4300003       5.63804388E-05
  -11.4200001       5.89514966E-05
  -11.4099998       6.12412914E-05
  -11.3999996       6.32174488E-05
  -11.3900003       6.48592468E-05
  -11.3800001       6.61593367E-05
  -11.3699999       6.71216112E-05
  -11.3599997       6.77561766E-05
  -11.3500004       6.80730518E-05
  -11.3400002       6.80767116E-05
  -11.3299999       6.77629068E-05
  -11.3199997       6.71188827E-05
  -11.3100004       6.61268859E-05
  -11.3000002       6.47701381E-05
  -11.2900000       6.30397844E-05
  -11.2799997       6.09407034E-05
  -11.2700005       5.84952286E-05
  -11.2600002       5.57434832E-05
  -11.2500000       5.27403754E-05
  -11.2399998       4.95502027E-05
  -11.2299995       4.62400822E-05
  -11.2200003       4.28736821E-05
  -11.2100000       3.95069510E-05
  -11.1999998       3.61864113E-05
  -11.1899996       3.29500981E-05
  -11.1800003       2.98306768E-05
  -11.1700001       2.68593831E-05
  -11.1599998       2.40695717E-05
  -11.1499996       2.14985503E-05
  -11.1400003       1.91869622E-05
  -11.1300001       1.71757911E-05
  -11.1199999       1.55014877E-05
  -11.1099997       1.41903975E-05
  -11.1000004       1.32537598E-05
  -11.0900002       1.26843561E-05
  -11.0799999       1.24557355E-05
  -11.0699997       1.25238621E-05
  -11.0600004       1.28310367E-05
  -11.0500002       1.33111198E-05
  -11.0400000       1.38950836E-05
  -11.0299997       1.45162503E-05
  -11.0200005       1.51145196E-05
  -11.0100002       1.56396000E-05
  -11.0000000       1.60535164E-05
  -10.9899998       1.63326149E-05
  -10.9799995       1.64693720E-05
  -10.9700003       1.64739158E-05
  -10.9600000       1.63748318E-05
  -10.9499998       1.62184970E-05
  -10.9399996       1.60662967E-05
  -10.9300003       1.59891260E-05
  -10.9200001       1.60593627E-05
  -10.9099998       1.63408877E-05
  -10.8999996       1.68786028E-05
  -10.8900003       1.76891026E-05
  -10.8800001       1.87542919E-05
  -10.8699999       2.00192735E-05
  -10.8599997       2.13950807E-05
  -10.8500004       2.27659402E-05
  -10.8400002       2.39999044E-05
  -10.8299999       2.49609184E-05
  -10.8199997       2.55204704E-05
  -10.8100004       2.55670930E-05
  -10.8000002       2.50125795E-05
  -10.7900000       2.37947443E-05
  -10.7799997       2.18772620E-05
  -10.7700005       1.92477091E-05
  -10.7600002       1.59151114E-05
  -10.7500000       1.19080569E-05
  -10.7399998       7.27398310E-06
  -10.7299995       2.07961011E-06
  -10.7200003      -3.58815237E-06
  -10.7100000      -9.62179092E-06
  -10.6999998      -1.58943039E-05
  -10.6899996      -2.22624512E-05
  -10.6800003      -2.85724564E-05
  -10.6700001      -3.46675733E-05
  -10.6599998      -4.03966988E-05
  -10.6499996      -4.56226735E-05
  -10.6400003      -5.02290241E-05
  -10.6300001      -5.41242953E-05
  -10.6199999      -5.72433637E-05
  -10.6099997      -5.95460115E-05
  -10.6000004      -6.10133320E-05
  -10.5900002      -6.16431280E-05
  -10.5799999      -6.14453093E-05
  -10.5699997      -6.04384950E-05
  -10.5600004      -5.86484020E-05
  -10.5500002      -5.61081069E-05
  -10.5400000      -5.28600322E-05
  -10.5299997      -4.89586855E-05
  -10.5200005      -4.44732905E-05
  -10.5100002      -3.94890121E-05
  -10.5000000      -3.41061823E-05
  -10.4899998      -2.84369653E-05
  -10.4799995      -2.25996646E-05
  -10.4700003      -1.67114922E-05
  -10.4600000      -1.08809700E-05
  -10.4499998      -5.20136791E-06
  -10.4399996       2.53405915E-07
  -10.4300003       5.42967564E-06
  -10.4200001       1.02914173E-05
  -10.4099998       1.48147701E-05
  -10.3999996       1.89809743E-05
  -10.3900003       2.27694400E-05
  -10.3800001       2.61526748E-05
  -10.3699999       2.90943408E-05
  -10.3599997       3.15510733E-05
  -10.3500004       3.34776560E-05
  -10.3400002       3.48344001E-05
  -10.3299999       3.55950033E-05
  -10.3199997       3.57530516E-05
  -10.3100004       3.53257310E-05
  -10.3000002       3.43539832E-05
  -10.2900000       3.28992573E-05
  -10.2799997       3.10377000E-05
  -10.2700005       2.88531501E-05
  -10.2600002       2.64304090E-05
  -10.2500000       2.38499197E-05
  -10.2399998       2.11842926E-05
  -10.2299995       1.84968139E-05
  -10.2200003       1.58411895E-05
  -10.2100000       1.32619689E-05
  -10.1999998       1.07949136E-05
  -10.1899996       8.46713647E-06
  -10.1800003       6.29722399E-06
  -10.1700001       4.29581587E-06
  -10.1599998       2.46726745E-06
  -10.1499996       8.12811891E-07
  -10.1400003      -6.65139908E-07
  -10.1300001      -1.95813209E-06
  -10.1199999      -3.04767627E-06
  -10.1099997      -3.90354171E-06
  -10.1000004      -4.48558558E-06
  -10.0900002      -4.74949366E-06
  -10.0799999      -4.65607991E-06
  -10.0699997      -4.18239506E-06
  -10.0600004      -3.33221169E-06
  -10.0500002      -2.14315787E-06
  -10.0400000      -6.88158195E-07
  -10.0299997       9.30207932E-07
  -10.0200005       2.59216017E-06
  -10.0100002       4.17809770E-06
  -10.0000000       5.58764941E-06
  -9.98999977       6.75656611E-06
  -9.97999954       7.66772519E-06
  -9.97000027       8.35383617E-06
  -9.96000004       8.89117200E-06
  -9.94999981       9.38570156E-06
  -9.93999958       9.95463688E-06
  -9.93000031       1.07072510E-05
  -9.92000008       1.17288864E-05
  -9.90999985       1.30707303E-05
  -9.89999962       1.47464161E-05
  -9.89000034       1.67348044E-05
  -9.88000011       1.89869079E-05
  -9.86999989       2.14345382E-05
  -9.85999966       2.39985857E-05
  -9.85000038       2.65957660E-05
  -9.84000015       2.91441029E-05
  -9.82999992       3.15678226E-05
  -9.81999969       3.38026584E-05
  -9.81000042       3.58018988E-05
  -9.80000019       3.75423188E-05
  -9.78999996       3.90283021E-05
  -9.77999973       4.02916339E-05
  -9.77000046       4.13854650E-05
  -9.76000023       4.23721467E-05
  -9.75000000       4.33064015E-05
  -9.73999977       4.42177807E-05
  -9.72999954       4.50964872E-05
  -9.72000027       4.58868999E-05
  -9.71000004       4.64910299E-05
  -9.69999981       4.67817408E-05
  -9.68999958       4.66228485E-05
  -9.68000031       4.58911927E-05
  -9.67000008       4.44958569E-05
  -9.65999985       4.23903584E-05
  -9.64999962       3.95764073E-05
  -9.64000034       3.61004168E-05
  -9.63000011       3.20457257E-05
  -9.61999989       2.75243365E-05
  -9.60999966       2.26710272E-05
  -9.60000038       1.76407120E-05
  -9.59000015       1.26076429E-05
  -9.57999992       7.76343313E-06
  -9.56999969       3.31121055E-06
  -9.56000042      -5.45945738E-07
  -9.55000019      -3.62120613E-06
  -9.53999996      -5.76171215E-06
  -9.52999973      -6.86268277E-06
  -9.52000046      -6.87379816E-06
  -9.51000023      -5.79512334E-06
  -9.50000000      -3.66354948E-06
  -9.48999977      -5.33592072E-07
  -9.47999954       3.54109739E-06
  -9.47000027       8.51982077E-06
  -9.46000004       1.43762109E-05
  -9.44999981       2.10889539E-05
  -9.43999958       2.86248905E-05
  -9.43000031       3.69206755E-05
  -9.42000008       4.58696741E-05
  -9.40999985       5.53186474E-05
  -9.39999962       6.50757866E-05
  -9.39000034       7.49274332E-05
  -9.38000011       8.46581461E-05
  -9.36999989       9.40678656E-05
  -9.35999966       1.02981168E-04
  -9.35000038       1.11247107E-04
  -9.34000015       1.18731128E-04
  -9.32999992       1.25304534E-04
  -9.31999969       1.30836183E-04
  -9.31000042       1.35191789E-04
  -9.30000019       1.38241783E-04
  -9.28999996       1.39875745E-04
  -9.27999973       1.40018659E-04
  -9.27000046       1.38643387E-04
  -9.26000023       1.35774404E-04
  -9.25000000       1.31481051E-04
  -9.23999977       1.25862149E-04
  -9.22999954       1.19026408E-04
  -9.22000027       1.11074587E-04
  -9.21000004       1.02088343E-04
  -9.19999981       9.21289902E-05
  -9.18999958       8.12449580E-05
  -9.18000031       6.94852788E-05
  -9.17000008       5.69134791E-05
  -9.15999985       4.36173395E-05
  -9.14999962       2.97112092E-05
  -9.14000034       1.53305482E-05
  -9.13000011       6.20975754E-07
  -9.11999989      -1.42740664E-05
  -9.10999966      -2.92230197E-05
  -9.10000038      -4.41095581E-05
  -9.09000015      -5.88291769E-05
  -9.07999992      -7.32798289E-05
  -9.06999969      -8.73507161E-05
  -9.06000042      -1.00912817E-04
  -9.05000019      -1.13815331E-04
  -9.03999996      -1.25889492E-04
  -9.02999973      -1.36959905E-04
  -9.02000046      -1.46860621E-04
  -9.01000023      -1.55451562E-04
  -9.00000000      -1.62631390E-04
  -8.98999977      -1.68342798E-04
  -8.97999954      -1.72569329E-04
  -8.97000027      -1.75324967E-04
  -8.96000004      -1.76639747E-04
  -8.94999981      -1.76546964E-04
  -8.93999958      -1.75075722E-04
  -8.93000031      -1.72251603E-04
  -8.92000008      -1.68105602E-04
  -8.90999985      -1.62687196E-04
  -8.89999962      -1.56076276E-04
  -8.89000034      -1.48388121E-04
  -8.88000011      -1.39767217E-04
  -8.86999989      -1.30369808E-04
  -8.85999966      -1.20338780E-04
  -8.85000038      -1.09778484E-04
  -8.84000015      -9.87378880E-05
  -8.82999992      -8.72087767E-05
  -8.81999969      -7.51410334E-05
  -8.81000042      -6.24717650E-05
  -8.80000019      -4.91592327E-05
  -8.78999996      -3.52107963E-05
  -8.77999973      -2.06946734E-05
  -8.77000046      -5.73085617E-06
  -8.76000023       9.53699509E-06
  -8.75000000       2.49789755E-05
  -8.73999977       4.05127721E-05
  -8.72999954       5.61212328E-05
  -8.72000027       7.18454248E-05
  -8.71000004       8.77540660E-05
  -8.69999981       1.03898470E-04
  -8.68999958       1.20267498E-04
  -8.68000031       1.36758783E-04
  -8.67000008       1.53176617E-04
  -8.65999985       1.69258507E-04
  -8.64999962       1.84722332E-04
  -8.64000034       1.99318616E-04
  -8.63000011       2.12870320E-04
  -8.61999989       2.25287018E-04
  -8.60999966       2.36549386E-04
  -8.60000038       2.46671028E-04
  -8.59000015       2.55651772E-04
  -8.57999992       2.63442518E-04
  -8.56999969       2.69933720E-04
  -8.56000042       2.74974969E-04
  -8.55000019       2.78418069E-04
  -8.53999996       2.80169450E-04
  -8.52999973       2.80232227E-04
  -8.52000046       2.78722291E-04
  -8.51000023       2.75852799E-04
  -8.50000000       2.71892291E-04
  -8.48999977       2.67110969E-04
  -8.47999954       2.61736248E-04
  -8.47000027       2.55931664E-04
  -8.46000004       2.49808421E-04
  -8.44999981       2.43462782E-04
  -8.43999958       2.37024477E-04
  -8.43000031       2.30695252E-04
  -8.42000008       2.24761374E-04
  -8.40999985       2.19571259E-04
  -8.39999962       2.15484484E-04
  -8.39000034       2.12808314E-04
  -8.38000011       2.11743434E-04
  -8.36999989       2.12357976E-04
  -8.35999966       2.14599073E-04
  -8.35000038       2.18338333E-04
  -8.34000015       2.23433715E-04
  -8.32999992       2.29785626E-04
  -8.31999969       2.37366607E-04
  -8.31000042       2.46212498E-04
  -8.30000019       2.56378204E-04
  -8.28999996       2.67874420E-04
  -8.27999973       2.80607812E-04
  -8.27000046       2.94348429E-04
  -8.26000023       3.08738963E-04
  -8.25000000       3.23342858E-04
  -8.23999977       3.37718753E-04
  -8.22999954       3.51497030E-04
  -8.22000027       3.64431442E-04
  -8.21000004       3.76411335E-04
  -8.19999981       3.87429405E-04
  -8.18999958       3.97518306E-04
  -8.18000031       4.06678213E-04
  -8.17000008       4.14822425E-04
  -8.15999985       4.21758770E-04
  -8.14999962       4.27214254E-04
  -8.14000034       4.30892484E-04
  -8.13000011       4.32543282E-04
  -8.11999989       4.32018191E-04
  -8.10999966       4.29290900E-04
  -8.10000038       4.24436294E-04
  -8.09000015       4.17573901E-04
  -8.07999992       4.08799155E-04
  -8.06999969       3.98127391E-04
  -8.06000042       3.85475112E-04
  -8.05000019       3.70687019E-04
  -8.03999996       3.53603624E-04
  -8.02999973       3.34145705E-04
  -8.02000046       3.12387012E-04
  -8.01000023       2.88587122E-04
  -8.00000000       2.63170514E-04
  -7.98999977       2.36654188E-04
  -7.98000002       2.09546779E-04
  -7.96999979       1.82249190E-04
  -7.96000004       1.54990994E-04
  -7.94999981       1.27822423E-04
  -7.94000006       1.00664307E-04
  -7.92999983       7.33987254E-05
  -7.92000008       4.59679650E-05
  -7.90999985       1.84469554E-05
  -7.90000010      -8.93659126E-06
  -7.88999987      -3.58420803E-05
  -7.88000011      -6.19015846E-05
  -7.86999989      -8.68210918E-05
  -7.86000013      -1.10460256E-04
  -7.84999990      -1.32860223E-04
  -7.84000015      -1.54209207E-04
  -7.82999992      -1.74754052E-04
  -7.82000017      -1.94689055E-04
  -7.80999994      -2.14058600E-04
  -7.80000019      -2.32708247E-04
  -7.78999996      -2.50300742E-04
  -7.78000021      -2.66392279E-04
  -7.76999998      -2.80541048E-04
  -7.76000023      -2.92411627E-04
  -7.75000000      -3.01838241E-04
  -7.73999977      -3.08826187E-04
  -7.73000002      -3.13493452E-04
  -7.71999979      -3.15975165E-04
  -7.71000004      -3.16327787E-04
  -7.69999981      -3.14470264E-04
  -7.69000006      -3.10185394E-04
  -7.67999983      -3.03182285E-04
  -7.67000008      -2.93200545E-04
  -7.65999985      -2.80117616E-04
  -7.65000010      -2.64023285E-04
  -7.63999987      -2.45232310E-04
  -7.63000011      -2.24230753E-04
  -7.61999989      -2.01573013E-04
  -7.61000013      -1.77763257E-04
  -7.59999990      -1.53161338E-04
  -7.59000015      -1.27943364E-04
  -7.57999992      -1.02127851E-04
  -7.57000017      -7.56559311E-05
  -7.55999994      -4.84949269E-05
  -7.55000019      -2.07291232E-05
  -7.53999996       7.39494135E-06
  -7.53000021       3.54841868E-05
  -7.51999998       6.30692739E-05
  -7.51000023       8.97046193E-05
  -7.50000000       1.15064613E-04
  -7.48999977       1.39003183E-04
  -7.48000002       1.61558841E-04
  -7.46999979       1.82905103E-04
  -7.46000004       2.03264310E-04
  -7.44999981       2.22815914E-04
  -7.44000006       2.41628877E-04