  -16.0000000       0.00000000    
  -15.9899998       0.00000000    
  -15.9799995       0.00000000    
  -15.9700003       0.00000000    
  -15.9600000       0.00000000    
  -15.9499998       0.00000000    
  -15.9399996       0.00000000    
  -15.9300003       0.00000000    
  -15.9200001       0.00000000    
  -15.9099998       0.00000000    
  -15.8999996       0.00000000    
  -15.8900003       0.00000000    
  -15.8800001       0.00000000    
  -15.8699999       0.00000000    
  -15.8599997      -0.00000000    
  -15.8500004       0.00000000    
  -15.8400002       7.00649232E-45
  -15.8299999       9.24856986E-44
  -15.8199997       8.82818033E-43
  -15.8100004       6.76266639E-42
  -15.8000002       4.29554031E-41
  -15.7900000       2.32951857E-40
  -15.7799997       1.10176391E-39
  -15.7700005       4.61840088E-39
  -15.7600002       1.73730517E-38
  -15.7500000       5.92147421E-38
  -15.7399998       1.84243058E-37
  -15.7299995       5.26281516E-37
  -15.7200003       1.38577593E-36
  -15.7100000       3.37262236E-36
  -15.6999998       7.59544914E-36
  -15.6899996       1.58208898E-35
  -15.6800003       3.03978133E-35
  -15.6700001       5.35609524E-35
  -15.6599998       8.55788758E-35
  -15.6499996       1.21291869E-34
  -15.6400003       1.45211813E-34
  -15.6300001       1.26838320E-34
  -15.6199999       2.01757864E-35
  -15.6099997      -2.26174366E-34
  -15.6000004      -6.41500879E-34
  -15.5900002      -1.18565788E-33
  -15.5799999      -1.69165153E-33
  -15.5699997      -1.82733113E-33
  -15.5600004      -1.12537182E-33
  -15.5500002       8.64027194E-34
  -15.5400000       4.27341714E-33
  -15.5299997       8.52697431E-33
  -15.5200005       1.20331823E-32
  -15.5100002       1.22437280E-32
  -15.5000000       6.36204359E-33
  -15.4899998      -7.21870787E-33
  -15.4799995      -2.71044929E-32
  -15.4700003      -4.76071480E-32
  -15.4600000      -5.91616374E-32
  -15.4499998      -5.12857429E-32
  -15.4399996      -1.76449504E-32
  -15.4300003       3.90697000E-32
  -15.4200001       1.06056403E-31
  -15.4099998       1.65830326E-31
  -15.3999996       2.06652871E-31
  -15.3900003       2.29844504E-31
  -15.3800001       2.41201167E-31
  -15.3699999       2.18009651E-31
  -15.3599997       6.20914101E-32
  -15.3500004      -4.19604134E-31
  -15.3400002      -1.43942076E-30
  -15.3299999      -3.00236266E-30
  -15.3199997      -4.55408028E-30
  -15.3100004      -4.68615958E-30
  -15.3000002      -1.25541649E-30
  -15.2900000       7.67229251E-30
  -15.2799997       2.18898880E-29
  -15.2700005       3.66262704E-29
  -15.2600002       4.10930436E-29
  -15.2500000       2.02460000E-29
  -15.2399998      -3.81999387E-29
  -15.2299995      -1.31489039E-28
  -15.2200003      -2.28311604E-28
  -15.2100000      -2.63004054E-28
  -15.1999998      -1.49274713E-28
  -15.1899996       1.77941831E-28
  -15.1800003       6.96363497E-28
  -15.1700001       1.23078065E-27
  -15.1599998       1.43466537E-27
  -15.1499996       8.73596526E-28
  -15.1400003      -7.58229230E-28
  -15.1300001      -3.32190945E-27
  -15.1199999      -5.94753976E-27
  -15.1099997      -6.99390597E-27
  -15.1000004      -4.48208618E-27
  -15.0900002       2.90002140E-27
  -15.0799999       1.44233371E-26
  -15.0699997       2.61723310E-26
  -15.0600004       3.10405488E-26
  -15.0500002       2.07391578E-26
  -15.0400000      -9.93770068E-27
  -15.0299997      -5.75945005E-26
  -15.0200005      -1.05988196E-25
  -15.0100002      -1.26609821E-25
  -15.0000000      -8.71917420E-26
  -14.9899998       3.14652579E-26
  -14.9799995       2.14783183E-25
  -14.9700003       3.99690577E-25
  -14.9600000       4.78891325E-25
  -14.9499998       3.34439553E-25
  -14.9399996      -9.97555660E-26
  -14.9300003      -7.64441272E-25
  -14.9200001      -1.42687208E-24
  -14.9099998      -1.70303631E-24
  -14.8999996      -1.18292671E-24
  -14.8900003       3.48071858E-25
  -14.8800001       2.65933511E-24
  -14.8699999       4.92387887E-24
  -14.8599997       5.81593224E-24
  -14.8500004       3.95717361E-24
  -14.8400002      -1.32710415E-24
  -14.8299999      -9.18233699E-24
  -14.8199997      -1.67574740E-23
  -14.8100004      -1.95818627E-23
  -14.8000002      -1.30891612E-23
  -14.7900000       4.87174620E-24
  -14.7799997       3.13483163E-23
  -14.7700005       5.68102157E-23
  -14.7600002       6.64342935E-23
  -14.7500000       4.50834512E-23
  -14.7399998      -1.45642703E-23
  -14.7299995      -1.03315346E-22
  -14.7200003      -1.90572765E-22
  -14.7100000      -2.28114744E-22
  -14.6999998      -1.65529044E-22
  -14.6899996       2.42122490E-23
  -14.6800003       3.16770366E-22
  -14.6700001       6.19380160E-22
  -14.6599998       7.79759192E-22
  -14.6499996       6.30880768E-22
  -14.6400003       6.84627199E-23
  -14.6300001      -8.60396579E-22
  -14.6199999      -1.89629661E-21
  -14.6099997      -2.57998804E-21
  -14.6000004      -2.37135556E-21
  -14.5900002      -8.72585578E-22
  -14.5799999       1.89942459E-21
  -14.5699997       5.29882853E-21
  -14.5600004       8.02883232E-21
  -14.5500002       8.42119220E-21
  -14.5400000       5.03689379E-21
  -14.5299997      -2.53524335E-21
  -14.5200005      -1.29594976E-20
  -14.5100002      -2.28891748E-20
  -14.5000000      -2.75027699E-20
  -14.4899998      -2.19811228E-20
  -14.4799995      -3.70154196E-21
  -14.4700003       2.55066780E-20
  -14.4600000       5.80327623E-20
  -14.4499998       8.11069913E-20
  -14.4399996       7.99985305E-20
  -14.4300003       4.35539738E-20
  -14.4200001      -2.92900164E-20
  -14.4099998      -1.24413186E-19
  -14.3999996      -2.11661444E-19
  -14.3900003      -2.50461630E-19
  -14.3800001      -2.02316358E-19
  -14.3699999      -4.78588931E-20
  -14.3599997       1.96735500E-19
  -14.3500004       4.71072121E-19
  -14.3400002       6.76381503E-19
  -14.3299999       6.99461341E-19
  -14.3199997       4.52340771E-19
  -14.3100004      -8.20035582E-20
  -14.3000002      -8.13766690E-19
  -14.2900000      -1.53838606E-18
  -14.2799997      -1.97056135E-18
  -14.2700005      -1.82304837E-18
  -14.2600002      -9.16679590E-19
  -14.2500000       7.09019930E-19
  -14.2399998       2.72665841E-18
  -14.2299995       4.53471082E-18
  -14.2200003       5.37912781E-18
  -14.2100000       4.57616912E-18
  -14.1999998       1.78990015E-18
  -14.1899996      -2.71844223E-18
  -14.1800003      -7.96985211E-18
  -14.1700001      -1.23635047E-17
  -14.1599998      -1.40282056E-17
  -14.1499996      -1.13898204E-17
  -14.1400003      -3.82573391E-18
  -14.1300001       7.79442944E-18
  -14.1199999       2.09065731E-17
  -14.1099997       3.15661750E-17
  -14.1000004       3.53341117E-17
  -14.0900002       2.86118101E-17
  -14.0799999       1.01146446E-17
  -14.0699997      -1.79669088E-17
  -14.0600004      -4.95970117E-17
  -14.0500002      -7.56720706E-17
  -14.0400000      -8.60292719E-17
  -14.0299997      -7.23921936E-17
  -14.0200005      -3.15749431E-17
  -14.0100002       3.20047098E-17
  -14.0000000       1.05492507E-16
  -13.9899998       1.69170836E-16
  -13.9799995       2.00602694E-16
  -13.9700003       1.80754091E-16
  -13.9600000       1.00736245E-16
  -13.9499998      -3.27296707E-17
  -13.9399996      -1.95113934E-16
  -13.9300003      -3.46641749E-16
  -13.9200001      -4.40049392E-16
  -13.9099998      -4.32515008E-16
  -13.8999996      -2.99260764E-16
  -13.8900003      -4.52405426E-17
  -13.8800001       2.88944696E-16
  -13.8699999       6.29955502E-16
  -13.8599997       8.84625275E-16
  -13.8500004       9.61432370E-16
  -13.8400002       7.96323732E-16
  -13.8299999       3.76561414E-16
  -13.8199997      -2.44489019E-16
  -13.8100004      -9.47589205E-16
  -13.8000002      -1.56581854E-15
  -13.7900000      -1.91924622E-15
  -13.7799997      -1.85979954E-15
  -13.7700005      -1.31613112E-15
  -13.7600002      -3.26529692E-16
  -13.7500000       9.50852717E-16
  -13.7399998       2.25682273E-15
  -13.7299995       3.27866083E-15
  -13.7200003       3.71840391E-15
  -13.7100000       3.36752242E-15
  -13.6999998       2.17016723E-15
  -13.6899996       2.58049434E-16
  -13.6800003      -2.05465438E-15
  -13.6700001      -4.31914085E-15
  -13.6599998      -6.03518598E-15
  -13.6499996      -6.75340851E-15
  -13.6400003      -6.17503366E-15
  -13.6300001      -4.22760412E-15
  -13.6199999      -1.10013454E-15
  -13.6099997       2.76979329E-15
  -13.6000004       6.75443003E-15
  -13.5900002       1.01285947E-14
  -13.5799999       1.21808259E-14
  -13.5699997       1.23266553E-14
  -13.5600004       1.02108221E-14
  -13.5500002       5.78962393E-15
  -13.5400000      -6.12708270E-16
  -13.5299997      -8.28017142E-15
  -13.5200005      -1.61239837E-14
  -13.5100002      -2.27592264E-14
  -13.5000000      -2.66548427E-14
  -13.4899998      -2.63657640E-14
  -13.4799995      -2.08379761E-14
  -13.4700003      -9.75008106E-15
  -13.4600000       6.17643254E-15
  -13.4499998       2.49906026E-14
  -13.4399996       4.35477765E-14
  -13.4300003       5.78439071E-14
  -13.4200001       6.36696438E-14
  -13.4099998       5.75236880E-14
  -13.3999996       3.76327794E-14
  -13.3900003       4.84817730E-15
  -13.3800001      -3.68474917E-14
  -13.3699999      -8.04608252E-14
  -13.3599997      -1.16871153E-13
  -13.3500004      -1.36447670E-13
  -13.3400002      -1.31172999E-13
  -13.3299999      -9.68626289E-14
  -13.3199997      -3.49541597E-14
  -13.3100004       4.66629434E-14
  -13.3000002       1.34172662E-13
  -13.2900000       2.09847805E-13
  -13.2799997       2.55347799E-13
  -13.2700005       2.55739277E-13
  -13.2600002       2.03411425E-13
  -13.2500000       1.00946764E-13
  -13.2399998      -3.78832945E-14
  -13.2299995      -1.89505258E-13
  -13.2200003      -3.24327967E-13
  -13.2100000      -4.12375808E-13
  -13.1999998      -4.29721959E-13
  -13.1899996      -3.64358120E-13
  -13.1800003      -2.20112746E-13
  -13.1700001      -1.75265906E-14
  -13.1599998       2.08819629E-13
  -13.1499996       4.16272621E-13
  -13.1400003       5.62341677E-13
  -13.1300001       6.13575976E-13
  -13.1199999       5.53179898E-13
  -13.1099997       3.85606288E-13
  -13.1000004       1.36924706E-13
  -13.0900002      -1.49366725E-13
  -13.0799999      -4.20414219E-13
  -13.0699997      -6.24388616E-13
  -13.0600004      -7.21007618E-13
  -13.0500002      -6.89919964E-13
  -13.0400000      -5.35082124E-13
  -13.0299997      -2.84122986E-13
  -13.0200005       1.71823937E-14
  -13.0100002       3.14092312E-13
  -13.0000000       5.53647677E-13
  -12.9899998       6.94584364E-13
  -12.9799995       7.14273204E-13
  -12.9700003       6.11374991E-13
  -12.9600000       4.04060899E-13
  -12.9499998       1.24829468E-13
  -12.9399996      -1.86202494E-13
  -12.9300003      -4.87409971E-13
  -12.9200001      -7.39523351E-13
  -12.9099998      -9.06681143E-13
  -12.8999996      -9.55491979E-13
  -12.8900003      -8.54131869E-13
  -12.8800001      -5.74067324E-13
  -12.8699999      -9.65392249E-14
  -12.8599997       5.75574202E-13
  -12.8500004       1.40223868E-12
  -12.8400002       2.29132642E-12
  -12.8299999       3.09040510E-12
  -12.8199997       3.59182389E-12
  -12.8100004       3.55611027E-12
  -12.8000002       2.75500824E-12
  -12.7900000       1.03026593E-12
  -12.7799997      -1.64137031E-12
  -12.7700005      -5.09114886E-12
  -12.7600002      -8.92554693E-12
  -12.7500000      -1.25324378E-11
  -12.7399998      -1.51353877E-11
  -12.7299995      -1.58964977E-11
  -12.7200003      -1.40577506E-11
  -12.7100000      -9.10094396E-12
  -12.6999998      -8.99440895E-13
  -12.6899996       1.01671432E-11
  -12.6800003       2.31605499E-11
  -12.6700001       3.66103224E-11
  -12.6599998       4.86233692E-11
  -12.6499996       5.70679996E-11
  -12.6400003       5.98126687E-11
  -12.6300001       5.49929338E-11
  -12.6199999       4.12784702E-11
  -12.6099997       1.81148360E-11
  -12.6000004      -1.40795648E-11
  -12.5900002      -5.37743114E-11
  -12.5799999      -9.82555218E-11
  -12.5699997      -1.43630913E-10
  -12.5600004      -1.84923937E-10
  -12.5500002      -2.16272930E-10
  -12.5400000      -2.31255043E-10
  -12.5299997      -2.23352253E-10
  -12.5200005      -1.86564819E-10
  -12.5100002      -1.16161747E-10
  -12.5000000      -9.53012495E-12
  -12.4899998       1.32939881E-10
  -12.4799995       3.07023795E-10
  -12.4700003       5.03986741E-10
  -12.4600000       7.10166537E-10
  -12.4499998       9.06904052E-10
  -12.4399996       1.07087939E-09
  -12.4300003       1.17487642E-09
  -12.4200001       1.18895183E-09
  -12.4099998       1.08195053E-09
  -12.3999996       8.23279445E-10
  -12.3900003       3.84832693E-10
  -12.3800001      -2.57040444E-10
  -12.3699999      -1.11963450E-09
  -12.3599997      -2.21214269E-09
  -12.3500004      -3.53415941E-09
  -12.3400002      -5.07450926E-09
  -12.3299999      -6.81047396E-09
  -12.3199997      -8.70746053E-09
  -12.3100004      -1.07192113E-08
  -12.3000002      -1.27885729E-08
  -12.2900000      -1.48488359E-08
  -12.2799997      -1.68256733E-08
  -12.2700005      -1.86395983E-08
  -12.2600002      -2.02088710E-08
  -12.2500000      -2.14527081E-08
  -12.2399998      -2.22946408E-08
  -12.2299995      -2.26658639E-08
  -12.2200003      -2.25082779E-08
  -12.2100000      -2.17771685E-08
  -12.1999998      -2.04432027E-08
  -12.1899996      -1.84937345E-08
  -12.1800003      -1.59331552E-08
  -12.1700001      -1.27824649E-08
  -12.1599998      -9.07784337E-09
  -12.1499996      -4.86855356E-09
  -12.1400003      -2.14158496E-10
  -12.1300001       4.81862195E-09
  -12.1199999       1.01590691E-08
  -12.1099997       1.57354698E-08
  -12.1000004       2.14776446E-08
  -12.0900002       2.73187304E-08
  -12.0799999       3.31961516E-08
  -12.0699997       3.90517449E-08
  -12.0600004       4.48310757E-08
  -12.0500002       5.04820932E-08
  -12.0400000       5.59534854E-08
  -12.0299997       6.11929494E-08
  -12.0200005       6.61455744E-08
  -12.0100002       7.07526127E-08
  -12.0000000       7.49508899E-08
  -11.9899998       7.86726559E-08
  -11.9799995       8.18462667E-08
  -11.9700003       8.43972998E-08
  -11.9600000       8.62502674E-08
  -11.9499998       8.73304558E-08
  -11.9399996       8.75662494E-08
  -11.9300003       8.68914256E-08
  -11.9200001       8.52472581E-08
  -11.9099998       8.25847906E-08
  -11.8999996       7.88664991E-08
  -11.8900003       7.40677706E-08
  -11.8800001       6.81780250E-08
  -11.8699999       6.12012343E-08
  -11.8599997       5.31562669E-08
  -11.8500004       4.40765469E-08
  -11.8400002       3.40094708E-08
  -11.8299999       2.30155575E-08
  -11.8199997       1.11673044E-08
  -11.8100004      -1.45235668E-09
  -11.8000002      -1.47515919E-08
  -11.7900000      -2.86314457E-08
  -11.7799997      -4.29875655E-08
  -11.7700005      -5.77121426E-08
  -11.7600002      -7.26954212E-08
  -11.7500000      -8.78268764E-08
  -11.7399998      -1.02996168E-07
  -11.7299995      -1.18093489E-07
  -11.7200003      -1.33009110E-07
  -11.7100000      -1.47632875E-07
  -11.6999998      -1.61853265E-07
  -11.6899996      -1.75556281E-07
  -11.6800003      -1.88625094E-07
  -11.6700001      -2.00939738E-07
  -11.6599998      -2.12377472E-07
  -11.6499996      -2.22814194E-07
  -11.6400003      -2.32126226E-07
  -11.6300001      -2.40192179E-07
  -11.6199999      -2.46895553E-07
  -11.6099997      -2.52126569E-07
  -11.6000004      -2.55784016E-07
  -11.5900002      -2.57776691E-07
  -11.5799999      -2.58023704E-07
  -11.5699997      -2.56455706E-07
  -11.5600004      -2.53014434E-07
  -11.5500002      -2.47652991E-07
  -11.5400000      -2.40335027E-07
  -11.5299997      -2.31034420E-07
  -11.5200005      -2.19733877E-07
  -11.5100002      -2.06423806E-07
  -11.5000000      -1.91100042E-07
  -11.4899998      -1.73762260E-07
  -11.4799995      -1.54411836E-07
  -11.4700003      -1.33050563E-07
  -11.4600000      -1.09680570E-07
  -11.4499998      -8.43049932E-08
  -11.4399996      -5.69301051E-08
  -11.4300003      -2.75695999E-08
  -11.4200001       3.75217546E-09
  -11.4099998       3.69952105E-08
  -11.3999996       7.21006828E-08
  -11.3900003       1.08987997E-07
  -11.3800001       1.47554900E-07
  -11.3699999       1.87678950E-07
  -11.3599997       2.29221584E-07
  -11.3500004       2.72033418E-07
  -11.3400002       3.15960847E-07
  -11.3299999       3.60853022E-07
  -11.3199997       4.06567750E-07
  -11.3100004       4.52976820E-07
  -11.3000002       4.99968849E-07
  -11.2900000       5.47451009E-07
  -11.2799997       5.95348297E-07
  -11.2700005       6.43600515E-07
  -11.2600002       6.92158892E-07
  -11.2500000       7.40981363E-07
  -11.2399998       7.90027286E-07
  -11.2299995       8.39253516E-07
  -11.2200003       8.88610145E-07
  -11.2100000       9.38038511E-07
  -11.1999998       9.87470685E-07
  -11.1899996       1.03683169E-06
  -11.1800003       1.08604047E-06
  -11.1700001       1.13501369E-06
  -11.1599998       1.18367120E-06
  -11.1499996       1.23193706E-06
  -11.1400003       1.27974363E-06
  -11.1300001       1.32703360E-06
  -11.1199999       1.37375912E-06
  -11.1099997       1.41988039E-06
  -11.1000004       1.46536684E-06
  -11.0900002       1.51019231E-06
  -11.0799999       1.55433383E-06
  -11.0699997       1.59776982E-06
  -11.0600004       1.64048106E-06
  -11.0500002       1.68244503E-06
  -11.0400000       1.72364446E-06
  -11.0299997       1.76406081E-06
  -11.0200005       1.80367510E-06
  -11.0100002       1.84247449E-06
  -11.0000000       1.88044521E-06
  -10.9899998       1.91757817E-06
  -10.9799995       1.95386542E-06
  -10.9700003       1.98930138E-06
  -10.9600000       2.02388196E-06
  -10.9499998       2.05760148E-06
  -10.9399996       2.09045606E-06
  -10.9300003       2.12243367E-06
  -10.9200001       2.15351974E-06
  -10.9099998       2.18369746E-06
  -10.8999996       2.21293953E-06
  -10.8900003       2.24121300E-06
  -10.8800001       2.26848010E-06
  -10.8699999       2.29470083E-06
  -10.8599997       2.31983199E-06
  -10.8500004       2.34383083E-06
  -10.8400002       2.36666347E-06
  -10.8299999       2.38829512E-06
  -10.8199997       2.40870554E-06
  -10.8100004       2.42788042E-06
  -10.8000002       2.44581679E-06
  -10.7900000       2.46252512E-06
  -10.7799997       2.47802109E-06
  -10.7700005       2.49232858E-06
  -10.7600002       2.50548351E-06
  -10.7500000       2.51752044E-06
  -10.7399998       2.52847803E-06
  -10.7299995       2.53839471E-06
  -10.7200003       2.54730980E-06
  -10.7100000       2.55526379E-06
  -10.6999998       2.56229941E-06
  -10.6899996       2.56845601E-06
  -10.6800003       2.57378656E-06
  -10.6700001       2.57835791E-06
  -10.6599998       2.58225145E-06
  -10.6499996       2.58556429E-06
  -10.6400003       2.58841578E-06
  -10.6300001       2.59094963E-06
  -10.6199999       2.59332569E-06
  -10.6099997       2.59571175E-06
  -10.6000004       2.59828767E-06
  -10.5900002       2.60123170E-06
  -10.5799999       2.60471529E-06
  -10.5699997       2.60889806E-06
  -10.5600004       2.61392393E-06
  -10.5500002       2.61991090E-06
  -10.5400000       2.62696039E-06
  -10.5299997       2.63514698E-06
  -10.5200005       2.64452319E-06
  -10.5100002       2.65513108E-06
  -10.5000000       2.66698726E-06
  -10.4899998       2.68011308E-06
  -10.4799995       2.69452607E-06
  -10.4700003       2.71023532E-06
  -10.4600000       2.72726402E-06
  -10.4499998       2.74562035E-06
  -10.4399996       2.76533115E-06
  -10.4300003       2.78640846E-06
  -10.4200001       2.80885183E-06
  -10.4099998       2.83264467E-06
  -10.3999996       2.85776241E-06
  -10.3900003       2.88414390E-06
  -10.3800001       2.91173205E-06
  -10.3699999       2.94043616E-06
  -10.3599997       2.97016777E-06
  -10.3500004       3.00083093E-06
  -10.3400002       3.03233605E-06
  -10.3299999       3.06458924E-06
  -10.3199997       3.09750430E-06
  -10.3100004       3.13099508E-06
  -10.3000002       3.16498358E-06
  -10.2900000       3.19938158E-06
  -10.2799997       3.23411723E-06
  -10.2700005       3.26910617E-06
  -10.2600002       3.30427429E-06
  -10.2500000       3.33955745E-06
  -10.2399998       3.37489769E-06
  -10.2299995       3.41026362E-06
  -10.2200003       3.44563659E-06
  -10.2100000       3.48102685E-06
  -10.1999998       3.51647327E-06
  -10.1899996       3.55202405E-06
  -10.1800003       3.58774287E-06
  -10.1700001       3.62371816E-06
  -10.1599998       3.66005202E-06
  -10.1499996       3.69683676E-06
  -10.1400003       3.73418516E-06
  -10.1300001       3.77218794E-06
  -10.1199999       3.81094674E-06
  -10.1099997       3.85055273E-06
  -10.1000004       3.89110119E-06
  -10.0900002       3.93267510E-06
  -10.0799999       3.97536724E-06
  -10.0699997       4.01927400E-06
  -10.0600004       4.06448271E-06
  -10.0500002       4.11109841E-06
  -10.0400000       4.15922568E-06
  -10.0299997       4.20898687E-06
  -10.0200005       4.26049246E-06
  -10.0100002       4.31386889E-06
  -10.0000000       4.36924165E-06
  -9.98999977       4.42673490E-06
  -9.97999954       4.48647961E-06
  -9.97000027       4.54861447E-06
  -9.96000004       4.61326545E-06
  -9.94999981       4.68056078E-06
  -9.93999958       4.75063325E-06
  -9.93000031       4.82359019E-06
  -9.92000008       4.89953027E-06
  -9.90999985       4.97853216E-06
  -9.89999962       5.06064544E-06
  -9.89000034       5.14590010E-06
  -9.88000011       5.23431163E-06
  -9.86999989       5.32586864E-06
  -9.85999966       5.42053476E-06
  -9.85000038       5.51831317E-06
  -9.84000015       5.61917795E-06
  -9.82999992       5.72314275E-06
  -9.81999969       5.83019482E-06
  -9.81000042       5.94038693E-06
  -9.80000019       6.05375772E-06
  -9.78999996       6.17038131E-06
  -9.77999973       6.29034275E-06
  -9.77000046       6.41375254E-06
  -9.76000023       6.54074756E-06
  -9.75000000       6.67147697E-06
  -9.73999977       6.80610128E-06
  -9.72999954       6.94481605E-06
  -9.72000027       7.08781681E-06
  -9.71000004       7.23532685E-06
  -9.69999981       7.38749759E-06
  -9.68999958       7.54452458E-06
  -9.68000031       7.70652514E-06
  -9.67000008       7.87359295E-06
  -9.65999985       8.04573301E-06
  -9.64999962       8.22290076E-06
  -9.64000034       8.40496978E-06
  -9.63000011       8.59174179E-06
  -9.61999989       8.78292758E-06
  -9.60999966       8.97815244E-06
  -9.60000038       9.17696161E-06
  -9.59000015       9.37882123E-06
  -9.57999992       9.58312739E-06
  -9.56999969       9.78912522E-06
  -9.56000042       9.99604435E-06
  -9.55000019       1.02030035E-05
  -9.53999996       1.04090595E-05
  -9.52999973       1.06132229E-05
  -9.52000046       1.08144495E-05
  -9.51000023       1.10117080E-05
  -9.50000000       1.12039561E-05
  -9.48999977       1.13902233E-05
  -9.47999954       1.15695957E-05
  -9.47000027       1.17412383E-05
  -9.46000004       1.19044535E-05
  -9.44999981       1.20586519E-05
  -9.43999958       1.22034080E-05
  -9.43000031       1.23384698E-05
  -9.42000008       1.24637372E-05
  -9.40999985       1.25793276E-05
  -9.39999962       1.26855557E-05
  -9.39000034       1.27829244E-05
  -9.38000011       1.28721113E-05
  -9.36999989       1.29540686E-05
  -9.35999966       1.30298895E-05
  -9.35000038       1.31008737E-05
  -9.34000015       1.31684719E-05
  -9.32999992       1.32342711E-05
  -9.31999969       1.32999321E-05
  -9.31000042       1.33672647E-05
  -9.30000019       1.34380998E-05
  -9.28999996       1.35142864E-05
  -9.27999973       1.35977189E-05
  -9.27000046       1.36902245E-05
  -9.26000023       1.37936295E-05
  -9.25000000       1.39096883E-05
  -9.23999977       1.40400816E-05
  -9.22999954       1.41863538E-05
  -9.22000027       1.43499892E-05
  -9.21000004       1.45322720E-05
  -9.19999981       1.47343881E-05
  -9.18999958       1.49573307E-05
  -9.18000031       1.52018838E-05
  -9.17000008       1.54687168E-05
  -9.15999985       1.57582544E-05
  -9.14999962       1.60707041E-05
  -9.14000034       1.64061330E-05
  -9.13000011       1.67643921E-05
  -9.11999989       1.71451211E-05
  -9.10999966       1.75477689E-05
  -9.10000038       1.79716171E-05
  -9.09000015       1.84156997E-05
  -9.07999992       1.88789054E-05
  -9.06999969       1.93598589E-05
  -9.06000042       1.98570888E-05
  -9.05000019       2.03689033E-05
  -9.03999996       2.08934780E-05
  -9.02999973       2.14287829E-05
  -9.02000046       2.19727262E-05
  -9.01000023       2.25230233E-05
  -9.00000000       2.30774040E-05
  -8.98999977       2.36333890E-05
  -8.97999954       2.41885045E-05
  -8.97000027       2.47402404E-05
  -8.96000004       2.52860664E-05
  -8.94999981       2.58234268E-05
  -8.93999958       2.63497823E-05
  -8.93000031       2.68626791E-05
  -8.92000008       2.73597616E-05
  -8.90999985       2.78387815E-05
  -8.89999962       2.82976089E-05
  -8.89000034       2.87342773E-05
  -8.88000011       2.91469787E-05
  -8.86999989       2.95340888E-05
  -8.85999966       2.98942105E-05
  -8.85000038       3.02261451E-05
  -8.84000015       3.05288922E-05
  -8.82999992       3.08016861E-05
  -8.81999969       3.10439827E-05
  -8.81000042       3.12554112E-05
  -8.80000019       3.14358622E-05
  -8.78999996       3.15853576E-05
  -8.77999973       3.17041704E-05
  -8.77000046       3.17926460E-05
  -8.76000023       3.18514540E-05
  -8.75000000       3.18812017E-05
  -8.73999977       3.18827952E-05
  -8.72999954       3.18571583E-05
  -8.72000027       3.18053280E-05
  -8.71000004       3.17284212E-05
  -8.69999981       3.16276892E-05
  -8.68999958       3.15042562E-05
  -8.68000031       3.13595083E-05
  -8.67000008       3.11947188E-05
  -8.65999985       3.10113137E-05
  -8.64999962       3.08106391E-05
  -8.64000034       3.05941285E-05
  -8.63000011       3.03632605E-05
  -8.61999989       3.01194668E-05
  -8.60999966       2.98641880E-05
  -8.60000038       2.95988866E-05
  -8.59000015       2.93249923E-05
  -8.57999992       2.90439257E-05
  -8.56999969       2.87570056E-05
  -8.56000042       2.84656380E-05
  -8.55000019       2.81711618E-05
  -8.53999996       2.78747866E-05
  -8.52999973       2.75778366E-05
  -8.52000046       2.72814868E-05
  -8.51000023       2.69868615E-05
  -8.50000000       2.66950610E-05
  -8.48999977       2.64071186E-05
  -8.47999954       2.61239456E-05
  -8.47000027       2.58464479E-05
  -8.46000004       2.55754385E-05
  -8.44999981       2.53116668E-05
  -8.43999958       2.50558096E-05
  -8.43000031       2.48085889E-05
  -8.42000008       2.45705833E-05
  -8.40999985       2.43423201E-05
  -8.39999962       2.41243197E-05
  -8.39000034       2.39169822E-05
  -8.38000011       2.37208205E-05
  -8.36999989       2.35361586E-05
  -8.35999966       2.33634964E-05
  -8.35000038       2.32031471E-05
  -8.34000015       2.30554942E-05
  -8.32999992       2.29208727E-05
  -8.31999969       2.27996861E-05
  -8.31000042       2.26923530E-05
  -8.30000019       2.25993135E-05
  -8.28999996       2.25210697E-05
  -8.27999973       2.24580799E-05
  -8.27000046       2.24109790E-05
  -8.26000023       2.23804054E-05
  -8.25000000       2.23670377E-05
  -8.23999977       2.23716143E-05
  -8.22999954       2.23950010E-05
  -8.22000027       2.24381056E-05
  -8.21000004       2.25018430E-05
  -8.19999981       2.25873373E-05
  -8.18999958       2.26956327E-05
  -8.18000031       2.28278695E-05
  -8.17000008       2.29852612E-05
  -8.15999985       2.31689210E-05
  -8.14999962       2.33801202E-05
  -8.14000034       2.36199994E-05
  -8.13000011       2.38896810E-05
  -8.11999989       2.41902617E-05
  -8.10999966       2.45228748E-05
  -8.10000038       2.48884080E-05
  -8.09000015       2.52876689E-05
  -8.07999992       2.57214215E-05
  -8.06999969       2.61902369E-05
  -8.06000042       2.66944917E-05
  -8.05000019       2.72344241E-05
  -8.03999996       2.78102070E-05
  -8.02999973       2.84217076E-05
  -8.02000046       2.90686585E-05
  -8.01000023       2.97505267E-05
  -8.00000000       3.04665973E-05
  -7.98999977       3.12161974E-05
  -7.98000002       3.19981300E-05
  -7.96999979       3.28112801E-05
  -7.96000004       3.36541889E-05
  -7.94999981       3.45255394E-05
  -7.94000006       3.54236181E-05
  -7.92999983       3.63467152E-05
  -7.92000008       3.72931900E-05
  -7.90999985       3.82610524E-05
  -7.90000010       3.92485708E-05
  -7.88999987       4.02537553E-05
  -7.88000011       4.12746667E-05
  -7.86999989       4.23094280E-05
  -7.86000013       4.33561727E-05
  -7.84999990       4.44129291E-05
  -7.84000015       4.54778929E-05
  -7.82999992       4.65492230E-05
  -7.82000017       4.76251953E-05
  -7.80999994       4.87041325E-05
  -7.80000019       4.97844267E-05
  -7.78999996       5.08644262E-05
  -7.78000021       5.19426540E-05
  -7.76999998       5.30177385E-05
  -7.76000023       5.40883448E-05
  -7.75000000       5.51531266E-05
  -7.73999977       5.62111200E-05
  -7.73000002       5.72609861E-05
  -7.71999979       5.83019137E-05
  -7.71000004       5.93329569E-05
  -7.69999981       6.03534427E-05
  -7.69000006       6.13625525E-05
  -7.67999983       6.23598244E-05
  -7.67000008       6.33447708E-05
  -7.65999985       6.43171661E-05
  -7.65000010       6.52768358E-05
  -7.63999987       6.62235252E-05
  -7.63000011       6.71574016E-05
  -7.61999989       6.80788144E-05
  -7.61000013       6.89879962E-05
  -7.59999990       6.98852891E-05
  -7.59000015       7.07714571E-05
  -7.57999992       7.16470677E-05
  -7.57000017       7.25128630E-05
  -7.55999994       7.33698253E-05
  -7.55000019       7.42188276E-05
  -7.53999996       7.50609397E-05
  -7.53000021       7.58973329E-05
  -7.51999998       7.67292586E-05
  -7.51000023       7.75578519E-05
  -7.50000000       7.83844662E-05
  -7.48999977       7.92104911E-05
  -7.48000002       8.00371199E-05
  -7.46999979       8.08658442E-05
  -7.46000004       8.16979809E-05
  -7.44999981       8.25349634E-05
  -7.44000006       8.33779995E-05