  -16.0000000       0.00000000    
  -15.9899998       0.00000000    
  -15.9799995       0.00000000    
  -15.9700003       0.00000000    
  -15.9600000       0.00000000    
  -15.9499998       0.00000000    
  -15.9399996       0.00000000    
  -15.9300003       0.00000000    
  -15.9200001       0.00000000    
  -15.9099998       0.00000000    
  -15.8999996       0.00000000    
  -15.8900003       0.00000000    
  -15.8800001       0.00000000    
  -15.8699999       0.00000000    
  -15.8599997       0.00000000    
  -15.8500004      -0.00000000    
  -15.8400002      -0.00000000    
  -15.8299999      -4.20389539E-45
  -15.8199997      -4.62428493E-44
  -15.8100004      -3.93764868E-43
  -15.8000002      -2.66386838E-42
  -15.7900000      -1.50667611E-41
  -15.7799997      -7.33019227E-41
  -15.7700005      -3.13086511E-40
  -15.7600002      -1.19084866E-39
  -15.7500000      -4.07484701E-39
  -15.7399998      -1.26353541E-38
  -15.7299995      -3.56820952E-38
  -15.7200003      -9.20441999E-38
  -15.7100000      -2.17096109E-37
  -15.6999998      -4.67535184E-37
  -15.6899996      -9.15064937E-37
  -15.6800003      -1.61123369E-36
  -15.6700001      -2.49921783E-36
  -15.6599998      -3.25405054E-36
  -15.6499996      -3.06581145E-36
  -15.6400003      -4.53649683E-37
  -15.6300001       6.69381183E-36
  -15.6199999       2.05558691E-35
  -15.6099997       4.19952732E-35
  -15.6000004       6.82571286E-35
  -15.5900002       9.01492587E-35
  -15.5799999       8.98492092E-35
  -15.5699997       4.12881428E-35
  -15.5600004      -8.44168641E-35
  -15.5500002      -3.06155805E-34
  -15.5400000      -6.11542441E-34
  -15.5299997      -9.28923023E-34
  -15.5200005      -1.09995387E-33
  -15.5100002      -8.69353378E-34
  -15.5000000       7.86879592E-35
  -15.4899998       1.99719355E-33
  -15.4799995       4.83262515E-33
  -15.4700003       7.87646896E-33
  -15.4600000       9.44245151E-33
  -15.4499998       6.86850900E-33
  -15.4399996      -2.71816795E-33
  -15.4300003      -2.05035969E-32
  -15.4200001      -4.30877719E-32
  -15.4099998      -5.97502427E-32
  -15.3999996      -5.23551431E-32
  -15.3900003      -1.09853547E-33
  -15.3800001       1.01887101E-31
  -15.3699999       2.33361231E-31
  -15.3599997       3.23731285E-31
  -15.3500004       2.62399092E-31
  -15.3400002      -5.86173776E-32
  -15.3299999      -6.57513988E-31
  -15.3199997      -1.35620799E-30
  -15.3100004      -1.71856108E-30
  -15.3000002      -1.12590645E-30
  -15.2900000       9.33659052E-31
  -15.2799997       4.37585051E-30
  -15.2700005       8.00752846E-30
  -15.2600002       9.34660799E-30
  -15.2500000       5.20624153E-30
  -15.2399998      -6.69556316E-30
  -15.2299995      -2.53393941E-29
  -15.2200003      -4.42020813E-29
  -15.2100000      -5.08914048E-29
  -15.1999998      -3.03301165E-29
  -15.1899996       2.78057851E-29
  -15.1800003       1.18881926E-28
  -15.1700001       2.14603870E-28
  -15.1599998       2.62098939E-28
  -15.1499996       1.96583654E-28
  -15.1400003      -3.07582237E-29
  -15.1300001      -4.15552656E-28
  -15.1199999      -8.67830100E-28
  -15.1099997      -1.20349273E-27
  -15.1000004      -1.17615714E-27
  -15.0900002      -5.54433631E-28
  -15.0799999       7.67688628E-28
  -15.0699997       2.65625837E-27
  -15.0600004       4.65631543E-27
  -15.0500002       5.98084294E-27
  -15.0400000       5.59997296E-27
  -15.0299997       2.45883168E-27
  -15.0200005      -4.14371685E-27
  -15.0100002      -1.39915344E-26
  -15.0000000      -2.52425829E-26
  -14.9899998      -3.37795478E-26
  -14.9799995      -3.30880065E-26
  -14.9700003      -1.53878629E-26
  -14.9600000       2.52510339E-26
  -14.9499998       8.76454911E-26
  -14.9399996       1.57269208E-25
  -14.9300003       2.02177913E-25
  -14.9200001       1.75904593E-25
  -14.9099998       3.21320765E-26
  -14.8999996      -2.47363878E-25
  -14.8900003      -6.17367968E-25
  -14.8800001      -9.42307762E-25
  -14.8699999      -1.00180424E-24
  -14.8599997      -5.52279498E-25
  -14.8500004       5.47610970E-25
  -14.8400002       2.17334374E-24
  -14.8299999       3.80188516E-24
  -14.8199997       4.51359507E-24
  -14.8100004       3.22926542E-24
  -14.8000002      -7.83163998E-25
  -14.7900000      -7.23271460E-24
  -14.7799997      -1.42331081E-23
  -14.7700005      -1.82405167E-23
  -14.7600002      -1.48968951E-23
  -14.7500000      -9.26316960E-25
  -14.7399998       2.32698584E-23
  -14.7299995       5.13103374E-23
  -14.7200003       7.03139745E-23
  -14.7100000       6.36408613E-23
  -14.6999998       1.75287291E-23
  -14.6899996      -6.94777820E-23
  -14.6800003      -1.77642666E-22
  -14.6700001      -2.62854664E-22
  -14.6599998      -2.64463081E-22
  -14.6499996      -1.26864194E-22
  -14.6400003       1.68042229E-22
  -14.6300001       5.67864741E-22
  -14.6199999       9.33020755E-22
  -14.6099997       1.05470728E-21
  -14.6000004       7.18943444E-22
  -14.5900002      -1.88710208E-22
  -14.5799999      -1.56674198E-21
  -14.5699997      -3.02081432E-21
  -14.5600004      -3.88679568E-21
  -14.5500002      -3.39837905E-21
  -14.5400000      -9.98041271E-22
  -14.5299997       3.27976285E-21
  -14.5200005       8.49676613E-21
  -14.5100002       1.27557697E-20
  -14.5000000       1.35632498E-20
  -14.4899998       8.65853083E-21
  -14.4799995      -2.83263639E-21
  -14.4700003      -1.92821730E-20
  -14.4600000      -3.60052431E-20
  -14.4499998      -4.57931323E-20
  -14.4399996      -4.08259450E-20
  -14.4300003      -1.57842184E-20
  -14.4200001       2.86334288E-20
  -14.4099998       8.31233216E-20
  -14.3999996       1.29663030E-19
  -14.3900003       1.45045306E-19
  -14.3800001       1.08200472E-19
  -14.3699999       9.90901062E-21
  -14.3599997      -1.38098941E-19
  -14.3500004      -2.98682460E-19
  -14.3400002      -4.13265147E-19
  -14.3299999      -4.16159969E-19
  -14.3199997      -2.57731901E-19
  -14.3100004       6.92836658E-20
  -14.3000002       5.09498796E-19
  -14.2900000       9.41012245E-19
  -14.2799997       1.19587311E-18
  -14.2700005       1.10626349E-18
  -14.2600002       5.68338531E-19
  -14.2500000      -3.94104955E-19
  -14.2399998      -1.59034137E-18
  -14.2299995      -2.67143293E-18
  -14.2200003      -3.20080599E-18
  -14.2100000      -2.78226169E-18
  -14.1999998      -1.21818496E-18
  -14.1899996       1.34950422E-18
  -14.1800003       4.37255365E-18
  -14.1700001       6.95228430E-18
  -14.1599998       8.03824423E-18
  -14.1499996       6.74510699E-18
  -14.1400003       2.71378727E-18
  -14.1300001      -3.59537900E-18
  -14.1199999      -1.07997760E-17
  -14.1099997      -1.67748704E-17
  -14.1000004      -1.91406732E-17
  -14.0900002      -1.59795545E-17
  -14.0799999      -6.61126007E-18
  -14.0699997       7.81684521E-18
  -14.0600004       2.41714665E-17
  -14.0500002       3.77786124E-17
  -14.0400000       4.34920581E-17
  -14.0299997       3.72071795E-17
  -14.0200005       1.74526010E-17
  -14.0100002      -1.34272291E-17
  -14.0000000      -4.89781747E-17
  -13.9899998      -7.95499066E-17
  -13.9799995      -9.44358026E-17
  -13.9700003      -8.48812113E-17
  -13.9600000      -4.72484805E-17
  -13.9499998       1.45890539E-17
  -13.9399996       8.85344049E-17
  -13.9300003       1.55846810E-16
  -13.9200001       1.95076214E-16
  -13.9099998       1.87726020E-16
  -13.8999996       1.24365004E-16
  -13.8900003       9.49638250E-18
  -13.8800001      -1.36511853E-16
  -13.8699999      -2.79639854E-16
  -13.8599997      -3.78830165E-16
  -13.8500004      -3.96048730E-16
  -13.8400002      -3.07651975E-16
  -13.8299999      -1.14112027E-16
  -13.8199997       1.54975663E-16
  -13.8100004       4.42951618E-16
  -13.8000002       6.76041083E-16
  -13.7900000       7.79966943E-16
  -13.7799997       6.99919365E-16
  -13.7700005       4.19044881E-16
  -13.7600002      -2.98385157E-17
  -13.7500000      -5.63656910E-16
  -13.7399998      -1.06169164E-15
  -13.7299995      -1.39022025E-15
  -13.7200003      -1.43461504E-15
  -13.7100000      -1.13165582E-15
  -13.6999998      -4.93715547E-16
  -13.6899996       3.82513064E-16
  -13.6800003       1.32701624E-15
  -13.6700001       2.12689232E-15
  -13.6599998       2.57098555E-15
  -13.6499996       2.49942567E-15
  -13.6400003       1.84678848E-15
  -13.6300001       6.68300154E-16
  -13.6199999      -8.58137337E-16
  -13.6099997      -2.45610184E-15
  -13.6000004      -3.79726141E-15
  -13.5900002      -4.56194920E-15
  -13.5799999      -4.50249553E-15
  -13.5699997      -3.49802669E-15
  -13.5600004      -1.59148015E-15
  -13.5500002       9.97083563E-16
  -13.5400000       3.88349529E-15
  -13.5299997       6.55889883E-15
  -13.5200005       8.45414098E-15
  -13.5100002       9.02630326E-15
  -13.5000000       7.86210984E-15
  -13.4899998       4.78833061E-15
  -13.4799995      -2.75858646E-17
  -13.4700003      -6.01106714E-15
  -13.4600000      -1.21775470E-14
  -13.4499998      -1.72210556E-14
  -13.4399996      -1.97102771E-14
  -13.4300003      -1.83845469E-14
  -13.4200001      -1.25103531E-14
  -13.4099998      -2.22498000E-15
  -13.3999996       1.12304126E-14
  -13.3900003       2.54897184E-14
  -13.3800001       3.73283015E-14
  -13.3699999       4.32351061E-14
  -13.3599997       4.02271837E-14
  -13.3500004       2.67564410E-14
  -13.3400002       3.48905047E-15
  -13.3299999      -2.62868950E-14
  -13.3199997      -5.68324515E-14
  -13.3100004      -8.08083120E-14
  -13.3000002      -9.07466851E-14
  -13.2900000      -8.09051990E-14
  -13.2799997      -4.91080700E-14
  -13.2700005       1.90390835E-15
  -13.2600002       6.40657571E-14
  -13.2500000       1.24822665E-13
  -13.2399998       1.69247374E-13
  -13.2299995       1.83166579E-13
  -13.2200003       1.56718158E-13
  -13.2100000       8.75544415E-14
  -13.1999998      -1.71417344E-14
  -13.1899996      -1.40513360E-13
  -13.1800003      -2.58106904E-13
  -13.1700001      -3.42053236E-13
  -13.1599998      -3.66733336E-13
  -13.1499996      -3.14878901E-13
  -13.1400003      -1.82816951E-13
  -13.1300001       1.64172603E-14
  -13.1199999       2.53078754E-13
  -13.1099997       4.84258467E-13
  -13.1000004       6.60712208E-13
  -13.0900002       7.35993785E-13
  -13.0799999       6.76314961E-13
  -13.0699997       4.69231967E-13
  -13.0600004       1.29270997E-13
  -13.0500002      -3.00988320E-13
  -13.0400000      -7.55114612E-13
  -13.0299997      -1.15209535E-12
  -13.0200005      -1.40944754E-12
  -13.0100002      -1.45807563E-12
  -13.0000000      -1.25625693E-12
  -12.9899998      -8.00084120E-13
  -12.9799995      -1.28166629E-13
  -12.9700003       6.80639898E-13
  -12.9600000       1.51644051E-12
  -12.9499998       2.25308769E-12
  -12.9399996       2.76608944E-12
  -12.9300003       2.95060894E-12
  -12.9200001       2.73659524E-12
  -12.9099998       2.09884670E-12
  -12.8999996       1.06105229E-12
  -12.8900003      -3.05734523E-13
  -12.8800001      -1.88860624E-12
  -12.8699999      -3.54020827E-12
  -12.8599997      -5.08631288E-12
  -12.8500004      -6.33300617E-12
  -12.8400002      -7.07454624E-12
  -12.8299999      -7.10449321E-12
  -12.8199997      -6.23336669E-12
  -12.8100004      -4.31552754E-12
  -12.8000002      -1.28571817E-12
  -12.7900000       2.79783662E-12
  -12.7799997       7.71092825E-12
  -12.7700005       1.30322151E-11
  -12.7600002       1.81358366E-11
  -12.7500000       2.22191918E-11
  -12.7399998       2.43728891E-11
  -12.7299995       2.36926867E-11
  -12.7200003       1.94245418E-11
  -12.7100000       1.11249846E-11
  -12.6999998      -1.18740076E-12
  -12.6899996      -1.69160970E-11
  -12.6800003      -3.48315543E-11
  -12.6700001      -5.30946884E-11
  -12.6599998      -6.93673591E-11
  -12.6499996      -8.10063197E-11
  -12.6400003      -8.53265375E-11
  -12.6300001      -7.99114247E-11
  -12.6199999      -6.29432201E-11
  -12.6099997      -3.35245477E-11
  -12.6000004       8.03592349E-12
  -12.5900002       6.00002825E-11
  -12.5799999       1.19065688E-10
  -12.5699997       1.80341145E-10
  -12.5600004       2.37463466E-10
  -12.5500002       2.82877000E-10
  -12.5400000       3.08297943E-10
  -12.5299997       3.05372505E-10
  -12.5200005       2.66519612E-10
  -12.5100002       1.85924762E-10
  -12.5000000       6.06232009E-11
  -12.4899998      -1.08419579E-10
  -12.4799995      -3.15337700E-10
  -12.4700003      -5.48628365E-10
  -12.4600000      -7.90760291E-10
  -12.4499998      -1.01822217E-09
  -12.4399996      -1.20206711E-09
  -12.4300003      -1.30897104E-09
  -12.4200001      -1.30277400E-09
  -12.4099998      -1.14643406E-09
  -12.3999996      -8.04290634E-10
  -12.3900003      -2.44515824E-10
  -12.3800001       5.58389501E-10
  -12.3699999       1.62118341E-09
  -12.3599997       2.94971114E-09
  -12.3500004       4.53707782E-09
  -12.3400002       6.36231690E-09
  -12.3299999       8.38965075E-09
  -12.3199997       1.05684457E-08
  -12.3100004       1.28339464E-08
  -12.3000002       1.51087747E-08
  -12.2900000       1.73052896E-08
  -12.2799997       1.93285938E-08
  -12.2700005       2.10801989E-08
  -12.2600002       2.24621228E-08
  -12.2500000       2.33811672E-08
  -12.2399998       2.37532163E-08
  -12.2299995       2.35072051E-08
  -12.2200003       2.25886225E-08
  -12.2100000       2.09621813E-08
  -12.1999998       1.86136528E-08
  -12.1899996       1.55505493E-08
  -12.1800003       1.18017631E-08
  -12.1700001       7.41602690E-09
  -12.1599998       2.45940734E-09
  -12.1499996      -2.98808800E-09
  -12.1400003      -8.83651730E-09
  -12.1300001      -1.49901940E-08
  -12.1199999      -2.13519264E-08
  -12.1099997      -2.78267294E-08
  -12.1000004      -3.43248239E-08
  -12.0900002      -4.07635845E-08
  -12.0799999      -4.70684007E-08
  -12.0699997      -5.31723714E-08
  -12.0600004      -5.90149725E-08
  -12.0500002      -6.45400746E-08
  -12.0400000      -6.96934848E-08
  -12.0299997      -7.44204200E-08
  -12.0200005      -7.86632413E-08
  -12.0100002      -8.23599891E-08
  -12.0000000      -8.54434745E-08
  -11.9899998      -8.78414141E-08
  -11.9799995      -8.94774175E-08
  -11.9700003      -9.02729269E-08
  -11.9600000      -9.01496904E-08
  -11.9499998      -8.90329588E-08
  -11.9399996      -8.68546692E-08
  -11.9300003      -8.35569693E-08
  -11.9200001      -7.90952654E-08
  -11.9099998      -7.34411003E-08
  -11.8999996      -6.65840716E-08
  -11.8900003      -5.85331250E-08
  -11.8800001      -4.93171832E-08
  -11.8699999      -3.89845631E-08
  -11.8599997      -2.76017094E-08
  -11.8500004      -1.52514090E-08
  -11.8400002      -2.03036432E-09
  -11.8299999       1.19535573E-08
  -11.8199997       2.65840843E-08
  -11.8100004       4.17394084E-08
  -11.8000002       5.72946881E-08
  -11.7900000       7.31245180E-08
  -11.7799997       8.91049012E-08
  -11.7700005       1.05114573E-07
  -11.7600002       1.21036138E-07
  -11.7500000       1.36756071E-07
  -11.7399998       1.52164390E-07
  -11.7299995       1.67153402E-07
  -11.7200003       1.81615945E-07
  -11.7100000       1.95443306E-07
  -11.6999998       2.08523119E-07
  -11.6899996       2.20737306E-07
  -11.6800003       2.31960755E-07
  -11.6700001       2.42061219E-07
  -11.6599998       2.50899490E-07
  -11.6499996       2.58331283E-07
  -11.6400003       2.64209916E-07
  -11.6300001       2.68389670E-07
  -11.6199999       2.70729601E-07
  -11.6099997       2.71097889E-07
  -11.6000004       2.69375477E-07
  -11.5900002       2.65460216E-07
  -11.5799999       2.59269768E-07
  -11.5699997       2.50744819E-07
  -11.5600004       2.39850380E-07
  -11.5500002       2.26576972E-07
  -11.5400000       2.10939930E-07
  -11.5299997       1.92978334E-07
  -11.5200005       1.72752010E-07
  -11.5100002       1.50337300E-07
  -11.5000000       1.25822865E-07
  -11.4899998       9.93047635E-08
  -11.4799995       7.08811214E-08
  -11.4700003       4.06485263E-08
  -11.4600000       8.69927952E-09
  -11.4499998      -2.48796663E-08
  -11.4399996      -6.00061512E-08
  -11.4300003      -9.66010703E-08
  -11.4200001      -1.34584994E-07
  -11.4099998      -1.73874341E-07
  -11.3999996      -2.14377664E-07
  -11.3900003      -2.55993143E-07
  -11.3800001      -2.98606381E-07
  -11.3699999      -3.42089407E-07
  -11.3599997      -3.86301394E-07
  -11.3500004      -4.31092019E-07
  -11.3400002      -4.76302887E-07
  -11.3299999      -5.21772961E-07
  -11.3199997      -5.67341715E-07
  -11.3100004      -6.12854421E-07
  -11.3000002      -6.58164481E-07
  -11.2900000      -7.03136777E-07
  -11.2799997      -7.47649040E-07
  -11.2700005      -7.91591958E-07
  -11.2600002      -8.34868160E-07
  -11.2500000      -8.77389823E-07
  -11.2399998      -9.19076058E-07
  -11.2299995      -9.59850240E-07
  -11.2200003      -9.99636427E-07
  -11.2100000      -1.03835782E-06
  -11.1999998      -1.07593507E-06
  -11.1899996      -1.11228815E-06
  -11.1800003      -1.14733575E-06
  -11.1700001      -1.18099967E-06
  -11.1599998      -1.21320727E-06
  -11.1499996      -1.24389396E-06
  -11.1400003      -1.27300837E-06
  -11.1300001      -1.30051308E-06
  -11.1199999      -1.32638559E-06
  -11.1099997      -1.35061975E-06
  -11.1000004      -1.37322297E-06
  -11.0900002      -1.39421377E-06
  -11.0799999      -1.41362034E-06
  -11.0699997      -1.43147543E-06
  -11.0600004      -1.44781632E-06
  -11.0500002      -1.46267814E-06
  -11.0400000      -1.47609444E-06
  -11.0299997      -1.48809499E-06
  -11.0200005      -1.49870505E-06
  -11.0100002      -1.50794597E-06
  -11.0000000      -1.51583561E-06
  -10.9899998      -1.52238601E-06
  -10.9799995      -1.52760845E-06
  -10.9700003      -1.53151223E-06
  -10.9600000      -1.53410440E-06
  -10.9499998      -1.53539293E-06
  -10.9399996      -1.53538679E-06
  -10.9300003      -1.53409519E-06
  -10.9200001      -1.53152450E-06
  -10.9099998      -1.52768268E-06
  -10.8999996      -1.52257348E-06
  -10.8900003      -1.51619747E-06
  -10.8800001      -1.50855203E-06
  -10.8699999      -1.49962455E-06
  -10.8599997      -1.48940353E-06
  -10.8500004      -1.47786500E-06
  -10.8400002      -1.46498598E-06
  -10.8299999      -1.45073898E-06
  -10.8199997      -1.43509635E-06
  -10.8100004      -1.41802605E-06
  -10.8000002      -1.39950089E-06
  -10.7900000      -1.37949269E-06
  -10.7799997      -1.35797370E-06
  -10.7700005      -1.33491892E-06
  -10.7600002      -1.31030458E-06
  -10.7500000      -1.28411318E-06
  -10.7399998      -1.25632550E-06
  -10.7299995      -1.22691995E-06
  -10.7200003      -1.19588481E-06
  -10.7100000      -1.16320359E-06
  -10.6999998      -1.12886300E-06
  -10.6899996      -1.09284485E-06
  -10.6800003      -1.05513527E-06
  -10.6700001      -1.01572698E-06
  -10.6599998      -9.74608042E-07
  -10.6499996      -9.31784086E-07
  -10.6400003      -8.87265969E-07
  -10.6300001      -8.41087171E-07
  -10.6199999      -7.93295840E-07
  -10.6099997      -7.43956321E-07
  -10.6000004      -6.93158256E-07
  -10.5900002      -6.41001520E-07
  -10.5799999      -5.87602642E-07
  -10.5699997      -5.33082186E-07
  -10.5600004      -4.77567596E-07
  -10.5500002      -4.21190947E-07
  -10.5400000      -3.64081899E-07
  -10.5299997      -3.06371902E-07
  -10.5200005      -2.48190901E-07
  -10.5100002      -1.89665982E-07
  -10.5000000      -1.30929237E-07
  -10.4899998      -7.21039299E-08
  -10.4799995      -1.33171421E-08
  -10.4700003       4.53030076E-08
  -10.4600000       1.03626320E-07
  -10.4499998       1.61517448E-07
  -10.4399996       2.18824468E-07
  -10.4300003       2.75389425E-07
  -10.4200001       3.31034073E-07
  -10.4099998       3.85567859E-07
  -10.3999996       4.38796519E-07
  -10.3900003       4.90519824E-07
  -10.3800001       5.40543056E-07
  -10.3699999       5.88683918E-07
  -10.3599997       6.34780633E-07
  -10.3500004       6.78692174E-07
  -10.3400002       7.20301330E-07
  -10.3299999       7.59510044E-07
  -10.3199997       7.96240499E-07
  -10.3100004       8.30429087E-07
  -10.3000002       8.62022318E-07
  -10.2900000       8.90977617E-07
  -10.2799997       9.17264742E-07
  -10.2700005       9.40861241E-07
  -10.2600002       9.61764954E-07
  -10.2500000       9.79984861E-07
  -10.2399998       9.95549954E-07
  -10.2299995       1.00850286E-06
  -10.2200003       1.01890657E-06
  -10.2100000       1.02683771E-06
  -10.1999998       1.03239267E-06
  -10.1899996       1.03568232E-06
  -10.1800003       1.03683544E-06
  -10.1700001       1.03599314E-06
  -10.1599998       1.03331013E-06
  -10.1499996       1.02895217E-06
  -10.1400003       1.02308968E-06
  -10.1300001       1.01589762E-06
  -10.1199999       1.00754903E-06
  -10.1099997       9.98216137E-07
  -10.1000004       9.88069132E-07
  -10.0900002       9.77277409E-07
  -10.0799999       9.66007292E-07
  -10.0699997       9.54423854E-07
  -10.0600004       9.42689326E-07
  -10.0500002       9.30960653E-07
  -10.0400000       9.19382217E-07
  -10.0299997       9.08087770E-07
  -10.0200005       8.97195207E-07
  -10.0100002       8.86810255E-07
  -10.0000000       8.77026480E-07
  -9.98999977       8.67931988E-07
  -9.97999954       8.59613806E-07
  -9.97000027       8.52161747E-07
  -9.96000004       8.45669547E-07
  -9.94999981       8.40235884E-07
  -9.93999958       8.35957280E-07
  -9.93000031       8.32925593E-07
  -9.92000008       8.31221882E-07
  -9.90999985       8.30912313E-07
  -9.89999962       8.32046226E-07
  -9.89000034       8.34655680E-07
  -9.88000011       8.38757558E-07
  -9.86999989       8.44355441E-07
  -9.85999966       8.51441996E-07
  -9.85000038       8.60000512E-07
  -9.84000015       8.70006659E-07
  -9.82999992       8.81431220E-07
  -9.81999969       8.94242135E-07
  -9.81000042       9.08409390E-07
  -9.80000019       9.23911500E-07
  -9.78999996       9.40741415E-07
  -9.77999973       9.58911869E-07
  -9.77000046       9.78461230E-07
  -9.76000023       9.99452823E-07
  -9.75000000       1.02197475E-06
  -9.73999977       1.04613764E-06
  -9.72999954       1.07206699E-06
  -9.72000027       1.09990026E-06
  -9.71000004       1.12977978E-06
  -9.69999981       1.16185095E-06
  -9.68999958       1.19625543E-06
  -9.68000031       1.23312759E-06
  -9.67000008       1.27258340E-06
  -9.65999985       1.31471279E-06
  -9.64999962       1.35956361E-06
  -9.64000034       1.40712643E-06
  -9.63000011       1.45731985E-06
  -9.61999989       1.50997482E-06
  -9.60999966       1.56482668E-06
  -9.60000038       1.62150786E-06
  -9.59000015       1.67954636E-06
  -9.57999992       1.73837270E-06
  -9.56999969       1.79732672E-06
  -9.56000042       1.85566682E-06
  -9.55000019       1.91258914E-06
  -9.53999996       1.96723568E-06
  -9.52999973       2.01871376E-06
  -9.52000046       2.06611571E-06
  -9.51000023       2.10853091E-06
  -9.50000000       2.14507259E-06
  -9.48999977       2.17488582E-06
  -9.47999954       2.19717640E-06
  -9.47000027       2.21122718E-06
  -9.46000004       2.21642063E-06
  -9.44999981       2.21225446E-06
  -9.43999958       2.19836443E-06
  -9.43000031       2.17454613E-06
  -9.42000008       2.14076999E-06
  -9.40999985       2.09720179E-06
  -9.39999962       2.04420621E-06
  -9.39000034       1.98236125E-06
  -9.38000011       1.91245044E-06
  -9.36999989       1.83546217E-06
  -9.35999966       1.75256685E-06
  -9.35000038       1.66511211E-06
  -9.34000015       1.57458430E-06
  -9.32999992       1.48259721E-06
  -9.31999969       1.39085512E-06
  -9.31000042       1.30113119E-06
  -9.30000019       1.21523783E-06
  -9.28999996       1.13499652E-06
  -9.27999973       1.06221023E-06
  -9.27000046       9.98628138E-07
  -9.26000023       9.45933152E-07
  -9.25000000       9.05702336E-07
  -9.23999977       8.79389631E-07
  -9.22999954       8.68307325E-07
  -9.22000027       8.73602744E-07
  -9.21000004       8.96256495E-07
  -9.19999981       9.37061031E-07
  -9.18999958       9.96616450E-07
  -9.18000031       1.07533856E-06
  -9.17000008       1.17344121E-06
  -9.15999985       1.29095861E-06
  -9.14999962       1.42774104E-06
  -9.14000034       1.58346654E-06
  -9.13000011       1.75764649E-06
  -9.11999989       1.94963536E-06
  -9.10999966       2.15863724E-06
  -9.10000038       2.38370467E-06
  -9.09000015       2.62375329E-06
  -9.07999992       2.87755279E-06
  -9.06999969       3.14374392E-06
  -9.06000042       3.42082785E-06
  -9.05000019       3.70719044E-06
  -9.03999996       4.00110321E-06
  -9.02999973       4.30072851E-06
  -9.02000046       4.60413366E-06
  -9.01000023       4.90929369E-06
  -9.00000000       5.21411039E-06
  -8.98999977       5.51641233E-06
  -8.97999954       5.81397535E-06
  -8.97000027       6.10453208E-06
  -8.96000004       6.38580241E-06
  -8.94999981       6.65550806E-06
  -8.93999958       6.91141304E-06
  -8.93000031       7.15132865E-06
  -8.92000008       7.37314576E-06
  -8.90999985       7.57484941E-06
  -8.89999962       7.75453464E-06
  -8.89000034       7.91040384E-06
  -8.88000011       8.04081537E-06
  -8.86999989       8.14426858E-06
  -8.85999966       8.21943922E-06
  -8.85000038       8.26518135E-06
  -8.84000015       8.28056272E-06
  -8.82999992       8.26484029E-06
  -8.81999969       8.21750473E-06
  -8.81000042       8.13823044E-06
  -8.80000019       8.02689647E-06
  -8.78999996       7.88355010E-06
  -8.77999973       7.70840325E-06
  -8.77000046       7.50183426E-06
  -8.76000023       7.26434246E-06
  -8.75000000       6.99656994E-06
  -8.73999977       6.69928249E-06
  -8.72999954       6.37337052E-06
  -8.72000027       6.01981901E-06
  -8.71000004       5.63970298E-06
  -8.69999981       5.23419430E-06
  -8.68999958       4.80448580E-06
  -8.68000031       4.35181983E-06
  -8.67000008       3.87748378E-06
  -8.65999985       3.38278619E-06
  -8.64999962       2.86903378E-06
  -8.64000034       2.33758510E-06
  -8.63000011       1.78978735E-06
  -8.61999989       1.22702852E-06
  -8.60999966       6.50682637E-07
  -8.60000038       6.21362943E-08
  -8.59000015      -5.37244603E-07
  -8.57999992      -1.14614545E-06
  -8.56999969      -1.76321544E-06
  -8.56000042      -2.38721032E-06
  -8.55000019      -3.01687260E-06
  -8.53999996      -3.65099481E-06
  -8.52999973      -4.28838712E-06
  -8.52000046      -4.92790332E-06
  -8.51000023      -5.56844225E-06
  -8.50000000      -6.20895298E-06
  -8.48999977      -6.84846418E-06
  -8.47999954      -7.48604998E-06
  -8.47000027      -8.12086910E-06
  -8.46000004      -8.75215756E-06
  -8.44999981      -9.37919322E-06
  -8.43999958      -1.00013385E-05
  -8.43000031      -1.06179996E-05
  -8.42000008      -1.12286407E-05
  -8.40999985      -1.18327771E-05
  -8.39999962      -1.24299995E-05
  -8.39000034      -1.30199442E-05
  -8.38000011      -1.36023182E-05
  -8.36999989      -1.41768414E-05
  -8.35999966      -1.47432920E-05
  -8.35000038      -1.53014389E-05
  -8.34000015      -1.58510447E-05
  -8.32999992      -1.63918594E-05
  -8.31999969      -1.69235736E-05
  -8.31000042      -1.74458437E-05
  -8.30000019      -1.79582748E-05
  -8.28999996      -1.84603978E-05
  -8.27999973      -1.89517013E-05
  -8.27000046      -1.94316071E-05
  -8.26000023      -1.98994640E-05
  -8.25000000      -2.03545278E-05
  -8.23999977      -2.07959820E-05
  -8.22999954      -2.12229297E-05
  -8.22000027      -2.16343942E-05
  -8.21000004      -2.20293114E-05
  -8.19999981      -2.24065825E-05
  -8.18999958      -2.27650653E-05
  -8.18000031      -2.31035865E-05
  -8.17000008      -2.34209656E-05
  -8.15999985      -2.37160093E-05
  -8.14999962      -2.39875335E-05
  -8.14000034      -2.42343831E-05
  -8.13000011      -2.44554158E-05
  -8.11999989      -2.46495456E-05
  -8.10999966      -2.48157539E-05
  -8.10000038      -2.49531004E-05
  -8.09000015      -2.50607482E-05
  -8.07999992      -2.51379879E-05
  -8.06999969      -2.51842303E-05
  -8.06000042      -2.51990241E-05
  -8.05000019      -2.51820766E-05
  -8.03999996      -2.51332076E-05
  -8.02999973      -2.50524063E-05
  -8.02000046      -2.49397999E-05
  -8.01000023      -2.47956723E-05
  -8.00000000      -2.46204690E-05
  -7.98999977      -2.44147832E-05
  -7.98000002      -2.41793769E-05
  -7.96999979      -2.39151523E-05
  -7.96000004      -2.36231499E-05
  -7.94999981      -2.33045339E-05
  -7.94000006      -2.29605703E-05
  -7.92999983      -2.25926233E-05
  -7.92000008      -2.22021336E-05
  -7.90999985      -2.17906145E-05
  -7.90000010      -2.13596468E-05
  -7.88999987      -2.09108766E-05
  -7.88000011      -2.04460066E-05
  -7.86999989      -1.99667793E-05
  -7.86000013      -1.94749628E-05
  -7.84999990      -1.89723505E-05
  -7.84000015      -1.84607397E-05
  -7.82999992      -1.79419221E-05
  -7.82000017      -1.74176566E-05
  -7.80999994      -1.68897095E-05
  -7.80000019      -1.63598124E-05
  -7.78999996      -1.58296862E-05
  -7.78000021      -1.53010205E-05
  -7.76999998      -1.47754872E-05
  -7.76000023      -1.42547324E-05
  -7.75000000      -1.37403449E-05
  -7.73999977      -1.32338573E-05
  -7.73000002      -1.27367275E-05
  -7.71999979      -1.22503379E-05
  -7.71000004      -1.17759673E-05
  -7.69999981      -1.13148280E-05
  -7.69000006      -1.08680315E-05
  -7.67999983      -1.04365890E-05
  -7.67000008      -1.00214156E-05
  -7.65999985      -9.62332251E-06
  -7.65000010      -9.24300457E-06
  -7.63999987      -8.88102113E-06
  -7.63000011      -8.53779784E-06
  -7.61999989      -8.21362664E-06
  -7.61000013      -7.90867125E-06
  -7.59999990      -7.62296531E-06
  -7.59000015      -7.35643061E-06
  -7.57999992      -7.10885706E-06
  -7.57000017      -6.87995816E-06
  -7.55999994      -6.66933011E-06
  -7.55000019      -6.47647948E-06
  -7.53999996      -6.30081422E-06
  -7.53000021      -6.14165083E-06
  -7.51999998      -5.99823352E-06
  -7.51000023      -5.86974556E-06
  -7.50000000      -5.75532613E-06
  -7.48999977      -5.65407254E-06
  -7.48000002      -5.56509258E-06
  -7.46999979      -5.48749176E-06
  -7.46000004      -5.42037878E-06
  -7.44999981      -5.36287371E-06
  -7.44000006      -5.31410251E-06