  -16.0000000       0.00000000    
  -15.9899998       0.00000000    
  -15.9799995       0.00000000    
  -15.9700003       0.00000000    
  -15.9600000       0.00000000    
  -15.9499998       0.00000000    
  -15.9399996       0.00000000    
  -15.9300003       0.00000000    
  -15.9200001       0.00000000    
  -15.9099998       0.00000000    
  -15.8999996       0.00000000    
  -15.8900003       0.00000000    
  -15.8800001       0.00000000    
  -15.8699999      -0.00000000    
  -15.8599997      -0.00000000    
  -15.8500004      -1.82168800E-44
  -15.8400002      -2.80259693E-43
  -15.8299999      -2.98476573E-42
  -15.8199997      -2.42915089E-41
  -15.8100004      -1.59771847E-40
  -15.8000002      -8.80902458E-40
  -15.7900000      -4.17744588E-39
  -15.7799997      -1.73587108E-38
  -15.7700005      -6.40739911E-38
  -15.7600002      -2.12211361E-37
  -15.7500000      -6.35192675E-37
  -15.7399998      -1.72644060E-36
  -15.7299995      -4.27098912E-36
  -15.7200003      -9.61362457E-36
  -15.7100000      -1.96116467E-35
  -15.6999998      -3.59076159E-35
  -15.6899996      -5.77826015E-35
  -15.6800003      -7.78271851E-35
  -15.6700001      -7.54310707E-35
  -15.6599998      -1.03281636E-35
  -15.6499996       1.77504652E-34
  -15.6400003       5.50351532E-34
  -15.6300001       1.12403993E-33
  -15.6199999       1.78107488E-33
  -15.6099997       2.16237053E-33
  -15.6000004       1.59856726E-33
  -15.5900002      -8.03880363E-34
  -15.5799999      -5.77790481E-33
  -15.5699997      -1.31265456E-32
  -15.5600004      -2.06944634E-32
  -15.5500002      -2.35836258E-32
  -15.5400000      -1.45421347E-32
  -15.5299997       1.33879182E-32
  -15.5200005       6.14601344E-32
  -15.5100002       1.18249465E-31
  -15.5000000       1.54958191E-31
  -15.4899998       1.29188369E-31
  -15.4799995       2.96239031E-33
  -15.4700003      -2.25138178E-31
  -15.4600000      -4.86106693E-31
  -15.4499998      -6.31777150E-31
  -15.4399996      -4.83769528E-31
  -15.4300003       4.56523773E-32
  -15.4200001       7.98528453E-31
  -15.4099998       1.29333418E-30
  -15.3999996       8.84004478E-31
  -15.3900003      -7.38540766E-31
  -15.3800001      -2.81990167E-30
  -15.3699999      -3.07859281E-30
  -15.3599997       1.68249785E-30
  -15.3500004       1.31766033E-29
  -15.3400002       2.76665644E-29
  -15.3299999       3.25088940E-29
  -15.3199997       7.36652104E-30
  -15.3100004      -6.51820818E-29
  -15.3000002      -1.78186653E-28
  -15.2900000      -2.75151087E-28
  -15.2799997      -2.40388942E-28
  -15.2700005       6.71910916E-29
  -15.2600002       7.15575900E-28
  -15.2500000       1.54838682E-27
  -15.2399998       2.05336372E-27
  -15.2299995       1.38847589E-27
  -15.2200003      -1.27699960E-27
  -15.2100000      -6.04179554E-27
  -15.1999998      -1.13550557E-26
  -15.1899996      -1.34456688E-26
  -15.1800003      -6.94157691E-27
  -15.1700001       1.25460531E-26
  -15.1599998       4.38551012E-26
  -15.1499996       7.52455467E-26
  -15.1400003       8.23517106E-26
  -15.1300001       3.37302409E-26
  -15.1199999      -9.25494141E-26
  -15.1099997      -2.82724741E-25
  -15.1000004      -4.61558522E-25
  -15.0900002      -4.86265695E-25
  -15.0799999      -1.83517396E-25
  -15.0699997       5.56057945E-25
  -15.0600004       1.63886563E-24
  -15.0500002       2.64098167E-24
  -15.0400000       2.79145709E-24
  -15.0299997       1.17812570E-24
  -15.0200005      -2.76425696E-24
  -15.0100002      -8.56101910E-24
  -15.0000000      -1.40804477E-23
  -14.9899998      -1.54635560E-23
  -14.9799995      -8.11404972E-24
  -14.9700003       1.09921811E-23
  -14.9600000       4.00459180E-23
  -14.9499998       6.94604649E-23
  -14.9399996       8.13388547E-23
  -14.9300003       5.36252497E-23
  -14.9200001      -2.98637432E-23
  -14.9099998      -1.64966176E-22
  -14.8999996      -3.13472851E-22
  -14.8900003      -3.98916938E-22
  -14.8800001      -3.21543870E-22
  -14.8699999       1.83713635E-24
  -14.8599997       5.77610973E-22
  -14.8500004       1.27414855E-21
  -14.8400002       1.79354931E-21
  -14.8299999       1.71579130E-21
  -14.8199997       6.42086278E-22
  -14.8100004      -1.57195497E-21
  -14.8000002      -4.55829186E-21
  -14.7900000      -7.27598407E-21
  -14.7799997      -8.10018311E-21
  -14.7700005      -5.28010509E-21
  -14.7600002       2.23126356E-21
  -14.7500000       1.37658105E-20
  -14.7399998       2.61531698E-20
  -14.7299995       3.37044854E-20
  -14.7200003       2.94614366E-20
  -14.7100000       7.86930036E-21
  -14.6999998      -3.15853812E-20
  -14.6899996      -8.09889500E-20
  -14.6800003      -1.22683370E-19
  -14.6700001      -1.31890433E-19
  -14.6599998      -8.43244719E-20
  -14.6499996       3.19611570E-20
  -14.6400003       2.03703204E-19
  -14.6300001       3.84029585E-19
  -14.6199999       4.94975211E-19
  -14.6099997       4.45792189E-19
  -14.6000004       1.67261633E-19
  -14.5900002      -3.45032595E-19
  -14.5799999      -9.93318598E-19
  -14.5699997      -1.56609071E-18
  -14.5600004      -1.77105159E-18
  -14.5500002      -1.32088667E-18
  -14.5400000      -6.10429048E-20
  -14.5299997       1.89513282E-18
  -14.5200005       4.07880030E-18
  -14.5100002       5.68660325E-18
  -14.5000000       5.75394982E-18
  -14.4899998       3.48022139E-18
  -14.4799995      -1.35889097E-18
  -14.4700003      -8.04316431E-18
  -14.4600000      -1.47565349E-17
  -14.4499998      -1.88137730E-17
  -14.4399996      -1.73427779E-17
  -14.4300003      -8.34879100E-18
  -14.4200001       8.09939273E-18
  -14.4099998       2.89812819E-17
  -14.3999996       4.82133404E-17
  -14.3900003       5.76857032E-17
  -14.3800001       4.95204346E-17
  -14.3699999       1.91795705E-17
  -14.3599997      -3.14263980E-17
  -14.3500004      -9.20134868E-17
  -14.3400002      -1.44377044E-16
  -14.3299999      -1.65976159E-16
  -14.3199997      -1.36514805E-16
  -14.3100004      -4.62184189E-17
  -14.3000002       9.65986482E-17
  -14.2900000       2.61690803E-16
  -14.2799997       3.99499622E-16
  -14.2700005       4.51597257E-16
  -14.2600002       3.67985417E-16
  -14.2500000       1.27511215E-16
  -14.2399998      -2.44693048E-16
  -14.2299995      -6.69811473E-16
  -14.2200003      -1.02385775E-15
  -14.2100000      -1.16435775E-15
  -14.1999998      -9.71945320E-16
  -14.1899996      -3.97535856E-16
  -14.1800003       4.98982874E-16
  -14.1700001       1.53397804E-15
  -14.1599998       2.42125384E-15
  -14.1499996       2.83285193E-15
  -14.1400003       2.49121559E-15
  -14.1300001       1.27195867E-15
  -14.1199999      -7.12615224E-16
  -14.1099997      -3.08101691E-15
  -14.1000004      -5.22507478E-15
  -14.0900002      -6.43402330E-15
  -14.0799999      -6.08294382E-15
  -14.0699997      -3.84405828E-15
  -14.0600004       1.37831425E-16
  -14.0500002       5.16761714E-15
  -14.0400000       1.00666537E-14
  -14.0299997       1.33981325E-14
  -14.0200005       1.38209782E-14
  -14.0100002       1.04974614E-14
  -14.0000000       3.44775296E-15
  -13.9899998      -6.26237885E-15
  -13.9799995      -1.65896299E-14
  -13.9700003      -2.48701833E-14
  -13.9600000      -2.84228546E-14
  -13.9499998      -2.52775147E-14
  -13.9399996      -1.48500749E-14
  -13.9300003       1.63192417E-15
  -13.9200001       2.11145137E-14
  -13.9099998       3.91887586E-14
  -13.8999996       5.10031843E-14
  -13.8900003       5.24444888E-14
  -13.8800001       4.13147198E-14
  -13.8699999       1.81936680E-14
  -13.8599997      -1.32850435E-14
  -13.8500004      -4.68966568E-14
  -13.8400002      -7.50039747E-14
  -13.8299999      -9.02381807E-14
  -13.8199997      -8.73117429E-14
  -13.8100004      -6.45191433E-14
  -13.8000002      -2.45169756E-14
  -13.7900000       2.58761213E-14
  -13.7799997       7.68890228E-14
  -13.7700005       1.17789676E-13
  -13.7600002       1.39216357E-13
  -13.7500000       1.35296153E-13
  -13.7399998       1.05030988E-13
  -13.7299995       5.26047339E-14
  -13.7200003      -1.34603073E-14
  -13.7100000      -8.20700861E-14
  -13.6999998      -1.41780915E-13
  -13.6899996      -1.82905110E-13
  -13.6800003      -1.98993355E-13
  -13.6700001      -1.87407856E-13
  -13.6599998      -1.49008369E-13
  -13.6499996      -8.72691269E-14
  -13.6400003      -7.32228643E-15
  -13.6300001       8.45913712E-14
  -13.6199999       1.81000695E-13
  -13.6099997       2.72510530E-13
  -13.6000004       3.47017472E-13
  -13.5900002       3.89572028E-13
  -13.5799999       3.83619623E-13
  -13.5699997       3.14029456E-13
  -13.5600004       1.71724871E-13
  -13.5500002      -4.09957678E-14
  -13.5400000      -3.05973156E-13
  -13.5299997      -5.87335356E-13
  -13.5200005      -8.33826064E-13
  -13.5100002      -9.86041327E-13
  -13.5000000      -9.88040162E-13
  -13.4899998      -8.01390584E-13
  -13.4799995      -4.18548578E-13
  -13.4700003       1.28054658E-13
  -13.4600000       7.64460977E-13
  -13.4499998       1.38306467E-12
  -13.4399996       1.85973307E-12
  -13.4300003       2.07760892E-12
  -13.4200001       1.95297316E-12
  -13.4099998       1.45741719E-12
  -13.3999996       6.30749305E-13
  -13.3900003      -4.19318172E-13
  -13.3800001      -1.53188671E-12
  -13.3699999      -2.51986496E-12
  -13.3599997      -3.20406592E-12
  -13.3500004      -3.44727545E-12
  -13.3400002      -3.18084665E-12
  -13.3299999      -2.41793413E-12
  -13.3199997      -1.25053082E-12
  -13.3100004       1.68638676E-13
  -13.3000002       1.65465059E-12
  -13.2900000       3.02217062E-12
  -13.2799997       4.11278130E-12
  -13.2700005       4.81176253E-12
  -13.2600002       5.05163142E-12
  -13.2500000       4.80401179E-12
  -13.2399998       4.06530712E-12
  -13.2299995       2.84391130E-12
  -13.2200003       1.15653776E-12
  -13.2100000      -9.61641357E-13
  -13.1999998      -3.43333955E-12
  -13.1899996      -6.10811879E-12
  -13.1800003      -8.73511593E-12
  -13.1700001      -1.09531047E-11
  -13.1599998      -1.23101312E-11
  -13.1499996      -1.23195586E-11
  -13.1400003      -1.05505448E-11
  -13.1300001      -6.74068136E-12
  -13.1199999      -9.09234385E-13
  -13.1099997       6.55636613E-12
  -13.1000004       1.48681501E-11
  -13.0900002       2.28800902E-11
  -13.0799999       2.92134754E-11
  -13.0699997       3.24565305E-11
  -13.0600004       3.14121541E-11
  -13.0500002       2.53534693E-11
  -13.0400000       1.42391567E-11
  -13.0299997      -1.15808621E-12
  -13.0200005      -1.92457109E-11
  -13.0100002      -3.77449218E-11
  -13.0000000      -5.39567453E-11
  -12.9899998      -6.51292770E-11
  -12.9799995      -6.88744270E-11
  -12.9700003      -6.35712455E-11
  -12.9600000      -4.86906487E-11
  -12.9499998      -2.49864053E-11
  -12.9399996       5.48427666E-12
  -12.9300003       3.95223854E-11
  -12.9200001       7.31162214E-11
  -12.9099998       1.01899308E-10
  -12.8999996       1.21680735E-10
  -12.8900003       1.28981673E-10
  -12.8800001       1.21511648E-10
  -12.8699999       9.85261803E-11
  -12.8599997       6.10221942E-11
  -12.8500004       1.17461110E-11
  -12.8400002      -4.49898972E-11
  -12.8299999      -1.03668150E-10
  -12.8199997      -1.58070029E-10
  -12.8100004      -2.01878944E-10
  -12.8000002      -2.29326280E-10
  -12.7900000      -2.35820835E-10
  -12.7799997      -2.18500329E-10
  -12.7700005      -1.76649209E-10
  -12.7600002      -1.11934233E-10
  -12.7500000      -2.84217962E-11
  -12.7399998       6.76411427E-11
  -12.7299995       1.68281417E-10
  -12.7200003       2.64462285E-10
  -12.7100000       3.46904200E-10
  -12.6999998       4.06987860E-10
  -12.6899996       4.37645087E-10
  -12.6800003       4.34132535E-10
  -12.6700001       3.94583866E-10
  -12.6599998       3.20254240E-10
  -12.6499996       2.15403625E-10
  -12.6400003       8.68111139E-11
  -12.6300001      -5.70291245E-11
  -12.6199999      -2.06925560E-10
  -12.6099997      -3.54067609E-10
  -12.6000004      -4.90984475E-10
  -12.5900002      -6.12205397E-10
  -12.5799999      -7.14473092E-10
  -12.5699997      -7.96428590E-10
  -12.5600004      -8.57771520E-10
  -12.5500002      -8.98000008E-10
  -12.5400000      -9.14927356E-10
  -12.5299997      -9.03251529E-10
  -12.5200005      -8.53485060E-10
  -12.5100002      -7.51550322E-10
  -12.5000000      -5.79294557E-10
  -12.4899998      -3.16078469E-10
  -12.4799995       5.85312909E-11
  -12.4700003       5.61076963E-10
  -12.4600000       1.19978494E-09
  -12.4499998       1.96975569E-09
  -12.4399996       2.84824120E-09
  -12.4300003       3.79048481E-09
  -12.4200001       4.72662309E-09
  -12.4099998       5.56006885E-09
  -12.3999996       6.16775919E-09
  -12.3900003       6.40245279E-09
  -12.3800001       6.09716677E-09
  -12.3699999       5.07171327E-09
  -12.3599997       3.14103166E-09
  -12.3500004       1.25009059E-10
  -12.3400002      -4.14079171E-09
  -12.3299999      -9.79406156E-09
  -12.3199997      -1.69350631E-08
  -12.3100004      -2.56169717E-08
  -12.3000002      -3.58380063E-08
  -12.2900000      -4.75358419E-08
  -12.2799997      -6.05848172E-08
  -12.2700005      -7.47961408E-08
  -12.2600002      -8.99212154E-08
  -12.2500000      -1.05657875E-07
  -12.2399998      -1.21659014E-07
  -12.2299995      -1.37543168E-07
  -12.2200003      -1.52905869E-07
  -12.2100000      -1.67331635E-07
  -12.1999998      -1.80405024E-07
  -12.1899996      -1.91720531E-07
  -12.1800003      -2.00890724E-07
  -12.1700001      -2.07552389E-07
  -12.1599998      -2.11370633E-07
  -12.1499996      -2.12041300E-07
  -12.1400003      -2.09292409E-07
  -12.1300001      -2.02884976E-07
  -12.1199999      -1.92613498E-07
  -12.1099997      -1.78307374E-07
  -12.1000004      -1.59832737E-07
  -12.0900002      -1.37095043E-07
  -12.0799999      -1.10042613E-07
  -12.0699997      -7.86702401E-08
  -12.0600004      -4.30229861E-08
  -12.0500002      -3.19957194E-09
  -12.0400000       4.06448279E-08
  -12.0299997       8.82965310E-08
  -12.0200005       1.39482225E-07
  -12.0100002       1.93868317E-07
  -12.0000000       2.51061664E-07
  -11.9899998       3.10610034E-07
  -11.9799995       3.72005019E-07
  -11.9700003       4.34683756E-07
  -11.9600000       4.98033728E-07
  -11.9499998       5.61397655E-07
  -11.9399996       6.24079860E-07
  -11.9300003       6.85353882E-07
  -11.9200001       7.44470924E-07
  -11.9099998       8.00668147E-07
  -11.8999996       8.53177198E-07
  -11.8900003       9.01232397E-07
  -11.8800001       9.44076533E-07
  -11.8699999       9.80967570E-07
  -11.8599997       1.01118280E-06
  -11.8500004       1.03402351E-06
  -11.8400002       1.04881940E-06
  -11.8299999       1.05493541E-06
  -11.8199997       1.05177753E-06
  -11.8100004       1.03880120E-06
  -11.8000002       1.01552132E-06
  -11.7900000       9.81522248E-07
  -11.7799997       9.36468439E-07
  -11.7700005       8.80113191E-07
  -11.7600002       8.12305814E-07
  -11.7500000       7.32998160E-07
  -11.7399998       6.42246277E-07
  -11.7299995       5.40211602E-07
  -11.7200003       4.27160131E-07
  -11.7100000       3.03459785E-07
  -11.6999998       1.69577831E-07
  -11.6899996       2.60780482E-08
  -11.6800003      -1.26382048E-07
  -11.6700001      -2.87053695E-07
  -11.6599998      -4.55098728E-07
  -11.6499996      -6.29593615E-07
  -11.6400003      -8.09532025E-07
  -11.6300001      -9.93829076E-07
  -11.6199999      -1.18132664E-06
  -11.6099997      -1.37079905E-06
  -11.6000004      -1.56095871E-06
  -11.5900002      -1.75046205E-06
  -11.5799999      -1.93791561E-06
  -11.5699997      -2.12188161E-06
  -11.5600004      -2.30088244E-06
  -11.5500002      -2.47340631E-06
  -11.5400000      -2.63791230E-06
  -11.5299997      -2.79283699E-06
  -11.5200005      -2.93660219E-06
  -11.5100002      -3.06762149E-06
  -11.5000000      -3.18431194E-06
  -11.4899998      -3.28510532E-06
  -11.4799995      -3.36845665E-06
  -11.4700003      -3.43285728E-06
  -11.4600000      -3.47684727E-06
  -11.4499998      -3.49902189E-06
  -11.4399996      -3.49804395E-06
  -11.4300003      -3.47264972E-06
  -11.4200001      -3.42165754E-06
  -11.4099998      -3.34396918E-06
  -11.3999996      -3.23857944E-06
  -11.3900003      -3.10457585E-06
  -11.3800001      -2.94114056E-06
  -11.3699999      -2.74755507E-06
  -11.3599997      -2.52319728E-06
  -11.3500004      -2.26754401E-06
  -11.3400002      -1.98016642E-06
  -11.3299999      -1.66072982E-06
  -11.3199997      -1.30898775E-06
  -11.3100004      -9.24778078E-07
  -11.3000002      -5.08017592E-07
  -11.2900000      -5.86950257E-08
  -11.2799997       4.23133599E-07
  -11.2700005       9.37349057E-07
  -11.2600002       1.48377603E-06
  -11.2500000       2.06218169E-06
  -11.2399998       2.67228143E-06
  -11.2299995       3.31373508E-06
  -11.2200003       3.98615111E-06
  -11.2100000       4.68908092E-06
  -11.1999998       5.42202088E-06
  -11.1899996       6.18440981E-06
  -11.1800003       6.97562564E-06
  -11.1700001       7.79499351E-06
  -11.1599998       8.64177946E-06
  -11.1499996       9.51519996E-06
  -11.1400003       1.04144237E-05
  -11.1300001       1.13385813E-05
  -11.1199999       1.22867623E-05
  -11.1099997       1.32580390E-05
  -11.1000004       1.42514600E-05
  -11.0900002       1.52660759E-05
  -11.0799999       1.63009281E-05
  -11.0699997       1.73550743E-05
  -11.0600004       1.84275887E-05
  -11.0500002       1.95175508E-05
  -11.0400000       2.06240929E-05
  -11.0299997       2.17463567E-05
  -11.0200005       2.28835142E-05
  -11.0100002       2.40347708E-05
  -11.0000000       2.51993606E-05
  -10.9899998       2.63765251E-05
  -10.9799995       2.75655439E-05
  -10.9700003       2.87656949E-05
  -10.9600000       2.99762814E-05
  -10.9499998       3.11966032E-05
  -10.9399996       3.24259672E-05
  -10.9300003       3.36636658E-05
  -10.9200001       3.49089787E-05
  -10.9099998       3.61611601E-05
  -10.8999996       3.74194278E-05
  -10.8900003       3.86829561E-05
  -10.8800001       3.99508608E-05
  -10.8699999       4.12222143E-05
  -10.8599997       4.24960199E-05
  -10.8500004       4.37712188E-05
  -10.8400002       4.50467014E-05
  -10.8299999       4.63212964E-05
  -10.8199997       4.75937923E-05
  -10.8100004       4.88629121E-05
  -10.8000002       5.01273607E-05
  -10.7900000       5.13858286E-05
  -10.7799997       5.26369404E-05
  -10.7700005       5.38793320E-05
  -10.7600002       5.51116427E-05
  -10.7500000       5.63324975E-05
  -10.7399998       5.75405575E-05
  -10.7299995       5.87345057E-05
  -10.7200003       5.99130435E-05
  -10.7100000       6.10749339E-05
  -10.6999998       6.22190128E-05
  -10.6899996       6.33441741E-05
  -10.6800003       6.44493557E-05
  -10.6700001       6.55336044E-05
  -10.6599998       6.65960324E-05
  -10.6499996       6.76357886E-05
  -10.6400003       6.86521307E-05
  -10.6300001       6.96444040E-05
  -10.6199999       7.06119608E-05
  -10.6099997       7.15542410E-05
  -10.6000004       7.24707497E-05
  -10.5900002       7.33610577E-05
  -10.5799999       7.42247794E-05
  -10.5699997       7.50616018E-05
  -10.5600004       7.58712704E-05
  -10.5500002       7.66535959E-05
  -10.5400000       7.74084401E-05
  -10.5299997       7.81357230E-05
  -10.5200005       7.88354228E-05
  -10.5100002       7.95075903E-05
  -10.5000000       8.01522692E-05
  -10.4899998       8.07695906E-05
  -10.4799995       8.13597144E-05
  -10.4700003       8.19228371E-05
  -10.4600000       8.24592353E-05
  -10.4499998       8.29691780E-05
  -10.4399996       8.34529783E-05
  -10.4300003       8.39110216E-05
  -10.4200001       8.43436937E-05
  -10.4099998       8.47514457E-05
  -10.3999996       8.51347722E-05
  -10.3900003       8.54941827E-05
  -10.3800001       8.58302592E-05
  -10.3699999       8.61435910E-05
  -10.3599997       8.64348112E-05
  -10.3500004       8.67045965E-05
  -10.3400002       8.69536161E-05
  -10.3299999       8.71825614E-05
  -10.3199997       8.73921454E-05
  -10.3100004       8.75830592E-05
  -10.3000002       8.77560087E-05
  -10.2900000       8.79116997E-05
  -10.2799997       8.80507869E-05
  -10.2700005       8.81739543E-05
  -10.2600002       8.82818058E-05
  -10.2500000       8.83750108E-05
  -10.2399998       8.84541005E-05
  -10.2299995       8.85196787E-05
  -10.2200003       8.85722911E-05
  -10.2100000       8.86124035E-05
  -10.1999998       8.86405469E-05
  -10.1899996       8.86571725E-05
  -10.1800003       8.86627167E-05
  -10.1700001       8.86576381E-05
  -10.1599998       8.86423077E-05
  -10.1499996       8.86171911E-05
  -10.1400003       8.85827176E-05
  -10.1300001       8.85393165E-05
  -10.1199999       8.84874607E-05
  -10.1099997       8.84276960E-05
  -10.1000004       8.83605462E-05
  -10.0900002       8.82866516E-05
  -10.0799999       8.82067252E-05
  -10.0699997       8.81215528E-05
  -10.0600004       8.80320440E-05
  -10.0500002       8.79391664E-05
  -10.0400000       8.78440551E-05
  -10.0299997       8.77479251E-05
  -10.0200005       8.76520789E-05
  -10.0100002       8.75579062E-05
  -10.0000000       8.74668622E-05
  -9.98999977       8.73804966E-05
  -9.97999954       8.73003446E-05
  -9.97000027       8.72280507E-05
  -9.96000004       8.71652155E-05
  -9.94999981       8.71135489E-05
  -9.93999958       8.70747244E-05
  -9.93000031       8.70504809E-05
  -9.92000008       8.70426011E-05
  -9.90999985       8.70528529E-05
  -9.89999962       8.70830845E-05
  -9.89000034       8.71351367E-05
  -9.88000011       8.72109158E-05
  -9.86999989       8.73122990E-05
  -9.85999966       8.74411489E-05
  -9.85000038       8.75993865E-05
  -9.84000015       8.77888233E-05
  -9.82999992       8.80112420E-05
  -9.81999969       8.82683744E-05
  -9.81000042       8.85618138E-05
  -9.80000019       8.88931390E-05
  -9.78999996       8.92637981E-05
  -9.77999973       8.96751517E-05
  -9.77000046       9.01285021E-05
  -9.76000023       9.06250789E-05
  -9.75000000       9.11660318E-05
  -9.73999977       9.17525322E-05
  -9.72999954       9.23856351E-05
  -9.72000027       9.30664100E-05
  -9.71000004       9.37959630E-05
  -9.69999981       9.45753272E-05
  -9.68999958       9.54055504E-05
  -9.68000031       9.62876438E-05
  -9.67000008       9.72225389E-05
  -9.65999985       9.82112033E-05
  -9.64999962       9.92543937E-05
  -9.64000034       1.00352903E-04
  -9.63000011       1.01507307E-04
  -9.61999989       1.02718193E-04
  -9.60999966       1.03985920E-04
  -9.60000038       1.05310719E-04
  -9.59000015       1.06692736E-04
  -9.57999992       1.08131928E-04
  -9.56999969       1.09628105E-04
  -9.56000042       1.11180947E-04
  -9.55000019       1.12789938E-04
  -9.53999996       1.14454473E-04
  -9.52999973       1.16173760E-04
  -9.52000046       1.17946845E-04
  -9.51000023       1.19772682E-04
  -9.50000000       1.21650068E-04
  -9.48999977       1.23577687E-04
  -9.47999954       1.25554012E-04
  -9.47000027       1.27577456E-04
  -9.46000004       1.29646316E-04
  -9.44999981       1.31758759E-04
  -9.43999958       1.33912894E-04
  -9.43000031       1.36106741E-04
  -9.42000008       1.38338321E-04
  -9.40999985       1.40605640E-04
  -9.39999962       1.42906734E-04
  -9.39000034       1.45239770E-04
  -9.38000011       1.47602928E-04
  -9.36999989       1.49994536E-04
  -9.35999966       1.52413078E-04
  -9.35000038       1.54857233E-04
  -9.34000015       1.57325805E-04
  -9.32999992       1.59817806E-04
  -9.31999969       1.62332522E-04
  -9.31000042       1.64869431E-04
  -9.30000019       1.67428268E-04
  -9.28999996       1.70009065E-04
  -9.27999973       1.72612155E-04
  -9.27000046       1.75238165E-04
  -9.26000023       1.77888011E-04
  -9.25000000       1.80562987E-04
  -9.23999977       1.83264579E-04
  -9.22999954       1.85994679E-04
  -9.22000027       1.88755439E-04
  -9.21000004       1.91549261E-04
  -9.19999981       1.94378794E-04
  -9.18999958       1.97246976E-04
  -9.18000031       2.00156850E-04
  -9.17000008       2.03111529E-04
  -9.15999985       2.06114404E-04
  -9.14999962       2.09168880E-04
  -9.14000034       2.12278319E-04
  -9.13000011       2.15446096E-04
  -9.11999989       2.18675646E-04
  -9.10999966       2.21970156E-04
  -9.10000038       2.25332682E-04
  -9.09000015       2.28766221E-04
  -9.07999992       2.32273465E-04
  -9.06999969       2.35856962E-04
  -9.06000042       2.39518777E-04
  -9.05000019       2.43260991E-04
  -9.03999996       2.47085030E-04
  -9.02999973       2.50992220E-04
  -9.02000046       2.54983490E-04
  -9.01000023       2.59059307E-04
  -9.00000000       2.63219757E-04
  -8.98999977       2.67464580E-04
  -8.97999954       2.71793077E-04
  -8.97000027       2.76204140E-04
  -8.96000004       2.80696375E-04
  -8.94999981       2.85267772E-04
  -8.93999958       2.89916148E-04
  -8.93000031       2.94638827E-04
  -8.92000008       2.99432897E-04
  -8.90999985       3.04294896E-04
  -8.89999962       3.09221097E-04
  -8.89000034       3.14207486E-04
  -8.88000011       3.19249579E-04
  -8.86999989       3.24342865E-04
  -8.85999966       3.29482340E-04
  -8.85000038       3.34662735E-04
  -8.84000015       3.39878636E-04
  -8.82999992       3.45124543E-04
  -8.81999969       3.50394694E-04
  -8.81000042       3.55683267E-04
  -8.80000019       3.60984443E-04
  -8.78999996       3.66292428E-04
  -8.77999973       3.71601403E-04
  -8.77000046       3.76905722E-04
  -8.76000023       3.82199854E-04
  -8.75000000       3.87478300E-04
  -8.73999977       3.92736052E-04
  -8.72999954       3.97968281E-04
  -8.72000027       4.03170212E-04
  -8.71000004       4.08337655E-04
  -8.69999981       4.13466681E-04
  -8.68999958       4.18553624E-04
  -8.68000031       4.23595513E-04
  -8.67000008       4.28589381E-04
  -8.65999985       4.33533103E-04
  -8.64999962       4.38424526E-04
  -8.64000034       4.43262252E-04
  -8.63000011       4.48045204E-04
  -8.61999989       4.52772627E-04
  -8.60999966       4.57444345E-04
  -8.60000038       4.62060416E-04
  -8.59000015       4.66621364E-04
  -8.57999992       4.71127802E-04
  -8.56999969       4.75581212E-04
  -8.56000042       4.79982846E-04
  -8.55000019       4.84334450E-04
  -8.53999996       4.88637947E-04
  -8.52999973       4.92895488E-04
  -8.52000046       4.97109198E-04
  -8.51000023       5.01281582E-04
  -8.50000000       5.05415199E-04
  -8.48999977       5.09512494E-04
  -8.47999954       5.13576437E-04
  -8.47000027       5.17609762E-04
  -8.46000004       5.21615089E-04
  -8.44999981       5.25595620E-04
  -8.43999958       5.29554032E-04
  -8.43000031       5.33493236E-04
  -8.42000008       5.37416083E-04
  -8.40999985       5.41325193E-04
  -8.39999962       5.45223476E-04
  -8.39000034       5.49113553E-04
  -8.38000011       5.52998215E-04
  -8.36999989       5.56880201E-04
  -8.35999966       5.60762128E-04
  -8.35000038       5.64646849E-04
  -8.34000015       5.68537100E-04
  -8.32999992       5.72435674E-04
  -8.31999969       5.76345541E-04
  -8.31000042       5.80269378E-04
  -8.30000019       5.84210269E-04
  -8.28999996       5.88171126E-04
  -8.27999973       5.92155207E-04
  -8.27000046       5.96165424E-04
  -8.26000023       6.00205385E-04
  -8.25000000       6.04278233E-04
  -8.23999977       6.08387403E-04
  -8.22999954       6.12536620E-04
  -8.22000027       6.16729551E-04
  -8.21000004       6.20969804E-04
  -8.19999981       6.25261280E-04
  -8.18999958       6.29607879E-04
  -8.18000031       6.34013442E-04
  -8.17000008       6.38482394E-04
  -8.15999985       6.43018924E-04
  -8.14999962       6.47627283E-04
  -8.14000034       6.52311952E-04
  -8.13000011       6.57077413E-04
  -8.11999989       6.61928207E-04
  -8.10999966       6.66868931E-04
  -8.10000038       6.71904127E-04
  -8.09000015       6.77038275E-04
  -8.07999992       6.82275859E-04
  -8.06999969       6.87621650E-04
  -8.06000042       6.93079957E-04
  -8.05000019       6.98654854E-04
  -8.03999996       7.04350648E-04
  -8.02999973       7.10171124E-04
  -8.02000046       7.16120296E-04
  -8.01000023       7.22201483E-04
  -8.00000000       7.28417945E-04
  -7.98999977       7.34772591E-04
  -7.98000002       7.41268042E-04
  -7.96999979       7.47906684E-04
  -7.96000004       7.54690554E-04
  -7.94999981       7.61621399E-04
  -7.94000006       7.68700556E-04
  -7.92999983       7.75928958E-04
  -7.92000008       7.83307478E-04
  -7.90999985       7.90836057E-04
  -7.90000010       7.98515044E-04
  -7.88999987       8.06344207E-04
  -7.88000011       8.14322790E-04
  -7.86999989       8.22449627E-04
  -7.86000013       8.30724137E-04
  -7.84999990       8.39144806E-04
  -7.84000015       8.47709773E-04
  -7.82999992       8.56417581E-04
  -7.82000017       8.65266018E-04
  -7.80999994       8.74252815E-04
  -7.80000019       8.83375353E-04
  -7.78999996       8.92631477E-04
  -7.78000021       9.02018102E-04
  -7.76999998       9.11532785E-04
  -7.76000023       9.21172497E-04
  -7.75000000       9.30934097E-04
  -7.73999977       9.40815022E-04
  -7.73000002       9.50812362E-04
  -7.71999979       9.60922858E-04
  -7.71000004       9.71143716E-04
  -7.69999981       9.81472316E-04
  -7.69000006       9.91905457E-04
  -7.67999983       1.00244058E-03
  -7.67000008       1.01307512E-03
  -7.65999985       1.02380628E-03
  -7.65000010       1.03463198E-03
  -7.63999987       1.04554999E-03
  -7.63000011       1.05655845E-03
  -7.61999989       1.06765528E-03
  -7.61000013       1.07883918E-03
  -7.59999990       1.09010853E-03
  -7.59000015       1.10146229E-03
  -7.57999992       1.11289939E-03
  -7.57000017       1.12441974E-03
  -7.55999994       1.13602250E-03
  -7.55000019       1.14770827E-03
  -7.53999996       1.15947670E-03
  -7.53000021       1.17132883E-03
  -7.51999998       1.18326559E-03
  -7.51000023       1.19528838E-03
  -7.50000000       1.20739907E-03
  -7.48999977       1.21959939E-03
  -7.48000002       1.23189180E-03
  -7.46999979       1.24427909E-03
  -7.46000004       1.25676463E-03
  -7.44999981       1.26935204E-03
  -7.44000006       1.28204480E-03