  -16.0000000       0.00000000    
  -15.9899998       0.00000000    
  -15.9799995       0.00000000    
  -15.9700003       0.00000000    
  -15.9600000       0.00000000    
  -15.9499998       0.00000000    
  -15.9399996       0.00000000    
  -15.9300003       0.00000000    
  -15.9200001       0.00000000    
  -15.9099998       0.00000000    
  -15.8999996       0.00000000    
  -15.8900003       0.00000000    
  -15.8800001       0.00000000    
  -15.8699999       0.00000000    
  -15.8599997       0.00000000    
  -15.8500004       0.00000000    
  -15.8400002       0.00000000    
  -15.8299999       0.00000000    
  -15.8199997       0.00000000    
  -15.8100004       2.80259693E-45
  -15.8000002       1.40129846E-44
  -15.7900000       6.30584309E-44
  -15.7799997       2.41023336E-43
  -15.7700005       7.73516752E-43
  -15.7600002       2.02908018E-42
  -15.7500000       4.01191750E-42
  -15.7399998       3.89701103E-42
  -15.7299995      -1.17120526E-41
  -15.7200003      -8.56978089E-41
  -15.7100000      -3.27535299E-40
  -15.6999998      -9.69048335E-40
  -15.6899996      -2.41411636E-39
  -15.6800003      -5.20001541E-39
  -15.6700001      -9.69375538E-39
  -15.6599998      -1.52465126E-38
  -15.6499996      -1.85250480E-38
  -15.6400003      -1.10306221E-38
  -15.6300001       2.33309230E-38
  -15.6199999       1.08185824E-37
  -15.6099997       2.67670853E-37
  -15.6000004       5.06744232E-37
  -15.5900002       7.75132842E-37
  -15.5799999       9.19873924E-37
  -15.5699997       6.49094991E-37
  -15.5600004      -4.45857791E-37
  -15.5500002      -2.74331389E-36
  -15.5400000      -6.26210895E-36
  -15.5299997      -1.01640198E-35
  -15.5200005      -1.22568833E-35
  -15.5100002      -8.88981306E-36
  -15.5000000       4.17580736E-36
  -15.4899998       2.93712761E-35
  -15.4799995       6.33757390E-35
  -15.4700003       9.27903098E-35
  -15.4600000       9.23263913E-35
  -15.4499998       2.99097133E-35
  -15.4399996      -1.17113882E-34
  -15.4300003      -3.34348223E-34
  -15.4200001      -5.39735808E-34
  -15.4099998      -5.70780935E-34
  -15.3999996      -2.20486465E-34
  -15.3900003       6.50532716E-34
  -15.3800001       1.92845781E-33
  -15.3699999       3.05342096E-33
  -15.3599997       2.96866194E-33
  -15.3500004       4.16439720E-34
  -15.3400002      -5.26558837E-33
  -15.3299999      -1.29324112E-32
  -15.3199997      -1.85308427E-32
  -15.3100004      -1.51423773E-32
  -15.3000002       4.57911547E-33
  -15.2900000       4.28981999E-32
  -15.2799997       8.95126664E-32
  -15.2700005       1.16008033E-31
  -15.2600002       7.88545238E-32
  -15.2500000      -6.22405451E-32
  -15.2399998      -3.08889494E-31
  -15.2299995      -5.81575830E-31
  -15.2200003      -6.96375455E-31
  -15.2100000      -3.98941436E-31
  -15.1999998       5.12077548E-31
  -15.1899996       1.97704270E-30
  -15.1800003       3.45768221E-30
  -15.1700001       3.86603992E-30
  -15.1599998       1.83719235E-30
  -15.1499996      -3.52634876E-30
  -15.1400003      -1.15419748E-29
  -15.1300001      -1.89408590E-29
  -15.1199999      -1.98074447E-29
  -15.1099997      -7.38482039E-30
  -15.1000004       2.18506728E-29
  -15.0900002       6.27168253E-29
  -15.0799999       9.71071452E-29
  -15.0699997       9.51328503E-29
  -15.0600004       2.55413459E-29
  -15.0500002      -1.23783056E-28
  -15.0400000      -3.20756506E-28
  -15.0299997      -4.72834820E-28
  -15.0200005      -4.38127540E-28
  -15.0100002      -7.93016821E-29
  -15.0000000       6.40496603E-28
  -14.9899998       1.54928276E-27
  -14.9799995       2.20721952E-27
  -14.9700003       1.97564783E-27
  -14.9600000       2.71418876E-28
  -14.9499998      -3.01175962E-27
  -14.9399996      -7.05519908E-27
  -14.9300003      -9.90580574E-27
  -14.9200001      -8.82167435E-27
  -14.9099998      -1.37813037E-27
  -14.8999996       1.27824047E-26
  -14.8900003       3.01592802E-26
  -14.8800001       4.26311188E-26
  -14.8699999       3.89400879E-26
  -14.8599997       9.15424855E-27
  -14.8500004      -4.84318379E-26
  -14.8400002      -1.20334765E-25
  -14.8299999      -1.74928525E-25
  -14.8199997      -1.68024279E-25
  -14.8100004      -5.96235185E-26
  -14.8000002       1.60199173E-25
  -14.7900000       4.44942498E-25
  -14.7799997       6.79524833E-25
  -14.7700005       6.98597518E-25
  -14.7600002       3.45050817E-25
  -14.7500000      -4.37717075E-25
  -14.7399998      -1.50897613E-24
  -14.7299995      -2.47941467E-24
  -14.7200003      -2.76203119E-24
  -14.7100000      -1.76138717E-24
  -14.6999998       8.14756497E-25
  -14.6899996       4.61234744E-24
  -14.6800003       8.41858790E-24
  -14.6700001       1.02696256E-23
  -14.6599998       8.01211864E-24
  -14.6499996       2.94822169E-25
  -14.6400003      -1.22685691E-23
  -14.6300001      -2.62588761E-23
  -14.6199999      -3.55413518E-23
  -14.6099997      -3.27647634E-23
  -14.6000004      -1.23079475E-23
  -14.5900002       2.59857377E-23
  -14.5799999       7.36901036E-23
  -14.5699997       1.13147733E-22
  -14.5600004       1.20925649E-22
  -14.5500002       7.58840141E-23
  -14.5400000      -2.95793620E-23
  -14.5299997      -1.78794769E-22
  -14.5200005      -3.25909868E-22
  -14.5100002      -4.02050344E-22
  -14.5000000      -3.35245841E-22
  -14.4899998      -8.17706519E-23
  -14.4799995       3.39837820E-22
  -14.4700003       8.26235646E-22
  -14.4600000       1.19388385E-21
  -14.4499998       1.22164853E-21
  -14.4399996       7.30289308E-22
  -14.4300003      -3.19126598E-22
  -14.4200001      -1.74233620E-21
  -14.4099998      -3.10765637E-21
  -14.3999996      -3.80724054E-21
  -14.3900003      -3.23562703E-21
  -14.3800001      -1.04659714E-21
  -14.3699999       2.58634922E-21
  -14.3599997       6.81375732E-21
  -14.3500004       1.01675684E-20
  -14.3400002       1.08977701E-20
  -14.3299999       7.56560795E-21
  -14.3199997      -2.43850714E-22
  -14.3100004      -1.13302030E-20
  -14.3000002      -2.26935838E-20
  -14.2900000      -2.99921182E-20
  -14.2799997      -2.87096425E-20
  -14.2700005      -1.58474574E-20
  -14.2600002       8.32149755E-21
  -14.2500000       3.90929661E-20
  -14.2399998       6.74330172E-20
  -14.2299995       8.17638696E-20
  -14.2200003       7.13655437E-20
  -14.2100000       3.06892764E-20
  -14.1999998      -3.67078748E-20
  -14.1899996      -1.16198209E-19
  -14.1800003      -1.83488073E-19
  -14.1700001      -2.10020834E-19
  -14.1599998      -1.71757553E-19
  -14.1499996      -5.92897278E-20
  -14.1400003       1.13891552E-19
  -14.1300001       3.08495200E-19
  -14.1199999       4.64622128E-19
  -14.1099997       5.15773478E-19
  -14.1000004       4.09549064E-19
  -14.0900002       1.29963322E-19
  -14.0799999      -2.85745252E-19
  -14.0699997      -7.43137149E-19
  -14.0600004      -1.10452796E-18
  -14.0500002      -1.22141686E-18
  -14.0400000      -9.79938848E-19
  -14.0299997      -3.48094817E-19
  -14.0200005       5.90132569E-19
  -14.0100002       1.62840895E-18
  -14.0000000       2.46898979E-18
  -13.9899998       2.79111335E-18
  -13.9799995       2.34511411E-18
  -13.9700003       1.04944084E-18
  -13.9600000      -9.38897041E-19
  -13.9499998      -3.20899363E-18
  -13.9399996      -5.15434893E-18
  -13.9300003      -6.10526583E-18
  -13.9200001      -5.51337509E-18
  -13.9099998      -3.14536669E-18
  -13.8999996       7.69725888E-19
  -13.8900003       5.49424654E-18
  -13.8800001       9.87363476E-18
  -13.8699999       1.25707382E-17
  -13.8599997       1.24066032E-17
  -13.8500004       8.73282614E-18
  -13.8400002       1.73548179E-18
  -13.8299999      -7.43062796E-18
  -13.8199997      -1.67510741E-17
  -13.8100004      -2.37235731E-17
  -13.8000002      -2.59415487E-17
  -13.7900000      -2.17691173E-17
  -13.7799997      -1.09389541E-17
  -13.7700005       5.10535626E-18
  -13.7600002       2.32624728E-17
  -13.7500000       3.92780427E-17
  -13.7399998       4.86435537E-17
  -13.7299995       4.77158905E-17
  -13.7200003       3.47973046E-17
  -13.7100000       1.08872073E-17
  -13.6999998      -2.01376078E-17
  -13.6899996      -5.20405032E-17
  -13.6800003      -7.74005472E-17
  -13.6700001      -8.92316255E-17
  -13.6599998      -8.26932061E-17
  -13.6499996      -5.64829495E-17
  -13.6400003      -1.35444655E-17
  -13.6300001       3.91341563E-17
  -13.6199999       9.16470591E-17
  -13.6099997       1.33016281E-16
  -13.6000004       1.53373050E-16
  -13.5900002       1.46009832E-16
  -13.5799999       1.08872903E-16
  -13.5699997       4.52076109E-17
  -13.5600004      -3.67294562E-17
  -13.5500002      -1.24773737E-16
  -13.5400000      -2.04513524E-16
  -13.5299997      -2.61209529E-16
  -13.5200005      -2.81731020E-16
  -13.5100002      -2.56381865E-16
  -13.5000000      -1.80594134E-16
  -13.4899998      -5.64898250E-17
  -13.4799995       1.05782371E-16
  -13.4700003       2.87229322E-16
  -13.4600000       4.60236411E-16
  -13.4499998       5.90486467E-16
  -13.4399996       6.41139355E-16
  -13.4300003       5.79435281E-16
  -13.4200001       3.85182674E-16
  -13.4099998       5.97154522E-17
  -13.3999996      -3.66903121E-16
  -13.3900003      -8.33079244E-16
  -13.3800001      -1.24970786E-15
  -13.3699999      -1.51237839E-15
  -13.3599997      -1.52131723E-15
  -13.3500004      -1.20633098E-15
  -13.3400002      -5.51821795E-16
  -13.3299999       3.84531835E-16
  -13.3199997       1.46594129E-15
  -13.3100004       2.48841890E-15
  -13.3000002       3.21196926E-15
  -13.2900000       3.40803240E-15
  -13.2799997       2.91527438E-15
  -13.2700005       1.69192396E-15
  -13.2600002      -1.48852951E-16
  -13.2500000      -2.33269231E-15
  -13.2399998      -4.45426717E-15
  -13.2299995      -6.04390534E-15
  -13.2200003      -6.66156685E-15
  -13.2100000      -6.00088708E-15
  -13.1999998      -3.98059491E-15
  -13.1899996      -7.99852947E-16
  -13.1800003       3.06107204E-15
  -13.1700001       6.90326600E-15
  -13.1599998       9.92953261E-15
  -13.1499996       1.14031683E-14
  -13.1400003       1.08140823E-14
  -13.1300001       8.01567946E-15
  -13.1199999       3.29837023E-15
  -13.1099997      -2.62356682E-15
  -13.1000004      -8.71753943E-15
  -13.0900002      -1.38158553E-14
  -13.0799999      -1.68429723E-14
  -13.0699997      -1.70405462E-14
  -13.0600004      -1.41414886E-14
  -13.0500002      -8.45265782E-15
  -13.0400000      -8.24319229E-16
  -13.0299997       7.49124578E-15
  -13.0200005       1.50649824E-14
  -13.0100002       2.05542641E-14
  -13.0000000       2.29496665E-14
  -12.9899998       2.17551349E-14
  -12.9799995       1.70672379E-14
  -12.9700003       9.54281464E-15
  -12.9600000       2.69228840E-16
  -12.9499998      -9.42821955E-15
  -12.9399996      -1.81972645E-14
  -12.9300003      -2.48457227E-14
  -12.9200001      -2.84753469E-14
  -12.9099998      -2.85526777E-14
  -12.8999996      -2.49259943E-14
  -12.8900003      -1.78103619E-14
  -12.8800001      -7.76442746E-15
  -12.8699999       4.32652444E-15
  -12.8599997       1.72636546E-14
  -12.8500004       2.95638487E-14
  -12.8400002       3.95363030E-14
  -12.8299999       4.54352674E-14
  -12.8199997       4.57003006E-14
  -12.8100004       3.92659944E-14
  -12.8000002       2.58885236E-14
  -12.7900000       6.40996206E-15
  -12.7799997      -1.71285580E-14
  -12.7700005      -4.15976085E-14
  -12.7600002      -6.31455608E-14
  -12.7500000      -7.77918989E-14
  -12.7399998      -8.21556839E-14
  -12.7299995      -7.41764980E-14
  -12.7200003      -5.36653987E-14
  -12.7100000      -2.25413983E-14
  -12.6999998       1.53316673E-14
  -12.6899996       5.47063344E-14
  -12.6800003       8.98146303E-14
  -12.6700001       1.15358637E-13
  -12.6599998       1.27415358E-13
  -12.6499996       1.24055741E-13
  -12.6400003       1.05544188E-13
  -12.6300001       7.40873156E-14
  -12.6199999       3.32171627E-14
  -12.6099997      -1.30104955E-14
  -12.6000004      -6.07731096E-14
  -12.5900002      -1.06977307E-13
  -12.5799999      -1.49354528E-13
  -12.5699997      -1.86137943E-13
  -12.5600004      -2.15437206E-13
  -12.5500002      -2.34535617E-13
  -12.5400000      -2.39389780E-13
  -12.5299997      -2.24586896E-13
  -12.5200005      -1.83915979E-13
  -12.5100002      -1.11558257E-13
  -12.5000000      -3.72644988E-15
  -12.4899998       1.39558422E-13
  -12.4799995       3.12946988E-13
  -12.4700003       5.04882160E-13
  -12.4600000       6.97642031E-13
  -12.4499998       8.68408644E-13
  -12.4399996       9.91256014E-13
  -12.4300003       1.03975357E-12
  -12.4200001       9.89739107E-13
  -12.4099998       8.21779602E-13
  -12.3999996       5.22889457E-13
  -12.3900003       8.72543005E-14
  -12.3800001      -4.84089494E-13
  -12.3699999      -1.18441953E-12
  -12.3599997      -2.00294534E-12
  -12.3500004      -2.92638656E-12
  -12.3400002      -3.94002799E-12
  -12.3299999      -5.02790387E-12
  -12.3199997      -6.17199304E-12
  -12.3100004      -7.35058975E-12
  -12.3000002      -8.53627932E-12
  -12.2900000      -9.69414739E-12
  -12.2799997      -1.07808745E-11
  -12.2700005      -1.17452931E-11
  -12.2600002      -1.25306545E-11
  -12.2500000      -1.30785738E-11
  -12.2399998      -1.33341298E-11
  -12.2299995      -1.32513098E-11
  -12.2200003      -1.27978123E-11
  -12.2100000      -1.19581949E-11
  -12.1999998      -1.07347785E-11
  -12.1899996      -9.14595916E-12
  -12.1800003      -7.22228180E-12
  -12.1700001      -5.00109806E-12
  -12.1599998      -2.52089170E-12
  -12.1499996       1.83372374E-13
  -12.1400003       3.08298807E-12
  -12.1300001       6.15573738E-12
  -12.1199999       9.38372990E-12
  -12.1099997       1.27495089E-11
  -12.1000004       1.62315890E-11
  -12.0900002       1.98007027E-11
  -12.0799999       2.34178111E-11
  -12.0699997       2.70345829E-11
  -12.0600004       3.05961055E-11
  -12.0500002       3.40451695E-11
  -12.0400000       3.73269506E-11
  -12.0299997       4.03927378E-11
  -12.0200005       4.32016402E-11
  -12.0100002       4.57198029E-11
  -12.0000000       4.79174200E-11
  -11.9899998       4.97643732E-11
  -11.9799995       5.12257181E-11
  -11.9700003       5.22588292E-11
  -11.9600000       5.28129519E-11
  -11.9499998       5.28315586E-11
  -11.9399996       5.22573582E-11
  -11.9300003       5.10387392E-11
  -11.9200001       4.91362888E-11
  -11.9099998       4.65277643E-11
  -11.8999996       4.32105289E-11
  -11.8900003       3.92008370E-11
  -11.8800001       3.45304757E-11
  -11.8699999       2.92413697E-11
  -11.8599997       2.33799109E-11
  -11.8500004       1.69914742E-11
  -11.8400002       1.01175171E-11
  -11.8299999       2.79398987E-12
  -11.8199997      -4.94747993E-12
  -11.8100004      -1.30772537E-11
  -11.8000002      -2.15643770E-11
  -11.7900000      -3.03734364E-11
  -11.7799997      -3.94618643E-11
  -11.7700005      -4.87781135E-11
  -11.7600002      -5.82607018E-11
  -11.7500000      -6.78376522E-11
  -11.7399998      -7.74272729E-11
  -11.7299995      -8.69389283E-11
  -11.7200003      -9.62750643E-11
  -11.7100000      -1.05333790E-10
  -11.6999998      -1.14012362E-10
  -11.6899996      -1.22211186E-10
  -11.6800003      -1.29837599E-10
  -11.6700001      -1.36808412E-10
  -11.6599998      -1.43050669E-10
  -11.6499996      -1.48500198E-10
  -11.6400003      -1.53097715E-10
  -11.6300001      -1.56783711E-10
  -11.6199999      -1.59493391E-10
  -11.6099997      -1.61153424E-10
  -11.6000004      -1.61681862E-10
  -11.5900002      -1.60992428E-10
  -11.5799999      -1.59002311E-10
  -11.5699997      -1.55642582E-10
  -11.5600004      -1.50868706E-10
  -11.5500002      -1.44667625E-10
  -11.5400000      -1.37061001E-10
  -11.5299997      -1.28101585E-10
  -11.5200005      -1.17861249E-10
  -11.5100002      -1.06417992E-10
  -11.5000000      -9.38379166E-11
  -11.4899998      -8.01608988E-11
  -11.4799995      -6.53923166E-11
  -11.4700003      -4.95012469E-11
  -11.4600000      -3.24287888E-11
  -11.4499998      -1.41034563E-11
  -11.4399996       5.53872182E-12
  -11.4300003       2.65328922E-11
  -11.4200001       4.88682809E-11
  -11.4099998       7.24768995E-11
  -11.3999996       9.72324721E-11
  -11.3900003       1.22957783E-10
  -11.3800001       1.49440169E-10
  -11.3699999       1.76451936E-10
  -11.3599997       2.03772027E-10
  -11.3500004       2.31205680E-10
  -11.3400002       2.58598920E-10
  -11.3299999       2.85845014E-10
  -11.3199997       3.12884774E-10
  -11.3100004       3.39699158E-10
  -11.3000002       3.66298131E-10
  -11.2900000       3.92706478E-10
  -11.2799997       4.18951041E-10
  -11.2700005       4.45049830E-10
  -11.2600002       4.71006234E-10
  -11.2500000       4.96807595E-10
  -11.2399998       5.22427657E-10
  -11.2299995       5.47831946E-10
  -11.2200003       5.72983549E-10
  -11.2100000       5.97846661E-10
  -11.1999998       6.22387808E-10
  -11.1899996       6.46573184E-10
  -11.1800003       6.70361211E-10
  -11.1700001       6.93694435E-10
  -11.1599998       7.16492365E-10
  -11.1499996       7.38647199E-10
  -11.1400003       7.60027041E-10
  -11.1300001       7.80484122E-10
  -11.1199999       7.99872280E-10
  -11.1099997       8.18065671E-10
  -11.1000004       8.34982083E-10
  -11.0900002       8.50595705E-10
  -11.0799999       8.64952776E-10
  -11.0699997       8.78162765E-10
  -11.0600004       8.90393037E-10
  -11.0500002       9.01840658E-10
  -11.0400000       9.12708964E-10
  -11.0299997       9.23180088E-10
  -11.0200005       9.33388811E-10
  -11.0100002       9.43411904E-10
  -11.0000000       9.53259471E-10
  -10.9899998       9.62888880E-10
  -10.9799995       9.72218972E-10
  -10.9700003       9.81151382E-10
  -10.9600000       9.89593518E-10
  -10.9499998       9.97473104E-10
  -10.9399996       1.00474862E-09
  -10.9300003       1.01141551E-09
  -10.9200001       1.01748876E-09
  -10.9099998       1.02299835E-09
  -10.8999996       1.02797348E-09
  -10.8900003       1.03242814E-09
  -10.8800001       1.03635789E-09
  -10.8699999       1.03973263E-09
  -10.8599997       1.04250730E-09
  -10.8500004       1.04462627E-09
  -10.8400002       1.04604059E-09
  -10.8299999       1.04671372E-09
  -10.8199997       1.04662645E-09
  -10.8100004       1.04576869E-09
  -10.8000002       1.04413933E-09
  -10.7900000       1.04173037E-09
  -10.7799997       1.03851583E-09
  -10.7700005       1.03443332E-09
  -10.7600002       1.02939213E-09
  -10.7500000       1.02326858E-09
  -10.7399998       1.01592590E-09
  -10.7299995       1.00722997E-09
  -10.7200003       9.97064209E-10
  -10.7100000       9.85366344E-10
  -10.6999998       9.72127379E-10
  -10.6899996       9.57410040E-10
  -10.6800003       9.41342893E-10
  -10.6700001       9.24117172E-10
  -10.6599998       9.05952591E-10
  -10.6499996       8.87094842E-10
  -10.6400003       8.67788452E-10
  -10.6300001       8.48249748E-10
  -10.6199999       8.28667857E-10
  -10.6099997       8.09168788E-10
  -10.6000004       7.89818155E-10
  -10.5900002       7.70613129E-10
  -10.5799999       7.51486262E-10
  -10.5699997       7.32314598E-10
  -10.5600004       7.12940706E-10
  -10.5500002       6.93194835E-10
  -10.5400000       6.72930711E-10
  -10.5299997       6.52040089E-10
  -10.5200005       6.30497599E-10
  -10.5100002       6.08354034E-10
  -10.5000000       5.85743343E-10
  -10.4899998       5.62868030E-10
  -10.4799995       5.39961409E-10
  -10.4700003       5.17265064E-10
  -10.4600000       4.94984942E-10
  -10.4499998       4.73278361E-10
  -10.4399996       4.52232002E-10
  -10.4300003       4.31861824E-10
  -10.4200001       4.12120227E-10
  -10.4099998       3.92920668E-10
  -10.3999996       3.74148906E-10
  -10.3900003       3.55672103E-10
  -10.3800001       3.37344430E-10
  -10.3699999       3.19012677E-10
  -10.3599997       3.00515279E-10
  -10.3500004       2.81682289E-10
  -10.3400002       2.62341177E-10
  -10.3299999       2.42337650E-10
  -10.3199997       2.21547211E-10
  -10.3100004       1.99896918E-10
  -10.3000002       1.77370466E-10
  -10.2900000       1.54022961E-10
  -10.2799997       1.29957239E-10
  -10.2700005       1.05314486E-10
  -10.2600002       8.02380870E-11
  -10.2500000       5.48496699E-11
  -10.2399998       2.92316449E-11
  -10.2299995       3.41856361E-12
  -10.2200003      -2.26095306E-11
  -10.2100000      -4.89055255E-11
  -10.1999998      -7.55457225E-11
  -10.1899996      -1.02612231E-10
  -10.1800003      -1.30174038E-10
  -10.1700001      -1.58280791E-10
  -10.1599998      -1.86963209E-10
  -10.1499996      -2.16228563E-10
  -10.1400003      -2.46058146E-10
  -10.1300001      -2.76403955E-10
  -10.1199999      -3.07174508E-10
  -10.1099997      -3.38230027E-10
  -10.1000004      -3.69371478E-10
  -10.0900002      -4.00346395E-10
  -10.0799999      -4.30855018E-10
  -10.0699997      -4.60577909E-10
  -10.0600004      -4.89203844E-10
  -10.0500002      -5.16465204E-10
  -10.0400000      -5.42175194E-10
  -10.0299997      -5.66243497E-10
  -10.0200005      -5.88680382E-10
  -10.0100002      -6.09580497E-10
  -10.0000000      -6.29091779E-10
  -9.98999977      -6.47376930E-10
  -9.97999954      -6.64567179E-10
  -9.97000027      -6.80725643E-10
  -9.96000004      -6.95835778E-10
  -9.94999981      -7.09792558E-10
  -9.93999958      -7.22417570E-10
  -9.93000031      -7.33492433E-10
  -9.92000008      -7.42787887E-10
  -9.90999985      -7.50094487E-10
  -9.89999962      -7.55236984E-10
  -9.89000034      -7.58084706E-10
  -9.88000011      -7.58537899E-10
  -9.86999989      -7.56516738E-10
  -9.85999966      -7.51944618E-10
  -9.85000038      -7.44742990E-10
  -9.84000015      -7.34835359E-10
  -9.82999992      -7.22172155E-10
  -9.81999969      -7.06754710E-10
  -9.81000042      -6.88666235E-10
  -9.80000019      -6.68095967E-10
  -9.78999996      -6.45342724E-10
  -9.77999973      -6.20799190E-10
  -9.77000046      -5.94918614E-10
  -9.76000023      -5.68169234E-10
  -9.75000000      -5.40982814E-10
  -9.73999977      -5.13717624E-10
  -9.72999954      -4.86634899E-10
  -9.72000027      -4.59897009E-10
  -9.71000004      -4.33585029E-10
  -9.69999981      -4.07729128E-10
  -9.68999958      -3.82340659E-10
  -9.68000031      -3.57440966E-10
  -9.67000008      -3.33078370E-10
  -9.65999985      -3.09332449E-10
  -9.64999962      -2.86309115E-10
  -9.64000034      -2.64127609E-10
  -9.63000011      -2.42910858E-10
  -9.61999989      -2.22774202E-10
  -9.60999966      -2.03819073E-10
  -9.60000038      -1.86126461E-10
  -9.59000015      -1.69748146E-10
  -9.57999992      -1.54695035E-10
  -9.56999969      -1.40919609E-10
  -9.56000042      -1.28298872E-10
  -9.55000019      -1.16620741E-10
  -9.53999996      -1.05579719E-10
  -9.52999973      -9.47872544E-11
  -9.52000046      -8.37955400E-11
  -9.51000023      -7.21317728E-11
  -9.50000000      -5.93374239E-11
  -9.48999977      -4.50031401E-11
  -9.47999954      -2.88002313E-11
  -9.47000027      -1.04946590E-11
  -9.46000004       1.00447099E-11
  -9.44999981       3.28499068E-11
  -9.43999958       5.78562337E-11
  -9.43000031       8.49080667E-11
  -9.42000008       1.13765233E-10
  -9.40999985       1.44107060E-10
  -9.39999962       1.75542511E-10
  -9.39000034       2.07621059E-10
  -9.38000011       2.39853082E-10
  -9.36999989       2.71731526E-10
  -9.35999966       3.02755321E-10
  -9.35000038       3.32445932E-10
  -9.34000015       3.60357716E-10
  -9.32999992       3.86077115E-10
  -9.31999969       4.09218132E-10
  -9.31000042       4.29411118E-10
  -9.30000019       4.46297332E-10
  -9.28999996       4.59524974E-10
  -9.27999973       4.68756312E-10
  -9.27000046       4.73677486E-10
  -9.26000023       4.74001949E-10
  -9.25000000       4.69473072E-10
  -9.23999977       4.59853683E-10
  -9.22999954       4.44903475E-10
  -9.22000027       4.24356050E-10
  -9.21000004       3.97893440E-10
  -9.19999981       3.65134950E-10
  -9.18999958       3.25638710E-10
  -9.18000031       2.78925966E-10
  -9.17000008       2.24516350E-10
  -9.15999985       1.61974698E-10
  -9.14999962       9.09563327E-11
  -9.14000034       1.12390193E-11
  -9.13000011      -7.72564235E-11
  -9.11999989      -1.74464984E-10
  -9.10999966      -2.80190537E-10
  -9.10000038      -3.94121596E-10
  -9.09000015      -5.15858745E-10
  -9.07999992      -6.44926168E-10
  -9.06999969      -7.80779885E-10
  -9.06000042      -9.22808108E-10
  -9.05000019      -1.07032494E-09
  -9.03999996      -1.22256016E-09
  -9.02999973      -1.37865408E-09
  -9.02000046      -1.53765234E-09
  -9.01000023      -1.69851844E-09
  -9.00000000      -1.86014015E-09
  -8.98999977      -2.02134776E-09
  -8.97999954      -2.18094032E-09
  -8.97000027      -2.33770936E-09
  -8.96000004      -2.49045251E-09
  -8.94999981      -2.63799760E-09
  -8.93999958      -2.77921286E-09
  -8.93000031      -2.91300362E-09
  -8.92000008      -3.03832026E-09
  -8.90999985      -3.15414650E-09
  -8.89999962      -3.25949312E-09
  -8.89000034      -3.35339578E-09
  -8.88000011      -3.43491546E-09
  -8.86999989      -3.50314422E-09
  -8.85999966      -3.55722030E-09
  -8.85000038      -3.59634322E-09
  -8.84000015      -3.61978936E-09
  -8.82999992      -3.62693831E-09
  -8.81999969      -3.61727381E-09
  -8.81000042      -3.59040286E-09
  -8.80000019      -3.54605567E-09
  -8.78999996      -3.48407747E-09
  -8.77999973      -3.40444251E-09
  -8.77000046      -3.30721561E-09
  -8.76000023      -3.19257465E-09
  -8.75000000      -3.06076431E-09
  -8.73999977      -2.91210278E-09
  -8.72999954      -2.74695688E-09
  -8.72000027      -2.56573718E-09
  -8.71000004      -2.36884534E-09
  -8.69999981      -2.15670837E-09
  -8.68999958      -1.92973038E-09
  -8.68000031      -1.68830683E-09
  -8.67000008      -1.43281609E-09
  -8.65999985      -1.16360255E-09
  -8.64999962      -8.81009377E-10
  -8.64000034      -5.85339888E-10
  -8.63000011      -2.76922651E-10
  -8.61999989       4.39542465E-11
  -8.60999966       3.76958131E-10
  -8.60000038       7.21735338E-10
  -8.59000015       1.07788212E-09
  -8.57999992       1.44493795E-09
  -8.56999969       1.82238935E-09
  -8.56000042       2.20965624E-09
  -8.55000019       2.60613420E-09
  -8.53999996       3.01116443E-09
  -8.52999973       3.42407658E-09
  -8.52000046       3.84416809E-09
  -8.51000023       4.27071178E-09
  -8.50000000       4.70294514E-09
  -8.48999977       5.14004173E-09
  -8.47999954       5.58113022E-09
  -8.47000027       6.02530381E-09
  -8.46000004       6.47162812E-09
  -8.44999981       6.91916346E-09
  -8.43999958       7.36702832E-09
  -8.43000031       7.81439535E-09
  -8.42000008       8.26051583E-09
  -8.40999985       8.70472139E-09
  -8.39999962       9.14641607E-09
  -8.39000034       9.58504831E-09
  -8.38000011       1.00201030E-08
  -8.36999989       1.04510969E-08
  -8.35999966       1.08775593E-08
  -8.35000038       1.12990568E-08
  -8.34000015       1.17151995E-08
  -8.32999992       1.21256312E-08
  -8.31999969       1.25300277E-08
  -8.31000042       1.29280657E-08
  -8.30000019       1.33193989E-08
  -8.28999996       1.37036116E-08
  -8.27999973       1.40802259E-08
  -8.27000046       1.44486787E-08
  -8.26000023       1.48083483E-08
  -8.25000000       1.51585819E-08
  -8.23999977       1.54987347E-08
  -8.22999954       1.58281690E-08
  -8.22000027       1.61463003E-08
  -8.21000004       1.64525797E-08
  -8.19999981       1.67464584E-08
  -8.18999958       1.70273893E-08
  -8.18000031       1.72948180E-08
  -8.17000008       1.75481656E-08
  -8.15999985       1.77868387E-08
  -8.14999962       1.80102493E-08
  -8.14000034       1.82178219E-08
  -8.13000011       1.84089917E-08
  -8.11999989       1.85831723E-08
  -8.10999966       1.87397458E-08
  -8.10000038       1.88780405E-08
  -8.09000015       1.89972855E-08
  -8.07999992       1.90966354E-08
  -8.06999969       1.91751681E-08
  -8.06000042       1.92319458E-08
  -8.05000019       1.92660501E-08
  -8.03999996       1.92766194E-08
  -8.02999973       1.92629042E-08
  -8.02000046       1.92242826E-08
  -8.01000023       1.91602503E-08
  -8.00000000       1.90704270E-08
  -7.98999977       1.89545535E-08
  -7.98000002       1.88124982E-08
  -7.96999979       1.86442275E-08
  -7.96000004       1.84498603E-08
  -7.94999981       1.82296240E-08
  -7.94000006       1.79838953E-08
  -7.92999983       1.77131163E-08
  -7.92000008       1.74178432E-08
  -7.90999985       1.70986567E-08
  -7.90000010       1.67561520E-08
  -7.88999987       1.63909402E-08
  -7.88000011       1.60036517E-08
  -7.86999989       1.55949706E-08
  -7.86000013       1.51656572E-08
  -7.84999990       1.47165862E-08
  -7.84000015       1.42487355E-08
  -7.82999992       1.37632261E-08
  -7.82000017       1.32612863E-08
  -7.80999994       1.27442519E-08
  -7.80000019       1.22134569E-08
  -7.78999996       1.16703394E-08
  -7.78000021       1.11163603E-08
  -7.76999998       1.05529985E-08
  -7.76000023       9.98185445E-09
  -7.75000000       9.40449052E-09
  -7.73999977       8.82258799E-09
  -7.73000002       8.23782376E-09
  -7.71999979       7.65188357E-09
  -7.71000004       7.06641368E-09
  -7.69999981       6.48296705E-09
  -7.69000006       5.90309490E-09
  -7.67999983       5.32823785E-09
  -7.67000008       4.75976014E-09
  -7.65999985       4.19905710E-09
  -7.65000010       3.64744324E-09
  -7.63999987       3.10625281E-09
  -7.63000011       2.57677502E-09
  -7.61999989       2.06021866E-09
  -7.61000013       1.55774427E-09
  -7.59999990       1.07043219E-09
  -7.59000015       5.99295669E-10
  -7.57999992       1.45245982E-10
  -7.57000017      -2.90865942E-10
  -7.55999994      -7.08219816E-10
  -7.55000019      -1.10607845E-09
  -7.53999996      -1.48375867E-09
  -7.53000021      -1.84069560E-09
  -7.51999998      -2.17642637E-09
  -7.51000023      -2.49065102E-09
  -7.50000000      -2.78317347E-09
  -7.48999977      -3.05398040E-09
  -7.48000002      -3.30310024E-09
  -7.46999979      -3.53066665E-09
  -7.46000004      -3.73681264E-09
  -7.44999981      -3.92167898E-09
  -7.44000006      -4.08542622E-09