  -16.0000000       0.00000000    
  -15.9899998       0.00000000    
  -15.9799995       0.00000000    
  -15.9700003       0.00000000    
  -15.9600000       0.00000000    
  -15.9499998       0.00000000    
  -15.9399996       0.00000000    
  -15.9300003       0.00000000    
  -15.9200001       0.00000000    
  -15.9099998       0.00000000    
  -15.8999996       0.00000000    
  -15.8900003       0.00000000    
  -15.8800001       0.00000000    
  -15.8699999       0.00000000    
  -15.8599997      -0.00000000    
  -15.8500004      -8.40779079E-45
  -15.8400002      -1.30320757E-43
  -15.8299999      -1.37187120E-42
  -15.8199997      -1.09875813E-41
  -15.8100004      -7.11537321E-41
  -15.8000002      -3.86892901E-40
  -15.7900000      -1.81249268E-39
  -15.7799997      -7.45102763E-39
  -15.7700005      -2.72378398E-38
  -15.7600002      -8.93947145E-38
  -15.7500000      -2.65170578E-37
  -15.7399998      -7.13798389E-37
  -15.7299995      -1.74615205E-36
  -15.7200003      -3.87527355E-36
  -15.7100000      -7.75433244E-36
  -15.6999998      -1.37952255E-35
  -15.6899996      -2.11576786E-35
  -15.6800003      -2.58337699E-35
  -15.6700001      -1.79717747E-35
  -15.6599998       2.03327247E-35
  -15.6499996       1.13741465E-34
  -15.6400003       2.83919423E-34
  -15.6300001       5.26109854E-34
  -15.6199999       7.71135498E-34
  -15.6099997       8.43641000E-34
  -15.6000004       4.46405918E-34
  -15.5900002      -7.80237498E-34
  -15.5799999      -3.07218277E-33
  -15.5699997      -6.21413627E-33
  -15.5600004      -9.15120956E-33
  -15.5500002      -9.76062183E-33
  -15.5400000      -5.12956458E-33
  -15.5299997       7.32246802E-33
  -15.5200005       2.78118408E-32
  -15.5100002       5.17802029E-32
  -15.5000000       6.84146587E-32
  -15.4899998       6.19554936E-32
  -15.4799995       1.73368255E-32
  -15.4700003      -7.00136778E-32
  -15.4600000      -1.83502955E-31
  -15.4499998      -2.80531703E-31
  -15.4399996      -3.01592871E-31
  -15.4300003      -1.97876418E-31
  -15.4200001       2.84631498E-32
  -15.4099998       2.92959406E-31
  -15.3999996       4.41749084E-31
  -15.3900003       3.42421340E-31
  -15.3800001       5.36222907E-32
  -15.3699999       2.22084770E-33
  -15.3599997       1.00110027E-30
  -15.3500004       3.87592611E-30
  -15.3400002       8.53198626E-30
  -15.3299999       1.25908212E-29
  -15.3199997       1.03009070E-29
  -15.3100004      -6.87436018E-30
  -15.3000002      -4.62244703E-29
  -15.2900000      -1.05277181E-28
  -15.2799997      -1.60351410E-28
  -15.2700005      -1.58290268E-28
  -15.2600002      -2.25692162E-29
  -15.2500000       3.13119929E-28
  -15.2399998       8.37469258E-28
  -15.2299995       1.37416787E-27
  -15.2200003       1.52110563E-27
  -15.2100000       6.95947737E-28
  -15.1999998      -1.62472336E-27
  -15.1899996      -5.43859467E-27
  -15.1800003      -9.62731472E-27
  -15.1700001      -1.15548309E-26
  -15.1599998      -7.35834199E-27
  -15.1499996       6.55081189E-27
  -15.1400003       3.06168904E-26
  -15.1300001       5.85784935E-26
  -15.1199999       7.50725767E-26
  -15.1099997       5.72565599E-26
  -15.1000004      -1.67738853E-26
  -15.0900002      -1.52098028E-25
  -15.0799999      -3.17480966E-25
  -15.0699997      -4.32199190E-25
  -15.0600004      -3.73855654E-25
  -15.0500002      -2.09368353E-26
  -15.0400000       6.67092040E-25
  -15.0299997       1.55167707E-24
  -15.0200005       2.24716554E-24
  -15.0100002       2.15240047E-24
  -15.0000000       6.45751035E-25
  -14.9899998      -2.54375358E-24
  -14.9799995      -6.87718603E-24
  -14.9700003      -1.06723185E-23
  -14.9600000      -1.12021664E-23
  -14.9499998      -5.50663250E-24
  -14.9399996       8.01780080E-24
  -14.9300003       2.76053291E-23
  -14.9200001       4.65617387E-23
  -14.9099998       5.34211241E-23
  -14.8999996       3.50015974E-23
  -14.8900003      -1.72868155E-23
  -14.8800001      -9.91573798E-23
  -14.8699999      -1.86502950E-22
  -14.8599997      -2.34679556E-22
  -14.8500004      -1.88780259E-22
  -14.8400002      -6.77407639E-24
  -14.8299999       3.08495202E-22
  -14.8199997       6.80022082E-22
  -14.8100004       9.47817514E-22
  -14.8000002       8.98827358E-22
  -14.7900000       3.44838440E-22
  -14.7799997      -7.62081640E-22
  -14.7700005      -2.21353855E-21
  -14.7600002      -3.48845975E-21
  -14.7500000      -3.82279905E-21
  -14.7399998      -2.44695434E-21
  -14.7299995       1.02839735E-21
  -14.7200003       6.18429630E-21
  -14.7100000       1.15132927E-20
  -14.6999998       1.45132441E-20
  -14.6899996       1.23252520E-20
  -14.6800003       2.91396080E-21
  -14.6700001      -1.34775340E-20
  -14.6599998      -3.31471046E-20
  -14.6499996      -4.87435369E-20
  -14.6400003      -5.06957833E-20
  -14.6300001      -3.04578144E-20
  -14.6199999       1.49850376E-20
  -14.6099997       7.87771402E-20
  -14.6000004       1.42102650E-19
  -14.5900002       1.76444048E-19
  -14.5799999       1.51353579E-19
  -14.5699997       4.69839234E-20
  -14.5600004      -1.31872804E-19
  -14.5500002      -3.45710030E-19
  -14.5400000      -5.20496059E-19
  -14.5299997      -5.62860528E-19
  -14.5200005      -3.90669468E-19
  -14.5100002       2.70699702E-20
  -14.5000000       6.33703119E-19
  -14.4899998       1.26867544E-18
  -14.4799995       1.68713453E-18
  -14.4700003       1.62266025E-18
  -14.4600000       8.85605000E-19
  -14.4499998      -5.28147325E-19
  -14.4399996      -2.35760061E-18
  -14.4300003      -4.06977245E-18
  -14.4200001      -4.95697577E-18
  -14.4099998      -4.34047641E-18
  -14.3999996      -1.84179911E-18
  -14.3900003       2.35768974E-18
  -14.3800001       7.37247055E-18
  -14.3699999       1.16800078E-17
  -14.3599997       1.34488425E-17
  -14.3500004       1.10959207E-17
  -14.3400002       3.94563539E-18
  -14.3299999      -7.21586375E-18
  -14.3199997      -1.99250389E-17
  -14.3100004      -3.03480027E-17
  -14.3000002      -3.41631085E-17
  -14.2900000      -2.78838151E-17
  -14.2799997      -1.02939848E-17
  -14.2700005       1.64622243E-17
  -14.2600002       4.65986011E-17
  -14.2500000       7.15234356E-17
  -14.2399998       8.18096978E-17
  -14.2299995       6.99449831E-17
  -14.2200003       3.31727980E-17
  -14.2100000      -2.44448348E-17
  -14.1999998      -9.15526414E-17
  -14.1899996      -1.51096371E-16
  -14.1800003      -1.83932066E-16
  -14.1700001      -1.73790408E-16
  -14.1599998      -1.12435948E-16
  -14.1499996      -3.63132123E-18
  -14.1400003       1.35347514E-16
  -14.1300001       2.75408369E-16
  -14.1199999       3.80585270E-16
  -14.1099997       4.15479746E-16
  -14.1000004       3.53825779E-16
  -14.0900002       1.86466667E-16
  -14.0799999      -7.29610755E-17
  -14.0699997      -3.86052762E-16
  -14.0600004      -6.92311844E-16
  -14.0500002      -9.16865626E-16
  -14.0400000      -9.82991476E-16
  -14.0299997      -8.28495367E-16
  -14.0200005      -4.24036869E-16
  -14.0100002       2.09664623E-16
  -14.0000000       9.90010521E-16
  -13.9899998       1.77115765E-15
  -13.9799995       2.35792013E-15
  -13.9700003       2.53781532E-15
  -13.9600000       2.13016271E-15
  -13.9499998       1.04549076E-15
  -13.9399996      -6.57659144E-16
  -13.9300003      -2.73616905E-15
  -13.9200001      -4.76464757E-15
  -13.9099998      -6.19048863E-15
  -13.8999996      -6.44454515E-15
  -13.8900003      -5.09411501E-15
  -13.8800001      -2.00732938E-15
  -13.8699999       2.51587568E-15
  -13.8599997       7.69544340E-15
  -13.8500004       1.23452248E-14
  -13.8400002       1.50842795E-14
  -13.8299999       1.46638225E-14
  -13.8199997       1.03476620E-14
  -13.8100004       2.25115205E-15
  -13.8000002      -8.46944517E-15
  -13.7900000      -1.96695721E-14
  -13.7799997      -2.85563911E-14
  -13.7700005      -3.22896447E-14
  -13.7600002      -2.87358875E-14
  -13.7500000      -1.71998375E-14
  -13.7399998       1.07607510E-15
  -13.7299995       2.28329877E-14
  -13.7200003       4.32478794E-14
  -13.7100000       5.69007257E-14
  -13.6999998       5.90927657E-14
  -13.6899996       4.72217378E-14
  -13.6800003       2.18475242E-14
  -13.6700001      -1.29009115E-14
  -13.6599998      -4.98073872E-14
  -13.6499996      -7.99635220E-14
  -13.6400003      -9.48513661E-14
  -13.6300001      -8.86580170E-14
  -13.6199999      -6.02242865E-14
  -13.6099997      -1.40305782E-14
  -13.6000004       4.02059774E-14
  -13.5900002       8.94301045E-14
  -13.5799999       1.20346807E-13
  -13.5699997       1.23037526E-13
  -13.5600004       9.41565754E-14
  -13.5500002       3.87388689E-14
  -13.5400000      -3.01092396E-14
  -13.5299997      -9.38754757E-14
  -13.5200005      -1.33266580E-13
  -13.5100002      -1.33766723E-13
  -13.5000000      -9.06675857E-14
  -13.4899998      -1.20190308E-14
  -13.4799995       8.17056180E-14
  -13.4700003       1.61688236E-13
  -13.4600000       1.98040938E-13
  -13.4499998       1.68713473E-13
  -13.4399996       6.77293372E-14
  -13.4300003      -8.97567204E-14
  -13.4200001      -2.67613432E-13
  -13.4099998      -4.15003454E-13
  -13.3999996      -4.78099223E-13
  -13.3900003      -4.14931734E-13
  -13.3800001      -2.09792592E-13
  -13.3699999       1.16870259E-13
  -13.3599997       5.06562836E-13
  -13.3500004       8.70762555E-13
  -13.3400002       1.10838172E-12
  -13.3299999       1.12963252E-12
  -13.3199997       8.81095435E-13
  -13.3100004       3.65711774E-13
  -13.3000002      -3.48168272E-13
  -13.2900000      -1.13255293E-12
  -13.2799997      -1.82102684E-12
  -13.2700005      -2.24224372E-12
  -13.2600002      -2.25908593E-12
  -13.2500000      -1.80472174E-12
  -13.2399998      -9.06600804E-13
  -13.2299995       3.08557027E-13
  -13.2200003       1.63180352E-12
  -13.2100000       2.80905290E-12
  -13.1999998       3.59132060E-12
  -13.1899996       3.78760391E-12
  -13.1800003       3.30860448E-12
  -13.1700001       2.19097180E-12
  -13.1599998       5.95823141E-13
  -13.1499996      -1.21898108E-12
  -13.1400003      -2.94720715E-12
  -13.1300001      -4.29278661E-12
  -13.1199999      -5.02559452E-12
  -13.1099997      -5.02224217E-12
  -13.1000004      -4.28343081E-12
  -13.0900002      -2.92527873E-12
  -13.0799999      -1.14851932E-12
  -13.0699997       8.05194128E-13
  -13.0600004       2.69789811E-12
  -13.0500002       4.32955841E-12
  -13.0400000       5.55458284E-12
  -13.0299997       6.27932775E-12
  -13.0200005       6.44578401E-12
  -13.0100002       6.01147517E-12
  -13.0000000       4.93713490E-12
  -12.9899998       3.19138878E-12
  -12.9799995       7.75656937E-13
  -12.9700003      -2.23539611E-12
  -12.9600000      -5.65013010E-12
  -12.9499998      -9.12989215E-12
  -12.9399996      -1.21896711E-11
  -12.9300003      -1.42410033E-11
  -12.9200001      -1.46788016E-11
  -12.9099998      -1.30014766E-11
  -12.8999996      -8.94250472E-12
  -12.8900003      -2.58438626E-12
  -12.8800001       5.57461889E-12
  -12.8699999       1.46237085E-11
  -12.8599997       2.33224395E-11
  -12.8500004       3.02564952E-11
  -12.8400002       3.40435770E-11
  -12.8299999       3.35552558E-11
  -12.8199997       2.81165560E-11
  -12.8100004       1.76492484E-11
  -12.8000002       2.73660825E-12
  -12.7900000      -1.53974420E-11
  -12.7799997      -3.49864131E-11
  -12.7700005      -5.38768995E-11
  -12.7600002      -6.97179814E-11
  -12.7500000      -8.01630290E-11
  -12.7399998      -8.30708002E-11
  -12.7299995      -7.67018948E-11
  -12.7200003      -5.99134423E-11
  -12.7100000      -3.23545600E-11
  -12.6999998       5.34181987E-12
  -12.6899996       5.13895385E-11
  -12.6800003       1.02736639E-10
  -12.6700001       1.55055968E-10
  -12.6599998       2.02887429E-10
  -12.6499996       2.39968295E-10
  -12.6400003       2.59762351E-10
  -12.6300001       2.56161037E-10
  -12.6199999       2.24289157E-10
  -12.6099997       1.61314406E-10
  -12.6000004       6.71396549E-11
  -12.5900002      -5.51382898E-11
  -12.5799999      -1.99092659E-10
  -12.5699997      -3.55195651E-10
  -12.5600004      -5.11393872E-10
  -12.5500002      -6.53957055E-10
  -12.5400000      -7.68484998E-10
  -12.5299997      -8.40937098E-10
  -12.5200005      -8.58570881E-10
  -12.5100002      -8.10706724E-10
  -12.5000000      -6.89301338E-10
  -12.4899998      -4.89372876E-10
  -12.4799995      -2.09366066E-10
  -12.4700003       1.48427826E-10
  -12.4600000       5.77299875E-10
  -12.4499998       1.06534626E-09
  -12.4399996       1.59450664E-09
  -12.4300003       2.13951235E-09
  -12.4200001       2.66692024E-09
  -12.4099998       3.13442916E-09
  -12.3999996       3.49069307E-09
  -12.3900003       3.67579145E-09
  -12.3800001       3.62244124E-09
  -12.3699999       3.25793459E-09
  -12.3599997       2.50669641E-09
  -12.3500004       1.29327238E-09
  -12.3400002      -4.54458277E-10
  -12.3299999      -2.80207391E-09
  -12.3199997      -5.80553516E-09
  -12.3100004      -9.50837720E-09
  -12.3000002      -1.39391254E-08
  -12.2900000      -1.91089207E-08
  -12.2799997      -2.50093315E-08
  -12.2700005      -3.16102486E-08
  -12.2600002      -3.88579764E-08
  -12.2500000      -4.66736090E-08
  -12.2399998      -5.49519008E-08
  -12.2299995      -6.35608899E-08
  -12.2200003      -7.23426155E-08
  -12.2100000      -8.11149192E-08
  -12.1999998      -8.96747565E-08
  -12.1899996      -9.78025270E-08
  -12.1800003      -1.05267567E-07
  -12.1700001      -1.11834218E-07
  -12.1599998      -1.17268065E-07
  -12.1499996      -1.21341955E-07
  -12.1400003      -1.23841474E-07
  -12.1300001      -1.24569411E-07
  -12.1199999      -1.23349395E-07
  -12.1099997      -1.20028531E-07
  -12.1000004      -1.14479377E-07
  -12.0900002      -1.06601235E-07
  -12.0799999      -9.63212869E-08
  -12.0699997      -8.35953955E-08
  -12.0600004      -6.84086814E-08
  -12.0500002      -5.07761619E-08
  -12.0400000      -3.07429353E-08
  -12.0299997      -8.38409875E-09
  -12.0200005       1.61957345E-08
  -12.0100002       4.28633165E-08
  -12.0000000       7.14579684E-08
  -11.9899998       1.01792885E-07
  -11.9799995       1.33656641E-07
  -11.9700003       1.66814473E-07
  -11.9600000       2.01009584E-07
  -11.9499998       2.35964023E-07
  -11.9399996       2.71379832E-07
  -11.9300003       3.06939853E-07
  -11.9200001       3.42309079E-07
  -11.9099998       3.77135677E-07
  -11.8999996       4.11052724E-07
  -11.8900003       4.43679880E-07
  -11.8800001       4.74625409E-07
  -11.8699999       5.03487911E-07
  -11.8599997       5.29858994E-07
  -11.8500004       5.53325322E-07
  -11.8400002       5.73471766E-07
  -11.8299999       5.89884394E-07
  -11.8199997       6.02155581E-07
  -11.8100004       6.09888389E-07
  -11.8000002       6.12703502E-07
  -11.7900000       6.10245820E-07
  -11.7799997       6.02192188E-07
  -11.7700005       5.88258729E-07
  -11.7600002       5.68207497E-07
  -11.7500000       5.41853012E-07
  -11.7399998       5.09066410E-07
  -11.7299995       4.69778513E-07
  -11.7200003       4.23981390E-07
  -11.7100000       3.71728646E-07
  -11.6999998       3.13134365E-07
  -11.6899996       2.48371890E-07
  -11.6800003       1.77671694E-07
  -11.6700001       1.01319323E-07
  -11.6599998       1.96532977E-08
  -11.6499996      -6.69374529E-08
  -11.6400003      -1.58016178E-07
  -11.6300001      -2.53101632E-07
  -11.6199999      -3.51671133E-07
  -11.6099997      -4.53165029E-07
  -11.6000004      -5.56990642E-07
  -11.5900002      -6.62525906E-07
  -11.5799999      -7.69123290E-07
  -11.5699997      -8.76112381E-07
  -11.5600004      -9.82801566E-07
  -11.5500002      -1.08847848E-06
  -11.5400000      -1.19241054E-06
  -11.5299997      -1.29384375E-06
  -11.5200005      -1.39200176E-06
  -11.5100002      -1.48608660E-06
  -11.5000000      -1.57527847E-06
  -11.4899998      -1.65873712E-06
  -11.4799995      -1.73560568E-06
  -11.4700003      -1.80501445E-06
  -11.4600000      -1.86608600E-06
  -11.4499998      -1.91794038E-06
  -11.4399996      -1.95970347E-06
  -11.4300003      -1.99050919E-06
  -11.4200001      -2.00950649E-06
  -11.4099998      -2.01586545E-06
  -11.3999996      -2.00878026E-06
  -11.3900003      -1.98747352E-06
  -11.3800001      -1.95120151E-06
  -11.3699999      -1.89925674E-06
  -11.3599997      -1.83097279E-06
  -11.3500004      -1.74572756E-06
  -11.3400002      -1.64294602E-06
  -11.3299999      -1.52210430E-06
  -11.3199997      -1.38273072E-06
  -11.3100004      -1.22440690E-06
  -11.3000002      -1.04676678E-06
  -11.2900000      -8.49495279E-07
  -11.2799997      -6.32325452E-07
  -11.2700005      -3.95034249E-07
  -11.2600002      -1.37439073E-07
  -11.2500000       1.40607298E-07
  -11.2399998       4.39219775E-07
  -11.2299995       7.58485271E-07
  -11.2200003       1.09846542E-06
  -11.2100000       1.45919842E-06
  -11.1999998       1.84070086E-06
  -11.1899996       2.24296809E-06
  -11.1800003       2.66597431E-06
  -11.1700001       3.10967334E-06
  -11.1599998       3.57399699E-06
  -11.1499996       4.05885612E-06
  -11.1400003       4.56413909E-06
  -11.1300001       5.08971470E-06
  -11.1199999       5.63543063E-06
  -11.1099997       6.20111541E-06
  -11.1000004       6.78657807E-06
  -11.0900002       7.39161123E-06
  -11.0799999       8.01599253E-06
  -11.0699997       8.65948277E-06
  -11.0600004       9.32182684E-06
  -11.0500002       1.00027573E-05
  -11.0400000       1.07019887E-05
  -11.0299997       1.14192235E-05
  -11.0200005       1.21541334E-05
  -11.0100002       1.29063837E-05
  -11.0000000       1.36756107E-05
  -10.9899998       1.44614278E-05
  -10.9799995       1.52634293E-05
  -10.9700003       1.60811906E-05
  -10.9600000       1.69142531E-05
  -10.9499998       1.77621532E-05
  -10.9399996       1.86243942E-05
  -10.9300003       1.95004723E-05
  -10.9200001       2.03898544E-05
  -10.9099998       2.12920022E-05
  -10.8999996       2.22063518E-05
  -10.8900003       2.31323284E-05
  -10.8800001       2.40693371E-05
  -10.8699999       2.50167741E-05
  -10.8599997       2.59740191E-05
  -10.8500004       2.69404518E-05
  -10.8400002       2.79154337E-05
  -10.8299999       2.88983392E-05
  -10.8199997       2.98885116E-05
  -10.8100004       3.08853196E-05
  -10.8000002       3.18881212E-05
  -10.7900000       3.28962669E-05
  -10.7799997       3.39091057E-05
  -10.7700005       3.49259935E-05
  -10.7600002       3.59462720E-05
  -10.7500000       3.69692680E-05
  -10.7399998       3.79943158E-05
  -10.7299995       3.90207606E-05
  -10.7200003       4.00479330E-05
  -10.7100000       4.10751745E-05
  -10.6999998       4.21018558E-05
  -10.6899996       4.31273547E-05
  -10.6800003       4.41510892E-05
  -10.6700001       4.51725064E-05
  -10.6599998       4.61910786E-05
  -10.6499996       4.72063439E-05
  -10.6400003       4.82178584E-05
  -10.6300001       4.92252439E-05
  -10.6199999       5.02281546E-05
  -10.6099997       5.12263068E-05
  -10.6000004       5.22194823E-05
  -10.5900002       5.32075028E-05
  -10.5799999       5.41902737E-05
  -10.5699997       5.51677404E-05
  -10.5600004       5.61399320E-05
  -10.5500002       5.71069249E-05
  -10.5400000       5.80688829E-05
  -10.5299997       5.90259879E-05
  -10.5200005       5.99784980E-05
  -10.5100002       6.09266790E-05
  -10.5000000       6.18708509E-05
  -10.4899998       6.28113412E-05
  -10.4799995       6.37485064E-05
  -10.4700003       6.46826811E-05
  -10.4600000       6.56142074E-05
  -10.4499998       6.65434782E-05
  -10.4399996       6.74707626E-05
  -10.4300003       6.83964026E-05
  -10.4200001       6.93206675E-05
  -10.4099998       7.02438119E-05
  -10.3999996       7.11660323E-05
  -10.3900003       7.20874887E-05
  -10.3800001       7.30082611E-05
  -10.3699999       7.39283787E-05
  -10.3599997       7.48478124E-05
  -10.3500004       7.57664457E-05
  -10.3400002       7.66841113E-05
  -10.3299999       7.76005909E-05
  -10.3199997       7.85155789E-05
  -10.3100004       7.94287553E-05
  -10.3000002       8.03397561E-05
  -10.2900000       8.12481667E-05
  -10.2799997       8.21536014E-05
  -10.2700005       8.30556019E-05
  -10.2600002       8.39537679E-05
  -10.2500000       8.48476702E-05
  -10.2399998       8.57369087E-05
  -10.2299995       8.66210903E-05
  -10.2200003       8.74998514E-05
  -10.2100000       8.83728790E-05
  -10.1999998       8.92398602E-05
  -10.1899996       9.01005769E-05
  -10.1800003       9.09548398E-05
  -10.1700001       9.18025107E-05
  -10.1599998       9.26435387E-05
  -10.1499996       9.34779164E-05
  -10.1400003       9.43057021E-05
  -10.1300001       9.51270777E-05
  -10.1199999       9.59422250E-05
  -10.1099997       9.67514279E-05
  -10.1000004       9.75550283E-05
  -10.0900002       9.83534846E-05
  -10.0799999       9.91472989E-05
  -10.0699997       9.99370095E-05
  -10.0600004       1.00723242E-04
  -10.0500002       1.01506746E-04
  -10.0400000       1.02288301E-04
  -10.0299997       1.03068749E-04
  -10.0200005       1.03848994E-04
  -10.0100002       1.04630017E-04
  -10.0000000       1.05412786E-04
  -9.98999977       1.06198357E-04
  -9.97999954       1.06987798E-04
  -9.97000027       1.07782165E-04
  -9.96000004       1.08582593E-04
  -9.94999981       1.09390145E-04
  -9.93999958       1.10205990E-04
  -9.93000031       1.11031259E-04
  -9.92000008       1.11867135E-04
  -9.90999985       1.12714893E-04
  -9.89999962       1.13575785E-04
  -9.89000034       1.14451112E-04
  -9.88000011       1.15342344E-04
  -9.86999989       1.16250871E-04
  -9.85999966       1.17178177E-04
  -9.85000038       1.18125834E-04
  -9.84000015       1.19095406E-04
  -9.82999992       1.20088560E-04
  -9.81999969       1.21106925E-04
  -9.81000042       1.22152196E-04
  -9.80000019       1.23226069E-04
  -9.78999996       1.24330283E-04
  -9.77999973       1.25466569E-04
  -9.77000046       1.26636718E-04
  -9.76000023       1.27842446E-04
  -9.75000000       1.29085587E-04
  -9.73999977       1.30367916E-04
  -9.72999954       1.31691238E-04
  -9.72000027       1.33057416E-04
  -9.71000004       1.34468282E-04
  -9.69999981       1.35925671E-04
  -9.68999958       1.37431343E-04
  -9.68000031       1.38987147E-04
  -9.67000008       1.40594784E-04
  -9.65999985       1.42255944E-04
  -9.64999962       1.43972182E-04
  -9.64000034       1.45744998E-04
  -9.63000011       1.47575673E-04
  -9.61999989       1.49465384E-04
  -9.60999966       1.51415079E-04
  -9.60000038       1.53425543E-04
  -9.59000015       1.55497211E-04
  -9.57999992       1.57630406E-04
  -9.56999969       1.59825038E-04
  -9.56000042       1.62080891E-04
  -9.55000019       1.64397366E-04
  -9.53999996       1.66773607E-04
  -9.52999973       1.69208506E-04
  -9.52000046       1.71700594E-04
  -9.51000023       1.74248242E-04
  -9.50000000       1.76849440E-04
  -9.48999977       1.79502051E-04
  -9.47999954       1.82203526E-04
  -9.47000027       1.84951292E-04
  -9.46000004       1.87742407E-04
  -9.44999981       1.90573861E-04
  -9.43999958       1.93442509E-04
  -9.43000031       1.96345092E-04
  -9.42000008       1.99278278E-04
  -9.40999985       2.02238793E-04
  -9.39999962       2.05223376E-04
  -9.39000034       2.08228957E-04
  -9.38000011       2.11252438E-04
  -9.36999989       2.14291111E-04
  -9.35999966       2.17342502E-04
  -9.35000038       2.20404341E-04
  -9.34000015       2.23474854E-04
  -9.32999992       2.26552540E-04
  -9.31999969       2.29636411E-04
  -9.31000042       2.32726059E-04
  -9.30000019       2.35821382E-04
  -9.28999996       2.38923021E-04
  -9.27999973       2.42032082E-04
  -9.27000046       2.45150324E-04
  -9.26000023       2.48280034E-04
  -9.25000000       2.51424237E-04
  -9.23999977       2.54586455E-04
  -9.22999954       2.57770822E-04
  -9.22000027       2.60982109E-04
  -9.21000004       2.64225702E-04
  -9.19999981       2.67507276E-04
  -9.18999958       2.70833087E-04
  -9.18000031       2.74209917E-04
  -9.17000008       2.77644809E-04
  -9.15999985       2.81145010E-04
  -9.14999962       2.84718146E-04
  -9.14000034       2.88371783E-04
  -9.13000011       2.92113778E-04
  -9.11999989       2.95951933E-04
  -9.10999966       2.99893814E-04
  -9.10000038       3.03947105E-04
  -9.09000015       3.08118993E-04
  -9.07999992       3.12416378E-04
  -9.06999969       3.16845864E-04
  -9.06000042       3.21413536E-04
  -9.05000019       3.26124748E-04
  -9.03999996       3.30984476E-04
  -9.02999973       3.35996825E-04
  -9.02000046       3.41165258E-04
  -9.01000023       3.46492277E-04
  -9.00000000       3.51979717E-04
  -8.98999977       3.57628538E-04
  -8.97999954       3.63438827E-04
  -8.97000027       3.69409623E-04
  -8.96000004       3.75539210E-04
  -8.94999981       3.81825055E-04
  -8.93999958       3.88263405E-04
  -8.93000031       3.94849834E-04
  -8.92000008       4.01579076E-04
  -8.90999985       4.08444903E-04
  -8.89999962       4.15440300E-04
  -8.89000034       4.22557467E-04
  -8.88000011       4.29787731E-04
  -8.86999989       4.37121809E-04
  -8.85999966       4.44549572E-04
  -8.85000038       4.52060427E-04
  -8.84000015       4.59643081E-04
  -8.82999992       4.67285776E-04
  -8.81999969       4.74976376E-04
  -8.81000042       4.82702249E-04
  -8.80000019       4.90450766E-04
  -8.78999996       4.98208858E-04
  -8.77999973       5.05963399E-04
  -8.77000046       5.13701234E-04
  -8.76000023       5.21409151E-04
  -8.75000000       5.29074227E-04
  -8.73999977       5.36683423E-04
  -8.72999954       5.44224284E-04
  -8.72000027       5.51684410E-04
  -8.71000004       5.59051987E-04
  -8.69999981       5.66315488E-04
  -8.68999958       5.73464320E-04
  -8.68000031       5.80487889E-04
  -8.67000008       5.87376649E-04
  -8.65999985       5.94121520E-04
  -8.64999962       6.00714353E-04
  -8.64000034       6.07147347E-04
  -8.63000011       6.13414042E-04
  -8.61999989       6.19507977E-04
  -8.60999966       6.25424495E-04
  -8.60000038       6.31158997E-04
  -8.59000015       6.36707875E-04
  -8.57999992       6.42068335E-04
  -8.56999969       6.47238398E-04
  -8.56000042       6.52216724E-04
  -8.55000019       6.57002733E-04
  -8.53999996       6.61596190E-04
  -8.52999973       6.65997970E-04
  -8.52000046       6.70209178E-04
  -8.51000023       6.74231560E-04
  -8.50000000       6.78067503E-04
  -8.48999977       6.81719452E-04
  -8.47999954       6.85190549E-04
  -8.47000027       6.88484230E-04
  -8.46000004       6.91604160E-04
  -8.44999981       6.94554183E-04
  -8.43999958       6.97338197E-04
  -8.43000031       6.99960510E-04
  -8.42000008       7.02425605E-04
  -8.40999985       7.04737788E-04
  -8.39999962       7.06901483E-04
  -8.39000034       7.08921347E-04
  -8.38000011       7.10801745E-04
  -8.36999989       7.12547568E-04
  -8.35999966       7.14163412E-04
  -8.35000038       7.15654111E-04
  -8.34000015       7.17024435E-04
  -8.32999992       7.18279451E-04
  -8.31999969       7.19424570E-04
  -8.31000042       7.20464916E-04
  -8.30000019       7.21405959E-04
  -8.28999996       7.22253404E-04
  -8.27999973       7.23012898E-04
  -8.27000046       7.23690959E-04
  -8.26000023       7.24293815E-04
  -8.25000000       7.24828220E-04
  -8.23999977       7.25301215E-04
  -8.22999954       7.25720020E-04
  -8.22000027       7.26092199E-04
  -8.21000004       7.26426020E-04
  -8.19999981       7.26729748E-04
  -8.18999958       7.27012171E-04
  -8.18000031       7.27282488E-04
  -8.17000008       7.27550592E-04
  -8.15999985       7.27826497E-04
  -8.14999962       7.28120562E-04
  -8.14000034       7.28443614E-04
  -8.13000011       7.28807005E-04
  -8.11999989       7.29222433E-04
  -8.10999966       7.29701889E-04
  -8.10000038       7.30257540E-04
  -8.09000015       7.30902015E-04
  -8.07999992       7.31648062E-04
  -8.06999969       7.32508546E-04
  -8.06000042       7.33496505E-04
  -8.05000019       7.34625151E-04
  -8.03999996       7.35907583E-04
  -8.02999973       7.37356953E-04
  -8.02000046       7.38986419E-04
  -8.01000023       7.40808842E-04
  -8.00000000       7.42837379E-04
  -7.98999977       7.45084253E-04
  -7.98000002       7.47561920E-04
  -7.96999979       7.50282255E-04
  -7.96000004       7.53257074E-04
  -7.94999981       7.56497262E-04
  -7.94000006       7.60014169E-04
  -7.92999983       7.63817632E-04
  -7.92000008       7.67917489E-04
  -7.90999985       7.72322819E-04
  -7.90000010       7.77042354E-04
  -7.88999987       7.82084418E-04
  -7.88000011       7.87456054E-04
  -7.86999989       7.93164305E-04
  -7.86000013       7.99215282E-04
  -7.84999990       8.05614283E-04
  -7.84000015       8.12366605E-04
  -7.82999992       8.19476147E-04
  -7.82000017       8.26946693E-04
  -7.80999994       8.34781036E-04
  -7.80000019       8.42981332E-04
  -7.78999996       8.51549150E-04
  -7.78000021       8.60485190E-04
  -7.76999998       8.69789917E-04
  -7.76000023       8.79462808E-04
  -7.75000000       8.89503222E-04
  -7.73999977       8.99909297E-04
  -7.73000002       9.10678820E-04
  -7.71999979       9.21809115E-04
  -7.71000004       9.33297037E-04
  -7.69999981       9.45138803E-04
  -7.69000006       9.57329816E-04
  -7.67999983       9.69865883E-04
  -7.67000008       9.82741942E-04
  -7.65999985       9.95952520E-04
  -7.65000010       1.00949162E-03
  -7.63999987       1.02335401E-03
  -7.63000011       1.03753339E-03
  -7.61999989       1.05202384E-03
  -7.61000013       1.06681860E-03
  -7.59999990       1.08191150E-03
  -7.59000015       1.09729648E-03
  -7.57999992       1.11296703E-03
  -7.57000017       1.12891709E-03
  -7.55999994       1.14514120E-03
  -7.55000019       1.16163353E-03
  -7.53999996       1.17838872E-03
  -7.53000021       1.19540212E-03
  -7.51999998       1.21266895E-03
  -7.51000023       1.23018515E-03
  -7.50000000       1.24794676E-03
  -7.48999977       1.26595097E-03
  -7.48000002       1.28419441E-03
  -7.46999979       1.30267546E-03
  -7.46000004       1.32139202E-03
  -7.44999981       1.34034245E-03
  -7.44000006       1.35952630E-03