  -16.0000000       0.00000000    
  -15.9899998       0.00000000    
  -15.9799995       0.00000000    
  -15.9700003       0.00000000    
  -15.9600000       0.00000000    
  -15.9499998       0.00000000    
  -15.9399996       0.00000000    
  -15.9300003       0.00000000    
  -15.9200001       0.00000000    
  -15.9099998       0.00000000    
  -15.8999996       0.00000000    
  -15.8900003       0.00000000    
  -15.8800001      -0.00000000    
  -15.8699999      -1.69557114E-43
  -15.8599997       9.46436983E-42
  -15.8500004       3.25860747E-40
  -15.8400002       4.90669282E-39
  -15.8299999       4.89703310E-38
  -15.8199997       3.70648847E-37
  -15.8100004       2.27390984E-36
  -15.8000002       1.17599679E-35
  -15.7900000       5.25781232E-35
  -15.7799997       2.06729646E-34
  -15.7700005       7.23470304E-34
  -15.7600002       2.27268572E-33
  -15.7500000       6.44554850E-33
  -15.7399998       1.65597664E-32
  -15.7299995       3.85773266E-32
  -15.7200003       8.13188302E-32
  -15.7100000       1.54087032E-31
  -15.6999998       2.58608922E-31
  -15.6899996       3.71935111E-31
  -15.6800003       4.19529796E-31
  -15.6700001       2.45483799E-31
  -15.6599998      -3.99657359E-31
  -15.6499996      -1.81672595E-30
  -15.6400003      -4.21534418E-30
  -15.6300001      -7.43782484E-30
  -15.6199999      -1.05687753E-29
  -15.6099997      -1.15509025E-29
  -15.6000004      -7.06840138E-30
  -15.5900002       6.89914674E-30
  -15.5799999       3.33907653E-29
  -15.5699997       7.13461831E-29
  -15.5600004       1.11334194E-28
  -15.5500002       1.31584950E-28
  -15.5400000       9.75376206E-29
  -15.5299997      -3.01642187E-29
  -15.5200005      -2.74251943E-28
  -15.5100002      -6.05214722E-28
  -15.5000000      -9.01572392E-28
  -15.4899998      -9.32883872E-28
  -15.4799995      -4.07292102E-28
  -15.4700003       8.77999588E-28
  -15.4600000       2.78727823E-27
  -15.4499998       4.59245160E-27
  -15.4399996       4.92233874E-27
  -15.4300003       2.17999458E-27
  -15.4200001      -4.42302292E-27
  -15.4099998      -1.34447043E-26
  -15.3999996      -2.02152417E-26
  -15.3900003      -1.75526836E-26
  -15.3800001       7.00205054E-28
  -15.3699999       3.35750171E-26
  -15.3599997       6.71038489E-26
  -15.3500004       7.40602339E-26
  -15.3400002       2.50504645E-26
  -15.3299999      -8.78125694E-26
  -15.3199997      -2.23564315E-25
  -15.3100004      -2.82475017E-25
  -15.3000002      -1.39837182E-25
  -15.2900000       2.63938216E-25
  -15.2799997       8.03270879E-25
  -15.2700005       1.09788573E-24
  -15.2600002       6.09837896E-25
  -15.2500000      -1.01101124E-24
  -15.2399998      -3.39406300E-24
  -15.2299995      -5.02223996E-24
  -15.2200003      -3.41511139E-24
  -15.2100000       3.60442223E-24
  -15.1999998       1.55582003E-23
  -15.1899996       2.68256947E-23
  -15.1800003       2.60609935E-23
  -15.1700001      -2.55171119E-27
  -15.1599998      -5.70785609E-23
  -15.1499996      -1.30351477E-22
  -15.1400003      -1.75189006E-22
  -15.1300001      -1.22809096E-22
  -15.1199999       8.88632183E-23
  -15.1099997       4.58922066E-22
  -15.1000004       8.61133792E-22
  -15.0900002       1.01754676E-21
  -15.0799999       5.61851475E-22
  -15.0699997      -7.71655761E-22
  -15.0600004      -2.85769576E-21
  -15.0500002      -4.90768035E-21
  -15.0400000      -5.42655200E-21
  -15.0299997      -2.63054704E-21
  -15.0200005       4.56691788E-21
  -15.0100002       1.51966019E-20
  -15.0000000       2.51146752E-20
  -14.9899998       2.70784504E-20
  -14.9799995       1.29469841E-20
  -14.9700003      -2.17214575E-20
  -14.9600000      -7.17556499E-20
  -14.9499998      -1.17919159E-19
  -14.9399996      -1.27904999E-19
  -14.9300003      -6.63499018E-20
  -14.9200001       8.55304883E-20
  -14.9099998       3.05617645E-19
  -14.8999996       5.13318923E-19
  -14.8900003       5.74405126E-19
  -14.8800001       3.41590541E-19
  -14.8699999      -2.67688183E-19
  -14.8599997      -1.17591231E-18
  -14.8500004      -2.07608024E-18
  -14.8400002      -2.44648448E-18
  -14.8299999      -1.69885910E-18
  -14.8199997       5.34381113E-19
  -14.8100004       4.04304708E-18
  -14.8000002       7.76610512E-18
  -14.7900000       9.80916431E-18
  -14.7799997       7.93078024E-18
  -14.7700005       5.31415412E-19
  -14.7600002      -1.20725703E-17
  -14.7500000      -2.65958485E-17
  -14.7399998      -3.66494083E-17
  -14.7299995      -3.41548400E-17
  -14.7200003      -1.25035951E-17
  -14.7100000       2.91400807E-17
  -14.6999998       8.19336492E-17
  -14.6899996       1.26074396E-16
  -14.6800003       1.34308178E-16
  -14.6700001       8.11909932E-17
  -14.6599998      -4.32694539E-17
  -14.6499996      -2.19906336E-16
  -14.6400003      -3.93314005E-16
  -14.6300001      -4.78454342E-16
  -14.6199999      -3.85131296E-16
  -14.6099997      -5.81101924E-17
  -14.6000004       4.77987310E-16
  -14.5900002       1.08771905E-15
  -14.5799999       1.52946897E-15
  -14.5699997       1.51166550E-15
  -14.5600004       8.00541744E-16
  -14.5500002      -6.44288147E-16
  -14.5400000      -2.55441145E-15
  -14.5299997      -4.31914721E-15
  -14.5200005      -5.08840601E-15
  -14.5100002      -4.03076425E-15
  -14.5000000      -7.05794174E-16
  -14.4899998       4.55926538E-15
  -14.4799995       1.04501944E-14
  -14.4700003       1.47692561E-14
  -14.4600000       1.49616376E-14
  -14.4499998       9.02824721E-15
  -14.4399996      -3.39097380E-15
  -14.4300003      -2.01425621E-14
  -14.4200001      -3.63448997E-14
  -14.4099998      -4.52004292E-14
  -14.3999996      -3.99284047E-14
  -14.3900003      -1.64958328E-14
  -14.3800001       2.36287904E-14
  -14.3699999       7.17885359E-14
  -14.3599997       1.12609181E-13
  -14.3500004       1.27284020E-13
  -14.3400002       9.94789510E-14
  -14.3299999       2.25687033E-14
  -14.3199997      -9.40734442E-14
  -14.3100004      -2.22483964E-13
  -14.3000002      -3.19547719E-13
  -14.2900000      -3.37364902E-13
  -14.2799997      -2.39161962E-13
  -14.2700005      -1.68224555E-14
  -14.2600002       2.95828249E-13
  -14.2500000       6.20274665E-13
  -14.2399998       8.45684850E-13
  -14.2299995       8.57043006E-13
  -14.2200003       5.74259715E-13
  -14.2100000      -7.95257127E-15
  -14.1999998      -7.93164742E-13
  -14.1899996      -1.58277287E-12
  -14.1800003      -2.11050600E-12
  -14.1700001      -2.11096939E-12
  -14.1599998      -1.40939701E-12
  -14.1499996      -8.74917526E-15
  -14.1400003       1.85583254E-12
  -14.1300001       3.72305572E-12
  -14.1199999       4.98771380E-12
  -14.1099997       5.05427471E-12
  -14.1000004       3.53215612E-12
  -14.0900002       4.21294374E-13
  -14.0799999      -3.77438228E-12
  -14.0699997      -8.06207184E-12
  -14.0600004      -1.11337328E-11
  -14.0500002      -1.16868269E-11
  -14.0400000      -8.83052052E-12
  -14.0299997      -2.47327094E-12
  -14.0200005       6.43333086E-12
  -14.0100002       1.59067932E-11
  -14.0000000       2.32638128E-11
  -13.9899998       2.57476714E-11
  -13.9799995       2.13360978E-11
  -13.9700003       9.53032184E-12
  -13.9600000      -8.11712676E-12
  -13.9499998      -2.79566457E-11
  -13.9399996      -4.48050069E-11
  -13.9300003      -5.30935192E-11
  -13.9200001      -4.83959470E-11
  -13.9099998      -2.89718319E-11
  -13.8999996       3.12358472E-12
  -13.8900003       4.17820015E-11
  -13.8800001       7.76960649E-11
  -13.8699999       1.00312821E-10
  -13.8599997       1.00550068E-10
  -13.8500004       7.36498015E-11
  -13.8400002       2.13771414E-11
  -13.8299999      -4.71923715E-11
  -13.8199997      -1.16787094E-10
  -13.8100004      -1.68999356E-10
  -13.8000002      -1.86768642E-10
  -13.7900000      -1.59281435E-10
  -13.7799997      -8.59736171E-11
  -13.7700005       2.16360558E-11
  -13.7600002       1.41143264E-10
  -13.7500000       2.43624926E-10
  -13.7399998       3.00430597E-10
  -13.7299995       2.90857727E-10
  -13.7200003       2.08694700E-10
  -13.7100000       6.56619620E-11
  -13.6999998      -1.09595069E-10
  -13.6899996      -2.77222301E-10
  -13.6800003      -3.95517286E-10
  -13.6700001      -4.31715969E-10
  -13.6599998      -3.71324638E-10
  -13.6499996      -2.23231128E-10
  -13.6400003      -1.87701070E-11
  -13.6300001       1.95481561E-10
  -13.6199999       3.69593883E-10
  -13.6099997       4.63701466E-10
  -13.6000004       4.59080857E-10
  -13.5900002       3.63379965E-10
  -13.5799999       2.08014717E-10
  -13.5699997       3.80524674E-11
  -13.5600004      -1.02641430E-10
  -13.5500002      -1.86365895E-10
  -13.5400000      -2.11496126E-10
  -13.5299997      -2.03284542E-10
  -13.5200005      -2.04123260E-10
  -13.5100002      -2.55347271E-10
  -13.5000000      -3.76012249E-10
  -13.4899998      -5.46145240E-10
  -13.4799995      -7.01827374E-10
  -13.4700003      -7.46777140E-10
  -13.4600000      -5.80323511E-10
  -13.4499998      -1.35894448E-10
  -13.4399996       5.80786863E-10
  -13.4300003       1.46701806E-09
  -13.4200001       2.32387909E-09
  -13.4099998       2.88877189E-09
  -13.3999996       2.89746249E-09
  -13.3900003       2.16360618E-09
  -13.3800001       6.55593080E-10
  -13.3699999      -1.45293788E-09
  -13.3599997      -3.77971876E-09
  -13.3500004      -5.78887116E-09
  -13.3400002      -6.90074842E-09
  -13.3299999      -6.63678712E-09
  -13.3199997      -4.76585349E-09
  -13.3100004      -1.41230838E-09
  -13.3000002       2.91023916E-09
  -13.2900000       7.36081729E-09
  -13.2799997       1.09275096E-08
  -13.2700005       1.26511726E-08
  -13.2600002       1.18678436E-08
  -13.2500000       8.40943315E-09
  -13.2399998       2.70574319E-09
  -13.2299995      -4.24948965E-09
  -13.2200003      -1.10747482E-08
  -13.2100000      -1.62884337E-08
  -13.1999998      -1.86456166E-08
  -13.1899996      -1.74431154E-08
  -13.1800003      -1.27141266E-08
  -13.1700001      -5.25647659E-09
  -13.1599998       3.52097795E-09
  -13.1499996       1.19034151E-08
  -13.1400003       1.82541484E-08
  -13.1300001       2.13820233E-08
  -13.1199999       2.07976303E-08
  -13.1099997       1.67912724E-08
  -13.1000004       1.03132090E-08
  -13.0900002       2.69224198E-09
  -13.0799999      -4.72535744E-09
  -13.0699997      -1.09093445E-08
  -13.0600004      -1.53514090E-08
  -13.0500002      -1.80801756E-08
  -13.0400000      -1.94824050E-08
  -13.0299997      -1.99902122E-08
  -13.0200005      -1.97456309E-08
  -13.0100002      -1.83722975E-08
  -13.0000000      -1.49617065E-08
  -12.9899998      -8.32431546E-09
  -12.9799995       2.52851295E-09
  -12.9700003       1.77905779E-08
  -12.9600000       3.63335744E-08
  -12.9499998       5.54408288E-08
  -12.9399996       7.09578174E-08
  -12.9300003       7.79199851E-08
  -12.9200001       7.15987696E-08
  -12.9099998       4.87744600E-08
  -12.8999996       8.95402064E-09
  -12.8900003      -4.47843931E-08
  -12.8800001      -1.05597074E-07
  -12.8699999      -1.63485495E-07
  -12.8599997      -2.06702921E-07
  -12.8500004      -2.23760836E-07
  -12.8400002      -2.05681602E-07
  -12.8299999      -1.48057140E-07
  -12.8199997      -5.24886765E-08
  -12.8100004       7.29275058E-08
  -12.8000002       2.14204505E-07
  -12.7900000       3.53090570E-07
  -12.7799997       4.69425999E-07
  -12.7700005       5.43830254E-07
  -12.7600002       5.60231683E-07
  -12.7500000       5.07874915E-07
  -12.7399998       3.82545295E-07
  -12.7299995       1.86992509E-07
  -12.7200003      -6.92956874E-08
  -12.7100000      -3.70690913E-07
  -12.6999998      -6.96101665E-07
  -12.6899996      -1.01952162E-06
  -12.6800003      -1.31047261E-06
  -12.6700001      -1.53454812E-06
  -12.6599998      -1.65445022E-06
  -12.6499996      -1.63202481E-06
  -12.6400003      -1.43164107E-06
  -12.6300001      -1.02505203E-06
  -12.6199999      -3.97456347E-07
  -12.6099997       4.45943670E-07
  -12.6000004       1.47392677E-06
  -12.5900002       2.62511708E-06
  -12.5799999       3.80686583E-06
  -12.5699997       4.89806052E-06
  -12.5600004       5.75643935E-06
  -12.5500002       6.22987727E-06
  -12.5400000       6.17099158E-06
  -12.5299997       5.45359080E-06
  -12.5200005       3.98934253E-06
  -12.5100002       1.74320110E-06
  -12.5000000      -1.25394456E-06
  -12.4899998      -4.89605145E-06
  -12.4799995      -8.99700808E-06
  -12.4700003      -1.32898776E-05
  -12.4600000      -1.74306479E-05
  -12.4499998      -2.10064154E-05
  -12.4399996      -2.35483312E-05
  -12.4300003      -2.45498959E-05
  -12.4200001      -2.34901345E-05
  -12.4099998      -1.98625603E-05
  -12.3999996      -1.32085006E-05
  -12.3900003      -3.15285433E-06
  -12.3800001       1.05583940E-05
  -12.3699999       2.80246350E-05
  -12.3599997       4.91635510E-05
  -12.3500004       7.36912043E-05
  -12.3400002       1.01115649E-04
  -12.3299999       1.30742759E-04
  -12.3199997       1.61695614E-04
  -12.3100004       1.92942607E-04
  -12.3000002       2.23335985E-04
  -12.2900000       2.51654739E-04
  -12.2799997       2.76652543E-04
  -12.2700005       2.97101244E-04
  -12.2600002       3.11837153E-04
  -12.2500000       3.19803541E-04
  -12.2399998       3.20090534E-04
  -12.2299995       3.11968266E-04
  -12.2200003       2.94917554E-04
  -12.2100000       2.68652861E-04
  -12.1999998       2.33133149E-04
  -12.1899996       1.88563965E-04
  -12.1800003       1.35386013E-04
  -12.1700001       7.42516786E-05
  -12.1599998       5.98666702E-06
  -12.1499996      -6.84511178E-05
  -12.1400003      -1.48014064E-04
  -12.1300001      -2.31613725E-04
  -12.1199999      -3.18152364E-04
  -12.1099997      -4.06547741E-04
  -12.1000004      -4.95748594E-04
  -12.0900002      -5.84731344E-04
  -12.0799999      -6.72496331E-04
  -12.0699997      -7.58051232E-04
  -12.0600004      -8.40398308E-04
  -12.0500002      -9.18521720E-04
  -12.0400000      -9.91381472E-04
  -12.0299997      -1.05790654E-03
  -12.0200005      -1.11700699E-03
  -12.0100002      -1.16757024E-03
  -12.0000000      -1.20848196E-03
  -11.9899998      -1.23863458E-03
  -11.9799995      -1.25694100E-03
  -11.9700003      -1.26235816E-03
  -11.9600000      -1.25390629E-03
  -11.9499998      -1.23069366E-03
  -11.9399996      -1.19195133E-03
  -11.9300003      -1.13706221E-03
  -11.9200001      -1.06560241E-03
  -11.9099998      -9.77359363E-04
  -11.8999996      -8.72361765E-04
  -11.8900003      -7.50889012E-04
  -11.8800001      -6.13471435E-04
  -11.8699999      -4.60870535E-04
  -11.8599997      -2.94064957E-04
  -11.8500004      -1.14204486E-04
  -11.8400002       7.74123328E-05
  -11.8299999       2.79378582E-04
  -11.8199997       4.90206119E-04
  -11.8100004       7.08338688E-04
  -11.8000002       9.32165014E-04
  -11.7900000       1.16001756E-03
  -11.7799997       1.39016507E-03
  -11.7700005       1.62080757E-03
  -11.7600002       1.85006915E-03
  -11.7500000       2.07600067E-03
  -11.7399998       2.29658023E-03
  -11.7299995       2.50973995E-03
  -11.7200003       2.71337759E-03
  -11.7100000       2.90538929E-03
  -11.6999998       3.08369519E-03
  -11.6899996       3.24626034E-03
  -11.6800003       3.39111686E-03
  -11.6700001       3.51638487E-03
  -11.6599998       3.62026854E-03
  -11.6499996       3.70107661E-03
  -11.6400003       3.75722162E-03
  -11.6300001       3.78723675E-03
  -11.6199999       3.78979044E-03
  -11.6099997       3.76369851E-03
  -11.6000004       3.70795466E-03
  -11.5900002       3.62174283E-03
  -11.5799999       3.50445532E-03
  -11.5699997       3.35569074E-03
  -11.5600004       3.17525468E-03
  -11.5500002       2.96315271E-03
  -11.5400000       2.71955086E-03
  -11.5299997       2.44478299E-03
  -11.5200005       2.13932246E-03
  -11.5100002       1.80378230E-03
  -11.5000000       1.43891643E-03
  -11.4899998       1.04563951E-03
  -11.4799995       6.25031302E-04
  -11.4700003       1.78360468E-04
  -11.4600000      -2.92911805E-04
  -11.4499998      -7.87149067E-04
  -11.4399996      -1.30254484E-03
  -11.4300003      -1.83717557E-03
  -11.4200001      -2.38902518E-03
  -11.4099998      -2.95602996E-03
  -11.3999996      -3.53611400E-03
  -11.3900003      -4.12720582E-03
  -11.3800001      -4.72726207E-03
  -11.3699999      -5.33425342E-03
  -11.3599997      -5.94617845E-03
  -11.3500004      -6.56105438E-03
  -11.3400002      -7.17691425E-03
  -11.3299999      -7.79183535E-03
  -11.3199997      -8.40394106E-03
  -11.3100004      -9.01142135E-03
  -11.3000002      -9.61253978E-03
  -11.2900000      -1.02056395E-02
  -11.2799997      -1.07891141E-02
  -11.2700005      -1.13613941E-02
  -11.2600002      -1.19209029E-02
  -11.2500000      -1.24660330E-02
  -11.2399998      -1.29951155E-02
  -11.2299995      -1.35064311E-02
  -11.2200003      -1.39982412E-02
  -11.2100000      -1.44688198E-02
  -11.1999998      -1.49165606E-02
  -11.1899996      -1.53399976E-02
  -11.1800003      -1.57379359E-02
  -11.1700001      -1.61094498E-02
  -11.1599998      -1.64539479E-02
  -11.1499996      -1.67711210E-02
  -11.1400003      -1.70609374E-02
  -11.1300001      -1.73235796E-02
  -11.1199999      -1.75593924E-02
  -11.1099997      -1.77688152E-02
  -11.1000004      -1.79523528E-02
  -11.0900002      -1.81105174E-02
  -11.0799999      -1.82438605E-02
  -11.0699997      -1.83529109E-02
  -11.0600004      -1.84382107E-02
  -11.0500002      -1.85002778E-02
  -11.0400000      -1.85396131E-02
  -11.0299997      -1.85566545E-02
  -11.0200005      -1.85518060E-02
  -11.0100002      -1.85253825E-02
  -11.0000000      -1.84776448E-02
  -10.9899998      -1.84088163E-02
  -10.9799995      -1.83191132E-02
  -10.9700003      -1.82087924E-02
  -10.9600000      -1.80781763E-02
  -10.9499998      -1.79276895E-02
  -10.9399996      -1.77578423E-02
  -10.9300003      -1.75692327E-02
  -10.9200001      -1.73624698E-02
  -10.9099998      -1.71381272E-02
  -10.8999996      -1.68967061E-02
  -10.8900003      -1.66385509E-02
  -10.8800001      -1.63638312E-02
  -10.8699999      -1.60725527E-02
  -10.8599997      -1.57645773E-02
  -10.8500004      -1.54396035E-02
  -10.8400002      -1.50972875E-02
  -10.8299999      -1.47372261E-02
  -10.8199997      -1.43590160E-02
  -10.8100004      -1.39622660E-02
  -10.8000002      -1.35466177E-02
  -10.7900000      -1.31117385E-02
  -10.7799997      -1.26573304E-02
  -10.7700005      -1.21831177E-02
  -10.7600002      -1.16888862E-02
  -10.7500000      -1.11744534E-02
  -10.7399998      -1.06396936E-02
  -10.7299995      -1.00845555E-02
  -10.7200003      -9.50902514E-03
  -10.7100000      -8.91315378E-03
  -10.6999998      -8.29702057E-03
  -10.6899996      -7.66069861E-03
  -10.6800003      -7.00423447E-03
  -10.6700001      -6.32765610E-03
  -10.6599998      -5.63090714E-03
  -10.6499996      -4.91389912E-03
  -10.6400003      -4.17654589E-03
  -10.6300001      -3.41880764E-03
  -10.6199999      -2.64078286E-03
  -10.6099997      -1.84278889E-03
  -10.6000004      -1.02547300E-03
  -10.5900002      -1.89860773E-04
  -10.5799999       6.62576524E-04
  -10.5699997       1.52995507E-03
  -10.5600004       2.41000997E-03
  -10.5500002       3.30020417E-03
  -10.5400000       4.19784663E-03
  -10.5299997       5.10021020E-03
  -10.5200005       6.00467343E-03
  -10.5100002       6.90874783E-03
  -10.5000000       7.81014143E-03
  -10.4899998       8.70672241E-03
  -10.4799995       9.59645398E-03
  -10.4700003       1.04773305E-02
  -10.4600000       1.13473125E-02
  -10.4499998       1.22042717E-02
  -10.4399996       1.30459899E-02
  -10.4300003       1.38701731E-02
  -10.4200001       1.46745089E-02
  -10.4099998       1.54566923E-02
  -10.3999996       1.62144955E-02
  -10.3900003       1.69457626E-02
  -10.3800001       1.76484287E-02
  -10.3699999       1.83204878E-02
  -10.3599997       1.89599823E-02
  -10.3500004       1.95649862E-02
  -10.3400002       2.01336108E-02
  -10.3299999       2.06640214E-02
  -10.3199997       2.11544819E-02
  -10.3100004       2.16034073E-02
  -10.3000002       2.20093951E-02
  -10.2900000       2.23712977E-02
  -10.2799997       2.26882286E-02
  -10.2700005       2.29596011E-02
  -10.2600002       2.31851414E-02
  -10.2500000       2.33649332E-02
  -10.2399998       2.34994143E-02
  -10.2299995       2.35894378E-02
  -10.2200003       2.36362629E-02
  -10.2100000       2.36415621E-02
  -10.1999998       2.36074068E-02
  -10.1899996       2.35362165E-02
  -10.1800003       2.34306771E-02
  -10.1700001       2.32936684E-02
  -10.1599998       2.31281854E-02
  -10.1499996       2.29372438E-02
  -10.1400003       2.27238629E-02
  -10.1300001       2.24909931E-02
  -10.1199999       2.22415496E-02
  -10.1099997       2.19783857E-02
  -10.1000004       2.17043404E-02
  -10.0900002       2.14222129E-02
  -10.0799999       2.11348366E-02
  -10.0699997       2.08450109E-02
  -10.0600004       2.05555446E-02
  -10.0500002       2.02692244E-02
  -10.0400000       1.99887492E-02
  -10.0299997       1.97167061E-02
  -10.0200005       1.94554701E-02
  -10.0100002       1.92071144E-02
  -10.0000000       1.89733729E-02
  -9.98999977       1.87555384E-02
  -9.97999954       1.85544454E-02
  -9.97000027       1.83704980E-02
  -9.96000004       1.82037167E-02
  -9.94999981       1.80538502E-02
  -9.93999958       1.79205295E-02
  -9.93000031       1.78033821E-02
  -9.92000008       1.77021734E-02
  -9.90999985       1.76169053E-02
  -9.89999962       1.75478458E-02
  -9.89000034       1.74955744E-02
  -9.88000011       1.74609255E-02
  -9.86999989       1.74449515E-02
  -9.85999966       1.74488518E-02
  -9.85000038       1.74738932E-02
  -9.84000015       1.75213553E-02
  -9.82999992       1.75924823E-02
  -9.81999969       1.76884066E-02
  -9.81000042       1.78101510E-02
  -9.80000019       1.79585814E-02
  -9.78999996       1.81344636E-02
  -9.77999973       1.83384586E-02
  -9.77000046       1.85712148E-02
  -9.76000023       1.88334174E-02
  -9.75000000       1.91258602E-02
  -9.73999977       1.94494855E-02
  -9.72999954       1.98053736E-02
  -9.72000027       2.01946814E-02
  -9.71000004       2.06185412E-02
  -9.69999981       2.10778601E-02
  -9.68999958       2.15731952E-02
  -9.68000031       2.21045502E-02
  -9.67000008       2.26712078E-02
  -9.65999985       2.32716594E-02
  -9.64999962       2.39035394E-02
  -9.64000034       2.45636329E-02
  -9.63000011       2.52479073E-02
  -9.61999989       2.59516053E-02
  -9.60999966       2.66693644E-02
  -9.60000038       2.73952819E-02
  -9.59000015       2.81230770E-02
  -9.57999992       2.88461428E-02
  -9.56999969       2.95577273E-02
  -9.56000042       3.02509349E-02
  -9.55000019       3.09188571E-02
  -9.53999996       3.15546654E-02
  -9.52999973       3.21516246E-02
  -9.52000046       3.27031873E-02
  -9.51000023       3.32030207E-02
  -9.50000000       3.36451679E-02
  -9.48999977       3.40239853E-02
  -9.47999954       3.43343541E-02
  -9.47000027       3.45717445E-02
  -9.46000004       3.47323455E-02
  -9.44999981       3.48132215E-02
  -9.43999958       3.48123759E-02
  -9.43000031       3.47290039E-02
  -9.42000008       3.45635042E-02
  -9.40999985       3.43176760E-02
  -9.39999962       3.39947604E-02
  -9.39000034       3.35995592E-02
  -9.38000011       3.31383869E-02
  -9.36999989       3.26190144E-02
  -9.35999966       3.20506655E-02
  -9.35000038       3.14438120E-02
  -9.34000015       3.08099892E-02
  -9.32999992       3.01616844E-02
  -9.31999969       2.95120869E-02
  -9.31000042       2.88749523E-02
  -9.30000019       2.82644853E-02
  -9.28999996       2.76951939E-02
  -9.27999973       2.71817725E-02
  -9.27000046       2.67388411E-02
  -9.26000023       2.63808966E-02
  -9.25000000       2.61219088E-02
  -9.23999977       2.59752758E-02
  -9.22999954       2.59534828E-02
  -9.22000027       2.60679647E-02
  -9.21000004       2.63289958E-02
  -9.19999981       2.67455447E-02
  -9.18999958       2.73251496E-02
  -9.18000031       2.80739982E-02
  -9.17000008       2.89966967E-02
  -9.15999985       3.00960280E-02
  -9.14999962       3.13730091E-02
  -9.14000034       3.28265466E-02
  -9.13000011       3.44534516E-02
  -9.11999989       3.62484381E-02
  -9.10999966       3.82041819E-02
  -9.10000038       4.03114073E-02
  -9.09000015       4.25593182E-02
  -9.07999992       4.49355803E-02
  -9.06999969       4.74267527E-02
  -9.06000042       5.00182509E-02
  -9.05000019       5.26945218E-02
  -9.03999996       5.54392375E-02
  -9.02999973       5.82352206E-02
  -9.02000046       6.10646531E-02
  -9.01000023       6.39093816E-02
  -9.00000000       6.67509958E-02
  -8.98999977       6.95710927E-02
  -8.97999954       7.23514929E-02
  -8.97000027       7.50742629E-02
  -8.96000004       7.77217299E-02
  -8.94999981       8.02765936E-02
  -8.93999958       8.27219337E-02
  -8.93000031       8.50408599E-02
  -8.92000008       8.72171298E-02
  -8.90999985       8.92350599E-02
  -8.89999962       9.10794884E-02
  -8.89000034       9.27364603E-02
  -8.88000011       9.41927657E-02
  -8.86999989       9.54362303E-02
  -8.85999966       9.64555442E-02
  -8.85000038       9.72401574E-02
  -8.84000015       9.77802798E-02
  -8.82999992       9.80668440E-02
  -8.81999969       9.80918705E-02
  -8.81000042       9.78486910E-02
  -8.80000019       9.73322019E-02
  -8.78999996       9.65395868E-02
  -8.77999973       9.54700559E-02
  -8.77000046       9.41251442E-02
  -8.76000023       9.25084949E-02
  -8.75000000       9.06257778E-02
  -8.73999977       8.84842873E-02
  -8.72999954       8.60929340E-02
  -8.72000027       8.34620595E-02
  -8.71000004       8.06033239E-02
  -8.69999981       7.75300786E-02
  -8.68999958       7.42568001E-02
  -8.68000031       7.07993135E-02
  -8.67000008       6.71743006E-02
  -8.65999985       6.33989051E-02
  -8.64999962       5.94902039E-02
  -8.64000034       5.54648675E-02
  -8.63000011       5.13387956E-02
  -8.61999989       4.71270122E-02
  -8.60999966       4.28438298E-02
  -8.60000038       3.85025330E-02
  -8.59000015       3.41157727E-02
  -8.57999992       2.96952687E-02
  -8.56999969       2.52518542E-02
  -8.56000042       2.07951386E-02
  -8.55000019       1.63332149E-02
  -8.53999996       1.18727870E-02
  -8.52999973       7.41890073E-03
  -8.52000046       2.97534792E-03
  -8.51000023      -1.45499920E-03
  -8.50000000      -5.87015832E-03
  -8.48999977      -1.02680866E-02
  -8.47999954      -1.46470359E-02
  -8.47000027      -1.90052427E-02
  -8.46000004      -2.33407486E-02
  -8.44999981      -2.76517011E-02
  -8.43999958      -3.19362506E-02
  -8.43000031      -3.61923277E-02
  -8.42000008      -4.04175110E-02
  -8.40999985      -4.46088798E-02
  -8.39999962      -4.87625971E-02
  -8.39000034      -5.28739356E-02
  -8.38000011      -5.69371879E-02
  -8.36999989      -6.09459952E-02
  -8.35999966      -6.48933873E-02
  -8.35000038      -6.87720850E-02
  -8.34000015      -7.25747272E-02
  -8.32999992      -7.62939751E-02
  -8.31999969      -7.99224004E-02
  -8.31000042      -8.34525377E-02
  -8.30000019      -8.68766457E-02
  -8.28999996      -9.01870951E-02
  -8.27999973      -9.33762640E-02
  -8.27000046      -9.64369252E-02
  -8.26000023      -9.93622765E-02
  -8.25000000     -0.102146387    
  -8.23999977     -0.104783997    
  -8.22999954     -0.107270375    
  -8.22000027     -0.109601155    
  -8.21000004     -0.111771844    
  -8.19999981     -0.113777615    
  -8.18999958     -0.115613133    
  -8.18000031     -0.117272459    
  -8.17000008     -0.118749276    
  -8.15999985     -0.120036855    
  -8.14999962     -0.121128507    
  -8.14000034     -0.122017317    
  -8.13000011     -0.122696437    
  -8.11999989     -0.123158909    
  -8.10999966     -0.123397537    
  -8.10000038     -0.123404935    
  -8.09000015     -0.123173475    
  -8.07999992     -0.122695617    
  -8.06999969     -0.121964209    
  -8.06000042     -0.120972566    
  -8.05000019     -0.119714990    
  -8.03999996     -0.118186824    
  -8.02999973     -0.116384320    
  -8.02000046     -0.114304863    
  -8.01000023     -0.111946590    
  -8.00000000     -0.109308392    
  -7.98999977     -0.106390014    
  -7.98000002     -0.103192106    
  -7.96999979      -9.97162536E-02
  -7.96000004      -9.59656537E-02
  -7.94999981      -9.19448882E-02
  -7.94000006      -8.76604095E-02
  -7.92999983      -8.31201226E-02
  -7.92000008      -7.83336312E-02
  -7.90999985      -7.33119100E-02
  -7.90000010      -6.80668280E-02
  -7.88999987      -6.26114309E-02
  -7.88000011      -5.69596663E-02
  -7.86999989      -5.11263758E-02
  -7.86000013      -4.51272056E-02
  -7.84999990      -3.89791802E-02
  -7.84000015      -3.26999649E-02
  -7.82999992      -2.63080113E-02
  -7.82000017      -1.98221318E-02
  -7.80999994      -1.32616516E-02
  -7.80000019      -6.64527202E-03
  -7.78999996       8.27688109E-06
  -7.78000021       6.68103481E-03
  -7.76999998       1.33553045E-02
  -7.76000023       2.00135801E-02
  -7.75000000       2.66387686E-02
  -7.73999977       3.32138278E-02
  -7.73000002       3.97220403E-02
  -7.71999979       4.61474285E-02
  -7.71000004       5.24745136E-02
  -7.69999981       5.86893111E-02
  -7.69000006       6.47791922E-02
  -7.67999983       7.07332045E-02
  -7.67000008       7.65416548E-02
  -7.65999985       8.21965784E-02
  -7.65000010       8.76908749E-02
  -7.63999987       9.30186734E-02
  -7.63000011       9.81751010E-02
  -7.61999989      0.103156559    
  -7.61000013      0.107960589    
  -7.59999990      0.112586573    
  -7.59000015      0.117035314    
  -7.57999992      0.121309698    
  -7.57000017      0.125413924    
  -7.55999994      0.129353508    
  -7.55000019      0.133134902    
  -7.53999996      0.136764616    
  -7.53000021      0.140249446    
  -7.51999998      0.143596500    
  -7.51000023      0.146812841    
  -7.50000000      0.149905860    
  -7.48999977      0.152883306    
  -7.48000002      0.155753314    
  -7.46999979      0.158524364    
  -7.46000004      0.161205113    
  -7.44999981      0.163804159    
  -7.44000006      0.166329503    