  -16.0000000       0.00000000    
  -15.9899998       0.00000000    
  -15.9799995       0.00000000    
  -15.9700003       0.00000000    
  -15.9600000       0.00000000    
  -15.9499998       0.00000000    
  -15.9399996       0.00000000    
  -15.9300003       0.00000000    
  -15.9200001       0.00000000    
  -15.9099998       0.00000000    
  -15.8999996       0.00000000    
  -15.8900003       0.00000000    
  -15.8800001       0.00000000    
  -15.8699999      -6.99388064E-42
  -15.8599997      -4.32568224E-40
  -15.8500004      -9.18654559E-39
  -15.8400002      -1.13284409E-37
  -15.8299999      -9.74861055E-37
  -15.8199997      -6.42179939E-36
  -15.8100004      -3.42056430E-35
  -15.8000002      -1.52564657E-34
  -15.7900000      -5.83216058E-34
  -15.7799997      -1.94002026E-33
  -15.7700005      -5.66404018E-33
  -15.7600002      -1.45438171E-32
  -15.7500000      -3.26300922E-32
  -15.7399998      -6.25780530E-32
  -15.7299995      -9.65305852E-32
  -15.7200003      -9.53520287E-32
  -15.7100000       4.59994097E-32
  -15.6999998       5.35517375E-31
  -15.6899996       1.68180422E-30
  -15.6800003       3.76750453E-30
  -15.6700001       6.68807536E-30
  -15.6599998       9.30493417E-30
  -15.6499996       8.69466941E-30
  -15.6400003      -8.86579292E-32
  -15.6300001      -2.26516355E-29
  -15.6199999      -6.12033513E-29
  -15.6099997      -1.07878065E-28
  -15.6000004      -1.38304917E-28
  -15.5900002      -1.11847924E-28
  -15.5799999       1.37215076E-29
  -15.5699997       2.50761881E-28
  -15.5600004       5.45947695E-28
  -15.5500002       7.71386269E-28
  -15.5400000       7.78819251E-28
  -15.5299997       5.18172752E-28
  -15.5200005       1.36292008E-28
  -15.5100002      -1.22632711E-28
  -15.5000000      -3.77730810E-28
  -15.4899998      -1.81177199E-27
  -15.4799995      -6.88979559E-27
  -15.4700003      -1.77608782E-26
  -15.4600000      -3.16933220E-26
  -15.4499998      -3.44725251E-26
  -15.4399996       2.89028390E-27
  -15.4300003       1.13762987E-25
  -15.4200001       3.00973978E-25
  -15.4099998       4.78326155E-25
  -15.3999996       4.18757000E-25
  -15.3900003      -2.20610154E-25
  -15.3800001      -1.70356859E-24
  -15.3699999      -3.80119569E-24
  -15.3599997      -5.26971746E-24
  -15.3500004      -3.60093704E-24
  -15.3400002       4.31136782E-24
  -15.3299999       1.99609372E-23
  -15.3199997       3.94893325E-23
  -15.3100004       4.99013971E-23
  -15.3000002       2.86971378E-23
  -15.2900000      -4.83064560E-23
  -15.2799997      -1.87533719E-22
  -15.2700005      -3.49153775E-22
  -15.2600002      -4.23028970E-22
  -15.2500000      -2.34922500E-22
  -15.2399998       3.86343934E-22
  -15.2299995       1.46490859E-21
  -15.2200003       2.68552587E-21
  -15.2100000       3.25155551E-21
  -15.1999998       1.96058789E-21
  -15.1899996      -2.32329366E-21
  -15.1800003      -9.73455872E-21
  -15.1700001      -1.82221297E-20
  -15.1599998      -2.27342497E-20
  -15.1499996      -1.57466092E-20
  -15.1400003       9.89076095E-21
  -15.1300001       5.55094413E-20
  -15.1199999       1.09862562E-19
  -15.1099997       1.44473117E-19
  -15.1000004       1.16287222E-19
  -15.0900002      -1.73061985E-20
  -15.0799999      -2.69702937E-19
  -15.0699997      -5.89043276E-19
  -15.0600004      -8.31943725E-19
  -15.0500002      -7.72673805E-19
  -15.0400000      -1.72950037E-19
  -15.0299997       1.07939512E-18
  -15.0200005       2.79091318E-18
  -15.0100002       4.31898336E-18
  -15.0000000       4.58198337E-18
  -14.9899998       2.34315514E-18
  -14.9799995      -3.18072204E-18
  -14.9700003      -1.14876668E-17
  -14.9600000      -2.00490879E-17
  -14.9499998      -2.41603542E-17
  -14.9399996      -1.79253579E-17
  -14.9300003       3.32623759E-18
  -14.9200001       3.94804373E-17
  -14.9099998       8.20864328E-17
  -14.8999996       1.12785918E-16
  -14.8900003       1.06019362E-16
  -14.8800001       3.75891418E-17
  -14.8699999      -1.01410987E-16
  -14.8599997      -2.89008515E-16
  -14.8500004      -4.62227997E-16
  -14.8400002      -5.21450688E-16
  -14.8299999      -3.56731155E-16
  -14.8199997       1.02959085E-16
  -14.8100004       8.27709214E-16
  -14.8000002       1.63504326E-15
  -14.7900000       2.18128835E-15
  -14.7799997       2.02739581E-15
  -14.7700005       7.93184363E-16
  -14.7600002      -1.62108257E-15
  -14.7500000      -4.81238931E-15
  -14.7399998      -7.75866764E-15
  -14.7299995      -8.92700305E-15
  -14.7200003      -6.68705407E-15
  -14.7100000      -1.22082255E-17
  -14.6999998       1.06934377E-14
  -14.6899996       2.29537204E-14
  -14.6800003       3.21626304E-14
  -14.6700001       3.24587125E-14
  -14.6599998       1.86452840E-14
  -14.6499996      -1.11408668E-14
  -14.6400003      -5.28000732E-14
  -14.6300001      -9.48601346E-14
  -14.6199999      -1.19536312E-13
  -14.6099997      -1.07065208E-13
  -14.6000004      -4.31015222E-14
  -14.5900002       7.24575971E-14
  -14.5799999       2.18259465E-13
  -14.5699997       3.49716051E-13
  -14.5600004       4.06013764E-13
  -14.5500002       3.27164565E-13
  -14.5400000       7.87867289E-14
  -14.5299997      -3.21951775E-13
  -14.5200005      -7.89207892E-13
  -14.5100002      -1.17102010E-12
  -14.5000000      -1.27925025E-12
  -14.4899998      -9.46999965E-13
  -14.4799995      -1.02769105E-13
  -14.4700003       1.16051981E-12
  -14.4600000       2.55053704E-12
  -14.4499998       3.60216327E-12
  -14.4399996       3.78062208E-12
  -14.4300003       2.65273242E-12
  -14.4200001       8.87327185E-14
  -14.4099998      -3.56891101E-12
  -14.3999996      -7.44494310E-12
  -14.3900003      -1.02425204E-11
  -14.3800001      -1.05490902E-11
  -14.3699999      -7.29764426E-12
  -14.3599997      -2.72664405E-13
  -14.3500004       9.50421079E-12
  -14.3400002       1.96881834E-11
  -14.3299999       2.69581787E-11
  -14.3199997       2.78213529E-11
  -14.3100004       1.97473791E-11
  -14.3000002       2.34808202E-12
  -14.2900000      -2.17873670E-11
  -14.2799997      -4.69953035E-11
  -14.2700005      -6.54388349E-11
  -14.2600002      -6.90088472E-11
  -14.2500000      -5.18873347E-11
  -14.2399998      -1.31195575E-11
  -14.2299995       4.16508251E-11
  -14.2200003       1.00083011E-10
  -14.2100000       1.45158649E-10
  -14.1999998       1.59241384E-10
  -14.1899996       1.29411301E-10
  -14.1800003       5.27122235E-11
  -14.1700001      -6.03695843E-11
  -14.1599998      -1.85715887E-10
  -14.1499996      -2.89525931E-10
  -14.1400003      -3.36149469E-10
  -14.1300001      -2.98287423E-10
  -14.1199999      -1.66969633E-10
  -14.1099997       4.17619481E-11
  -14.1000004       2.86163898E-10
  -14.0900002       5.05525455E-10
  -14.0799999       6.33784025E-10
  -14.0699997       6.17330465E-10
  -14.0600004       4.32517772E-10
  -14.0500002       9.77472062E-11
  -14.0400000      -3.24343358E-10
  -14.0299997      -7.36840533E-10
  -14.0200005      -1.02974795E-09
  -14.0100002      -1.10806364E-09
  -14.0000000      -9.19753551E-10
  -13.9899998      -4.75682216E-10
  -13.9799995       1.45179035E-10
  -13.9700003       8.08599576E-10
  -13.9600000       1.35450884E-09
  -13.9499998       1.63662039E-09
  -13.9399996       1.56224045E-09
  -13.9300003       1.12113152E-09
  -13.9200001       3.94396737E-10
  -13.9099998      -4.60824351E-10
  -13.8999996      -1.24841082E-09
  -13.8900003      -1.78312820E-09
  -13.8800001      -1.93998972E-09
  -13.8699999      -1.68886349E-09
  -13.8599997      -1.10348120E-09
  -13.8500004      -3.40833167E-10
  -13.8400002       4.04383721E-10
  -13.8299999       9.57671942E-10
  -13.8199997       1.21766974E-09
  -13.8100004       1.18701304E-09
  -13.8000002       9.69694658E-10
  -13.7900000       7.33200445E-10
  -13.7799997       6.44984011E-10
  -13.7700005       8.02303501E-10
  -13.7600002       1.17879229E-09
  -13.7500000       1.60865377E-09
  -13.7399998       1.81984283E-09
  -13.7299995       1.51329105E-09
  -13.7200003       4.69922934E-10
  -13.7100000      -1.34457478E-09
  -13.6999998      -3.71130815E-09
  -13.6899996      -6.15449558E-09
  -13.6800003      -8.01600830E-09
  -13.6700001      -8.60049543E-09
  -13.6599998      -7.36157224E-09
  -13.6499996      -4.08383194E-09
  -13.6400003       9.90340587E-10
  -13.6300001       7.13147408E-09
  -13.6199999       1.32130413E-08
  -13.6099997       1.79131465E-08
  -13.6000004       1.99905248E-08
  -13.5900002       1.85746192E-08
  -13.5799999       1.34006566E-08
  -13.5699997       4.92935337E-09
  -13.5600004      -5.68422776E-09
  -13.5500002      -1.67729031E-08
  -13.5400000      -2.64540461E-08
  -13.5299997      -3.29755210E-08
  -13.5200005      -3.50342582E-08
  -13.5100002      -3.19988054E-08
  -13.5000000      -2.39935396E-08
  -13.4899998      -1.18402692E-08
  -13.4799995       3.11101878E-09
  -13.4700003       1.92032346E-08
  -13.4600000       3.46815483E-08
  -13.4499998       4.78419970E-08
  -13.4399996       5.71039784E-08
  -13.4300003       6.10303985E-08
  -13.4200001       5.83505795E-08
  -13.4099998       4.80506159E-08
  -13.3999996       2.95786222E-08
  -13.3900003       3.16632609E-09
  -13.3800001      -2.97918206E-08
  -13.3699999      -6.64188278E-08
  -13.3599997      -1.02244471E-07
  -13.3500004      -1.31445816E-07
  -13.3400002      -1.47520311E-07
  -13.3299999      -1.44375193E-07
  -13.3199997      -1.17687129E-07
  -13.3100004      -6.62789219E-08
  -13.3000002       6.81728007E-09
  -13.2900000       9.39362863E-08
  -13.2799997       1.83233652E-07
  -13.2700005       2.60099853E-07
  -13.2600002       3.09399070E-07
  -13.2500000       3.18197692E-07
  -13.2399998       2.78483753E-07
  -13.2299995       1.89318826E-07
  -13.2200003       5.79242183E-08
  -13.2100000      -1.00620092E-07
  -13.1999998      -2.65128250E-07
  -13.1899996      -4.11282514E-07
  -13.1800003      -5.15341753E-07
  -13.1700001      -5.57942826E-07
  -13.1599998      -5.27323891E-07
  -13.1499996      -4.21405019E-07
  -13.1400003      -2.48404888E-07
  -13.1300001      -2.59367461E-08
  -13.1199999       2.21186241E-07
  -13.1099997       4.64005495E-07
  -13.1000004       6.72824115E-07
  -13.0900002       8.20467164E-07
  -13.0799999       8.85070108E-07
  -13.0699997       8.52209723E-07
  -13.0600004       7.16383227E-07
  -13.0500002       4.81914128E-07
  -13.0400000       1.63376853E-07
  -13.0299997      -2.14476060E-07
  -13.0200005      -6.17430999E-07
  -13.0100002      -1.00344539E-06
  -13.0000000      -1.32547552E-06
  -12.9899998      -1.53573217E-06
  -12.9799995      -1.59124772E-06
  -12.9700003      -1.46037132E-06
  -12.9600000      -1.12933390E-06
  -12.9499998      -6.07795414E-07
  -12.9399996       6.79224428E-08
  -12.9300003       8.34983211E-07
  -12.9200001       1.60831678E-06
  -12.9099998       2.28902218E-06
  -12.8999996       2.77625441E-06
  -12.8900003       2.98105579E-06
  -12.8800001       2.84022872E-06
  -12.8699999       2.32804928E-06
  -12.8599997       1.46377783E-06
  -12.8500004       3.13531643E-07
  -12.8400002      -1.01407181E-06
  -12.8299999      -2.37823360E-06
  -12.8199997      -3.62094625E-06
  -12.8100004      -4.58480326E-06
  -12.8000002      -5.13127952E-06
  -12.7900000      -5.15749298E-06
  -12.7799997      -4.60927458E-06
  -12.7700005      -3.48951335E-06
  -12.7600002      -1.86096213E-06
  -12.7500000       1.56528785E-07
  -12.7399998       2.39402152E-06
  -12.7299995       4.64601271E-06
  -12.7200003       6.68666326E-06
  -12.7100000       8.28888278E-06
  -12.6999998       9.24501546E-06
  -12.6899996       9.38782614E-06
  -12.6800003       8.61028275E-06
  -12.6700001       6.88205228E-06
  -12.6599998       4.26065708E-06
  -12.6499996       8.95333017E-07
  -12.6400003      -2.97796760E-06
  -12.6300001      -7.05122329E-06
  -12.6199999      -1.09678258E-05
  -12.6099997      -1.43533989E-05
  -12.6000004      -1.68506576E-05
  -12.5900002      -1.81542509E-05
  -12.5799999      -1.80417901E-05
  -12.5699997      -1.63965324E-05
  -12.5600004      -1.32198520E-05
  -12.5500002      -8.63149307E-06
  -12.5400000      -2.85890405E-06
  -12.5299997       3.78259938E-06
  -12.5200005       1.09150023E-05
  -12.5100002       1.81247433E-05
  -12.5000000       2.49873301E-05
  -12.4899998       3.10875475E-05
  -12.4799995       3.60330669E-05
  -12.4700003       3.94614290E-05
  -12.4600000       4.10414941E-05
  -12.4499998       4.04708007E-05
  -12.4399996       3.74714036E-05
  -12.4300003       3.17849408E-05
  -12.4200001       2.31699796E-05
  -12.4099998       1.14000386E-05
  -12.3999996      -3.73454441E-06
  -12.3900003      -2.24222749E-05
  -12.3800001      -4.48226601E-05
  -12.3699999      -7.10546665E-05
  -12.3599997      -1.01178506E-04
  -12.3500004      -1.35172420E-04
  -12.3400002      -1.72902597E-04
  -12.3299999      -2.14088330E-04
  -12.3199997      -2.58263462E-04
  -12.3100004      -3.04737478E-04
  -12.3000002      -3.52569012E-04
  -12.2900000      -4.00538789E-04
  -12.2799997      -4.47156723E-04
  -12.2700005      -4.90677427E-04
  -12.2600002      -5.29143610E-04
  -12.2500000      -5.60455199E-04
  -12.2399998      -5.82450128E-04
  -12.2299995      -5.93008008E-04
  -12.2200003      -5.90147451E-04
  -12.2100000      -5.72123041E-04
  -12.1999998      -5.37520857E-04
  -12.1899996      -4.85316181E-04
  -12.1800003      -4.14939015E-04
  -12.1700001      -3.26285342E-04
  -12.1599998      -2.19738227E-04
  -12.1499996      -9.61526748E-05
  -12.1400003       4.31673361E-05
  -12.1300001       1.96509645E-04
  -12.1199999       3.61792598E-04
  -12.1099997       5.36633364E-04
  -12.1000004       7.18397147E-04
  -12.0900002       9.04276327E-04
  -12.0799999       1.09136000E-03
  -12.0699997       1.27670157E-03
  -12.0600004       1.45739806E-03
  -12.0500002       1.63064734E-03
  -12.0400000       1.79379678E-03
  -12.0299997       1.94438244E-03
  -12.0200005       2.08014855E-03
  -12.0100002       2.19904375E-03
  -12.0000000       2.29921867E-03
  -11.9899998       2.37900089E-03
  -11.9799995       2.43687024E-03
  -11.9700003       2.47144280E-03
  -11.9600000       2.48145149E-03
  -11.9499998       2.46574730E-03
  -11.9399996       2.42329366E-03
  -11.9300003       2.35318788E-03
  -11.9200001       2.25466606E-03
  -11.9099998       2.12714262E-03
  -11.8999996       1.97020825E-03
  -11.8900003       1.78367237E-03
  -11.8800001       1.56755629E-03
  -11.8699999       1.32213871E-03
  -11.8599997       1.04794279E-03
  -11.8500004       7.45775877E-04
  -11.8400002       4.16744471E-04
  -11.8299999       6.22700172E-05
  -11.8199997      -3.15874961E-04
  -11.8100004      -7.15565577E-04
  -11.8000002      -1.13429863E-03
  -11.7900000      -1.56918797E-03
  -11.7799997      -2.01698206E-03
  -11.7700005      -2.47406191E-03
  -11.7600002      -2.93649710E-03
  -11.7500000      -3.40005150E-03
  -11.7399998      -3.86025780E-03
  -11.7299995      -4.31247102E-03
  -11.7200003      -4.75190487E-03
  -11.7100000      -5.17372182E-03
  -11.6999998      -5.57309063E-03
  -11.6899996      -5.94524899E-03
  -11.6800003      -6.28558220E-03
  -11.6700001      -6.58968324E-03
  -11.6599998      -6.85342262E-03
  -11.6499996      -7.07300846E-03
  -11.6400003      -7.24501302E-03
  -11.6300001      -7.36642350E-03
  -11.6199999      -7.43465405E-03
  -11.6099997      -7.44754914E-03
  -11.6000004      -7.40336534E-03
  -11.5900002      -7.30074150E-03
  -11.5799999      -7.13867228E-03
  -11.5699997      -6.91647781E-03
  -11.5600004      -6.63372967E-03
  -11.5500002      -6.29025372E-03
  -11.5400000      -5.88607183E-03
  -11.5299997      -5.42141637E-03
  -11.5200005      -4.89668315E-03
  -11.5100002      -4.31245193E-03
  -11.5000000      -3.66950361E-03
  -11.4899998      -2.96883145E-03
  -11.4799995      -2.21165922E-03
  -11.4700003      -1.39948726E-03
  -11.4600000      -5.34119084E-04
  -11.4499998       3.82305705E-04
  -11.4399996       1.34727184E-03
  -11.4300003       2.35786568E-03
  -11.4200001       3.41075775E-03
  -11.4099998       4.50218888E-03
  -11.3999996       5.62799163E-03
  -11.3900003       6.78360509E-03
  -11.3800001       7.96412118E-03
  -11.3699999       9.16435197E-03
  -11.3599997       1.03788953E-02
  -11.3500004       1.16022239E-02
  -11.3400002       1.28287775E-02
  -11.3299999       1.40530579E-02
  -11.3199997       1.52697321E-02
  -11.3100004       1.64737012E-02
  -11.3000002       1.76601857E-02
  -11.2900000       1.88247934E-02
  -11.2799997       1.99635979E-02
  -11.2700005       2.10730899E-02
  -11.2600002       2.21502967E-02
  -11.2500000       2.31927186E-02
  -11.2399998       2.41983160E-02
  -11.2299995       2.51655038E-02
  -11.2200003       2.60930359E-02
  -11.2100000       2.69800108E-02
  -11.1999998       2.78257653E-02
  -11.1899996       2.86298227E-02
  -11.1800003       2.93918103E-02
  -11.1700001       3.01114209E-02
  -11.1599998       3.07883490E-02
  -11.1499996       3.14222798E-02
  -11.1400003       3.20128500E-02
  -11.1300001       3.25596444E-02
  -11.1199999       3.30622233E-02
  -11.1099997       3.35200951E-02
  -11.1000004       3.39328200E-02
  -11.0900002       3.42999473E-02
  -11.0799999       3.46211605E-02
  -11.0699997       3.48962620E-02
  -11.0600004       3.51252779E-02
  -11.0500002       3.53084654E-02
  -11.0400000       3.54463793E-02
  -11.0299997       3.55399176E-02
  -11.0200005       3.55902836E-02
  -11.0100002       3.55990678E-02
  -11.0000000       3.55681665E-02
  -10.9899998       3.54996882E-02
  -10.9799995       3.53959873E-02
  -10.9700003       3.52595821E-02
  -10.9600000       3.50929610E-02
  -10.9499998       3.48986015E-02
  -10.9399996       3.46788839E-02
  -10.9300003       3.44360024E-02
  -10.9200001       3.41718905E-02
  -10.9099998       3.38882059E-02
  -10.8999996       3.35863158E-02
  -10.8900003       3.32672372E-02
  -10.8800001       3.29315923E-02
  -10.8699999       3.25796939E-02
  -10.8599997       3.22114676E-02
  -10.8500004       3.18265334E-02
  -10.8400002       3.14241499E-02
  -10.8299999       3.10033727E-02
  -10.8199997       3.05630192E-02
  -10.8100004       3.01018618E-02
  -10.8000002       2.96185836E-02
  -10.7900000       2.91119982E-02
  -10.7799997       2.85810437E-02
  -10.7700005       2.80249640E-02
  -10.7600002       2.74432655E-02
  -10.7500000       2.68358607E-02
  -10.7399998       2.62030214E-02
  -10.7299995       2.55453791E-02
  -10.7200003       2.48639453E-02
  -10.7100000       2.41600983E-02
  -10.6999998       2.34354604E-02
  -10.6899996       2.26919949E-02
  -10.6800003       2.19318345E-02
  -10.6700001       2.11573783E-02
  -10.6599998       2.03711409E-02
  -10.6499996       1.95758305E-02
  -10.6400003       1.87742151E-02
  -10.6300001       1.79692041E-02
  -10.6199999       1.71636920E-02
  -10.6099997       1.63606089E-02
  -10.6000004       1.55629013E-02
  -10.5900002       1.47734880E-02
  -10.5799999       1.39952553E-02
  -10.5699997       1.32310679E-02
  -10.5600004       1.24838166E-02
  -10.5500002       1.17563205E-02
  -10.5400000       1.10513978E-02
  -10.5299997       1.03718210E-02
  -10.5200005       9.72029287E-03
  -10.5100002       9.09934938E-03
  -10.5000000       8.51137564E-03
  -10.4899998       7.95856304E-03
  -10.4799995       7.44275842E-03
  -10.4700003       6.96557155E-03
  -10.4600000       6.52820384E-03
  -10.4499998       6.13156054E-03
  -10.4399996       5.77622000E-03
  -10.4300003       5.46238944E-03
  -10.4200001       5.19004697E-03
  -10.4099998       4.95885639E-03
  -10.3999996       4.76826774E-03
  -10.3900003       4.61753877E-03
  -10.3800001       4.50577354E-03
  -10.3699999       4.43181628E-03
  -10.3599997       4.39444603E-03
  -10.3500004       4.39227046E-03
  -10.3400002       4.42372961E-03
  -10.3299999       4.48719924E-03
  -10.3199997       4.58087027E-03
  -10.3100004       4.70289076E-03
  -10.3000002       4.85125789E-03
  -10.2900000       5.02388319E-03
  -10.2799997       5.21868654E-03
  -10.2700005       5.43344766E-03
  -10.2600002       5.66593092E-03
  -10.2500000       5.91393886E-03
  -10.2399998       6.17527775E-03
  -10.2299995       6.44777389E-03
  -10.2200003       6.72934903E-03
  -10.2100000       7.01813586E-03
  -10.1999998       7.31229875E-03
  -10.1899996       7.61032384E-03
  -10.1800003       7.91082438E-03
  -10.1700001       8.21272470E-03
  -10.1599998       8.51520710E-03
  -10.1499996       8.81771464E-03
  -10.1400003       9.11999028E-03
  -10.1300001       9.42191388E-03
  -10.1199999       9.72375832E-03
  -10.1099997       1.00258263E-02
  -10.1000004       1.03287427E-02
  -10.0900002       1.06331613E-02
  -10.0799999       1.09399613E-02
  -10.0699997       1.12501392E-02
  -10.0600004       1.15647279E-02
  -10.0500002       1.18849343E-02
  -10.0400000       1.22119421E-02
  -10.0299997       1.25470171E-02
  -10.0200005       1.28913568E-02
  -10.0100002       1.32462895E-02
  -10.0000000       1.36129977E-02
  -9.98999977       1.39927985E-02
  -9.97999954       1.43869799E-02
  -9.97000027       1.47968885E-02
  -9.96000004       1.52240377E-02
  -9.94999981       1.56701133E-02
  -9.93999958       1.61369238E-02
  -9.93000031       1.66264363E-02
  -9.92000008       1.71408281E-02
  -9.90999985       1.76823419E-02
  -9.89999962       1.82531942E-02
  -9.89000034       1.88556239E-02
  -9.88000011       1.94917452E-02
  -9.86999989       2.01634783E-02
  -9.85999966       2.08723880E-02
  -9.85000038       2.16200128E-02
  -9.84000015       2.24073697E-02
  -9.82999992       2.32352912E-02
  -9.81999969       2.41041854E-02
  -9.81000042       2.50142142E-02
  -9.80000019       2.59651504E-02
  -9.78999996       2.69562360E-02
  -9.77999973       2.79866792E-02
  -9.77000046       2.90550254E-02
  -9.76000023       3.01597137E-02
  -9.75000000       3.12987864E-02
  -9.73999977       3.24700251E-02
  -9.72999954       3.36711816E-02
  -9.72000027       3.48997079E-02
  -9.71000004       3.61529365E-02
  -9.69999981       3.74284089E-02
  -9.68999958       3.87233496E-02
  -9.68000031       4.00351882E-02
  -9.67000008       4.13612425E-02
  -9.65999985       4.26988825E-02
  -9.64999962       4.40454446E-02
  -9.64000034       4.53984737E-02
  -9.63000011       4.67556827E-02
  -9.61999989       4.81143817E-02
  -9.60999966       4.94725890E-02
  -9.60000038       5.08282036E-02
  -9.59000015       5.21790721E-02
  -9.57999992       5.35234101E-02
  -9.56999969       5.48593886E-02
  -9.56000042       5.61851338E-02
  -9.55000019       5.74988835E-02
  -9.53999996       5.87986708E-02
  -9.52999973       6.00825846E-02
  -9.52000046       6.13482408E-02
  -9.51000023       6.25934824E-02
  -9.50000000       6.38159141E-02
  -9.48999977       6.50129616E-02
  -9.47999954       6.61821663E-02
  -9.47000027       6.73211589E-02
  -9.46000004       6.84278533E-02
  -9.44999981       6.94999844E-02
  -9.43999958       7.05360845E-02
  -9.43000031       7.15350062E-02
  -9.42000008       7.24959075E-02
  -9.40999985       7.34185502E-02
  -9.39999962       7.43031651E-02
  -9.39000034       7.51504302E-02
  -9.38000011       7.59614930E-02
  -9.36999989       7.67377913E-02
  -9.35999966       7.74812251E-02
  -9.35000038       7.81938061E-02
  -9.34000015       7.88778588E-02
  -9.32999992       7.95357451E-02
  -9.31999969       8.01699534E-02
  -9.31000042       8.07831287E-02
  -9.30000019       8.13777521E-02
  -9.28999996       8.19566026E-02
  -9.27999973       8.25222507E-02
  -9.27000046       8.30773711E-02
  -9.26000023       8.36246312E-02
  -9.25000000       8.41666311E-02
  -9.23999977       8.47061202E-02
  -9.22999954       8.52458254E-02
  -9.22000027       8.57884586E-02
  -9.21000004       8.63369182E-02
  -9.19999981       8.68941396E-02
  -9.18999958       8.74628946E-02
  -9.18000031       8.80462155E-02
  -9.17000008       8.86466727E-02
  -9.15999985       8.92670453E-02
  -9.14999962       8.99093375E-02
  -9.14000034       9.05757174E-02
  -9.13000011       9.12676752E-02
  -9.11999989       9.19864327E-02
  -9.10999966       9.27329510E-02
  -9.10000038       9.35076773E-02
  -9.09000015       9.43110436E-02
  -9.07999992       9.51430351E-02
  -9.06999969       9.60032344E-02
  -9.06000042       9.68912095E-02
  -9.05000019       9.78063047E-02
  -9.03999996       9.87471566E-02
  -9.02999973       9.97127295E-02
  -9.02000046      0.100701332    
  -9.01000023      0.101711288    
  -9.00000000      0.102740824    
  -8.98999977      0.103787899    
  -8.97999954      0.104850538    
  -8.97000027      0.105927005    
  -8.96000004      0.107015036    
  -8.94999981      0.108112894    
  -8.93999958      0.109218270    
  -8.93000031      0.110329486    
  -8.92000008      0.111444816    
  -8.90999985      0.112562679    
  -8.89999962      0.113682210    
  -8.89000034      0.114802226    
  -8.88000011      0.115922615    
  -8.86999989      0.117043234    
  -8.85999966      0.118164539    
  -8.85000038      0.119287722    
  -8.84000015      0.120413698    
  -8.82999992      0.121544354    
  -8.81999969      0.122681685    
  -8.81000042      0.123828046    
  -8.80000019      0.124986313    
  -8.78999996      0.126159951    
  -8.77999973      0.127352327    
  -8.77000046      0.128567323    
  -8.76000023      0.129809201    
  -8.75000000      0.131082073    
  -8.73999977      0.132390261    
  -8.72999954      0.133738294    
  -8.72000027      0.135130405    
  -8.71000004      0.136570066    
  -8.69999981      0.138061866    
  -8.68999958      0.139609143    
  -8.68000031      0.141215131    
  -8.67000008      0.142883018    
  -8.65999985      0.144615933    
  -8.64999962      0.146415845    
  -8.64000034      0.148284882    
  -8.63000011      0.150224566    
  -8.61999989      0.152235761    
  -8.60999966      0.154318616    
  -8.60000038      0.156473145    
  -8.59000015      0.158698291    
  -8.57999992      0.160993189    
  -8.56999969      0.163355693    
  -8.56000042      0.165784225    
  -8.55000019      0.168276370    
  -8.53999996      0.170829877    
  -8.52999973      0.173442096    
  -8.52000046      0.176110223    
  -8.51000023      0.178831652    
  -8.50000000      0.181603014    
  -8.48999977      0.184421256    
  -8.47999954      0.187283412    
  -8.47000027      0.190185949    
  -8.46000004      0.193126023    
  -8.44999981      0.196100518    
  -8.43999958      0.199106857    
  -8.43000031      0.202141911    
  -8.42000008      0.205203652    
  -8.40999985      0.208289266    
  -8.39999962      0.211396694    
  -8.39000034      0.214523271    
  -8.38000011      0.217667013    
  -8.36999989      0.220825419    
  -8.35999966      0.223995924    
  -8.35000038      0.227177367    
  -8.34000015      0.230367824    
  -8.32999992      0.233565524    
  -8.31999969      0.236769632    
  -8.31000042      0.239979491    
  -8.30000019      0.243193656    
  -8.28999996      0.246411622    
  -8.27999973      0.249632910    
  -8.27000046      0.252856523    
  -8.26000023      0.256081462    
  -8.25000000      0.259307742    
  -8.23999977      0.262534320    
  -8.22999954      0.265760541    
  -8.22000027      0.268986434    
  -8.21000004      0.272210509    
  -8.19999981      0.275432318    
  -8.18999958      0.278650701    
  -8.18000031      0.281863838    
  -8.17000008      0.285070390    
  -8.15999985      0.288268089    
  -8.14999962      0.291454583    
  -8.14000034      0.294627428    
  -8.13000011      0.297784209    
  -8.11999989      0.300921708    
  -8.10999966      0.304036498    
  -8.10000038      0.307125092    
  -8.09000015      0.310183197    
  -8.07999992      0.313206255    
  -8.06999969      0.316189110    
  -8.06000042      0.319126278    
  -8.05000019      0.322012395    
  -8.03999996      0.324842244    
  -8.02999973      0.327610165    
  -8.02000046      0.330310911    
  -8.01000023      0.332939446    
  -8.00000000      0.335490227    
  -7.98999977      0.337958992    
  -7.98000002      0.340340108    
  -7.96999979      0.342628926    
  -7.96000004      0.344821692    
  -7.94999981      0.346914053    
  -7.94000006      0.348902971    
  -7.92999983      0.350785792    
  -7.92000008      0.352560610    
  -7.90999985      0.354227126    
  -7.90000010      0.355783701    
  -7.88999987      0.357230842    
  -7.88000011      0.358568847    
  -7.86999989      0.359798789    
  -7.86000013      0.360922128    
  -7.84999990      0.361941457    
  -7.84000015      0.362859428    
  -7.82999992      0.363680303    
  -7.82000017      0.364409059    
  -7.80999994      0.365052044    
  -7.80000019      0.365615636    
  -7.78999996      0.366107732    
  -7.78000021      0.366535634    
  -7.76999998      0.366910100    
  -7.76000023      0.367238700    
  -7.75000000      0.367531717    
  -7.73999977      0.367799699    
  -7.73000002      0.368053108    
  -7.71999979      0.368304789    
  -7.71000004      0.368564904    
  -7.69999981      0.368847609    
  -7.69000006      0.369164228    
  -7.67999983      0.369527996    
  -7.67000008      0.369950622    
  -7.65999985      0.370443553    
  -7.65000010      0.371018976    
  -7.63999987      0.371688038    
  -7.63000011      0.372460544    
  -7.61999989      0.373347968    
  -7.61000013      0.374360502    
  -7.59999990      0.375507295    
  -7.59000015      0.376799136    
  -7.57999992      0.378243744    
  -7.57000017      0.379850298    
  -7.55999994      0.381625056    
  -7.55000019      0.383575290    
  -7.53999996      0.385706842    
  -7.53000021      0.388024807    
  -7.51999998      0.390534401    
  -7.51000023      0.393239826    
  -7.50000000      0.396145165    
  -7.48999977      0.399253070    
  -7.48000002      0.402566910    
  -7.46999979      0.406087130    
  -7.46000004      0.409815788    
  -7.44999981      0.413752615    
  -7.44000006      0.417898029    