  -16.0000000       0.00000000    
  -15.9899998       0.00000000    
  -15.9799995       0.00000000    
  -15.9700003       0.00000000    
  -15.9600000       0.00000000    
  -15.9499998       0.00000000    
  -15.9399996       0.00000000    
  -15.9300003       0.00000000    
  -15.9200001       0.00000000    
  -15.9099998       0.00000000    
  -15.8999996       0.00000000    
  -15.8900003       0.00000000    
  -15.8800001       0.00000000    
  -15.8699999       0.00000000    
  -15.8599997       0.00000000    
  -15.8500004       1.26116862E-44
  -15.8400002       1.84971397E-43
  -15.8299999       1.92958799E-42
  -15.8199997       1.53988688E-41
  -15.8100004       9.94543559E-41
  -15.8000002       5.38961810E-40
  -15.7900000       2.51393785E-39
  -15.7799997       1.02799353E-38
  -15.7700005       3.73509884E-38
  -15.7600002       1.21773890E-37
  -15.7500000       3.58721892E-37
  -15.7399998       9.59018177E-37
  -15.7299995       2.33122613E-36
  -15.7200003       5.14739355E-36
  -15.7100000       1.02714738E-35
  -15.6999998       1.83050098E-35
  -15.6899996       2.83913052E-35
  -15.6800003       3.59724029E-35
  -15.6700001       2.96852703E-35
  -15.6599998      -1.11838465E-35
  -15.6499996      -1.15244697E-34
  -15.6400003      -3.07977660E-34
  -15.6300001      -5.85268949E-34
  -15.6199999      -8.70391210E-34
  -15.6099997      -9.66437548E-34
  -15.6000004      -5.38037402E-34
  -15.5900002       8.20641351E-34
  -15.5799999       3.36910640E-33
  -15.5699997       6.83386571E-33
  -15.5600004       9.94533240E-33
  -15.5500002       1.01746398E-32
  -15.5400000       4.12515461E-33
  -15.5299997      -1.09538448E-32
  -15.5200005      -3.44337354E-32
  -15.5100002      -5.91493300E-32
  -15.5000000      -6.98747579E-32
  -15.4899998      -4.64391680E-32
  -15.4799995       2.60812927E-32
  -15.4700003       1.41005484E-31
  -15.4600000       2.54741381E-31
  -15.4499998       2.86673520E-31
  -15.4399996       1.50250230E-31
  -15.4300003      -1.79473373E-31
  -15.4200001      -5.84403693E-31
  -15.4099998      -7.68951557E-31
  -15.3999996      -3.57803624E-31
  -15.3900003       8.18055013E-31
  -15.3800001       2.30878093E-30
  -15.3699999       2.76534595E-30
  -15.3599997       2.30346205E-31
  -15.3500004      -6.59130565E-30
  -15.3400002      -1.61335663E-29
  -15.3299999      -2.18550663E-29
  -15.3199997      -1.23644966E-29
  -15.3100004       2.35930345E-29
  -15.3000002       8.60958333E-29
  -15.2900000       1.49957696E-28
  -15.2799997       1.56923701E-28
  -15.2700005       2.86613674E-29
  -15.2600002      -2.86797089E-28
  -15.2500000      -7.37595443E-28
  -15.2399998      -1.09179823E-27
  -15.2299995      -9.29466310E-28
  -15.2200003       2.13905263E-28
  -15.2100000       2.50630527E-27
  -15.1999998       5.34859943E-27
  -15.1899996       7.02168944E-27
  -15.1800003       4.86397190E-27
  -15.1700001      -3.60403700E-27
  -15.1599998      -1.85134869E-26
  -15.1499996      -3.50672708E-26
  -15.1400003      -4.21297175E-26
  -15.1300001      -2.42510664E-26
  -15.1199999       3.09833317E-26
  -15.1099997       1.20548288E-25
  -15.1000004       2.12809527E-25
  -15.0900002       2.42542903E-25
  -15.0799999       1.25588801E-25
  -15.0699997      -1.98864710E-25
  -15.0600004      -7.02682289E-25
  -15.0500002      -1.20456516E-24
  -15.0400000      -1.35325479E-24
  -15.0299997      -7.12564990E-25
  -15.0200005       1.01889225E-24
  -15.0100002       3.68282199E-24
  -15.0000000       6.35661830E-24
  -14.9899998       7.28801532E-24
  -14.9799995       4.31592901E-24
  -14.9700003      -4.08532603E-24
  -14.9600000      -1.72888081E-23
  -14.9499998      -3.10987681E-23
  -14.9399996      -3.74085162E-23
  -14.9300003      -2.60105695E-23
  -14.9200001       1.08435810E-23
  -14.9099998       7.17551477E-23
  -14.8999996       1.39750799E-22
  -14.8900003       1.80168965E-22
  -14.8800001       1.47394634E-22
  -14.8699999       3.13418244E-24
  -14.8599997      -2.55842283E-22
  -14.8500004      -5.69552070E-22
  -14.8400002      -8.02056112E-22
  -14.8299999      -7.62408746E-22
  -14.8199997      -2.71446381E-22
  -14.8100004       7.30617676E-22
  -14.8000002       2.06689453E-21
  -14.7900000       3.25437996E-21
  -14.7799997       3.55252384E-21
  -14.7700005       2.18280746E-21
  -14.7600002      -1.28447740E-21
  -14.7500000      -6.47134170E-21
  -14.7399998      -1.18552325E-20
  -14.7299995      -1.48077123E-20
  -14.7200003      -1.22266560E-20
  -14.7100000      -1.80993560E-21
  -14.6999998       1.62792650E-20
  -14.6899996       3.79550629E-20
  -14.6800003       5.48139892E-20
  -14.6700001       5.56345718E-20
  -14.6599998       3.01540808E-20
  -14.6499996      -2.53899260E-20
  -14.6400003      -1.02618696E-19
  -14.6300001      -1.77928243E-19
  -14.6199999      -2.14879525E-19
  -14.6099997      -1.73990049E-19
  -14.6000004      -2.94123842E-20
  -14.5900002       2.11522904E-19
  -14.5799999       4.93404447E-19
  -14.5699997       7.11805409E-19
  -14.5600004       7.34109455E-19
  -14.5500002       4.44008684E-19
  -14.5400000      -1.98140427E-19
  -14.5299997      -1.09797039E-18
  -14.5200005      -1.99968990E-18
  -14.5100002      -2.51555488E-18
  -14.5000000      -2.22729464E-18
  -14.4899998      -8.50451013E-19
  -14.4799995       1.57894303E-18
  -14.4700003       4.56454723E-18
  -14.4600000       7.13803102E-18
  -14.4499998       8.03968684E-18
  -14.4399996       6.10362719E-18
  -14.4300003       7.79789936E-19
  -14.4200001      -7.36154928E-18
  -14.4099998      -1.63570781E-17
  -14.3999996      -2.30210998E-17
  -14.3900003      -2.36807350E-17
  -14.3800001      -1.54197402E-17
  -14.3699999       2.45166904E-18
  -14.3599997       2.71888626E-17
  -14.3500004       5.22473579E-17
  -14.3400002       6.82403557E-17
  -14.3299999       6.53723948E-17
  -14.3199997       3.69905806E-17
  -14.3100004      -1.66716218E-17
  -14.3000002      -8.59030706E-17
  -14.2900000      -1.51482433E-16
  -14.2799997      -1.88161249E-16
  -14.2700005      -1.71648858E-16
  -14.2600002      -8.77822330E-17
  -14.2500000       5.87020038E-17
  -14.2399998       2.39115866E-16
  -14.2299995       4.02584622E-16
  -14.2200003       4.86295750E-16
  -14.2100000       4.33404974E-16
  -14.1999998       2.14782343E-16
  -14.1899996      -1.51783818E-16
  -14.1800003      -5.92411932E-16
  -14.1700001      -9.84266473E-16
  -14.1599998      -1.18155093E-15
  -14.1499996      -1.05717367E-15
  -14.1400003      -5.50635155E-16
  -14.1300001       2.92123373E-16
  -14.1199999       1.30246583E-15
  -14.1099997       2.20836778E-15
  -14.1000004       2.69270165E-15
  -14.0900002       2.48200093E-15
  -14.0799999       1.44505324E-15
  -14.0699997      -3.27777690E-16
  -14.0600004      -2.49462257E-15
  -14.0500002      -4.50327438E-15
  -14.0400000      -5.70778784E-15
  -14.0299997      -5.54210057E-15
  -14.0200005      -3.71028256E-15
  -14.0100002      -3.38878215E-16
  -14.0000000       3.96336330E-15
  -13.9899998       8.17637262E-15
  -13.9799995       1.10764855E-14
  -13.9700003       1.15473274E-14
  -13.9600000       8.92283226E-15
  -13.9499998       3.26832216E-15
  -13.9399996      -4.49348056E-15
  -13.9300003      -1.26760751E-14
  -13.9200001      -1.91545337E-14
  -13.9099998      -2.18701535E-14
  -13.8999996      -1.94023247E-14
  -13.8900003      -1.14591801E-14
  -13.8800001       8.60987021E-16
  -13.8699999       1.51427993E-14
  -13.8599997       2.80886730E-14
  -13.8500004       3.62470199E-14
  -13.8400002       3.68768635E-14
  -13.8299999       2.87363076E-14
  -13.8199997       1.25791203E-14
  -13.8100004      -8.80122289E-15
  -13.8000002      -3.10364120E-14
  -13.7900000      -4.90847394E-14
  -13.7799997      -5.83765282E-14
  -13.7700005      -5.59331058E-14
  -13.7600002      -4.11781239E-14
  -13.7500000      -1.62228832E-14
  -13.7399998       1.44679191E-14
  -13.7299995       4.49690232E-14
  -13.7200003       6.91409481E-14
  -13.7100000       8.19321688E-14
  -13.6999998       8.04251075E-14
  -13.6899996       6.43845261E-14
  -13.6800003       3.62026117E-14
  -13.6700001       2.98609978E-16
  -13.6599998      -3.78274242E-14
  -13.6499996      -7.26104493E-14
  -13.6400003      -9.92412668E-14
  -13.6300001      -1.14126062E-13
  -13.6199999      -1.14969598E-13
  -13.6099997      -1.00619098E-13
  -13.6000004      -7.09012791E-14
  -13.5900002      -2.66821037E-14
  -13.5799999       2.97335737E-14
  -13.5699997       9.39385559E-14
  -13.5600004       1.58781733E-13
  -13.5500002       2.14177702E-13
  -13.5400000       2.47802321E-13
  -13.5299997       2.46934987E-13
  -13.5200005       2.01373274E-13
  -13.5100002       1.06928253E-13
  -13.5000000      -3.13681542E-14
  -13.4899998      -1.97410203E-13
  -13.4799995      -3.64493321E-13
  -13.4700003      -4.98671254E-13
  -13.4600000      -5.64857243E-13
  -13.4499998      -5.34720868E-13
  -13.4399996      -3.94721609E-13
  -13.4300003      -1.52235185E-13
  -13.4200001       1.62152830E-13
  -13.4099998       4.97448653E-13
  -13.3999996       7.90290413E-13
  -13.3900003       9.77044617E-13
  -13.3800001       1.00758247E-12
  -13.3699999       8.57633300E-13
  -13.3599997       5.36615077E-13
  -13.3500004       8.86515796E-14
  -13.3400002      -4.14038568E-13
  -13.3299999      -8.84376827E-13
  -13.3199997      -1.23757937E-12
  -13.3100004      -1.40841082E-12
  -13.3000002      -1.36450324E-12
  -13.2900000      -1.11254094E-12
  -13.2799997      -6.95794821E-13
  -13.2700005      -1.83641961E-13
  -13.2600002       3.44246170E-13
  -13.2500000       8.14964903E-13
  -13.2399998       1.17627620E-12
  -13.2299995       1.40379028E-12
  -13.2200003       1.49974683E-12
  -13.2100000       1.48410125E-12
  -13.1999998       1.38090754E-12
  -13.1899996       1.20451685E-12
  -13.1800003       9.50408589E-13
  -13.1700001       5.94387712E-13
  -13.1599998       1.01616788E-13
  -13.1499996      -5.55947866E-13
  -13.1400003      -1.37795222E-12
  -13.1300001      -2.31603864E-12
  -13.1199999      -3.26288454E-12
  -13.1099997      -4.05526958E-12
  -13.1000004      -4.49375086E-12
  -13.0900002      -4.37764798E-12
  -13.0799999      -3.55004481E-12
  -13.0699997      -1.94418071E-12
  -13.0600004       3.79020627E-13
  -13.0500002       3.21214192E-12
  -13.0400000       6.20834764E-12
  -13.0299997       8.91703465E-12
  -13.0200005       1.08452396E-11
  -13.0100002       1.15365469E-11
  -13.0000000       1.06549830E-11
  -12.9899998       8.05923731E-12
  -12.9799995       3.85309709E-12
  -12.9700003      -1.59892780E-12
  -12.9600000      -7.69638867E-12
  -12.9499998      -1.36671906E-11
  -12.9399996      -1.86639072E-11
  -12.9300003      -2.18791183E-11
  -12.9200001      -2.26633885E-11
  -12.9099998      -2.06287105E-11
  -12.8999996      -1.57218544E-11
  -12.8900003      -8.25653261E-12
  -12.8800001       1.10158866E-12
  -12.8699999       1.13963058E-11
  -12.8599997       2.14822049E-11
  -12.8500004       3.01540737E-11
  -12.8400002       3.62890828E-11
  -12.8299999       3.89843713E-11
  -12.8199997       3.76730730E-11
  -12.8100004       3.22037744E-11
  -12.8000002       2.28727367E-11
  -12.7900000       1.04034984E-11
  -12.7799997      -4.12449675E-12
  -12.7700005      -1.93900816E-11
  -12.7600002      -3.39727968E-11
  -12.7500000      -4.65051782E-11
  -12.7399998      -5.58145648E-11
  -12.7299995      -6.10358639E-11
  -12.7200003      -6.16815765E-11
  -12.7100000      -5.76617608E-11
  -12.6999998      -4.92548120E-11
  -12.6899996      -3.70370713E-11
  -12.6800003      -2.17848222E-11
  -12.6700001      -4.36506690E-12
  -12.6599998       1.43682150E-11
  -12.6499996       3.36577294E-11
  -12.6400003       5.28947337E-11
  -12.6300001       7.16303683E-11
  -12.6199999       8.95416796E-11
  -12.6099997       1.06349721E-10
  -12.6000004       1.21692420E-10
  -12.5900002       1.34960043E-10
  -12.5799999       1.45110618E-10
  -12.5699997       1.50494700E-10
  -12.5600004       1.48727836E-10
  -12.5500002       1.36662209E-10
  -12.5400000       1.10505174E-10
  -12.5299997       6.61299487E-11
  -12.5200005      -3.99165781E-13
  -12.5100002      -9.20971077E-11
  -12.5000000      -2.10167536E-10
  -12.4899998      -3.53039542E-10
  -12.4799995      -5.15446463E-10
  -12.4700003      -6.87683743E-10
  -12.4600000      -8.55175375E-10
  -12.4499998      -9.98456429E-10
  -12.4399996      -1.09364395E-09
  -12.4300003      -1.11340648E-09
  -12.4200001      -1.02838982E-09
  -12.4099998      -8.09012524E-10
  -12.3999996      -4.27513469E-10
  -12.3900003       1.39911902E-10
  -12.3800001       9.11021980E-10
  -12.3699999       1.89561655E-09
  -12.3599997       3.09394621E-09
  -12.3500004       4.49550708E-09
  -12.3400002       6.07836093E-09
  -12.3299999       7.80898990E-09
  -12.3199997       9.64275859E-09
  -12.3100004       1.15249685E-08
  -12.3000002       1.33925377E-08
  -12.2900000       1.51762087E-08
  -12.2799997       1.68031953E-08
  -12.2700005       1.82000495E-08
  -12.2600002       1.92957010E-08
  -12.2500000       2.00243111E-08
  -12.2399998       2.03277430E-08
  -12.2299995       2.01576853E-08
  -12.2200003       1.94770617E-08
  -12.2100000       1.82607458E-08
  -12.1999998       1.64958305E-08
  -12.1899996       1.41812224E-08
  -12.1800003       1.13270024E-08
  -12.1700001       7.95345301E-09
  -12.1599998       4.09016998E-09
  -12.1499996      -2.24893534E-10
  -12.1400003      -4.94620078E-09
  -12.1300001      -1.00213295E-08
  -12.1199999      -1.53915387E-08
  -12.1099997      -2.09923599E-08
  -12.1000004      -2.67542344E-08
  -12.0900002      -3.26033138E-08
  -12.0799999      -3.84623000E-08
  -12.0699997      -4.42515962E-08
  -12.0600004      -4.98904491E-08
  -12.0500002      -5.52981660E-08
  -12.0400000      -6.03952870E-08
  -12.0299997      -6.51045724E-08
  -12.0200005      -6.93517492E-08
  -12.0100002      -7.30660616E-08
  -12.0000000      -7.61807399E-08
  -11.9899998      -7.86328727E-08
  -11.9799995      -8.03636553E-08
  -11.9700003      -8.13183050E-08
  -11.9600000      -8.14464940E-08
  -11.9499998      -8.07025629E-08
  -11.9399996      -7.90463375E-08
  -11.9300003      -7.64439818E-08
  -11.9200001      -7.28691631E-08
  -11.9099998      -6.83041605E-08
  -11.8999996      -6.27411794E-08
  -11.8900003      -5.61830547E-08
  -11.8800001      -4.86439227E-08
  -11.8699999      -4.01499314E-08
  -11.8599997      -3.07386649E-08
  -11.8500004      -2.04593267E-08
  -11.8400002      -9.37186329E-09
  -11.8299999       2.45352072E-09
  -11.8199997       1.49373278E-08
  -11.8100004       2.79914225E-08
  -11.8000002       4.15200070E-08
  -11.7900000       5.54208022E-08
  -11.7799997       6.95858091E-08
  -11.7700005       8.39025631E-08
  -11.7600002       9.82554482E-08
  -11.7500000       1.12526834E-07
  -11.7399998       1.26598010E-07
  -11.7299995       1.40350167E-07
  -11.7200003       1.53665056E-07
  -11.7100000       1.66425124E-07
  -11.6999998       1.78514014E-07
  -11.6899996       1.89816021E-07
  -11.6800003       2.00217116E-07
  -11.6700001       2.09604494E-07
  -11.6599998       2.17867537E-07
  -11.6499996       2.24898940E-07
  -11.6400003       2.30595688E-07
  -11.6300001       2.34860664E-07
  -11.6199999       2.37603231E-07
  -11.6099997       2.38740228E-07
  -11.6000004       2.38196336E-07
  -11.5900002       2.35904565E-07
  -11.5799999       2.31805416E-07
  -11.5699997       2.25847273E-07
  -11.5600004       2.17986681E-07
  -11.5500002       2.08188538E-07
  -11.5400000       1.96427081E-07
  -11.5299997       1.82687842E-07
  -11.5200005       1.66968363E-07
  -11.5100002       1.49279600E-07
  -11.5000000       1.29646168E-07
  -11.4899998       1.08106661E-07
  -11.4799995       8.47116937E-08
  -11.4700003       5.95226552E-08
  -11.4600000       3.26091651E-08
  -11.4499998       4.04664302E-09
  -11.4399996      -2.60847219E-08
  -11.4300003      -5.77014347E-08
  -11.4200001      -9.07167603E-08
  -11.4099998      -1.25039875E-07
  -11.3999996      -1.60575027E-07
  -11.3900003      -1.97219478E-07
  -11.3800001      -2.34863478E-07
  -11.3699999      -2.73389730E-07
  -11.3599997      -3.12674246E-07
  -11.3500004      -3.52588330E-07
  -11.3400002      -3.93000533E-07
  -11.3299999      -4.33780258E-07
  -11.3199997      -4.74800231E-07
  -11.3100004      -5.15939405E-07
  -11.3000002      -5.57084661E-07
  -11.2900000      -5.98131976E-07
  -11.2799997      -6.38986592E-07
  -11.2700005      -6.79563016E-07
  -11.2600002      -7.19783031E-07
  -11.2500000      -7.59574505E-07
  -11.2399998      -7.98869678E-07
  -11.2299995      -8.37602329E-07
  -11.2200003      -8.75707087E-07
  -11.2100000      -9.13117447E-07
  -11.1999998      -9.49765365E-07
  -11.1899996      -9.85582119E-07
  -11.1800003      -1.02049751E-06
  -11.1700001      -1.05444212E-06
  -11.1599998      -1.08735094E-06
  -11.1499996      -1.11916472E-06
  -11.1400003      -1.14983141E-06
  -11.1300001      -1.17931029E-06
  -11.1199999      -1.20757306E-06
  -11.1099997      -1.23460211E-06
  -11.1000004      -1.26039413E-06
  -11.0900002      -1.28495515E-06
  -11.0799999      -1.30830040E-06
  -11.0699997      -1.33045091E-06
  -11.0600004      -1.35143182E-06
  -11.0500002      -1.37127256E-06
  -11.0400000      -1.38999917E-06
  -11.0299997      -1.40763666E-06
  -11.0200005      -1.42420913E-06
  -11.0100002      -1.43973932E-06
  -11.0000000      -1.45424747E-06
  -10.9899998      -1.46774789E-06
  -10.9799995      -1.48026277E-06
  -10.9700003      -1.49180903E-06
  -10.9600000      -1.50240635E-06
  -10.9499998      -1.51208053E-06
  -10.9399996      -1.52085534E-06
  -10.9300003      -1.52876009E-06
  -10.9200001      -1.53581630E-06
  -10.9099998      -1.54204872E-06
  -10.8999996      -1.54747056E-06
  -10.8900003      -1.55208465E-06
  -10.8800001      -1.55588009E-06
  -10.8699999      -1.55883436E-06
  -10.8599997      -1.56091028E-06
  -10.8500004      -1.56206124E-06
  -10.8400002      -1.56223132E-06
  -10.8299999      -1.56136184E-06
  -10.8199997      -1.55939983E-06
  -10.8100004      -1.55629971E-06
  -10.8000002      -1.55202417E-06
  -10.7900000      -1.54655686E-06
  -10.7799997      -1.53989015E-06
  -10.7700005      -1.53204121E-06
  -10.7600002      -1.52303869E-06
  -10.7500000      -1.51292090E-06
  -10.7399998      -1.50174208E-06
  -10.7299995      -1.48955405E-06
  -10.7200003      -1.47642641E-06
  -10.7100000      -1.46242257E-06
  -10.6999998      -1.44761771E-06
  -10.6899996      -1.43208547E-06
  -10.6800003      -1.41590726E-06
  -10.6700001      -1.39916619E-06
  -10.6599998      -1.38196253E-06
  -10.6499996      -1.36439803E-06
  -10.6400003      -1.34657705E-06
  -10.6300001      -1.32862112E-06
  -10.6199999      -1.31065781E-06
  -10.6099997      -1.29280204E-06
  -10.6000004      -1.27517387E-06
  -10.5900002      -1.25788608E-06
  -10.5799999      -1.24103133E-06
  -10.5699997      -1.22469373E-06
  -10.5600004      -1.20893435E-06
  -10.5500002      -1.19380309E-06
  -10.5400000      -1.17933905E-06
  -10.5299997      -1.16556521E-06
  -10.5200005      -1.15250316E-06
  -10.5100002      -1.14017143E-06
  -10.5000000      -1.12859209E-06
  -10.4899998      -1.11779525E-06
  -10.4799995      -1.10781946E-06
  -10.4700003      -1.09871030E-06
  -10.4600000      -1.09051405E-06
  -10.4499998      -1.08328913E-06
  -10.4399996      -1.07707888E-06
  -10.4300003      -1.07194285E-06
  -10.4200001      -1.06791128E-06
  -10.4099998      -1.06501284E-06
  -10.3999996      -1.06325695E-06
  -10.3900003      -1.06263212E-06
  -10.3800001      -1.06312666E-06
  -10.3699999      -1.06470713E-06
  -10.3599997      -1.06733637E-06
  -10.3500004      -1.07097537E-06
  -10.3400002      -1.07557889E-06
  -10.3299999      -1.08111067E-06
  -10.3199997      -1.08754273E-06
  -10.3100004      -1.09482994E-06
  -10.3000002      -1.10294457E-06
  -10.2900000      -1.11184443E-06
  -10.2799997      -1.12148723E-06
  -10.2700005      -1.13182250E-06
  -10.2600002      -1.14279305E-06
  -10.2500000      -1.15432033E-06
  -10.2399998      -1.16631588E-06
  -10.2299995      -1.17869286E-06
  -10.2200003      -1.19135552E-06
  -10.2100000      -1.20421078E-06
  -10.1999998      -1.21716812E-06
  -10.1899996      -1.23015320E-06
  -10.1800003      -1.24311282E-06
  -10.1700001      -1.25601946E-06
  -10.1599998      -1.26886823E-06
  -10.1499996      -1.28169324E-06
  -10.1400003      -1.29456453E-06
  -10.1300001      -1.30756632E-06
  -10.1199999      -1.32081561E-06
  -10.1099997      -1.33443791E-06
  -10.1000004      -1.34858021E-06
  -10.0900002      -1.36337815E-06
  -10.0799999      -1.37897393E-06
  -10.0699997      -1.39551116E-06
  -10.0600004      -1.41311716E-06
  -10.0500002      -1.43191176E-06
  -10.0400000      -1.45199851E-06
  -10.0299997      -1.47348692E-06
  -10.0200005      -1.49646860E-06
  -10.0100002      -1.52104815E-06
  -10.0000000      -1.54731367E-06
  -9.98999977      -1.57534555E-06
  -9.97999954      -1.60523314E-06
  -9.97000027      -1.63706216E-06
  -9.96000004      -1.67089536E-06
  -9.94999981      -1.70680460E-06
  -9.93999958      -1.74485126E-06
  -9.93000031      -1.78507378E-06
  -9.92000008      -1.82749466E-06
  -9.90999985      -1.87211890E-06
  -9.89999962      -1.91895401E-06
  -9.89000034      -1.96796941E-06
  -9.88000011      -2.01914622E-06
  -9.86999989      -2.07246035E-06
  -9.85999966      -2.12791315E-06
  -9.85000038      -2.18549803E-06
  -9.84000015      -2.24524456E-06
  -9.82999992      -2.30718683E-06
  -9.81999969      -2.37137920E-06
  -9.81000042      -2.43786621E-06
  -9.80000019      -2.50672792E-06
  -9.78999996      -2.57800775E-06
  -9.77999973      -2.65175368E-06
  -9.77000046      -2.72798707E-06
  -9.76000023      -2.80671065E-06
  -9.75000000      -2.88791625E-06
  -9.73999977      -2.97157317E-06
  -9.72999954      -3.05765730E-06
  -9.72000027      -3.14613590E-06
  -9.71000004      -3.23696304E-06
  -9.69999981      -3.33011485E-06
  -9.68999958      -3.42554199E-06
  -9.68000031      -3.52321513E-06
  -9.67000008      -3.62306878E-06
  -9.65999985      -3.72504064E-06
  -9.64999962      -3.82904909E-06
  -9.64000034      -3.93499431E-06
  -9.63000011      -4.04275715E-06
  -9.61999989      -4.15218392E-06
  -9.60999966      -4.26308361E-06
  -9.60000038      -4.37525614E-06
  -9.59000015      -4.48845503E-06
  -9.57999992      -4.60241972E-06
  -9.56999969      -4.71682733E-06
  -9.56000042      -4.83136137E-06
  -9.55000019      -4.94568121E-06
  -9.53999996      -5.05941944E-06
  -9.52999973      -5.17222725E-06
  -9.52000046      -5.28374585E-06
  -9.51000023      -5.39362509E-06
  -9.50000000      -5.50154755E-06
  -9.48999977      -5.60721719E-06
  -9.47999954      -5.71037663E-06
  -9.47000027      -5.81078802E-06
  -9.46000004      -5.90822492E-06
  -9.44999981      -6.00253497E-06
  -9.43999958      -6.09357630E-06
  -9.43000031      -6.18126251E-06
  -9.42000008      -6.26556584E-06
  -9.40999985      -6.34646130E-06
  -9.39999962      -6.42403165E-06
  -9.39000034      -6.49838648E-06
  -9.38000011      -6.56972179E-06
  -9.36999989      -6.63826722E-06
  -9.35999966      -6.70431837E-06
  -9.35000038      -6.76826539E-06
  -9.34000015      -6.83052303E-06
  -9.32999992      -6.89152876E-06
  -9.31999969      -6.95183871E-06
  -9.31000042      -7.01199588E-06
  -9.30000019      -7.07260051E-06
  -9.28999996      -7.13431518E-06
  -9.27999973      -7.19776654E-06
  -9.27000046      -7.26363805E-06
  -9.26000023      -7.33258730E-06
  -9.25000000      -7.40524683E-06
  -9.23999977      -7.48228967E-06
  -9.22999954      -7.56430609E-06
  -9.22000027      -7.65191544E-06
  -9.21000004      -7.74564705E-06
  -9.19999981      -7.84602344E-06
  -9.18999958      -7.95348024E-06
  -9.18000031      -8.06842763E-06
  -9.17000008      -8.19119305E-06
  -9.15999985      -8.32204114E-06
  -9.14999962      -8.46114654E-06
  -9.14000034      -8.60861201E-06
  -9.13000011      -8.76441482E-06
  -9.11999989      -8.92852313E-06
  -9.10999966      -9.10074868E-06
  -9.10000038      -9.28083955E-06
  -9.09000015      -9.46847922E-06
  -9.07999992      -9.66322204E-06
  -9.06999969      -9.86460327E-06
  -9.06000042      -1.00720317E-05
  -9.05000019      -1.02848944E-05
  -9.03999996      -1.05024774E-05
  -9.02999973      -1.07240649E-05
  -9.02000046      -1.09489238E-05
  -9.01000023      -1.11762438E-05
  -9.00000000      -1.14051909E-05
  -8.98999977      -1.16349347E-05
  -8.97999954      -1.18646412E-05
  -8.97000027      -1.20934255E-05
  -8.96000004      -1.23203990E-05
  -8.94999981      -1.25447332E-05
  -8.93999958      -1.27655803E-05
  -8.93000031      -1.29821474E-05
  -8.92000008      -1.31936204E-05
  -8.90999985      -1.33993217E-05
  -8.89999962      -1.35985520E-05
  -8.89000034      -1.37906600E-05
  -8.88000011      -1.39751028E-05
  -8.86999989      -1.41513010E-05
  -8.85999966      -1.43187481E-05
  -8.85000038      -1.44770675E-05
  -8.84000015      -1.46258681E-05
  -8.82999992      -1.47648170E-05
  -8.81999969      -1.48937015E-05
  -8.81000042      -1.50123478E-05
  -8.80000019      -1.51206532E-05
  -8.78999996      -1.52186012E-05
  -8.77999973      -1.53061956E-05
  -8.77000046      -1.53835717E-05
  -8.76000023      -1.54508871E-05
  -8.75000000      -1.55084417E-05
  -8.73999977      -1.55565340E-05
  -8.72999954      -1.55956222E-05
  -8.72000027      -1.56260794E-05
  -8.71000004      -1.56485221E-05
  -8.69999981      -1.56634851E-05
  -8.68999958      -1.56715778E-05
  -8.68000031      -1.56734586E-05
  -8.67000008      -1.56698497E-05
  -8.65999985      -1.56614278E-05
  -8.64999962      -1.56489168E-05
  -8.64000034      -1.56329679E-05
  -8.63000011      -1.56142451E-05
  -8.61999989      -1.55934031E-05
  -8.60999966      -1.55710295E-05
  -8.60000038      -1.55476973E-05
  -8.59000015      -1.55238959E-05
  -8.57999992      -1.55001799E-05
  -8.56999969      -1.54769295E-05
  -8.56000042      -1.54546215E-05
  -8.55000019      -1.54336267E-05
  -8.53999996      -1.54142290E-05
  -8.52999973      -1.53967267E-05
  -8.52000046      -1.53813889E-05
  -8.51000023      -1.53683723E-05
  -8.50000000      -1.53577676E-05
  -8.48999977      -1.53496621E-05
  -8.47999954      -1.53441451E-05
  -8.47000027      -1.53412584E-05
  -8.46000004      -1.53409455E-05
  -8.44999981      -1.53432175E-05
  -8.43999958      -1.53479523E-05
  -8.43000031      -1.53551373E-05
  -8.42000008      -1.53647106E-05
  -8.40999985      -1.53766086E-05
  -8.39999962      -1.53907549E-05
  -8.39000034      -1.54071076E-05
  -8.38000011      -1.54255849E-05
  -8.36999989      -1.54462705E-05
  -8.35999966      -1.54691425E-05
  -8.35000038      -1.54944482E-05
  -8.34000015      -1.55222824E-05
  -8.32999992      -1.55528487E-05
  -8.31999969      -1.55863454E-05
  -8.31000042      -1.56230144E-05
  -8.30000019      -1.56632686E-05
  -8.28999996      -1.57073337E-05
  -8.27999973      -1.57556478E-05
  -8.27000046      -1.58086641E-05
  -8.26000023      -1.58667190E-05
  -8.25000000      -1.59301926E-05
  -8.23999977      -1.59996434E-05
  -8.22999954      -1.60755153E-05
  -8.22000027      -1.61581538E-05
  -8.21000004      -1.62480264E-05
  -8.19999981      -1.63455825E-05
  -8.18999958      -1.64511148E-05
  -8.18000031      -1.65650999E-05
  -8.17000008      -1.66877780E-05
  -8.15999985      -1.68195238E-05
  -8.14999962      -1.69605628E-05
  -8.14000034      -1.71111606E-05
  -8.13000011      -1.72715409E-05
  -8.11999989      -1.74417128E-05
  -8.10999966      -1.76219201E-05
  -8.10000038      -1.78120245E-05
  -8.09000015      -1.80121770E-05
  -8.07999992      -1.82222902E-05
  -8.06999969      -1.84421842E-05
  -8.06000042      -1.86717680E-05
  -8.05000019      -1.89107159E-05
  -8.03999996      -1.91586732E-05
  -8.02999973      -1.94153727E-05
  -8.02000046      -1.96802303E-05
  -8.01000023      -1.99527640E-05
  -8.00000000      -2.02325573E-05
  -7.98999977      -2.05189099E-05
  -7.98000002      -2.08113652E-05
  -7.96999979      -2.11092447E-05
  -7.96000004      -2.14119609E-05
  -7.94999981      -2.17190227E-05
  -7.94000006      -2.20297698E-05
  -7.92999983      -2.23438310E-05
  -7.92000008      -2.26605480E-05
  -7.90999985      -2.29794859E-05
  -7.90000010      -2.33001410E-05
  -7.88999987      -2.36220985E-05
  -7.88000011      -2.39449473E-05
  -7.86999989      -2.42683345E-05
  -7.86000013      -2.45918964E-05
  -7.84999990      -2.49151853E-05
  -7.84000015      -2.52379123E-05
  -7.82999992      -2.55598370E-05
  -7.82000017      -2.58805412E-05
  -7.80999994      -2.61997284E-05
  -7.80000019      -2.65171766E-05
  -7.78999996      -2.68324911E-05
  -7.78000021      -2.71454628E-05
  -7.76999998      -2.74558570E-05
  -7.76000023      -2.77634917E-05
  -7.75000000      -2.80682816E-05
  -7.73999977      -2.83700338E-05
  -7.73000002      -2.86688428E-05
  -7.71999979      -2.89647160E-05
  -7.71000004      -2.92577479E-05
  -7.69999981      -2.95481495E-05
  -7.69000006      -2.98360956E-05
  -7.67999983      -3.01217278E-05
  -7.67000008      -3.04054247E-05
  -7.65999985      -3.06874281E-05
  -7.65000010      -3.09681127E-05
  -7.63999987      -3.12478587E-05
  -7.63000011      -3.15271755E-05
  -7.61999989      -3.18065904E-05
  -7.61000013      -3.20865984E-05
  -7.59999990      -3.23677741E-05
  -7.59000015      -3.26507070E-05
  -7.57999992      -3.29361137E-05
  -7.57000017      -3.32246454E-05
  -7.55999994      -3.35169352E-05
  -7.55000019      -3.38138780E-05
  -7.53999996      -3.41162740E-05
  -7.53000021      -3.44249493E-05
  -7.51999998      -3.47408131E-05
  -7.51000023      -3.50647133E-05
  -7.50000000      -3.53974065E-05
  -7.48999977      -3.57397694E-05
  -7.48000002      -3.60926024E-05
  -7.46999979      -3.64568041E-05
  -7.46000004      -3.68329529E-05
  -7.44999981      -3.72217655E-05
  -7.44000006      -3.76239550E-05