  -16.0000000       0.00000000    
  -15.9899998       0.00000000    
  -15.9799995       0.00000000    
  -15.9700003       0.00000000    
  -15.9600000       0.00000000    
  -15.9499998       0.00000000    
  -15.9399996       0.00000000    
  -15.9300003       0.00000000    
  -15.9200001       0.00000000    
  -15.9099998       0.00000000    
  -15.8999996       0.00000000    
  -15.8900003       0.00000000    
  -15.8800001       0.00000000    
  -15.8699999      -0.00000000    
  -15.8599997      -0.00000000    
  -15.8500004      -1.40129846E-45
  -15.8400002       2.94272678E-44
  -15.8299999       5.96953146E-43
  -15.8199997       5.69067306E-42
  -15.8100004       3.76388768E-41
  -15.8000002       1.93606198E-40
  -15.7900000       8.19958586E-40
  -15.7799997       2.95793927E-39
  -15.7700005       9.28744188E-39
  -15.7600002       2.57106375E-38
  -15.7500000       6.30361783E-38
  -15.7399998       1.35969089E-37
  -15.7299995       2.51150015E-37
  -15.7200003       3.66028979E-37
  -15.7100000       2.88978303E-37
  -15.6999998      -5.05601400E-37
  -15.6899996      -3.11602107E-36
  -15.6800003      -9.30468064E-36
  -15.6700001      -2.09274585E-35
  -15.6599998      -3.78419641E-35
  -15.6499996      -5.34663446E-35
  -15.6400003      -4.83066763E-35
  -15.6300001       1.52347957E-35
  -15.6199999       1.88809934E-34
  -15.6099997       5.12978893E-34
  -15.6000004       9.61213210E-34
  -15.5900002       1.35782096E-33
  -15.5799999       1.30420841E-33
  -15.5699997       1.84880581E-34
  -15.5600004      -2.65256527E-33
  -15.5500002      -7.46915208E-33
  -15.5400000      -1.34651482E-32
  -15.5299997      -1.80132137E-32
  -15.5200005      -1.61061857E-32
  -15.5100002      -5.35874492E-34
  -15.5000000       3.63757844E-32
  -15.4899998       9.82281695E-32
  -15.4799995       1.75637370E-31
  -15.4700003       2.32476413E-31
  -15.4600000       1.91224366E-31
  -15.4499998      -6.88046760E-32
  -15.4399996      -6.73046171E-31
  -15.4300003      -1.63848885E-30
  -15.4200001      -2.67118170E-30
  -15.4099998      -2.93306285E-30
  -15.3999996      -9.70663050E-31
  -15.3900003       4.85543678E-30
  -15.3800001       1.50805145E-29
  -15.3699999       2.69430076E-29
  -15.3599997       3.20806183E-29
  -15.3500004       1.61637417E-29
  -15.3400002      -3.64406709E-29
  -15.3299999      -1.30335467E-28
  -15.3199997      -2.39965093E-28
  -15.3100004      -2.91868640E-28
  -15.3000002      -1.65776009E-28
  -15.2900000       2.62501796E-28
  -15.2799997       1.02114327E-27
  -15.2700005       1.90006875E-27
  -15.2600002       2.33397017E-27
  -15.2500000       1.43620621E-27
  -15.2399998      -1.66945039E-27
  -15.2299995      -7.14516312E-27
  -15.2200003      -1.35009677E-26
  -15.2100000      -1.68919525E-26
  -15.1999998      -1.14425453E-26
  -15.1899996       8.55379367E-27
  -15.1800003       4.42333630E-26
  -15.1700001       8.65247293E-26
  -15.1599998       1.12111297E-25
  -15.1499996       8.54896760E-26
  -15.1400003      -2.83222019E-26
  -15.1300001      -2.38964778E-25
  -15.1199999      -4.99344516E-25
  -15.1099997      -6.82884049E-25
  -15.1000004      -5.92792485E-25
  -15.0900002      -2.65522261E-26
  -15.0799999       1.09687963E-24
  -15.0699997       2.57397484E-24
  -15.0600004       3.79096693E-24
  -15.0500002       3.74799965E-24
  -15.0400000       1.34611629E-24
  -15.0299997      -4.01940487E-24
  -15.0200005      -1.16689780E-23
  -15.0100002      -1.89707211E-23
  -15.0000000      -2.12952591E-23
  -14.9899998      -1.31186756E-23
  -14.9799995       9.46911554E-24
  -14.9700003       4.52166173E-23
  -14.9600000       8.43690903E-23
  -14.9499998       1.07596765E-22
  -14.9399996       8.94984217E-23
  -14.9300003       8.10778932E-24
  -14.9200001      -1.40472600E-22
  -14.9099998      -3.26630647E-22
  -14.8999996      -4.78797120E-22
  -14.8900003      -4.91446460E-22
  -14.8800001      -2.56709349E-22
  -14.8699999       2.80867703E-22
  -14.8599997       1.05930847E-21
  -14.8500004       1.85068596E-21
  -14.8400002       2.26481708E-21
  -14.8299999       1.83736100E-21
  -14.8199997       2.12462582E-22
  -14.8100004      -2.61080900E-21
  -14.8000002      -6.04962257E-21
  -14.7900000      -8.84890031E-21
  -14.7799997      -9.26217719E-21
  -14.7700005      -5.57828229E-21
  -14.7600002       3.04939426E-21
  -14.7500000       1.56827935E-20
  -14.7399998       2.89648019E-20
  -14.7299995       3.72294154E-20
  -14.7200003       3.37312072E-20
  -14.7100000       1.30664665E-20
  -14.6999998      -2.56405068E-20
  -14.6899996      -7.57889696E-20
  -14.6800003      -1.22026485E-19
  -14.6700001      -1.42108763E-19
  -14.6599998      -1.12754682E-19
  -14.6499996      -1.90699495E-20
  -14.6400003       1.34637965E-19
  -14.6300001       3.16528830E-19
  -14.6199999       4.66158306E-19
  -14.6099997       5.04761378E-19
  -14.6000004       3.58288061E-19
  -14.5900002      -9.99610450E-21
  -14.5799999      -5.65970417E-19
  -14.5699997      -1.18327969E-18
  -14.5600004      -1.64848586E-18
  -14.5500002      -1.70320252E-18
  -14.5400000      -1.12384832E-18
  -14.5299997       1.74847822E-19
  -14.5200005       2.04194084E-18
  -14.5100002       4.03825605E-18
  -14.5000000       5.47069753E-18
  -14.4899998       5.53812475E-18
  -14.4799995       3.58274505E-18
  -14.4700003      -6.01212860E-19
  -14.4600000      -6.49160136E-18
  -14.4499998      -1.27110247E-17
  -14.4399996      -1.71574183E-17
  -14.4300003      -1.74528078E-17
  -14.4200001      -1.16798324E-17
  -14.4099998       7.40558724E-19
  -14.3999996       1.82859342E-17
  -14.3900003       3.70005068E-17
  -14.3800001       5.08833933E-17
  -14.3699999       5.31454676E-17
  -14.3599997       3.82370624E-17
  -14.3500004       4.24359991E-18
  -14.3400002      -4.50337673E-17
  -14.3299999      -9.91438698E-17
  -14.3199997      -1.41946589E-16
  -14.3100004      -1.54850249E-16
  -14.3000002      -1.22075566E-16
  -14.2900000      -3.69237014E-17
  -14.2799997       9.26738748E-17
  -14.2700005       2.41418075E-16
  -14.2600002       3.68611216E-16
  -14.2500000       4.25829747E-16
  -14.2399998       3.69767945E-16
  -14.2299995       1.77850343E-16
  -14.2200003      -1.37489237E-16
  -14.2100000      -5.20886723E-16
  -14.1999998      -8.77095258E-16
  -14.1899996      -1.08757866E-15
  -14.1800003      -1.03972966E-15
  -14.1700001      -6.63495360E-16
  -14.1599998       3.37381197E-17
  -14.1499996       9.45383531E-16
  -14.1400003       1.86765556E-15
  -14.1300001       2.53173468E-15
  -14.1199999       2.66498376E-15
  -14.1099997       2.07086448E-15
  -14.1000004       7.08610294E-16
  -14.0900002      -1.25134644E-15
  -14.0799999      -3.41926618E-15
  -14.0699997      -5.24012316E-15
  -14.0600004      -6.10976512E-15
  -14.0500002      -5.53473224E-15
  -14.0400000      -3.29981145E-15
  -14.0299997       4.03358042E-16
  -14.0200005       4.93272940E-15
  -14.0100002       9.26909509E-15
  -14.0000000       1.22110065E-14
  -13.9899998       1.26623785E-14
  -13.9799995       9.95136827E-15
  -13.9700003       4.09799537E-15
  -13.9600000      -4.05330761E-15
  -13.9499998      -1.28978088E-14
  -13.9399996      -2.03488485E-14
  -13.9300003      -2.42919563E-14
  -13.9200001      -2.31216057E-14
  -13.9099998      -1.62305150E-14
  -13.8999996      -4.31538553E-15
  -13.8900003       1.06066118E-14
  -13.8800001       2.55122512E-14
  -13.8699999       3.69764339E-14
  -13.8599997       4.19439636E-14
  -13.8500004       3.84901190E-14
  -13.8400002       2.63781239E-14
  -13.8299999       7.25881571E-15
  -13.8199997      -1.55606204E-14
  -13.8100004      -3.77453128E-14
  -13.8000002      -5.48224186E-14
  -13.7900000      -6.31244189E-14
  -13.7799997      -6.05619138E-14
  -13.7700005      -4.70448570E-14
  -13.7600002      -2.44640310E-14
  -13.7500000       3.73929852E-15
  -13.7399998       3.32819438E-14
  -13.7299995       5.98287018E-14
  -13.7200003       7.96643296E-14
  -13.7100000       9.01073039E-14
  -13.6999998       8.96256471E-14
  -13.6899996       7.77227065E-14
  -13.6800003       5.47378169E-14
  -13.6700001       2.17246417E-14
  -13.6599998      -1.94800569E-14
  -13.6499996      -6.59907919E-14
  -13.6400003      -1.13527033E-13
  -13.6300001      -1.56200763E-13
  -13.6199999      -1.86681576E-13
  -13.6099997      -1.96924467E-13
  -13.6000004      -1.79500227E-13
  -13.5900002      -1.29376815E-13
  -13.5799999      -4.58105403E-14
  -13.5699997       6.61164171E-14
  -13.5600004       1.94790798E-13
  -13.5500002       3.22561937E-13
  -13.5400000       4.27579901E-13
  -13.5299997       4.86846403E-13
  -13.5200005       4.80074151E-13
  -13.5100002       3.93748050E-13
  -13.5000000       2.24699965E-13
  -13.4899998      -1.74545030E-14
  -13.4799995      -3.09517413E-13
  -13.4700003      -6.15837893E-13
  -13.4600000      -8.91426744E-13
  -13.4499998      -1.08689576E-12
  -13.4399996      -1.15487361E-12
  -13.4300003      -1.05737012E-12
  -13.4200001      -7.73374474E-13
  -13.4099998      -3.05765179E-13
  -13.3999996       3.13597618E-13
  -13.3900003       1.02186185E-12
  -13.3800001       1.72750497E-12
  -13.3699999       2.31792667E-12
  -13.3599997       2.67262623E-12
  -13.3500004       2.68127361E-12
  -13.3400002       2.26478840E-12
  -13.3299999       1.39631926E-12
  -13.3199997       1.18112958E-13
  -13.3100004      -1.45000255E-12
  -13.3000002      -3.11417992E-12
  -13.2900000      -4.62424500E-12
  -13.2799997      -5.70522319E-12
  -13.2700005      -6.09952150E-12
  -13.2600002      -5.61391385E-12
  -13.2500000      -4.16348163E-12
  -13.2399998      -1.80402882E-12
  -13.2299995       1.25455744E-12
  -13.2200003       4.65890087E-12
  -13.2100000       7.94776224E-12
  -13.1999998       1.06093832E-11
  -13.1899996       1.21531752E-11
  -13.1800003       1.21855035E-11
  -13.1700001       1.04781713E-11
  -13.1599998       7.01902208E-12
  -13.1499996       2.03669026E-12
  -13.1400003      -4.00476093E-12
  -13.1300001      -1.04415478E-11
  -13.1199999      -1.64727381E-11
  -13.1099997      -2.12436978E-11
  -13.1000004      -2.39427939E-11
  -13.0900002      -2.39031017E-11
  -13.0799999      -2.07007692E-11
  -13.0699997      -1.42410597E-11
  -13.0600004      -4.82253994E-12
  -13.0500002       6.83124694E-12
  -13.0400000       1.95836819E-11
  -13.0299997       3.19505568E-11
  -13.0200005       4.22254072E-11
  -13.0100002       4.86637466E-11
  -13.0000000       4.97152354E-11
  -12.9899998       4.42804057E-11
  -12.9799995       3.19573083E-11
  -12.9700003       1.32352332E-11
  -12.9600000      -1.04088214E-11
  -12.9499998      -3.65479799E-11
  -12.9399996      -6.19982746E-11
  -12.9300003      -8.31628447E-11
  -12.9200001      -9.64963734E-11
  -12.9099998      -9.90316787E-11
  -12.8999996      -8.88911930E-11
  -12.8900003      -6.56986063E-11
  -12.8800001      -3.08135739E-11
  -12.8699999       1.26648613E-11
  -12.8599997       6.01469638E-11
  -12.8500004       1.06033633E-10
  -12.8400002       1.44373374E-10
  -12.8299999       1.69608425E-10
  -12.8199997       1.77309112E-10
  -12.8100004       1.64797079E-10
  -12.8000002       1.31576139E-10
  -12.7900000       7.95176772E-11
  -12.7799997       1.27815666E-11
  -12.7700005      -6.25141050E-11
  -12.7600002      -1.38835277E-10
  -12.7500000      -2.07931714E-10
  -12.7399998      -2.61632355E-10
  -12.7299995      -2.92673191E-10
  -12.7200003      -2.95497266E-10
  -12.7100000      -2.66965949E-10
  -12.6999998      -2.06918288E-10
  -12.6899996      -1.18512505E-10
  -12.6800003      -8.28105293E-12
  -12.6700001       1.14160556E-10
  -12.6599998       2.36788061E-10
  -12.6499996       3.46225881E-10
  -12.6400003       4.29130648E-10
  -12.6300001       4.73780015E-10
  -12.6199999       4.71686967E-10
  -12.6099997       4.19014434E-10
  -12.6000004       3.17552956E-10
  -12.5900002       1.75054971E-10
  -12.5799999       4.78838410E-12
  -12.5699997      -1.75717732E-10
  -12.5600004      -3.46634721E-10
  -12.5500002      -4.88275365E-10
  -12.5400000      -5.83686210E-10
  -12.5299997      -6.21013185E-10
  -12.5200005      -5.95269223E-10
  -12.5100002      -5.09207843E-10
  -12.5000000      -3.73135689E-10
  -12.4899998      -2.03651290E-10
  -12.4799995      -2.14625557E-11
  -12.4700003       1.51428745E-10
  -12.4600000       2.94801544E-10
  -12.4499998       3.93148181E-10
  -12.4399996       4.38101860E-10
  -12.4300003       4.30080638E-10
  -12.4200001       3.78985010E-10
  -12.4099998       3.03900183E-10
  -12.3999996       2.31855826E-10
  -12.3900003       1.95767250E-10
  -12.3800001       2.31715105E-10
  -12.3699999       3.75737386E-10
  -12.3599997       6.60321242E-10
  -12.3500004       1.11078868E-09
  -12.3400002       1.74180836E-09
  -12.3299999       2.55430654E-09
  -12.3199997       3.53311513E-09
  -12.3100004       4.64570382E-09
  -12.3000002       5.84233284E-09
  -12.2900000       7.05785297E-09
  -12.2799997       8.21527735E-09
  -12.2700005       9.23095289E-09
  -12.2600002       1.00209574E-08
  -12.2500000       1.05080762E-08
  -12.2399998       1.06285727E-08
  -12.2299995       1.03379332E-08
  -12.2200003       9.61477387E-09
  -12.2100000       8.46246717E-09
  -12.1999998       6.90814961E-09
  -12.1899996       4.99936847E-09
  -12.1800003       2.79883183E-09
  -12.1700001       3.78062137E-10
  -12.1599998      -2.18922303E-09
  -12.1499996      -4.83311924E-09
  -12.1400003      -7.49220685E-09
  -12.1300001      -1.01165991E-08
  -12.1199999      -1.26691591E-08
  -12.1099997      -1.51251527E-08
  -12.1000004      -1.74706685E-08
  -12.0900002      -1.97002592E-08
  -12.0799999      -2.18142269E-08
  -12.0699997      -2.38158862E-08
  -12.0600004      -2.57089141E-08
  -12.0500002      -2.74949148E-08
  -12.0400000      -2.91711544E-08
  -12.0299997      -3.07284225E-08
  -12.0200005      -3.21492664E-08
  -12.0100002      -3.34066321E-08
  -12.0000000      -3.44632163E-08
  -11.9899998      -3.52718956E-08
  -11.9799995      -3.57773757E-08
  -11.9700003      -3.59191326E-08
  -11.9600000      -3.56354626E-08
  -11.9499998      -3.48682114E-08
  -11.9399996      -3.35676766E-08
  -11.9300003      -3.16968816E-08
  -11.9200001      -2.92346538E-08
  -11.9099998      -2.61770339E-08
  -11.8999996      -2.25369856E-08
  -11.8900003      -1.83424049E-08
  -11.8800001      -1.36326870E-08
  -11.8699999      -8.45530845E-09
  -11.8599997      -2.86198221E-09
  -11.8500004       3.09402792E-09
  -11.8400002       9.35966327E-09
  -11.8299999       1.58822608E-08
  -11.8199997       2.26089014E-08
  -11.8100004       2.94846902E-08
  -11.8000002       3.64512047E-08
  -11.7900000       4.34451124E-08
  -11.7799997       5.03975883E-08
  -11.7700005       5.72348640E-08
  -11.7600002       6.38797175E-08
  -11.7500000       7.02538827E-08
  -11.7399998       7.62807346E-08
  -11.7299995       8.18881531E-08
  -11.7200003       8.70107684E-08
  -11.7100000       9.15918008E-08
  -11.6999998       9.55838857E-08
  -11.6899996       9.89492364E-08
  -11.6800003       1.01659218E-07
  -11.6700001       1.03693516E-07
  -11.6599998       1.05039092E-07
  -11.6499996       1.05688962E-07
  -11.6400003       1.05640979E-07
  -11.6300001       1.04896444E-07
  -11.6199999       1.03458547E-07
  -11.6099997       1.01330279E-07
  -11.6000004       9.85121744E-08
  -11.5900002       9.50000967E-08
  -11.5799999       9.07827129E-08
  -11.5699997       8.58400426E-08
  -11.5600004       8.01425202E-08
  -11.5500002       7.36516412E-08
  -11.5400000       6.63219311E-08
  -11.5299997       5.81042663E-08
  -11.5200005       4.89508452E-08
  -11.5100002       3.88200654E-08
  -11.5000000       2.76825336E-08
  -11.4899998       1.55259769E-08
  -11.4799995       2.35902364E-09
  -11.4700003      -1.17857706E-08
  -11.4600000      -2.68510210E-08
  -11.4499998      -4.27546887E-08
  -11.4399996      -5.93917946E-08
  -11.4300003      -7.66375905E-08
  -11.4200001      -9.43509022E-08
  -11.4099998      -1.12378856E-07
  -11.3999996      -1.30561517E-07
  -11.3900003      -1.48737456E-07
  -11.3800001      -1.66749686E-07
  -11.3699999      -1.84451181E-07
  -11.3599997      -2.01711217E-07
  -11.3500004      -2.18420880E-07
  -11.3400002      -2.34498103E-07
  -11.3299999      -2.49891116E-07
  -11.3199997      -2.64580507E-07
  -11.3100004      -2.78579250E-07
  -11.3000002      -2.91930291E-07
  -11.2900000      -3.04702297E-07
  -11.2799997      -3.16983318E-07
  -11.2700005      -3.28873199E-07
  -11.2600002      -3.40474742E-07
  -11.2500000      -3.51885063E-07
  -11.2399998      -3.63186757E-07
  -11.2299995      -3.74440418E-07
  -11.2200003      -3.85678334E-07
  -11.2100000      -3.96900276E-07
  -11.1999998      -4.08070633E-07
  -11.1899996      -4.19118095E-07
  -11.1800003      -4.29939206E-07
  -11.1700001      -4.40400385E-07
  -11.1599998      -4.50346249E-07
  -11.1499996      -4.59606696E-07
  -11.1400003      -4.68005283E-07
  -11.1300001      -4.75370058E-07
  -11.1199999      -4.81541520E-07
  -11.1099997      -4.86380827E-07
  -11.1000004      -4.89778984E-07
  -11.0900002      -4.91661297E-07
  -11.0799999      -4.91988317E-07
  -11.0699997      -4.90764023E-07
  -11.0600004      -4.88029855E-07
  -11.0500002      -4.83867780E-07
  -11.0400000      -4.78396089E-07
  -11.0299997      -4.71763713E-07
  -11.0200005      -4.64146211E-07
  -11.0100002      -4.55738530E-07
  -11.0000000      -4.46745304E-07
  -10.9899998      -4.37372961E-07
  -10.9799995      -4.27817184E-07
  -10.9700003      -4.18253222E-07
  -10.9600000      -4.08824889E-07
  -10.9499998      -3.99636434E-07
  -10.9399996      -3.90742684E-07
  -10.9300003      -3.82145288E-07
  -10.9200001      -3.73795189E-07
  -10.9099998      -3.65586914E-07
  -10.8999996      -3.57372897E-07
  -10.8900003      -3.48965017E-07
  -10.8800001      -3.40149256E-07
  -10.8699999      -3.30689971E-07
  -10.8599997      -3.20348391E-07
  -10.8500004      -3.08892936E-07
  -10.8400002      -2.96105867E-07
  -10.8299999      -2.81798378E-07
  -10.8199997      -2.65814606E-07
  -10.8100004      -2.48042880E-07
  -10.8000002      -2.28417875E-07
  -10.7900000      -2.06925620E-07
  -10.7799997      -1.83603390E-07
  -10.7700005      -1.58539464E-07
  -10.7600002      -1.31865889E-07
  -10.7500000      -1.03759533E-07
  -10.7399998      -7.44237099E-08
  -10.7299995      -4.40839329E-08
  -10.7200003      -1.29723841E-08
  -10.7100000       1.86810372E-08
  -10.6999998       5.06623685E-08
  -10.6899996       8.27803461E-08
  -10.6800003       1.14875789E-07
  -10.6700001       1.46823496E-07
  -10.6599998       1.78539906E-07
  -10.6499996       2.09972555E-07
  -10.6400003       2.41108978E-07
  -10.6300001       2.71969469E-07
  -10.6199999       3.02604832E-07
  -10.6099997       3.33089815E-07
  -10.6000004       3.63526851E-07
  -10.5900002       3.94030849E-07
  -10.5799999       4.24735390E-07
  -10.5699997       4.55777865E-07
  -10.5600004       4.87298053E-07
  -10.5500002       5.19426237E-07
  -10.5400000       5.52280198E-07
  -10.5299997       5.85954808E-07
  -10.5200005       6.20511230E-07
  -10.5100002       6.55979818E-07
  -10.5000000       6.92348124E-07
  -10.4899998       7.29566693E-07
  -10.4799995       7.67543156E-07
  -10.4700003       8.06148421E-07
  -10.4600000       8.45213322E-07
  -10.4499998       8.84541691E-07
  -10.4399996       9.23904793E-07
  -10.4300003       9.63052230E-07
  -10.4200001       1.00171712E-06
  -10.4099998       1.03962225E-06
  -10.3999996       1.07648816E-06
  -10.3900003       1.11204110E-06
  -10.3800001       1.14601994E-06
  -10.3699999       1.17818627E-06
  -10.3599997       1.20832908E-06
  -10.3500004       1.23627115E-06
  -10.3400002       1.26187251E-06
  -10.3299999       1.28503370E-06
  -10.3199997       1.30569651E-06
  -10.3100004       1.32384605E-06
  -10.3000002       1.33950925E-06
  -10.2900000       1.35275275E-06
  -10.2799997       1.36368271E-06
  -10.2700005       1.37243944E-06
  -10.2600002       1.37919233E-06
  -10.2500000       1.38413350E-06
  -10.2399998       1.38747043E-06
  -10.2299995       1.38941857E-06
  -10.2200003       1.39019244E-06
  -10.2100000       1.39000008E-06
  -10.1999998       1.38903749E-06
  -10.1899996       1.38748362E-06
  -10.1800003       1.38549967E-06
  -10.1700001       1.38322662E-06
  -10.1599998       1.38078690E-06
  -10.1499996       1.37828420E-06
  -10.1400003       1.37580616E-06
  -10.1300001       1.37342465E-06
  -10.1199999       1.37119969E-06
  -10.1099997       1.36918015E-06
  -10.1000004       1.36740539E-06
  -10.0900002       1.36590825E-06
  -10.0799999       1.36471579E-06
  -10.0699997       1.36384756E-06
  -10.0600004       1.36331710E-06
  -10.0500002       1.36313145E-06
  -10.0400000       1.36328845E-06
  -10.0299997       1.36377480E-06
  -10.0200005       1.36456845E-06
  -10.0100002       1.36563472E-06
  -10.0000000       1.36692984E-06
  -9.98999977       1.36840140E-06
  -9.97999954       1.36999358E-06
  -9.97000027       1.37164773E-06
  -9.96000004       1.37331017E-06
  -9.94999981       1.37493339E-06
  -9.93999958       1.37648578E-06
  -9.93000031       1.37795121E-06
  -9.92000008       1.37933728E-06
  -9.90999985       1.38067878E-06
  -9.89999962       1.38203870E-06
  -9.89000034       1.38350811E-06
  -9.88000011       1.38520670E-06
  -9.86999989       1.38727466E-06
  -9.85999966       1.38987332E-06
  -9.85000038       1.39317740E-06
  -9.84000015       1.39736562E-06
  -9.82999992       1.40262352E-06
  -9.81999969       1.40913585E-06
  -9.81000042       1.41708711E-06
  -9.80000019       1.42666147E-06
  -9.78999996       1.43804425E-06
  -9.77999973       1.45141917E-06
  -9.77000046       1.46697028E-06
  -9.76000023       1.48487868E-06
  -9.75000000       1.50531389E-06
  -9.73999977       1.52842836E-06
  -9.72999954       1.55434975E-06
  -9.72000027       1.58317903E-06
  -9.71000004       1.61496666E-06
  -9.69999981       1.64972971E-06
  -9.68999958       1.68742963E-06
  -9.68000031       1.72797547E-06
  -9.67000008       1.77122433E-06
  -9.65999985       1.81697806E-06
  -9.64999962       1.86498937E-06
  -9.64000034       1.91496088E-06
  -9.63000011       1.96655697E-06
  -9.61999989       2.01941157E-06
  -9.60999966       2.07312382E-06
  -9.60000038       2.12728150E-06
  -9.59000015       2.18146624E-06
  -9.57999992       2.23525285E-06
  -9.56999969       2.28822523E-06
  -9.56000042       2.33997434E-06
  -9.55000019       2.39010456E-06
  -9.53999996       2.43823547E-06
  -9.52999973       2.48399715E-06
  -9.52000046       2.52705058E-06
  -9.51000023       2.56706016E-06
  -9.50000000       2.60372622E-06
  -9.48999977       2.63677816E-06
  -9.47999954       2.66597999E-06
  -9.47000027       2.69113775E-06
  -9.46000004       2.71211070E-06
  -9.44999981       2.72880811E-06
  -9.43999958       2.74120634E-06
  -9.43000031       2.74933905E-06
  -9.42000008       2.75331740E-06
  -9.40999985       2.75331149E-06
  -9.39999962       2.74956710E-06
  -9.39000034       2.74239892E-06
  -9.38000011       2.73220189E-06
  -9.36999989       2.71942395E-06
  -9.35999966       2.70459441E-06
  -9.35000038       2.68830308E-06
  -9.34000015       2.67119913E-06
  -9.32999992       2.65398830E-06
  -9.31999969       2.63743391E-06
  -9.31000042       2.62232220E-06
  -9.30000019       2.60948946E-06
  -9.28999996       2.59978265E-06
  -9.27999973       2.59406443E-06
  -9.27000046       2.59320382E-06
  -9.26000023       2.59804688E-06
  -9.25000000       2.60942829E-06
  -9.23999977       2.62813842E-06
  -9.22999954       2.65491394E-06
  -9.22000027       2.69042016E-06
  -9.21000004       2.73524120E-06
  -9.19999981       2.78987454E-06
  -9.18999958       2.85470264E-06
  -9.18000031       2.93000835E-06
  -9.17000008       3.01595924E-06
  -9.15999985       3.11260237E-06
  -9.14999962       3.21988250E-06
  -9.14000034       3.33763182E-06
  -9.13000011       3.46557567E-06
  -9.11999989       3.60333797E-06
  -9.10999966       3.75044101E-06
  -9.10000038       3.90631385E-06
  -9.09000015       4.07028847E-06
  -9.07999992       4.24161908E-06
  -9.06999969       4.41947714E-06
  -9.06000042       4.60295223E-06
  -9.05000019       4.79107484E-06
  -9.03999996       4.98282179E-06
  -9.02999973       5.17711533E-06
  -9.02000046       5.37283540E-06
  -9.01000023       5.56882787E-06
  -9.00000000       5.76390994E-06
  -8.98999977       5.95688607E-06
  -8.97999954       6.14657256E-06
  -8.97000027       6.33177888E-06
  -8.96000004       6.51135861E-06
  -8.94999981       6.68420125E-06
  -8.93999958       6.84923498E-06
  -8.93000031       7.00544751E-06
  -8.92000008       7.15186752E-06
  -8.90999985       7.28759687E-06
  -8.89999962       7.41177200E-06
  -8.89000034       7.52356891E-06
  -8.88000011       7.62224590E-06
  -8.86999989       7.70708721E-06
  -8.85999966       7.77745845E-06
  -8.85000038       7.83281757E-06
  -8.84000015       7.87270892E-06
  -8.82999992       7.89676506E-06
  -8.81999969       7.90472222E-06
  -8.81000042       7.89644400E-06
  -8.80000019       7.87185945E-06
  -8.78999996       7.83103951E-06
  -8.77999973       7.77413879E-06
  -8.77000046       7.70143015E-06
  -8.76000023       7.61326419E-06
  -8.75000000       7.51011294E-06
  -8.73999977       7.39252164E-06
  -8.72999954       7.26112876E-06
  -8.72000027       7.11662142E-06
  -8.71000004       6.95973358E-06
  -8.69999981       6.79123104E-06
  -8.68999958       6.61189733E-06
  -8.68000031       6.42251598E-06
  -8.67000008       6.22387233E-06
  -8.65999985       6.01672355E-06
  -8.64999962       5.80186270E-06
  -8.64000034       5.58006468E-06
  -8.63000011       5.35210711E-06
  -8.61999989       5.11877943E-06
  -8.60999966       4.88085698E-06
  -8.60000038       4.63908100E-06
  -8.59000015       4.39419046E-06
  -8.57999992       4.14689111E-06
  -8.56999969       3.89784054E-06
  -8.56000042       3.64765401E-06
  -8.55000019       3.39693338E-06
  -8.53999996       3.14620775E-06
  -8.52999973       2.89597892E-06
  -8.52000046       2.64670985E-06
  -8.51000023       2.39880592E-06
  -8.50000000       2.15264640E-06
  -8.48999977       1.90852757E-06
  -8.47999954       1.66673260E-06
  -8.47000027       1.42747137E-06
  -8.46000004       1.19094602E-06
  -8.44999981       9.57331281E-07
  -8.43999958       7.26757492E-07
  -8.43000031       4.99398482E-07
  -8.42000008       2.75362567E-07
  -8.40999985       5.48417916E-08
  -8.39999962      -1.62025870E-07
  -8.39000034      -3.75041594E-07
  -8.38000011      -5.84010706E-07
  -8.36999989      -7.88704824E-07
  -8.35999966      -9.88849479E-07
  -8.35000038      -1.18417051E-06
  -8.34000015      -1.37432255E-06
  -8.32999992      -1.55895759E-06
  -8.31999969      -1.73767501E-06
  -8.31000042      -1.91006438E-06
  -8.30000019      -2.07569542E-06
  -8.28999996      -2.23410620E-06
  -8.27999973      -2.38486496E-06
  -8.27000046      -2.52751533E-06
  -8.26000023      -2.66157804E-06
  -8.25000000      -2.78659672E-06
  -8.23999977      -2.90208709E-06
  -8.22999954      -3.00755300E-06
  -8.22000027      -3.10249675E-06
  -8.21000004      -3.18641992E-06
  -8.19999981      -3.25882502E-06
  -8.18999958      -3.31922229E-06
  -8.18000031      -3.36714538E-06
  -8.17000008      -3.40212659E-06
  -8.15999985      -3.42374574E-06
  -8.14999962      -3.43157490E-06
  -8.14000034      -3.42521912E-06
  -8.13000011      -3.40427914E-06
  -8.11999989      -3.36840048E-06
  -8.10999966      -3.31721003E-06
  -8.10000038      -3.25037627E-06
  -8.09000015      -3.16758997E-06
  -8.07999992      -3.06858783E-06
  -8.06999969      -2.95315181E-06
  -8.06000042      -2.82111091E-06
  -8.05000019      -2.67234986E-06
  -8.03999996      -2.50679454E-06
  -8.02999973      -2.32444381E-06
  -8.02000046      -2.12531768E-06
  -8.01000023      -1.90949208E-06
  -8.00000000      -1.67712358E-06
  -7.98999977      -1.42840156E-06
  -7.98000002      -1.16360945E-06
  -7.96999979      -8.83107077E-07
  -7.96000004      -5.87343891E-07
  -7.94999981      -2.76849789E-07
  -7.94000006       4.77640327E-08
  -7.92999983       3.85815724E-07
  -7.92000008       7.36554512E-07
  -7.90999985       1.09916937E-06
  -7.90000010       1.47280025E-06
  -7.88999987       1.85651697E-06
  -7.88000011       2.24933365E-06
  -7.86999989       2.65021617E-06
  -7.86000013       3.05807816E-06
  -7.84999990       3.47180435E-06
  -7.84000015       3.89028037E-06
  -7.82999992       4.31237868E-06
  -7.82000017       4.73704449E-06
  -7.80999994       5.16323280E-06
  -7.80000019       5.58994816E-06
  -7.78999996       6.01623606E-06
  -7.78000021       6.44119837E-06
  -7.76999998       6.86394287E-06
  -7.76000023       7.28364967E-06
  -7.75000000       7.69951475E-06
  -7.73999977       8.11080463E-06
  -7.73000002       8.51684763E-06
  -7.71999979       8.91704167E-06
  -7.71000004       9.31087015E-06
  -7.69999981       9.69788471E-06
  -7.69000006       1.00776851E-05
  -7.67999983       1.04499341E-05
  -7.67000008       1.08143176E-05
  -7.65999985       1.11705585E-05
  -7.65000010       1.15184012E-05
  -7.63999987       1.18576345E-05
  -7.63000011       1.21880830E-05
  -7.61999989       1.25096522E-05
  -7.61000013       1.28222810E-05
  -7.59999990       1.31259685E-05
  -7.59000015       1.34207776E-05
  -7.57999992       1.37068046E-05
  -7.57000017       1.39842168E-05
  -7.55999994       1.42531781E-05
  -7.55000019       1.45139393E-05
  -7.53999996       1.47667406E-05
  -7.53000021       1.50119340E-05
  -7.51999998       1.52498915E-05
  -7.51000023       1.54810623E-05
  -7.50000000       1.57059148E-05
  -7.48999977       1.59249994E-05
  -7.48000002       1.61388343E-05
  -7.46999979       1.63479799E-05
  -7.46000004       1.65529927E-05
  -7.44999981       1.67544313E-05
  -7.44000006       1.69528248E-05