  -16.0000000       0.00000000    
  -15.9899998       0.00000000    
  -15.9799995       0.00000000    
  -15.9700003       0.00000000    
  -15.9600000       0.00000000    
  -15.9499998       0.00000000    
  -15.9399996       0.00000000    
  -15.9300003       0.00000000    
  -15.9200001       0.00000000    
  -15.9099998       0.00000000    
  -15.8999996       0.00000000    
  -15.8900003       0.00000000    
  -15.8800001       0.00000000    
  -15.8699999      -0.00000000    
  -15.8599997      -0.00000000    
  -15.8500004      -4.20389539E-45
  -15.8400002      -2.52233724E-44
  -15.8299999      -1.55544130E-43
  -15.8199997      -7.80523245E-43
  -15.8100004      -3.25241374E-42
  -15.8000002      -1.13168864E-41
  -15.7900000      -3.23419686E-41
  -15.7799997      -7.10192075E-41
  -15.7700005      -8.88745525E-41
  -15.7600002       1.38962565E-40
  -15.7500000       1.39788350E-39
  -15.7399998       5.78510937E-39
  -15.7299995       1.77887637E-38
  -15.7200003       4.49303483E-38
  -15.7100000       9.56878562E-38
  -15.6999998       1.70350507E-37
  -15.6899996       2.39561882E-37
  -15.6800003       2.09626134E-37
  -15.6700001      -1.11131264E-37
  -15.6599998      -1.00166877E-36
  -15.6499996      -2.69709749E-36
  -15.6400003      -5.05950662E-36
  -15.6300001      -7.06642359E-36
  -15.6199999      -6.38248806E-36
  -15.6099997       3.38042448E-37
  -15.6000004       1.54985917E-35
  -15.5900002       3.64236625E-35
  -15.5799999       5.02495366E-35
  -15.5699997       3.23866200E-35
  -15.5600004      -4.33591595E-35
  -15.5500002      -1.75235604E-34
  -15.5400000      -2.87306064E-34
  -15.5299997      -1.94585021E-34
  -15.5200005       3.57926665E-34
  -15.5100002       1.50236489E-33
  -15.5000000       2.87008535E-33
  -15.4899998       3.16361897E-33
  -15.4799995       9.41543826E-35
  -15.4700003      -8.64254377E-33
  -15.4600000      -2.27714062E-32
  -15.4499998      -3.55250879E-32
  -15.4399996      -3.06219922E-32
  -15.4300003       1.52286336E-32
  -15.4200001       1.18514845E-31
  -15.4099998       2.61220588E-31
  -15.3999996       3.57126798E-31
  -15.3900003       2.37453526E-31
  -15.3800001      -3.02049315E-31
  -15.3699999      -1.35167124E-30
  -15.3599997      -2.63731618E-30
  -15.3500004      -3.26802777E-30
  -15.3400002      -1.71460107E-30
  -15.3299999       3.65290380E-30
  -15.3199997       1.32212443E-29
  -15.3100004       2.41377748E-29
  -15.3000002       2.85809930E-29
  -15.2900000       1.41238388E-29
  -15.2799997      -3.15368200E-29
  -15.2700005      -1.10134809E-28
  -15.2600002      -1.98435315E-28
  -15.2500000      -2.36897063E-28
  -15.2399998      -1.33991448E-28
  -15.2299995       1.99359557E-28
  -15.2200003       7.78090479E-28
  -15.2100000       1.44759655E-27
  -15.1999998       1.81063068E-27
  -15.1899996       1.25464157E-27
  -15.1800003      -8.34439867E-28
  -15.1700001      -4.63244199E-27
  -15.1599998      -9.29300102E-27
  -15.1499996      -1.24843370E-26
  -15.1400003      -1.04880336E-26
  -15.1300001       6.57593179E-28
  -15.1199999       2.27346801E-26
  -15.1099997       5.20449935E-26
  -15.1000004       7.65851312E-26
  -15.0900002       7.59781952E-26
  -15.0799999       2.67148516E-26
  -15.0699997      -8.58659441E-26
  -15.0600004      -2.50428973E-25
  -15.0500002      -4.13481813E-25
  -15.0400000      -4.74984836E-25
  -15.0299997      -3.08384784E-25
  -15.0200005       1.86545007E-25
  -15.0100002       1.00242547E-24
  -15.0000000       1.93924217E-24
  -14.9899998       2.56206560E-24
  -14.9799995       2.25972500E-24
  -14.9700003       4.49802227E-25
  -14.9600000      -3.07305341E-24
  -14.9499998      -7.73122262E-24
  -14.9399996      -1.18820375E-23
  -14.9300003      -1.29056532E-23
  -14.9200001      -7.88524929E-24
  -14.9099998       5.05943751E-24
  -14.8999996       2.50307821E-23
  -14.8900003       4.68364832E-23
  -14.8800001       6.06450579E-23
  -14.8699999       5.37923746E-23
  -14.8599997       1.52618174E-23
  -14.8500004      -5.76617626E-23
  -14.8400002      -1.52490650E-22
  -14.8299999      -2.37671775E-22
  -14.8199997      -2.65617242E-22
  -14.8100004      -1.85486442E-22
  -14.8000002       3.44317590E-23
  -14.7900000       3.79641999E-22
  -14.7799997       7.67780472E-22
  -14.7700005       1.04588416E-21
  -14.7600002       1.01904713E-21
  -14.7500000       5.15363006E-22
  -14.7399998      -5.22068601E-22
  -14.7299995      -1.94298243E-21
  -14.7200003      -3.33954240E-21
  -14.7100000      -4.08351361E-21
  -14.6999998      -3.48202406E-21
  -14.6899996      -1.04629553E-21
  -14.6800003       3.18548183E-21
  -14.6700001       8.38431077E-21
  -14.6599998       1.28707890E-20
  -14.6499996       1.43893254E-20
  -14.6400003       1.07661038E-20
  -14.6300001       8.60810068E-22
  -14.6199999      -1.44464299E-20
  -14.6099997      -3.16295093E-20
  -14.6000004      -4.46838928E-20
  -14.5900002      -4.63887314E-20
  -14.5799999      -3.06503181E-20
  -14.5699997       4.53628877E-21
  -14.5600004       5.44283680E-20
  -14.5500002       1.06380603E-19
  -14.5400000       1.41308414E-19
  -14.5299997       1.38310906E-19
  -14.5200005       8.19681833E-20
  -14.5100002      -2.94272896E-20
  -14.5000000      -1.77517393E-19
  -14.4899998      -3.22608711E-19
  -14.4799995      -4.09988684E-19
  -14.4700003      -3.84386333E-19
  -14.4600000      -2.10239869E-19
  -14.4499998       1.07644283E-19
  -14.4399996       5.10604892E-19
  -14.4300003       8.87435654E-19
  -14.4200001       1.09533106E-18
  -14.4099998       9.99741138E-19
  -14.3999996       5.25204423E-19
  -14.3900003      -2.97479687E-19
  -14.3800001      -1.30592959E-18
  -14.3699999      -2.21896741E-18
  -14.3599997      -2.69530351E-18
  -14.3500004      -2.43197635E-18
  -14.3400002      -1.28036733E-18
  -14.3299999       6.55355502E-19
  -14.3199997       2.97684870E-18
  -14.3100004       5.03835422E-18
  -14.3000002       6.09099903E-18
  -14.2900000       5.50288644E-18
  -14.2799997       3.00113100E-18
  -14.2700005      -1.14011793E-18
  -14.2600002      -6.04339148E-18
  -14.2500000      -1.03564824E-17
  -14.2399998      -1.25701137E-17
  -14.2299995      -1.14662842E-17
  -14.2200003      -6.58085333E-18
  -14.2100000       1.46864418E-18
  -14.1999998       1.09288972E-17
  -14.1899996       1.92104641E-17
  -14.1800003       2.35223266E-17
  -14.1700001       2.17082385E-17
  -14.1599998       1.30572089E-17
  -14.1499996      -1.17860850E-18
  -14.1400003      -1.77844129E-17
  -14.1300001      -3.22040868E-17
  -14.1199999      -3.97036966E-17
  -14.1099997      -3.68083230E-17
  -14.1000004      -2.26051620E-17
  -14.0900002       5.25219467E-19
  -14.0799999       2.70824127E-17
  -14.0699997       4.96258174E-17
  -14.0600004       6.07576336E-17
  -14.0500002       5.54165019E-17
  -14.0400000       3.28093878E-17
  -14.0299997      -2.68364295E-18
  -14.0200005      -4.20770565E-17
  -14.0100002      -7.38684198E-17
  -14.0000000      -8.72243824E-17
  -13.9899998      -7.54323404E-17
  -13.9799995      -3.85808023E-17
  -13.9700003       1.54766618E-17
  -13.9600000       7.24176377E-17
  -13.9499998       1.14925271E-16
  -13.9399996       1.27573670E-16
  -13.9300003       1.01820322E-16
  -13.9200001       3.95975396E-17
  -13.9099998      -4.57720425E-17
  -13.8999996      -1.31960441E-16
  -13.8900003      -1.93026037E-16
  -13.8800001      -2.06583924E-16
  -13.8699999      -1.60853833E-16
  -13.8599997      -5.95073468E-17
  -13.8500004       7.73469856E-17
  -13.8400002       2.16752462E-16
  -13.8299999       3.20531084E-16
  -13.8199997       3.55205040E-16
  -13.8100004       3.01656729E-16
  -13.8000002       1.61823699E-16
  -13.7900000      -3.96665099E-17
  -13.7799997      -2.59773517E-16
  -13.7700005      -4.46516383E-16
  -13.7600002      -5.51458153E-16
  -13.7500000      -5.42075411E-16
  -13.7399998      -4.10754493E-16
  -13.7299995      -1.77916968E-16
  -13.7200003       1.11746463E-16
  -13.7100000       3.99149162E-16
  -13.6999998       6.24355450E-16
  -13.6899996       7.40352694E-16
  -13.6800003       7.23511615E-16
  -13.6700001       5.78086540E-16
  -13.6599998       3.33743607E-16
  -13.6499996       3.70385372E-17
  -13.6400003      -2.60564699E-16
  -13.6300001      -5.14612114E-16
  -13.6199999      -6.96114069E-16
  -13.6099997      -7.94281800E-16
  -13.6000004      -8.13158935E-16
  -13.5900002      -7.63795072E-16
  -13.5799999      -6.55175273E-16
  -13.5699997      -4.87691237E-16
  -13.5600004      -2.52255094E-16
  -13.5500002       6.36735908E-17
  -13.5400000       4.64380096E-16
  -13.5299997       9.32155100E-16
  -13.5200005       1.41672137E-15
  -13.5100002       1.83305257E-15
  -13.5000000       2.07110736E-15
  -13.4899998       2.01780168E-15
  -13.4799995       1.58765113E-15
  -13.4700003       7.54962425E-16
  -13.4600000      -4.21549637E-16
  -13.4499998      -1.79053469E-15
  -13.4399996      -3.12200759E-15
  -13.4300003      -4.14430012E-15
  -13.4200001      -4.59852408E-15
  -13.4099998      -4.29953077E-15
  -13.3999996      -3.18899350E-15
  -13.3900003      -1.36628574E-15
  -13.3800001       9.13255465E-16
  -13.3699999       3.27602338E-15
  -13.3599997       5.29837997E-15
  -13.3500004       6.59185731E-15
  -13.3400002       6.88637998E-15
  -13.3299999       6.09163776E-15
  -13.3199997       4.32091327E-15
  -13.3100004       1.87017993E-15
  -13.3000002      -8.43899137E-16
  -13.2900000      -3.37294004E-15
  -13.2799997      -5.33142146E-15
  -13.2700005      -6.47358948E-15
  -13.2600002      -6.73358540E-15
  -13.2500000      -6.21910733E-15
  -13.2399998      -5.16128134E-15
  -13.2299995      -3.83537662E-15
  -13.2200003      -2.47537607E-15
  -13.2100000      -1.20753599E-15
  -13.1999998      -2.32668734E-17
  -13.1899996       1.19920193E-15
  -13.1800003       2.62903060E-15
  -13.1700001       4.39112256E-15
  -13.1599998       6.47610390E-15
  -13.1499996       8.68145582E-15
  -13.1400003       1.06070277E-14
  -13.1300001       1.17148790E-14
  -13.1199999       1.14461121E-14
  -13.1099997       9.37054931E-15
  -13.1000004       5.33339462E-15
  -13.0900002      -4.40337622E-16
  -13.0799999      -7.31622845E-15
  -13.0699997      -1.43128476E-14
  -13.0600004      -2.02523037E-14
  -13.0500002      -2.39737124E-14
  -13.0400000      -2.45675079E-14
  -13.0299997      -2.15807563E-14
  -13.0200005      -1.51470904E-14
  -13.0100002      -6.00908763E-15
  -13.0000000       4.57720808E-15
  -12.9899998       1.50410503E-14
  -12.9799995       2.37628249E-14
  -12.9700003       2.93562443E-14
  -12.9600000       3.09130400E-14
  -12.9499998       2.81640064E-14
  -12.9399996       2.15274440E-14
  -12.9300003       1.20382355E-14
  -12.9200001       1.17326356E-15
  -12.9099998      -9.39305752E-15
  -12.8999996      -1.80591524E-14
  -12.8900003      -2.35469975E-14
  -12.8800001      -2.50945776E-14
  -12.8699999      -2.25638142E-14
  -12.8599997      -1.64529052E-14
  -12.8500004      -7.81666991E-15
  -12.8400002       1.88950774E-15
  -12.8299999       1.10180182E-14
  -12.8199997       1.79613692E-14
  -12.8100004       2.13786542E-14
  -12.8000002       2.03885269E-14
  -12.7900000       1.47042971E-14
  -12.7799997       4.69376913E-15
  -12.7700005      -8.64507237E-15
  -12.7600002      -2.37905703E-14
  -12.7500000      -3.88721275E-14
  -12.7399998      -5.18882388E-14
  -12.7299995      -6.09348658E-14
  -12.7200003      -6.44095576E-14
  -12.7100000      -6.11614980E-14
  -12.6999998      -5.05700658E-14
  -12.6899996      -3.25511645E-14
  -12.6800003      -7.50832959E-15
  -12.6700001       2.37409800E-14
  -12.6599998       6.00283305E-14
  -12.6499996       9.98560162E-14
  -12.6400003       1.41362738E-13
  -12.6300001       1.82240223E-13
  -12.6199999       2.19629558E-13
  -12.6099997       2.50042744E-13
  -12.6000004       2.69358944E-13
  -12.5900002       2.72939359E-13
  -12.5799999       2.55880224E-13
  -12.5699997       2.13400979E-13
  -12.5600004       1.41336514E-13
  -12.5500002       3.66860710E-14
  -12.5400000      -1.01835153E-13
  -12.5299997      -2.73286927E-13
  -12.5200005      -4.74062358E-13
  -12.5100002      -6.97522931E-13
  -12.5000000      -9.33699732E-13
  -12.4899998      -1.16905465E-12
  -12.4799995      -1.38630383E-12
  -12.4700003      -1.56433742E-12
  -12.4600000      -1.67830441E-12
  -12.4499998      -1.69994401E-12
  -12.4399996      -1.59827197E-12
  -12.4300003      -1.34068744E-12
  -12.4200001      -8.94544909E-13
  -12.4099998      -2.29145506E-13
  -12.3999996       6.81970919E-13
  -12.3900003       1.85860897E-12
  -12.3800001       3.31159709E-12
  -12.3699999       5.04081586E-12
  -12.3599997       7.03379629E-12
  -12.3500004       9.26497074E-12
  -12.3400002       1.16957121E-11
  -12.3299999       1.42750820E-11
  -12.3199997       1.69412019E-11
  -12.3100004       1.96231399E-11
  -12.3000002       2.22430980E-11
  -12.2900000       2.47188416E-11
  -12.2799997       2.69662417E-11
  -12.2700005       2.89019138E-11
  -12.2600002       3.04458056E-11
  -12.2500000       3.15238113E-11
  -12.2399998       3.20702388E-11
  -12.2299995       3.20300488E-11
  -12.2200003       3.13606363E-11
  -12.2100000       3.00329900E-11
  -12.1999998       2.80320801E-11
  -12.1899996       2.53562501E-11
  -12.1800003       2.20158215E-11
  -12.1700001       1.80308754E-11
  -12.1599998       1.34286332E-11
  -12.1499996       8.24076484E-12
  -12.1400003       2.50111412E-12
  -12.1300001      -3.75576827E-12
  -12.1199999      -1.04951091E-11
  -12.1099997      -1.76812662E-11
  -12.1000004      -2.52759914E-11
  -12.0900002      -3.32361534E-11
  -12.0799999      -4.15111695E-11
  -12.0699997      -5.00408083E-11
  -12.0600004      -5.87536894E-11
  -12.0500002      -6.75670422E-11
  -12.0400000      -7.63873687E-11
  -12.0299997      -8.51125212E-11
  -12.0200005      -9.36342462E-11
  -12.0100002      -1.01841230E-10
  -12.0000000      -1.09621923E-10
  -11.9899998      -1.16866974E-10
  -11.9799995      -1.23470942E-10
  -11.9700003      -1.29333239E-10
  -11.9600000      -1.34358566E-10
  -11.9499998      -1.38457121E-10
  -11.9399996      -1.41545095E-10
  -11.9300003      -1.43544773E-10
  -11.9200001      -1.44385948E-10
  -11.9099998      -1.44007070E-10
  -11.8999996      -1.42356515E-10
  -11.8900003      -1.39393802E-10
  -11.8800001      -1.35089981E-10
  -11.8699999      -1.29427261E-10
  -11.8599997      -1.22397398E-10
  -11.8500004      -1.13999969E-10
  -11.8400002      -1.04239568E-10
  -11.8299999      -9.31237032E-11
  -11.8199997      -8.06609987E-11
  -11.8100004      -6.68609820E-11
  -11.8000002      -5.17346652E-11
  -11.7900000      -3.52967447E-11
  -11.7799997      -1.75685196E-11
  -11.7700005       1.41892596E-12
  -11.7600002       2.16216472E-11
  -11.7500000       4.29806260E-11
  -11.7399998       6.54205995E-11
  -11.7299995       8.88501078E-11
  -11.7200003       1.13162250E-10
  -11.7100000       1.38236311E-10
  -11.6999998       1.63939043E-10
  -11.6899996       1.90125971E-10
  -11.6800003       2.16642121E-10
  -11.6700001       2.43321918E-10
  -11.6599998       2.69989531E-10
  -11.6499996       2.96458247E-10
  -11.6400003       3.22531446E-10
  -11.6300001       3.48003043E-10
  -11.6199999       3.72659487E-10
  -11.6099997       3.96281452E-10
  -11.6000004       4.18645757E-10
  -11.5900002       4.39527192E-10
  -11.5799999       4.58698801E-10
  -11.5699997       4.75932127E-10
  -11.5600004       4.90996077E-10
  -11.5500002       5.03655007E-10
  -11.5400000       5.13668663E-10
  -11.5299997       5.20790688E-10
  -11.5200005       5.24771171E-10
  -11.5100002       5.25358035E-10
  -11.5000000       5.22303145E-10
  -11.4899998       5.15366583E-10
  -11.4799995       5.04322917E-10
  -11.4700003       4.88966034E-10
  -11.4600000       4.69113526E-10
  -11.4499998       4.44608739E-10
  -11.4399996       4.15320139E-10
  -11.4300003       3.81140508E-10
  -11.4200001       3.41983331E-10
  -11.4099998       2.97779357E-10
  -11.3999996       2.48472964E-10
  -11.3900003       1.94019661E-10
  -11.3800001       1.34383796E-10
  -11.3699999       6.95376465E-11
  -11.3599997      -5.38866857E-13
  -11.3500004      -7.58575910E-11
  -11.3400002      -1.56422250E-10
  -11.3299999      -2.42226877E-10
  -11.3199997      -3.33255923E-10
  -11.3100004      -4.29482477E-10
  -11.3000002      -5.30867184E-10
  -11.2900000      -6.37356001E-10
  -11.2799997      -7.48877460E-10
  -11.2700005      -8.65339522E-10
  -11.2600002      -9.86626003E-10
  -11.2500000      -1.11259280E-09
  -11.2399998      -1.24306643E-09
  -11.2299995      -1.37784262E-09
  -11.2200003      -1.51668589E-09
  -11.2100000      -1.65933345E-09
  -11.1999998      -1.80549797E-09
  -11.1899996      -1.95487160E-09
  -11.1800003      -2.10713380E-09
  -11.1700001      -2.26195551E-09
  -11.1599998      -2.41900655E-09
  -11.1499996      -2.57795918E-09
  -11.1400003      -2.73849388E-09
  -11.1300001      -2.90030067E-09
  -11.1199999      -3.06308467E-09
  -11.1099997      -3.22656546E-09
  -11.1000004      -3.39047967E-09
  -11.0900002      -3.55457730E-09
  -11.0799999      -3.71862807E-09
  -11.0699997      -3.88241439E-09
  -11.0600004      -4.04573353E-09
  -11.0500002      -4.20839719E-09
  -11.0400000      -4.37022685E-09
  -11.0299997      -4.53104976E-09
  -11.0200005      -4.69069983E-09
  -11.0100002      -4.84901008E-09
  -11.0000000      -5.00581088E-09
  -10.9899998      -5.16092902E-09
  -10.9799995      -5.31417710E-09
  -10.9700003      -5.46536771E-09
  -10.9600000      -5.61429792E-09
  -10.9499998      -5.76076697E-09
  -10.9399996      -5.90457105E-09
  -10.9300003      -6.04551520E-09
  -10.9200001      -6.18341112E-09
  -10.9099998      -6.31808916E-09
  -10.8999996      -6.44939879E-09
  -10.8900003      -6.57720989E-09
  -10.8800001      -6.70141098E-09
  -10.8699999      -6.82191281E-09
  -10.8599997      -6.93864299E-09
  -10.8500004      -7.05153980E-09
  -10.8400002      -7.16055704E-09
  -10.8299999      -7.26566185E-09
  -10.8199997      -7.36683070E-09
  -10.8100004      -7.46404805E-09
  -10.8000002      -7.55732188E-09
  -10.7900000      -7.64666552E-09
  -10.7799997      -7.73210740E-09
  -10.7700005      -7.81368836E-09
  -10.7600002      -7.89146615E-09
  -10.7500000      -7.96549759E-09
  -10.7399998      -8.03585110E-09
  -10.7299995      -8.10259948E-09
  -10.7200003      -8.16582890E-09
  -10.7100000      -8.22562907E-09
  -10.6999998      -8.28210922E-09
  -10.6899996      -8.33539104E-09
  -10.6800003      -8.38562286E-09
  -10.6700001      -8.43296988E-09
  -10.6599998      -8.47761772E-09
  -10.6499996      -8.51977155E-09
  -10.6400003      -8.55964988E-09
  -10.6300001      -8.59748184E-09
  -10.6199999      -8.63348770E-09
  -10.6099997      -8.66790106E-09
  -10.6000004      -8.70093064E-09
  -10.5900002      -8.73278339E-09
  -10.5799999      -8.76366357E-09
  -10.5699997      -8.79375861E-09
  -10.5600004      -8.82324880E-09
  -10.5500002      -8.85232065E-09
  -10.5400000      -8.88114826E-09
  -10.5299997      -8.90990837E-09
  -10.5200005      -8.93875907E-09
  -10.5100002      -8.96785224E-09
  -10.5000000      -8.99733621E-09
  -10.4899998      -9.02732911E-09
  -10.4799995      -9.05794018E-09
  -10.4700003      -9.08926623E-09
  -10.4600000      -9.12138987E-09
  -10.4499998      -9.15439191E-09
  -10.4399996      -9.18834520E-09
  -10.4300003      -9.22332433E-09
  -10.4200001      -9.25940835E-09
  -10.4099998      -9.29668786E-09
  -10.3999996      -9.33525524E-09
  -10.3900003      -9.37520195E-09
  -10.3800001      -9.41663192E-09
  -10.3699999      -9.45964729E-09
  -10.3599997      -9.50435108E-09
  -10.3500004      -9.55085788E-09
  -10.3400002      -9.59928137E-09
  -10.3299999      -9.64974145E-09
  -10.3199997      -9.70235448E-09
  -10.3100004      -9.75723857E-09
  -10.3000002      -9.81452253E-09
  -10.2900000      -9.87430138E-09
  -10.2799997      -9.93667815E-09
  -10.2700005      -1.00017159E-08
  -10.2600002      -1.00694511E-08
  -10.2500000      -1.01398925E-08
  -10.2399998      -1.02130135E-08
  -10.2299995      -1.02887583E-08
  -10.2200003      -1.03670432E-08
  -10.2100000      -1.04477778E-08
  -10.1999998      -1.05308455E-08
  -10.1899996      -1.06161542E-08
  -10.1800003      -1.07035918E-08
  -10.1700001      -1.07930633E-08
  -10.1599998      -1.08844880E-08
  -10.1499996      -1.09777876E-08
  -10.1400003      -1.10729070E-08
  -10.1300001      -1.11697895E-08
  -10.1199999      -1.12683933E-08
  -10.1099997      -1.13686864E-08
  -10.1000004      -1.14706440E-08
  -10.0900002      -1.15742473E-08
  -10.0799999      -1.16795089E-08
  -10.0699997      -1.17864385E-08
  -10.0600004      -1.18950689E-08
  -10.0500002      -1.20054544E-08
  -10.0400000      -1.21176669E-08
  -10.0299997      -1.22317774E-08
  -10.0200005      -1.23478747E-08
  -10.0100002      -1.24660566E-08
  -10.0000000      -1.25864208E-08
  -9.98999977      -1.27090622E-08
  -9.97999954      -1.28341018E-08
  -9.97000027      -1.29616504E-08
  -9.96000004      -1.30918467E-08
  -9.94999981      -1.32248523E-08
  -9.93999958      -1.33608653E-08
  -9.93000031      -1.35001201E-08
  -9.92000008      -1.36428993E-08
  -9.90999985      -1.37895206E-08
  -9.89999962      -1.39403475E-08
  -9.89000034      -1.40957752E-08
  -9.88000011      -1.42562389E-08
  -9.86999989      -1.44221914E-08
  -9.85999966      -1.45941090E-08
  -9.85000038      -1.47724526E-08
  -9.84000015      -1.49577080E-08
  -9.82999992      -1.51503485E-08
  -9.81999969      -1.53508353E-08
  -9.81000042      -1.55596034E-08
  -9.80000019      -1.57770863E-08
  -9.78999996      -1.60036500E-08
  -9.77999973      -1.62396727E-08
  -9.77000046      -1.64854512E-08
  -9.76000023      -1.67412750E-08
  -9.75000000      -1.70073697E-08
  -9.73999977      -1.72839485E-08
  -9.72999954      -1.75711676E-08
  -9.72000027      -1.78691533E-08
  -9.71000004      -1.81780138E-08
  -9.69999981      -1.84978042E-08
  -9.68999958      -1.88285618E-08
  -9.68000031      -1.91702902E-08
  -9.67000008      -1.95229415E-08
  -9.65999985      -1.98864090E-08
  -9.64999962      -2.02605310E-08
  -9.64000034      -2.06450714E-08
  -9.63000011      -2.10397104E-08
  -9.61999989      -2.14440661E-08
  -9.60999966      -2.18576588E-08
  -9.60000038      -2.22799663E-08
  -9.59000015      -2.27103740E-08
  -9.57999992      -2.31482211E-08
  -9.56999969      -2.35928237E-08
  -9.56000042      -2.40434392E-08
  -9.55000019      -2.44992790E-08
  -9.53999996      -2.49595544E-08
  -9.52999973      -2.54234518E-08
  -9.52000046      -2.58901149E-08
  -9.51000023      -2.63587214E-08
  -9.50000000      -2.68284133E-08
  -9.48999977      -2.72983627E-08
  -9.47999954      -2.77677419E-08
  -9.47000027      -2.82357835E-08
  -9.46000004      -2.87018107E-08
  -9.44999981      -2.91651787E-08
  -9.43999958      -2.96253599E-08
  -9.43000031      -3.00819174E-08
  -9.42000008      -3.05345615E-08
  -9.40999985      -3.09831130E-08
  -9.39999962      -3.14275361E-08
  -9.39000034      -3.18679554E-08
  -9.38000011      -3.23046372E-08
  -9.36999989      -3.27379936E-08
  -9.35999966      -3.31686074E-08
  -9.35000038      -3.35971855E-08
  -9.34000015      -3.40245769E-08
  -9.32999992      -3.44517481E-08
  -9.31999969      -3.48797933E-08
  -9.31000042      -3.53098706E-08
  -9.30000019      -3.57432697E-08
  -9.28999996      -3.61813015E-08
  -9.27999973      -3.66253587E-08
  -9.27000046      -3.70768554E-08
  -9.26000023      -3.75372444E-08
  -9.25000000      -3.80079719E-08
  -9.23999977      -3.84904872E-08
  -9.22999954      -3.89861832E-08
  -9.22000027      -3.94964630E-08
  -9.21000004      -4.00226341E-08
  -9.19999981      -4.05659542E-08
  -9.18999958      -4.11275600E-08
  -9.18000031      -4.17084891E-08
  -9.17000008      -4.23096580E-08
  -9.15999985      -4.29317879E-08
  -9.14999962      -4.35755076E-08
  -9.14000034      -4.42412151E-08
  -9.13000011      -4.49291662E-08
  -9.11999989      -4.56393749E-08
  -9.10999966      -4.63717136E-08
  -9.10000038      -4.71258588E-08
  -9.09000015      -4.79012563E-08
  -9.07999992      -4.86972276E-08
  -9.06999969      -4.95128880E-08
  -9.06000042      -5.03471931E-08
  -9.05000019      -5.11989171E-08
  -9.03999996      -5.20667491E-08
  -9.02999973      -5.29491757E-08
  -9.02000046      -5.38445839E-08
  -9.01000023      -5.47513324E-08
  -9.00000000      -5.56675417E-08
  -8.98999977      -5.65913219E-08
  -8.97999954      -5.75206975E-08
  -8.97000027      -5.84536863E-08
  -8.96000004      -5.93881992E-08
  -8.94999981      -6.03221650E-08
  -8.93999958      -6.12535302E-08
  -8.93000031      -6.21802485E-08
  -8.92000008      -6.31003516E-08
  -8.90999985      -6.40119211E-08
  -8.89999962      -6.49131309E-08
  -8.89000034      -6.58022046E-08
  -8.88000011      -6.66775222E-08
  -8.86999989      -6.75375844E-08
  -8.85999966      -6.83809489E-08
  -8.85000038      -6.92063864E-08
  -8.84000015      -7.00127814E-08
  -8.82999992      -7.07991532E-08
  -8.81999969      -7.15646777E-08
  -8.81000042      -7.23087226E-08
  -8.80000019      -7.30308685E-08
  -8.78999996      -7.37307744E-08
  -8.77999973      -7.44082698E-08
  -8.77000046      -7.50634115E-08
  -8.76000023      -7.56963132E-08
  -8.75000000      -7.63072450E-08
  -8.73999977      -7.68965975E-08
  -8.72999954      -7.74647972E-08
  -8.72000027      -7.80124907E-08
  -8.71000004      -7.85402534E-08
  -8.69999981      -7.90487960E-08
  -8.68999958      -7.95389425E-08
  -8.68000031      -8.00115316E-08
  -8.67000008      -8.04673874E-08
  -8.65999985      -8.09073626E-08
  -8.64999962      -8.13324164E-08
  -8.64000034      -8.17433730E-08
  -8.63000011      -8.21411987E-08
  -8.61999989      -8.25267534E-08
  -8.60999966      -8.29010034E-08
  -8.60000038      -8.32648652E-08
  -8.59000015      -8.36192982E-08
  -8.57999992      -8.39652614E-08
  -8.56999969      -8.43037995E-08
  -8.56000042      -8.46359640E-08
  -8.55000019      -8.49627355E-08
  -8.53999996      -8.52852367E-08
  -8.52999973      -8.56045901E-08
  -8.52000046      -8.59218261E-08
  -8.51000023      -8.62380958E-08
  -8.50000000      -8.65545857E-08
  -8.48999977      -8.68722836E-08
  -8.47999954      -8.71922765E-08
  -8.47000027      -8.75156942E-08
  -8.46000004      -8.78435458E-08
  -8.44999981      -8.81768472E-08
  -8.43999958      -8.85166074E-08
  -8.43000031      -8.88637857E-08
  -8.42000008      -8.92193484E-08
  -8.40999985      -8.95842476E-08
  -8.39999962      -8.99593999E-08
  -8.39000034      -9.03456439E-08
  -8.38000011      -9.07439528E-08
  -8.36999989      -9.11551794E-08
  -8.35999966      -9.15802119E-08
  -8.35000038      -9.20199454E-08
  -8.34000015      -9.24752328E-08
  -8.32999992      -9.29470616E-08
  -8.31999969      -9.34363413E-08
  -8.31000042      -9.39441946E-08
  -8.30000019      -9.44715879E-08
  -8.28999996      -9.50197148E-08
  -8.27999973      -9.55897619E-08
  -8.27000046      -9.61830509E-08
  -8.26000023      -9.68008607E-08
  -8.25000000      -9.74446124E-08
  -8.23999977      -9.81157555E-08
  -8.22999954      -9.88157964E-08
  -8.22000027      -9.95464120E-08
  -8.21000004      -1.00309144E-07
  -8.19999981      -1.01105613E-07
  -8.18999958      -1.01937516E-07
  -8.18000031      -1.02806467E-07
  -8.17000008      -1.03714086E-07
  -8.15999985      -1.04661886E-07
  -8.14999962      -1.05651381E-07
  -8.14000034      -1.06683942E-07
  -8.13000011      -1.07760826E-07
  -8.11999989      -1.08883235E-07
  -8.10999966      -1.10052142E-07
  -8.10000038      -1.11268442E-07
  -8.09000015      -1.12532717E-07
  -8.07999992      -1.13845616E-07
  -8.06999969      -1.15207342E-07
  -8.06000042      -1.16618040E-07
  -8.05000019      -1.18077580E-07
  -8.03999996      -1.19585735E-07
  -8.02999973      -1.21141952E-07
  -8.02000046      -1.22745632E-07
  -8.01000023      -1.24395868E-07
  -8.00000000      -1.26091734E-07
  -7.98999977      -1.27831882E-07
  -7.98000002      -1.29615032E-07
  -7.96999979      -1.31439705E-07
  -7.96000004      -1.33304226E-07
  -7.94999981      -1.35206960E-07
  -7.94000006      -1.37146102E-07
  -7.92999983      -1.39119706E-07
  -7.92000008      -1.41125781E-07
  -7.90999985      -1.43162424E-07
  -7.90000010      -1.45227659E-07
  -7.88999987      -1.47319383E-07
  -7.88000011      -1.49435593E-07
  -7.86999989      -1.51574341E-07
  -7.86000013      -1.53733737E-07
  -7.84999990      -1.55911920E-07
  -7.84000015      -1.58106999E-07
  -7.82999992      -1.60317242E-07
  -7.82000017      -1.62541042E-07
  -7.80999994      -1.64776907E-07
  -7.80000019      -1.67023373E-07
  -7.78999996      -1.69279218E-07
  -7.78000021      -1.71543249E-07
  -7.76999998      -1.73814399E-07
  -7.76000023      -1.76091845E-07
  -7.75000000      -1.78374549E-07
  -7.73999977      -1.80661971E-07
  -7.73000002      -1.82953471E-07
  -7.71999979      -1.85248538E-07
  -7.71000004      -1.87546902E-07
  -7.69999981      -1.89848322E-07
  -7.69000006      -1.92152569E-07
  -7.67999983      -1.94459687E-07
  -7.67000008      -1.96769790E-07
  -7.65999985      -1.99082919E-07
  -7.65000010      -2.01399345E-07
  -7.63999987      -2.03719438E-07
  -7.63000011      -2.06043566E-07
  -7.61999989      -2.08372214E-07
  -7.61000013      -2.10705991E-07
  -7.59999990      -2.13045595E-07
  -7.59000015      -2.15391893E-07
  -7.57999992      -2.17745665E-07
  -7.57000017      -2.20107751E-07
  -7.55999994      -2.22479159E-07
  -7.55000019      -2.24860841E-07
  -7.53999996      -2.27253850E-07
  -7.53000021      -2.29659236E-07
  -7.51999998      -2.32078250E-07
  -7.51000023      -2.34511987E-07
  -7.50000000      -2.36961725E-07
  -7.48999977      -2.39428715E-07
  -7.48000002      -2.41914307E-07
  -7.46999979      -2.44419965E-07
  -7.46000004      -2.46946968E-07
  -7.44999981      -2.49496964E-07
  -7.44000006      -2.52071175E-07