  -16.0000000       0.00000000    
  -15.9899998       0.00000000    
  -15.9799995       0.00000000    
  -15.9700003       0.00000000    
  -15.9600000       0.00000000    
  -15.9499998       0.00000000    
  -15.9399996       0.00000000    
  -15.9300003       0.00000000    
  -15.9200001       0.00000000    
  -15.9099998       0.00000000    
  -15.8999996       0.00000000    
  -15.8900003       0.00000000    
  -15.8800001       0.00000000    
  -15.8699999      -0.00000000    
  -15.8599997       0.00000000    
  -15.8500004       8.40779079E-45
  -15.8400002       1.21912966E-43
  -15.8299999       1.28499069E-42
  -15.8199997       1.02168671E-41
  -15.8100004       6.53817837E-41
  -15.8000002       3.51084120E-40
  -15.7900000       1.62607515E-39
  -15.7799997       6.62139869E-39
  -15.7700005       2.40293203E-38
  -15.7600002       7.84728485E-38
  -15.7500000       2.32170807E-37
  -15.7399998       6.24999159E-37
  -15.7299995       1.53406174E-36
  -15.7200003       3.43218414E-36
  -15.7100000       6.97602374E-36
  -15.6999998       1.27775676E-35
  -15.6899996       2.07372887E-35
  -15.6800003       2.87264618E-35
  -15.6700001       3.06378540E-35
  -15.6599998       1.44126786E-35
  -15.6499996      -3.84074383E-35
  -15.6400003      -1.49084183E-34
  -15.6300001      -3.31254354E-34
  -15.6199999      -5.72285246E-34
  -15.6099997      -8.08781899E-34
  -15.6000004      -9.04428935E-34
  -15.5900002      -6.44665209E-34
  -15.5799999       2.32794350E-34
  -15.5699997       1.95163103E-33
  -15.5600004       4.53863365E-33
  -15.5500002       7.58921046E-33
  -15.5400000       9.98430151E-33
  -15.5299997       9.66115297E-33
  -15.5200005       3.67907361E-33
  -15.5100002      -1.10016537E-32
  -15.5000000      -3.55298810E-32
  -15.4899998      -6.57668577E-32
  -15.4799995      -8.83101298E-32
  -15.4700003      -7.86002526E-32
  -15.4600000      -5.76290661E-33
  -15.4499998       1.50811223E-31
  -15.4399996       3.72099093E-31
  -15.4300003       5.66480602E-31
  -15.4200001       5.57350913E-31
  -15.4099998       1.27177004E-31
  -15.3999996      -8.52510915E-31
  -15.3900003      -2.21584353E-30
  -15.3800001      -3.30987236E-30
  -15.3699999      -2.99021200E-30
  -15.3599997      -1.51804751E-32
  -15.3500004       6.05848547E-30
  -15.3400002       1.36823435E-29
  -15.3299999       1.84864373E-29
  -15.3199997       1.38542448E-29
  -15.3100004      -6.14261588E-30
  -15.3000002      -4.14364670E-29
  -15.2900000      -8.01372769E-29
  -15.2799997      -9.62310878E-29
  -15.2700005      -5.59283014E-29
  -15.2600002       6.41082615E-29
  -15.2500000       2.49543754E-28
  -15.2399998       4.24497156E-28
  -15.2299995       4.51884747E-28
  -15.2200003       1.79259240E-28
  -15.2100000      -4.63663638E-28
  -15.1999998      -1.34220667E-27
  -15.1899996      -2.03606386E-27
  -15.1800003      -1.89466594E-27
  -15.1700001      -3.03402939E-28
  -15.1599998       2.85256379E-27
  -15.1499996       6.69047186E-27
  -15.1400003       9.11790317E-27
  -15.1300001       7.28432927E-27
  -15.1199999      -1.08282840E-27
  -15.1099997      -1.56664155E-26
  -15.1000004      -3.16996390E-26
  -15.0900002      -3.96193033E-26
  -15.0799999      -2.76236933E-26
  -15.0699997       1.23377884E-26
  -15.0600004       7.64581369E-26
  -15.0500002       1.42492586E-25
  -15.0400000       1.70011752E-25
  -15.0299997       1.12270265E-25
  -15.0200005      -5.94207628E-26
  -15.0100002      -3.25059011E-25
  -15.0000000      -5.93424166E-25
  -14.9899998      -7.06832437E-25
  -14.9799995      -4.88729948E-25
  -14.9700003       1.65642141E-25
  -14.9600000       1.18056604E-24
  -14.9499998       2.22479246E-24
  -14.9399996       2.73473345E-24
  -14.9300003       2.08400741E-24
  -14.9200001      -1.06845478E-25
  -14.9099998      -3.60989968E-24
  -14.8999996      -7.34981705E-24
  -14.8900003      -9.48811368E-24
  -14.8800001      -7.97266297E-24
  -14.8699999      -1.51598625E-24
  -14.8599997       9.29094342E-24
  -14.8500004       2.12597194E-23
  -14.8400002       2.88856440E-23
  -14.8299999       2.60173489E-23
  -14.8199997       8.75670472E-24
  -14.8100004      -2.13207598E-23
  -14.8000002      -5.51894410E-23
  -14.7900000      -7.73528289E-23
  -14.7799997      -7.07837380E-23
  -14.7700005      -2.52114786E-23
  -14.7600002       5.39869204E-23
  -14.7500000       1.40787021E-22
  -14.7399998       1.92124574E-22
  -14.7299995       1.62620583E-22
  -14.7200003       2.82336473E-23
  -14.7100000      -1.89325671E-22
  -14.6999998      -4.10251645E-22
  -14.6899996      -5.09469193E-22
  -14.6800003      -3.61097608E-22
  -14.6700001       9.24235558E-23
  -14.6599998       7.70350720E-22
  -14.6499996       1.41962177E-21
  -14.6400003       1.65424753E-21
  -14.6300001       1.08712596E-21
  -14.6199999      -4.64481200E-22
  -14.6099997      -2.76615336E-21
  -14.6000004      -5.05090416E-21
  -14.5900002      -6.11148542E-21
  -14.5799999      -4.66421662E-21
  -14.5699997       5.28221451E-23
  -14.5600004       7.61766782E-21
  -14.5500002       1.59852540E-20
  -14.5400000       2.15949845E-20
  -14.5299997       2.02500147E-20
  -14.5200005       8.74251309E-21
  -14.5100002      -1.31589629E-20
  -14.5000000      -4.10914474E-20
  -14.4899998      -6.57581122E-20
  -14.4799995      -7.46237177E-20
  -14.4700003      -5.58448178E-20
  -14.4600000      -3.74112546E-21
  -14.4499998       7.58662528E-20
  -14.4399996       1.62801656E-19
  -14.4300003       2.24472778E-19
  -14.4200001       2.23863637E-19
  -14.4099998       1.32832915E-19
  -14.3999996      -5.25538410E-20
  -14.3900003      -3.00099963E-19
  -14.3800001      -5.39191323E-19
  -14.3699999      -6.72945498E-19
  -14.3599997      -6.05630470E-19
  -14.3500004      -2.80427463E-19
  -14.3400002       2.83343378E-19
  -14.3299999       9.68262263E-19
  -14.3199997       1.56622006E-18
  -14.3100004       1.82303886E-18
  -14.3000002       1.51655407E-18
  -14.2900000       5.50411873E-19
  -14.2799997      -9.66229674E-19
  -14.2700005      -2.68750485E-18
  -14.2600002      -4.07572278E-18
  -14.2500000      -4.53058154E-18
  -14.2399998      -3.58244355E-18
  -14.2299995      -1.09973735E-18
  -14.2200003       2.55981298E-18
  -14.2100000       6.52471961E-18
  -14.1999998       9.55780893E-18
  -14.1899996       1.03736712E-17
  -14.1800003       8.06143424E-18
  -14.1700001       2.49439581E-18
  -14.1599998      -5.41872578E-18
  -14.1499996      -1.37676437E-17
  -14.1400003      -2.00188627E-17
  -14.1300001      -2.16926329E-17
  -14.1199999      -1.71790971E-17
  -14.1099997      -6.45006987E-18
  -14.1000004       8.59480444E-18
  -14.0900002       2.43390219E-17
  -14.0799999       3.62577416E-17
  -14.0699997       4.01681916E-17
  -14.0600004       3.35863089E-17
  -14.0500002       1.67568081E-17
  -14.0400000      -7.03846329E-18
  -14.0299997      -3.21056457E-17
  -14.0200005      -5.18182696E-17
  -14.0100002      -6.05607315E-17
  -14.0000000      -5.55231950E-17
  -13.9899998      -3.77034647E-17
  -13.9799995      -1.16722323E-17
  -13.9700003       1.59381375E-17
  -13.9600000       3.87740283E-17
  -13.9499998       5.30868602E-17
  -13.9399996       5.90715814E-17
  -13.9300003       6.04797936E-17
  -13.9200001       6.23727534E-17
  -13.9099998       6.76677416E-17
  -13.8999996       7.38403950E-17
  -13.8900003       7.14690799E-17
  -13.8800001       4.59928269E-17
  -13.8699999      -1.69146722E-17
  -13.8599997      -1.23393470E-16
  -13.8500004      -2.63365651E-16
  -13.8400002      -4.05831961E-16
  -13.8299999      -5.00758308E-16
  -13.8199997      -4.89374662E-16
  -13.8100004      -3.22125942E-16
  -13.8000002       1.95757900E-17
  -13.7900000       5.04261160E-16
  -13.7799997       1.04154686E-15
  -13.7700005       1.48987113E-15
  -13.7600002       1.68348645E-15
  -13.7500000       1.47579069E-15
  -13.7399998       7.90012172E-16
  -13.7299995      -3.36466104E-16
  -13.7200003      -1.72940654E-15
  -13.7100000      -3.08904297E-15
  -13.6999998      -4.04063557E-15
  -13.6899996      -4.21900038E-15
  -13.6800003      -3.37081568E-15
  -13.6700001      -1.44992707E-15
  -13.6599998       1.32217121E-15
  -13.6499996       4.45423964E-15
  -13.6400003       7.25371487E-15
  -13.6300001       8.96093350E-15
  -13.6199999       8.92625173E-15
  -13.6099997       6.79221109E-15
  -13.6000004       2.63559003E-15
  -13.5900002      -2.97249357E-15
  -13.5799999      -9.01597031E-15
  -13.5699997      -1.41973606E-14
  -13.5600004      -1.71929257E-14
  -13.5500002      -1.69526004E-14
  -13.5400000      -1.29810332E-14
  -13.5299997      -5.53306146E-15
  -13.5200005       4.33184169E-15
  -13.5100002       1.48665920E-14
  -13.5000000       2.39209490E-14
  -13.4899998       2.93520904E-14
  -13.4799995       2.94883983E-14
  -13.4700003       2.35527811E-14
  -13.4600000       1.19494953E-14
  -13.4499998      -3.66433102E-15
  -13.4399996      -2.05660294E-14
  -13.4300003      -3.54072986E-14
  -13.4200001      -4.48462034E-14
  -13.4099998      -4.62610060E-14
  -13.3999996      -3.84030339E-14
  -13.3900003      -2.18386117E-14
  -13.3800001       9.44982143E-16
  -13.3699999       2.58376847E-14
  -13.3599997       4.77974018E-14
  -13.3500004       6.18327750E-14
  -13.3400002       6.40960876E-14
  -13.3299999       5.28593553E-14
  -13.3199997       2.91402000E-14
  -13.3100004      -3.20120792E-15
  -13.3000002      -3.79751162E-14
  -13.2900000      -6.77378414E-14
  -13.2799997      -8.52514335E-14
  -13.2700005      -8.50501717E-14
  -13.2600002      -6.47923555E-14
  -13.2500000      -2.61022113E-14
  -13.2399998       2.53023310E-14
  -13.2299995       8.02610203E-14
  -13.2200003       1.27522938E-13
  -13.2100000       1.55587986E-13
  -13.1999998       1.54752784E-13
  -13.1899996       1.19060144E-13
  -13.1800003       4.78714494E-14
  -13.1700001      -5.31485663E-14
  -13.1599998      -1.71797581E-13
  -13.1499996      -2.89961170E-13
  -13.1400003      -3.85187298E-13
  -13.1300001      -4.33250170E-13
  -13.1199999      -4.11667743E-13
  -13.1099997      -3.03974917E-13
  -13.1000004      -1.04333344E-13
  -13.0900002       1.78238040E-13
  -13.0799999       5.16960064E-13
  -13.0699997       8.66785918E-13
  -13.0600004       1.16723796E-12
  -13.0500002       1.34909813E-12
  -13.0400000       1.34478268E-12
  -13.0299997       1.10134265E-12
  -13.0200005       5.94129455E-13
  -13.0100002      -1.61413919E-13
  -13.0000000      -1.10260954E-12
  -12.9899998      -2.11940123E-12
  -12.9799995      -3.06258512E-12
  -12.9700003      -3.76041212E-12
  -12.9600000      -4.04196988E-12
  -12.9499998      -3.76441196E-12
  -12.9399996      -2.84015454E-12
  -12.9300003      -1.25989909E-12
  -12.9200001       8.92225204E-13
  -12.9099998       3.43418956E-12
  -12.8999996       6.09376655E-12
  -12.8900003       8.52858409E-12
  -12.8800001       1.03575447E-11
  -12.8699999       1.12015544E-11
  -12.8599997       1.07306924E-11
  -12.8500004       8.71399914E-12
  -12.8400002       5.06711903E-12
  -12.8299999      -1.07801849E-13
  -12.8199997      -6.49641755E-12
  -12.8100004      -1.35669809E-11
  -12.8000002      -2.05909820E-11
  -12.7900000      -2.66923844E-11
  -12.7799997      -3.09247454E-11
  -12.7700005      -3.23704917E-11
  -12.7600002      -3.02528072E-11
  -12.7500000      -2.40469832E-11
  -12.7399998      -1.35770466E-11
  -12.7299995       9.14307150E-13
  -12.7200003       1.87309803E-11
  -12.7100000       3.87261750E-11
  -12.6999998       5.93398455E-11
  -12.6899996       7.86642765E-11
  -12.6800003       9.45310635E-11
  -12.6700001       1.04616336E-10
  -12.6599998       1.06566103E-10
  -12.6499996       9.81509804E-11
  -12.6400003       7.74618217E-11
  -12.6300001       4.31573874E-11
  -12.6199999      -5.23541757E-12
  -12.6099997      -6.69827180E-11
  -12.6000004      -1.39801420E-10
  -12.5900002      -2.19570209E-10
  -12.5799999      -3.00164477E-10
  -12.5699997      -3.73492237E-10
  -12.5600004      -4.29798225E-10
  -12.5500002      -4.58276611E-10
  -12.5400000      -4.47997306E-10
  -12.5299997      -3.89105775E-10
  -12.5200005      -2.74205242E-10
  -12.5100002      -9.97974967E-11
  -12.5000000       1.32369171E-10
  -12.4899998       4.14199980E-10
  -12.4799995       7.30548566E-10
  -12.4700003       1.05901998E-09
  -12.4600000       1.37035128E-09
  -12.4499998       1.62939862E-09
  -12.4399996       1.79670012E-09
  -12.4300003       1.83053961E-09
  -12.4200001       1.68939329E-09
  -12.4099998       1.33461586E-09
  -12.3999996       7.33195504E-10
  -12.3900003      -1.39617609E-10
  -12.3800001      -1.29795730E-09
  -12.3699999      -2.74346257E-09
  -12.3599997      -4.46397630E-09
  -12.3500004      -6.43292486E-09
  -12.3400002      -8.60938254E-09
  -12.3299999      -1.09388969E-08
  -12.3199997      -1.33549127E-08
  -12.3100004      -1.57807438E-08
  -12.3000002      -1.81320683E-08
  -12.2900000      -2.03196322E-08
  -12.2799997      -2.22522551E-08
  -12.2700005      -2.38399132E-08
  -12.2600002      -2.49968028E-08
  -12.2500000      -2.56442849E-08
  -12.2399998      -2.57136428E-08
  -12.2299995      -2.51484682E-08
  -12.2200003      -2.39065550E-08
  -12.2100000      -2.19612684E-08
  -12.1999998      -1.93021528E-08
  -12.1899996      -1.59349831E-08
  -12.1800003      -1.18811068E-08
  -12.1700001      -7.17624271E-09
  -12.1599998      -1.86898585E-09
  -12.1499996       3.98093380E-09
  -12.1400003       1.03043964E-08
  -12.1300001       1.70244494E-08
  -12.1199999       2.40578206E-08
  -12.1099997       3.13161657E-08
  -12.1000004       3.87071992E-08
  -12.0900002       4.61358098E-08
  -12.0799999       5.35051754E-08
  -12.0699997       6.07178094E-08
  -12.0600004       6.76765808E-08
  -12.0500002       7.42854738E-08
  -12.0400000       8.04501710E-08
  -12.0299997       8.60782237E-08
  -12.0200005       9.10789311E-08
  -12.0100002       9.53630277E-08
  -12.0000000       9.88424560E-08
  -11.9899998       1.01430345E-07
  -11.9799995       1.03041813E-07
  -11.9700003       1.03595220E-07
  -11.9600000       1.03014514E-07
  -11.9499998       1.01232189E-07
  -11.9399996       9.81923520E-08
  -11.9300003       9.38541405E-08
  -11.9200001       8.81942483E-08
  -11.9099998       8.12086611E-08
  -11.8999996       7.29134229E-08
  -11.8900003       6.33439541E-08
  -11.8800001       5.25534070E-08
  -11.8699999       4.06102245E-08
  -11.8599997       2.75953465E-08
  -11.8500004       1.35992835E-08
  -11.8400002      -1.28027910E-09
  -11.8299999      -1.69404455E-08
  -11.8199997      -3.32745067E-08
  -11.8100004      -5.01725417E-08
  -11.8000002      -6.75215404E-08
  -11.7900000      -8.52051798E-08
  -11.7799997      -1.03103282E-07
  -11.7700005      -1.21091190E-07
  -11.7600002      -1.39039258E-07
  -11.7500000      -1.56812305E-07
  -11.7399998      -1.74269303E-07
  -11.7299995      -1.91263453E-07
  -11.7200003      -2.07642486E-07
  -11.7100000      -2.23249558E-07
  -11.6999998      -2.37924482E-07
  -11.6899996      -2.51505355E-07
  -11.6800003      -2.63830827E-07
  -11.6700001      -2.74742348E-07
  -11.6599998      -2.84086610E-07
  -11.6499996      -2.91718010E-07
  -11.6400003      -2.97501145E-07
  -11.6300001      -3.01312610E-07
  -11.6199999      -3.03042327E-07
  -11.6099997      -3.02594856E-07
  -11.6000004      -2.99890331E-07
  -11.5900002      -2.94863355E-07
  -11.5799999      -2.87463052E-07
  -11.5699997      -2.77651793E-07
  -11.5600004      -2.65403855E-07
  -11.5500002      -2.50703266E-07
  -11.5400000      -2.33543460E-07
  -11.5299997      -2.13925517E-07
  -11.5200005      -1.91858419E-07
  -11.5100002      -1.67359048E-07
  -11.5000000      -1.40454375E-07
  -11.4899998      -1.11182551E-07
  -11.4799995      -7.95953454E-08
  -11.4700003      -4.57596876E-08
  -11.4600000      -9.75936043E-09
  -11.4499998       2.83048003E-08
  -11.4399996       6.83156074E-08
  -11.4300003       1.10140896E-07
  -11.4200001       1.53636080E-07
  -11.4099998       1.98646845E-07
  -11.3999996       2.45012473E-07
  -11.3900003       2.92568529E-07
  -11.3800001       3.41149700E-07
  -11.3699999       3.90592248E-07
  -11.3599997       4.40735818E-07
  -11.3500004       4.91425169E-07
  -11.3400002       5.42511771E-07
  -11.3299999       5.93853599E-07
  -11.3199997       6.45316618E-07
  -11.3100004       6.96774066E-07
  -11.3000002       7.48105890E-07
  -11.2900000       7.99195732E-07
  -11.2799997       8.49931894E-07
  -11.2700005       9.00201769E-07
  -11.2600002       9.49892410E-07
  -11.2500000       9.98889618E-07
  -11.2399998       1.04707510E-06
  -11.2299995       1.09433040E-06
  -11.2200003       1.14053637E-06
  -11.2100000       1.18557762E-06
  -11.1999998       1.22934296E-06
  -11.1899996       1.27173087E-06
  -11.1800003       1.31265028E-06
  -11.1700001       1.35202129E-06
  -11.1599998       1.38977953E-06
  -11.1499996       1.42587430E-06
  -11.1400003       1.46026969E-06
  -11.1300001       1.49294556E-06
  -11.1199999       1.52389532E-06
  -11.1099997       1.55312796E-06
  -11.1000004       1.58066598E-06
  -11.0900002       1.60654065E-06
  -11.0799999       1.63079449E-06
  -11.0699997       1.65347103E-06
  -11.0600004       1.67461394E-06
  -11.0500002       1.69425846E-06
  -11.0400000       1.71243039E-06
  -11.0299997       1.72913940E-06
  -11.0200005       1.74438105E-06
  -11.0100002       1.75813648E-06
  -11.0000000       1.77037464E-06
  -10.9899998       1.78106234E-06
  -10.9799995       1.79016718E-06
  -10.9700003       1.79766164E-06
  -10.9600000       1.80353015E-06
  -10.9499998       1.80777079E-06
  -10.9399996       1.81039479E-06
  -10.9300003       1.81142343E-06
  -10.9200001       1.81088774E-06
  -10.9099998       1.80882330E-06
  -10.8999996       1.80526376E-06
  -10.8900003       1.80023926E-06
  -10.8800001       1.79377025E-06
  -10.8699999       1.78587277E-06
  -10.8599997       1.77655056E-06
  -10.8500004       1.76580181E-06
  -10.8400002       1.75361345E-06
  -10.8299999       1.73995875E-06
  -10.8199997       1.72480225E-06
  -10.8100004       1.70809926E-06
  -10.8000002       1.68979420E-06
  -10.7900000       1.66982272E-06
  -10.7799997       1.64811593E-06
  -10.7700005       1.62459992E-06
  -10.7600002       1.59920933E-06
  -10.7500000       1.57187856E-06
  -10.7399998       1.54255883E-06
  -10.7299995       1.51121492E-06
  -10.7200003       1.47783044E-06
  -10.7100000       1.44240221E-06
  -10.6999998       1.40494615E-06
  -10.6899996       1.36549090E-06
  -10.6800003       1.32407376E-06
  -10.6700001       1.28073350E-06
  -10.6599998       1.23551536E-06
  -10.6499996       1.18846106E-06
  -10.6400003       1.13961244E-06
  -10.6300001       1.08901565E-06
  -10.6199999       1.03671414E-06
  -10.6099997       9.82761776E-07
  -10.6000004       9.27227461E-07
  -10.5900002       8.70190604E-07
  -10.5799999       8.11743519E-07
  -10.5699997       7.51996367E-07
  -10.5600004       6.91067328E-07
  -10.5500002       6.29086458E-07
  -10.5400000       5.66176936E-07
  -10.5299997       5.02463877E-07
  -10.5200005       4.38068241E-07
  -10.5100002       3.73105479E-07
  -10.5000000       3.07691693E-07
  -10.4899998       2.41945713E-07
  -10.4799995       1.75997471E-07
  -10.4700003       1.09991653E-07
  -10.4600000       4.40839649E-08
  -10.4499998      -2.15489120E-08
  -10.4399996      -8.67171934E-08
  -10.4300003      -1.51219609E-07
  -10.4200001      -2.14851781E-07
  -10.4099998      -2.77406485E-07
  -10.3999996      -3.38681502E-07
  -10.3900003      -3.98478420E-07
  -10.3800001      -4.56602152E-07
  -10.3699999      -5.12866507E-07
  -10.3599997      -5.67086602E-07
  -10.3500004      -6.19088667E-07
  -10.3400002      -6.68706946E-07
  -10.3299999      -7.15793135E-07
  -10.3199997      -7.60212856E-07
  -10.3100004      -8.01855492E-07
  -10.3000002      -8.40635266E-07
  -10.2900000      -8.76487036E-07
  -10.2799997      -9.09374478E-07
  -10.2700005      -9.39280483E-07
  -10.2600002      -9.66207836E-07
  -10.2500000      -9.90183594E-07
  -10.2399998      -1.01125750E-06
  -10.2299995      -1.02950173E-06
  -10.2200003      -1.04501669E-06
  -10.2100000      -1.05792788E-06
  -10.1999998      -1.06838854E-06
  -10.1899996      -1.07657502E-06
  -10.1800003      -1.08268137E-06
  -10.1700001      -1.08691279E-06
  -10.1599998      -1.08948234E-06
  -10.1499996      -1.09060181E-06
  -10.1400003      -1.09047983E-06
  -10.1300001      -1.08931897E-06
  -10.1199999      -1.08731444E-06
  -10.1099997      -1.08465292E-06
  -10.1000004      -1.08151437E-06
  -10.0900002      -1.07806909E-06
  -10.0799999      -1.07447772E-06
  -10.0699997      -1.07088783E-06
  -10.0600004      -1.06743096E-06
  -10.0500002      -1.06421919E-06
  -10.0400000      -1.06134235E-06
  -10.0299997      -1.05886397E-06
  -10.0200005      -1.05682011E-06
  -10.0100002      -1.05521963E-06
  -10.0000000      -1.05404388E-06
  -9.98999977      -1.05325103E-06
  -9.97999954      -1.05277979E-06
  -9.97000027      -1.05255685E-06
  -9.96000004      -1.05250513E-06
  -9.94999981      -1.05255333E-06
  -9.93999958      -1.05264439E-06
  -9.93000031      -1.05274341E-06
  -9.92000008      -1.05284391E-06
  -9.90999985      -1.05296897E-06
  -9.89999962      -1.05317213E-06
  -9.89000034      -1.05353308E-06
  -9.88000011      -1.05415484E-06
  -9.86999989      -1.05515880E-06
  -9.85999966      -1.05667937E-06
  -9.85000038      -1.05886318E-06
  -9.84000015      -1.06186667E-06
  -9.82999992      -1.06585469E-06
  -9.81999969      -1.07100232E-06
  -9.81000042      -1.07749452E-06
  -9.80000019      -1.08552456E-06
  -9.78999996      -1.09529333E-06
  -9.77999973      -1.10700944E-06
  -9.77000046      -1.12088549E-06
  -9.76000023      -1.13713770E-06
  -9.75000000      -1.15598016E-06
  -9.73999977      -1.17762545E-06
  -9.72999954      -1.20227412E-06
  -9.72000027      -1.23010773E-06
  -9.71000004      -1.26127907E-06
  -9.69999981      -1.29589694E-06
  -9.68999958      -1.33401193E-06
  -9.68000031      -1.37560198E-06
  -9.67000008      -1.42055660E-06
  -9.65999985      -1.46867580E-06
  -9.64999962      -1.51965355E-06
  -9.64000034      -1.57308762E-06
  -9.63000011      -1.62847755E-06
  -9.61999989      -1.68523911E-06
  -9.60999966      -1.74270883E-06
  -9.60000038      -1.80016002E-06
  -9.59000015      -1.85681927E-06
  -9.57999992      -1.91187405E-06
  -9.56999969      -1.96449150E-06
  -9.56000042      -2.01382773E-06
  -9.55000019      -2.05903848E-06
  -9.53999996      -2.09929544E-06
  -9.52999973      -2.13379531E-06
  -9.52000046      -2.16176818E-06
  -9.51000023      -2.18248874E-06
  -9.50000000      -2.19529352E-06
  -9.48999977      -2.19958906E-06
  -9.47999954      -2.19486242E-06
  -9.47000027      -2.18069681E-06
  -9.46000004      -2.15678642E-06
  -9.44999981      -2.12295140E-06
  -9.43999958      -2.07914945E-06
  -9.43000031      -2.02548858E-06
  -9.42000008      -1.96224210E-06
  -9.40999985      -1.88985302E-06
  -9.39999962      -1.80894392E-06
  -9.39000034      -1.72030593E-06
  -9.38000011      -1.62490346E-06
  -9.36999989      -1.52387122E-06
  -9.35999966      -1.41849091E-06
  -9.35000038      -1.31018737E-06
  -9.34000015      -1.20051334E-06
  -9.32999992      -1.09113205E-06
  -9.31999969      -9.83798941E-07
  -9.31000042      -8.80344658E-07
  -9.30000019      -7.82653501E-07
  -9.28999996      -6.92638878E-07
  -9.27999973      -6.12216581E-07
  -9.27000046      -5.43268925E-07
  -9.26000023      -4.87622572E-07
  -9.25000000      -4.47010592E-07
  -9.23999977      -4.23040774E-07
  -9.22999954      -4.17170753E-07
  -9.22000027      -4.30681922E-07
  -9.21000004      -4.64663742E-07
  -9.19999981      -5.19993648E-07
  -9.18999958      -5.97316955E-07
  -9.18000031      -6.97048392E-07
  -9.17000008      -8.19360650E-07
  -9.15999985      -9.64171136E-07
  -9.14999962      -1.13114834E-06
  -9.14000034      -1.31970580E-06
  -9.13000011      -1.52902282E-06
  -9.11999989      -1.75804428E-06
  -9.10999966      -2.00550448E-06
  -9.10000038      -2.26996212E-06
  -9.09000015      -2.54980364E-06
  -9.07999992      -2.84328439E-06
  -9.06999969      -3.14854105E-06
  -9.06000042      -3.46360775E-06
  -9.05000019      -3.78643608E-06
  -9.03999996      -4.11491374E-06
  -9.02999973      -4.44687294E-06
  -9.02000046      -4.78012635E-06
  -9.01000023      -5.11245753E-06
  -9.00000000      -5.44165687E-06
  -8.98999977      -5.76552839E-06
  -8.97999954      -6.08189839E-06
  -8.97000027      -6.38863003E-06
  -8.96000004      -6.68361781E-06
  -8.94999981      -6.96479174E-06
  -8.93999958      -7.23013272E-06
  -8.93000031      -7.47767990E-06
  -8.92000008      -7.70552560E-06
  -8.90999985      -7.91184084E-06
  -8.89999962      -8.09488120E-06
  -8.89000034      -8.25299230E-06
  -8.88000011      -8.38462438E-06
  -8.86999989      -8.48832406E-06
  -8.85999966      -8.56273073E-06
  -8.85000038      -8.60659384E-06
  -8.84000015      -8.61876015E-06
  -8.82999992      -8.59821375E-06
  -8.81999969      -8.54406062E-06
  -8.81000042      -8.45558043E-06
  -8.80000019      -8.33222293E-06
  -8.78999996      -8.17366163E-06
  -8.77999973      -7.97975918E-06
  -8.77000046      -7.75062381E-06
  -8.76000023      -7.48657203E-06
  -8.75000000      -7.18815500E-06
  -8.73999977      -6.85611894E-06
  -8.72999954      -6.49143931E-06
  -8.72000027      -6.09524795E-06
  -8.71000004      -5.66887911E-06
  -8.69999981      -5.21382253E-06
  -8.68999958      -4.73170030E-06
  -8.68000031      -4.22424273E-06
  -8.67000008      -3.69324948E-06
  -8.65999985      -3.14054341E-06
  -8.64999962      -2.56798194E-06
  -8.64000034      -1.97736404E-06
  -8.63000011      -1.37044674E-06
  -8.61999989      -7.48953084E-07
  -8.60999966      -1.14503010E-07
  -8.60000038       5.31329420E-07
  -8.59000015       1.18705475E-06
  -8.57999992       1.85126930E-06
  -8.56999969       2.52267660E-06
  -8.56000042       3.20008780E-06
  -8.55000019       3.88243097E-06
  -8.53999996       4.56877433E-06
  -8.52999973       5.25829591E-06
  -8.52000046       5.95028678E-06
  -8.51000023       6.64412528E-06
  -8.50000000       7.33924799E-06
  -8.48999977       8.03513649E-06
  -8.47999954       8.73130739E-06
  -8.47000027       9.42727456E-06
  -8.46000004       1.01225587E-05
  -8.44999981       1.08166696E-05
  -8.43999958       1.15090943E-05
  -8.43000031       1.21992980E-05
  -8.42000008       1.28866868E-05
  -8.40999985       1.35706359E-05
  -8.39999962       1.42504477E-05
  -8.39000034       1.49253565E-05
  -8.38000011       1.55945672E-05
  -8.36999989       1.62572269E-05
  -8.35999966       1.69124523E-05
  -8.35000038       1.75593668E-05
  -8.34000015       1.81970699E-05
  -8.32999992       1.88246941E-05
  -8.31999969       1.94413878E-05
  -8.31000042       2.00462946E-05
  -8.30000019       2.06386103E-05
  -8.28999996       2.12175310E-05
  -8.27999973       2.17822853E-05
  -8.27000046       2.23321040E-05
  -8.26000023       2.28662411E-05
  -8.25000000       2.33839473E-05
  -8.23999977       2.38844659E-05
  -8.22999954       2.43670111E-05
  -8.22000027       2.48307642E-05
  -8.21000004       2.52748541E-05
  -8.19999981       2.56983603E-05
  -8.18999958       2.61002715E-05
  -8.18000031       2.64795417E-05
  -8.17000008       2.68350705E-05
  -8.15999985       2.71657154E-05
  -8.14999962       2.74703270E-05
  -8.14000034       2.77477375E-05
  -8.13000011       2.79968062E-05
  -8.11999989       2.82164183E-05
  -8.10999966       2.84055095E-05
  -8.10000038       2.85630704E-05
  -8.09000015       2.86881805E-05
  -8.07999992       2.87800140E-05
  -8.06999969       2.88378578E-05
  -8.06000042       2.88611445E-05
  -8.05000019       2.88494248E-05
  -8.03999996       2.88024148E-05
  -8.02999973       2.87200073E-05
  -8.02000046       2.86022459E-05
  -8.01000023       2.84493417E-05
  -8.00000000       2.82616675E-05
  -7.98999977       2.80397853E-05
  -7.98000002       2.77844265E-05
  -7.96999979       2.74965150E-05
  -7.96000004       2.71771387E-05
  -7.94999981       2.68275999E-05
  -7.94000006       2.64493738E-05
  -7.92999983       2.60441120E-05
  -7.92000008       2.56136354E-05
  -7.90999985       2.51599176E-05
  -7.90000010       2.46850595E-05
  -7.88999987       2.41912803E-05
  -7.88000011       2.36808755E-05
  -7.86999989       2.31562317E-05
  -7.86000013       2.26197735E-05
  -7.84999990       2.20739621E-05
  -7.84000015       2.15212767E-05
  -7.82999992       2.09641821E-05
  -7.82000017       2.04050866E-05
  -7.80999994       1.98463786E-05
  -7.80000019       1.92903553E-05
  -7.78999996       1.87392143E-05
  -7.78000021       1.81950745E-05
  -7.76999998       1.76599242E-05
  -7.76000023       1.71356351E-05
  -7.75000000       1.66239624E-05
  -7.73999977       1.61265125E-05
  -7.73000002       1.56447859E-05
  -7.71999979       1.51800868E-05
  -7.71000004       1.47335704E-05
  -7.69999981       1.43062171E-05
  -7.69000006       1.38987998E-05
  -7.67999983       1.35119271E-05
  -7.67000008       1.31460047E-05
  -7.65999985       1.28012643E-05
  -7.65000010       1.24777634E-05
  -7.63999987       1.21754074E-05
  -7.63000011       1.18939370E-05
  -7.61999989       1.16329602E-05
  -7.61000013       1.13919305E-05
  -7.59999990       1.11701884E-05
  -7.59000015       1.09669509E-05
  -7.57999992       1.07813357E-05
  -7.57000017       1.06123916E-05
  -7.55999994       1.04591281E-05
  -7.55000019       1.03205211E-05
  -7.53999996       1.01955438E-05
  -7.53000021       1.00831803E-05
  -7.51999998       9.98242376E-06
  -7.51000023       9.89228829E-06
  -7.50000000       9.81180528E-06
  -7.48999977       9.74003160E-06
  -7.48000002       9.67605320E-06
  -7.46999979       9.61899786E-06
  -7.46000004       9.56804433E-06
  -7.44999981       9.52243681E-06
  -7.44000006       9.48149318E-06