  -16.0000000       0.00000000    
  -15.9899998       0.00000000    
  -15.9799995       0.00000000    
  -15.9700003       0.00000000    
  -15.9600000       0.00000000    
  -15.9499998       0.00000000    
  -15.9399996       0.00000000    
  -15.9300003       0.00000000    
  -15.9200001       0.00000000    
  -15.9099998       0.00000000    
  -15.8999996       0.00000000    
  -15.8900003       0.00000000    
  -15.8800001       0.00000000    
  -15.8699999       7.29559701E-39
  -15.8599997       1.01767294E-37
  -15.8500004       6.00300747E-37
  -15.8400002       1.42914794E-36
  -15.8299999      -3.98524548E-36
  -15.8199997      -4.90797073E-35
  -15.8100004      -2.15758521E-34
  -15.8000002      -5.31924831E-34
  -15.7900000      -3.86986791E-34
  -15.7799997       2.96150979E-33
  -15.7700005       1.61664225E-32
  -15.7600002       4.77783411E-32
  -15.7500000       9.32029899E-32
  -15.7399998       9.71686846E-32
  -15.7299995      -9.79226056E-32
  -15.7200003      -7.66910758E-31
  -15.7100000      -2.19153938E-30
  -15.6999998      -4.38666957E-30
  -15.6899996      -6.83548799E-30
  -15.6800003      -8.63452849E-30
  -15.6700001      -9.11360582E-30
  -15.6599998      -7.27889123E-30
  -15.6499996       4.43898452E-30
  -15.6400003       5.70436676E-29
  -15.6300001       2.26941666E-28
  -15.6199999       6.27851862E-28
  -15.6099997       1.29549565E-27
  -15.6000004       1.87927641E-27
  -15.5900002       1.17413712E-27
  -15.5799999      -3.13239505E-27
  -15.5699997      -1.36043223E-26
  -15.5600004      -2.99041916E-26
  -15.5500002      -4.29454429E-26
  -15.5400000      -2.88351094E-26
  -15.5299997       4.98537166E-26
  -15.5200005       2.23270193E-25
  -15.5100002       4.63858052E-25
  -15.5000000       6.14167017E-25
  -15.4899998       3.39462107E-25
  -15.4799995      -7.99520142E-25
  -15.4700003      -3.03782328E-24
  -15.4600000      -5.81891927E-24
  -15.4499998      -7.11470732E-24
  -15.4399996      -3.21365722E-24
  -15.4300003       1.01140425E-23
  -15.4200001       3.42216002E-23
  -15.4099998       6.20710155E-23
  -15.3999996       7.28625758E-23
  -15.3900003       3.19925191E-23
  -15.3800001      -9.65074382E-23
  -15.3699999      -3.19778235E-22
  -15.3599997      -5.71815104E-22
  -15.3500004      -6.75271448E-22
  -15.3400002      -3.49185632E-22
  -15.3299999       6.88073815E-22
  -15.3199997       2.49106108E-21
  -15.3100004       4.57103197E-21
  -15.3000002       5.63841768E-21
  -15.2900000       3.66954405E-21
  -15.2799997      -3.39397537E-21
  -15.2700005      -1.61486287E-20
  -15.2600002      -3.16854183E-20
  -15.2500000      -4.19094321E-20
  -15.2399998      -3.38000862E-20
  -15.2299995       6.59730136E-21
  -15.2200003       8.54879660E-20
  -15.2100000       1.89283688E-19
  -15.1999998       2.74075620E-19
  -15.1899996       2.65088458E-19
  -15.1800003       7.58306000E-20
  -15.1700001      -3.47288084E-19
  -15.1599998      -9.60271802E-19
  -15.1499996      -1.55969712E-18
  -15.1400003      -1.76477598E-18
  -15.1300001      -1.09248308E-18
  -15.1199999       8.40416278E-19
  -15.1099997       4.00298961E-18
  -15.1000004       7.61679240E-18
  -15.0900002       9.98370686E-18
  -15.0799999       8.70425698E-18
  -15.0699997       1.47134762E-18
  -15.0600004      -1.25609609E-17
  -15.0500002      -3.11568629E-17
  -15.0400000      -4.78330325E-17
  -15.0299997      -5.21263083E-17
  -15.0200005      -3.22052779E-17
  -15.0100002       1.98687757E-17
  -15.0000000       1.01126509E-16
  -14.9899998       1.91358031E-16
  -14.9799995       2.51229046E-16
  -14.9700003       2.28856285E-16
  -14.9600000       7.72229813E-17
  -14.9499998      -2.19113143E-16
  -14.9399996      -6.15216653E-16
  -14.9300003      -9.87724273E-16
  -14.9200001      -1.14320532E-15
  -14.9099998      -8.65488260E-16
  -14.8999996      -3.46769105E-18
  -14.8900003       1.41755474E-15
  -14.8800001       3.09902399E-15
  -14.8699999       4.44048468E-15
  -14.8599997       4.63195690E-15
  -14.8500004       2.89510652E-15
  -14.8400002      -1.15158830E-15
  -14.8299999      -7.09768632E-15
  -14.8199997      -1.34743528E-14
  -14.8100004      -1.78031960E-14
  -14.8000002      -1.71078158E-14
  -14.7900000      -8.90972358E-15
  -14.7799997       7.46488188E-15
  -14.7700005       2.96637003E-14
  -14.7600002       5.17259439E-14
  -14.7500000       6.46967560E-14
  -14.7399998       5.87662446E-14
  -14.7299995       2.67876202E-14
  -14.7200003      -3.16001701E-14
  -14.7100000      -1.06619310E-13
  -14.6999998      -1.77449337E-13
  -14.6899996      -2.15221626E-13
  -14.6800003      -1.90453420E-13
  -14.6700001      -8.39561778E-14
  -14.6599998       1.01488289E-13
  -14.6499996       3.32802335E-13
  -14.6400003       5.46136053E-13
  -14.6300001       6.57549210E-13
  -14.6199999       5.85274559E-13
  -14.6099997       2.79867167E-13
  -14.6000004      -2.45760823E-13
  -14.5900002      -8.97246904E-13
  -14.5799999      -1.50139070E-12
  -14.5699997      -1.83719836E-12
  -14.5600004      -1.69426203E-12
  -14.5500002      -9.47479725E-13
  -14.5400000       3.72272037E-13
  -14.5299997       2.03679760E-12
  -14.5200005       3.63173706E-12
  -14.5100002       4.63233792E-12
  -14.5000000       4.53792906E-12
  -14.4899998       3.03764414E-12
  -14.4799995       1.62496495E-13
  -14.4700003      -3.62901159E-12
  -14.4600000      -7.47592786E-12
  -14.4499998      -1.02707278E-11
  -14.4399996      -1.09282184E-11
  -14.4300003      -8.71117848E-12
  -14.4200001      -3.52524997E-12
  -14.4099998       3.91237867E-12
  -14.3999996       1.21055796E-11
  -14.3900003       1.90419347E-11
  -14.3800001       2.26480709E-11
  -14.3699999       2.13381361E-11
  -14.3599997       1.45124425E-11
  -14.3500004       2.85960968E-12
  -14.3400002      -1.16458440E-11
  -14.3299999      -2.60797911E-11
  -14.3199997      -3.71776186E-11
  -14.3100004      -4.20687270E-11
  -14.3000002      -3.89516371E-11
  -14.2900000      -2.75328128E-11
  -14.2799997      -9.12187253E-12
  -14.2700005       1.36227149E-11
  -14.2600002       3.72024044E-11
  -14.2500000       5.78783931E-11
  -14.2399998       7.21979698E-11
  -14.2299995       7.73402037E-11
  -14.2200003       7.12778586E-11
  -14.2100000       5.28593141E-11
  -14.1999998       2.19589642E-11
  -14.1899996      -2.01742911E-11
  -14.1800003      -7.03709174E-11
  -14.1700001      -1.22962238E-10
  -14.1599998      -1.69499831E-10
  -14.1499996      -1.99171304E-10
  -14.1400003      -2.00226280E-10
  -14.1300001      -1.62472397E-10
  -14.1199999      -8.05196188E-11
  -14.1099997       4.29429062E-11
  -14.1000004       1.94831429E-10
  -14.0900002       3.51346674E-10
  -14.0799999       4.80361584E-10
  -14.0699997       5.46674539E-10
  -14.0600004       5.19447985E-10
  -14.0500002       3.80460247E-10
  -14.0400000       1.31224226E-10
  -14.0299997      -2.02993969E-10
  -14.0200005      -5.73811165E-10
  -14.0100002      -9.15626908E-10
  -14.0000000      -1.15622034E-09
  -13.9899998      -1.23029342E-09
  -13.9799995      -1.09343468E-09
  -13.9700003      -7.33547945E-10
  -13.9600000      -1.77295262E-10
  -13.9499998       5.10057330E-10
  -13.9399996       1.23174237E-09
  -13.9300003       1.87254057E-09
  -13.9200001       2.31566677E-09
  -13.9099998       2.46097231E-09
  -13.8999996       2.24160046E-09
  -13.8900003       1.63687797E-09
  -13.8800001       6.79645784E-10
  -13.8699999      -5.42672463E-10
  -13.8599997      -1.89371385E-09
  -13.8500004      -3.20001314E-09
  -13.8400002      -4.26845048E-09
  -13.8299999      -4.90810192E-09
  -13.8199997      -4.95493069E-09
  -13.8100004      -4.29726832E-09
  -13.8000002      -2.89935320E-09
  -13.7900000      -8.19721735E-10
  -13.7799997       1.77889736E-09
  -13.7700005       4.63143035E-09
  -13.7600002       7.38623562E-09
  -13.7500000       9.63598268E-09
  -13.7399998       1.09623741E-08
  -13.7299995       1.09918448E-08
  -13.7200003       9.45690992E-09
  -13.7100000       6.25574925E-09
  -13.6999998       1.50158275E-09
  -13.6899996      -4.44759296E-09
  -13.6800003      -1.09876739E-08
  -13.6700001      -1.73022876E-08
  -13.6599998      -2.24355610E-08
  -13.6499996      -2.54015031E-08
  -13.6400003      -2.53229384E-08
  -13.6300001      -2.15847376E-08
  -13.6199999      -1.39810519E-08
  -13.6099997      -2.83176993E-09
  -13.6000004       1.09572840E-08
  -13.5900002       2.59120227E-08
  -13.5799999       4.00981897E-08
  -13.5699997       5.13214040E-08
  -13.5600004       5.74040158E-08
  -13.5500002       5.65098688E-08
  -13.5400000       4.74750621E-08
  -13.5299997       3.00946184E-08
  -13.5200005       5.31683897E-09
  -13.5100002      -2.46992578E-08
  -13.5000000      -5.66899061E-08
  -13.4899998      -8.65653860E-08
  -13.4799995      -1.09847363E-07
  -13.4700003      -1.22224463E-07
  -13.4600000      -1.20169688E-07
  -13.4499998      -1.01544138E-07
  -13.4399996      -6.61035600E-08
  -13.4300003      -1.58283129E-08
  -13.4200001       4.49950157E-08
  -13.4099998       1.09987582E-07
  -13.3999996       1.71204150E-07
  -13.3900003       2.19949143E-07
  -13.3800001       2.47818122E-07
  -13.3699999       2.47856576E-07
  -13.3599997       2.15702116E-07
  -13.3500004       1.50546668E-07
  -13.3400002       5.57695010E-08
  -13.3299999      -6.08998221E-08
  -13.3199997      -1.87767071E-07
  -13.3100004      -3.10132918E-07
  -13.3000002      -4.11777677E-07
  -13.2900000      -4.76832696E-07
  -13.2799997      -4.91848539E-07
  -13.2700005      -4.47814756E-07
  -13.2600002      -3.41871441E-07
  -13.2500000      -1.78458208E-07
  -13.2399998       3.02980148E-08
  -13.2299995       2.65089113E-07
  -13.2200003       5.00869646E-07
  -13.2100000       7.09169797E-07
  -13.1999998       8.61093042E-07
  -13.1899996       9.30737087E-07
  -13.1800003       8.98680355E-07
  -13.1700001       7.55124063E-07
  -13.1599998       5.02296530E-07
  -13.1499996       1.55719334E-07
  -13.1400003      -2.55938659E-07
  -13.1300001      -6.92592437E-07
  -13.1199999      -1.10606118E-06
  -13.1099997      -1.44475609E-06
  -13.1000004      -1.65937763E-06
  -13.0900002      -1.70903195E-06
  -13.0799999      -1.56710644E-06
  -13.0699997      -1.22613687E-06
  -13.0600004      -7.00993382E-07
  -13.0500002      -2.97638216E-08
  -13.0400000       7.27976953E-07
  -13.0299997       1.49564653E-06
  -13.0200005       2.18662035E-06
  -13.0100002       2.71313183E-06
  -13.0000000       2.99627527E-06
  -12.9899998       2.97603265E-06
  -12.9799995       2.62020126E-06
  -12.9700003       1.93104052E-06
  -12.9600000       9.48689944E-07
  -12.9499998      -2.49424772E-07
  -12.9399996      -1.55344355E-06
  -12.9300003      -2.83010422E-06
  -12.9200001      -3.93537312E-06
  -12.9099998      -4.72949978E-06
  -12.8999996      -5.09306665E-06
  -12.8900003      -4.94233609E-06
  -12.8800001      -4.24199698E-06
  -12.8699999      -3.01365867E-06
  -12.8599997      -1.33872175E-06
  -12.8500004       6.45204238E-07
  -12.8400002       2.75445541E-06
  -12.8299999       4.77550566E-06
  -12.8199997       6.48571631E-06
  -12.8100004       7.67673737E-06
  -12.8000002       8.17808086E-06
  -12.7900000       7.87822319E-06
  -12.7799997       6.74081139E-06
  -12.7700005       4.81381039E-06
  -12.7600002       2.23032112E-06
  -12.7500000      -7.99556460E-07
  -12.7399998      -4.00534373E-06
  -12.7299995      -7.07994013E-06
  -12.7200003      -9.70835845E-06
  -12.7100000      -1.15987332E-05
  -12.6999998      -1.25125471E-05
  -12.6899996      -1.22910078E-05
  -12.6800003      -1.08748854E-05
  -12.6700001      -8.31550096E-06
  -12.6599998      -4.77562935E-06
  -12.6499996      -5.19798562E-07
  -12.6400003       4.10541679E-06
  -12.6300001       8.69955420E-06
  -12.6199999       1.28424554E-05
  -12.6099997       1.61315602E-05
  -12.6000004       1.82187923E-05
  -12.5900002       1.88438389E-05
  -12.5799999       1.78606952E-05
  -12.5699997       1.52549401E-05
  -12.5600004       1.11502832E-05
  -12.5500002       5.80359892E-06
  -12.5400000      -4.11318268E-07
  -12.5299997      -7.02987791E-06
  -12.5200005      -1.35308674E-05
  -12.5100002      -1.93759588E-05
  -12.5000000      -2.40516601E-05
  -12.4899998      -2.71103454E-05
  -12.4799995      -2.82076035E-05
  -12.4700003      -2.71322624E-05
  -12.4600000      -2.38274843E-05
  -12.4499998      -1.83999182E-05
  -12.4399996      -1.11167483E-05
  -12.4300003      -2.38935559E-06
  -12.4200001       7.25507061E-06
  -12.4099998       1.72121163E-05
  -12.3999996       2.68468066E-05
  -12.3900003       3.55438569E-05
  -12.3800001       4.27580562E-05
  -12.3699999       4.80599738E-05
  -12.3599997       5.11723993E-05
  -12.3500004       5.19951318E-05
  -12.3400002       5.06140132E-05
  -12.3299999       4.72940046E-05
  -12.3199997       4.24558675E-05
  -12.3100004       3.66384556E-05
  -12.3000002       3.04496007E-05
  -12.2900000       2.45087776E-05
  -12.2799997       1.93884443E-05
  -12.2700005       1.55566486E-05
  -12.2600002       1.33282529E-05
  -12.2500000       1.28276524E-05
  -12.2399998       1.39667545E-05
  -12.2299995       1.64410412E-05
  -12.2200003       1.97433856E-05
  -12.2100000       2.31956310E-05
  -12.1999998       2.59951503E-05
  -12.1899996       2.72745401E-05
  -12.1800003       2.61685473E-05
  -12.1700001       2.18855021E-05
  -12.1599998       1.37767183E-05
  -12.1499996       1.39995950E-06
  -12.1400003      -1.54273494E-05
  -12.1300001      -3.65922606E-05
  -12.1199999      -6.16673424E-05
  -12.1099997      -8.99156803E-05
  -12.1000004      -1.20317854E-04
  -12.0900002      -1.51623317E-04
  -12.0799999      -1.82421529E-04
  -12.0699997      -2.11230523E-04
  -12.0600004      -2.36595894E-04
  -12.0500002      -2.57190666E-04
  -12.0400000      -2.71911122E-04
  -12.0299997      -2.79956148E-04
  -12.0200005      -2.80883833E-04
  -12.0100002      -2.74642138E-04
  -12.0000000      -2.61566165E-04
  -11.9899998      -2.42347349E-04
  -11.9799995      -2.17973386E-04
  -11.9700003      -1.89648679E-04
  -11.9600000      -1.58698676E-04
  -11.9499998      -1.26470724E-04
  -11.9399996      -9.42356055E-05
  -11.9300003      -6.31003350E-05
  -11.9200001      -3.39358594E-05
  -11.9099998      -7.32660101E-06
  -11.8999996       1.64610829E-05
  -11.8900003       3.74821320E-05
  -11.8800001       5.60967601E-05
  -11.8699999       7.29326348E-05
  -11.8599997       8.88264403E-05
  -11.8500004       1.04753424E-04
  -11.8400002       1.21745470E-04
  -11.8299999       1.40806005E-04
  -11.8199997       1.62823926E-04
  -11.8100004       1.88497550E-04
  -11.8000002       2.18269983E-04
  -11.7900000       2.52283178E-04
  -11.7799997       2.90351891E-04
  -11.7700005       3.31961899E-04
  -11.7600002       3.76287615E-04
  -11.7500000       4.22231271E-04
  -11.7399998       4.68475366E-04
  -11.7299995       5.13548963E-04
  -11.7200003       5.55897364E-04
  -11.7100000       5.93957433E-04
  -11.6999998       6.26226712E-04
  -11.6899996       6.51334354E-04
  -11.6800003       6.68102468E-04
  -11.6700001       6.75601186E-04
  -11.6599998       6.73195638E-04
  -11.6499996       6.60580874E-04
  -11.6400003       6.37801888E-04
  -11.6300001       6.05257519E-04
  -11.6199999       5.63683454E-04
  -11.6099997       5.14113286E-04
  -11.6000004       4.57819348E-04
  -11.5900002       3.96232121E-04
  -11.5799999       3.30848561E-04
  -11.5699997       2.63133814E-04
  -11.5600004       1.94424050E-04
  -11.5500002       1.25845399E-04
  -11.5400000       5.82502325E-05
  -11.5299997      -7.81644667E-06
  -11.5200005      -7.21260876E-05
  -11.5100002      -1.34740651E-04
  -11.5000000      -1.95968547E-04
  -11.4899998      -2.56300467E-04
  -11.4799995      -3.16336838E-04
  -11.4700003      -3.76714102E-04
  -11.4600000      -4.38042218E-04
  -11.4499998      -5.00849041E-04
  -11.4399996      -5.65543771E-04
  -11.4300003      -6.32394396E-04
  -11.4200001      -7.01517740E-04
  -11.4099998      -7.72881613E-04
  -11.3999996      -8.46311334E-04
  -11.3900003      -9.21503466E-04
  -11.3800001      -9.98036587E-04
  -11.3699999      -1.07538945E-03
  -11.3599997      -1.15295651E-03
  -11.3500004      -1.23006606E-03
  -11.3400002      -1.30600412E-03
  -11.3299999      -1.38003659E-03
  -11.3199997      -1.45144016E-03
  -11.3100004      -1.51952484E-03
  -11.3000002      -1.58366258E-03
  -11.2900000      -1.64330448E-03
  -11.2799997      -1.69799419E-03
  -11.2700005      -1.74737081E-03
  -11.2600002      -1.79116661E-03
  -11.2500000      -1.82919169E-03
  -11.2399998      -1.86132733E-03
  -11.2299995      -1.88750622E-03
  -11.2200003      -1.90770708E-03
  -11.2100000      -1.92194793E-03
  -11.1999998      -1.93029409E-03
  -11.1899996      -1.93286245E-03
  -11.1800003      -1.92983926E-03
  -11.1700001      -1.92149077E-03
  -11.1599998      -1.90817402E-03
  -11.1499996      -1.89033814E-03
  -11.1400003      -1.86851516E-03
  -11.1300001      -1.84330496E-03
  -11.1199999      -1.81534630E-03
  -11.1099997      -1.78528426E-03
  -11.1000004      -1.75373990E-03
  -11.0900002      -1.72127481E-03
  -11.0799999      -1.68836862E-03
  -11.0699997      -1.65540294E-03
  -11.0600004      -1.62265135E-03
  -11.0500002      -1.59027881E-03
  -11.0400000      -1.55834714E-03
  -11.0299997      -1.52681861E-03
  -11.0200005      -1.49556168E-03
  -11.0100002      -1.46435131E-03
  -11.0000000      -1.43287703E-03
  -10.9899998      -1.40073709E-03
  -10.9799995      -1.36745244E-03
  -10.9700003      -1.33247348E-03
  -10.9600000      -1.29520055E-03
  -10.9499998      -1.25501049E-03
  -10.9399996      -1.21129199E-03
  -10.9300003      -1.16347673E-03
  -10.9200001      -1.11107843E-03
  -10.9099998      -1.05371652E-03
  -10.8999996      -9.91135370E-04
  -10.8900003      -9.23216343E-04
  -10.8800001      -8.49972712E-04
  -10.8699999      -7.71536608E-04
  -10.8599997      -6.88145694E-04
  -10.8500004      -6.00118539E-04
  -10.8400002      -5.07835008E-04
  -10.8299999      -4.11710818E-04
  -10.8199997      -3.12180695E-04
  -10.8100004      -2.09681108E-04
  -10.8000002      -1.04632098E-04
  -10.7900000       2.56796943E-06
  -10.7799997       1.11556852E-04
  -10.7700005       2.22011862E-04
  -10.7600002       3.33654287E-04
  -10.7500000       4.46258549E-04
  -10.7399998       5.59651409E-04
  -10.7299995       6.73732196E-04
  -10.7200003       7.88476318E-04
  -10.7100000       9.03955777E-04
  -10.6999998       1.02035387E-03
  -10.6899996       1.13797106E-03
  -10.6800003       1.25723029E-03
  -10.6700001       1.37866684E-03
  -10.6599998       1.50290795E-03
  -10.6499996       1.63063547E-03
  -10.6400003       1.76255289E-03
  -10.6300001       1.89934124E-03
  -10.6199999       2.04162463E-03
  -10.6099997       2.18993914E-03
  -10.6000004       2.34472868E-03
  -10.5900002       2.50633131E-03
  -10.5799999       2.67498707E-03
  -10.5699997       2.85083638E-03
  -10.5600004       3.03393300E-03
  -10.5500002       3.22423759E-03
  -10.5400000       3.42159602E-03
  -10.5299997       3.62573983E-03
  -10.5200005       3.83625226E-03
  -10.5100002       4.05256031E-03
  -10.5000000       4.27392451E-03
  -10.4899998       4.49943589E-03
  -10.4799995       4.72803134E-03
  -10.4700003       4.95849596E-03
  -10.4600000       5.18950354E-03
  -10.4499998       5.41962776E-03
  -10.4399996       5.64736500E-03
  -10.4300003       5.87115483E-03
  -10.4200001       6.08940842E-03
  -10.4099998       6.30051829E-03
  -10.3999996       6.50288910E-03
  -10.3900003       6.69497112E-03
  -10.3800001       6.87530125E-03
  -10.3699999       7.04252440E-03
  -10.3599997       7.19546340E-03
  -10.3500004       7.33314175E-03
  -10.3400002       7.45483115E-03
  -10.3299999       7.56008085E-03
  -10.3199997       7.64872273E-03
  -10.3100004       7.72090536E-03
  -10.3000002       7.77705619E-03
  -10.2900000       7.81789143E-03
  -10.2799997       7.84437638E-03
  -10.2700005       7.85770081E-03
  -10.2600002       7.85922911E-03
  -10.2500000       7.85047188E-03
  -10.2399998       7.83307198E-03
  -10.2299995       7.80874258E-03
  -10.2200003       7.77926855E-03
  -10.2100000       7.74649158E-03
  -10.1999998       7.71228690E-03
  -10.1899996       7.67856138E-03
  -10.1800003       7.64721259E-03
  -10.1700001       7.62011670E-03
  -10.1599998       7.59906927E-03
  -10.1499996       7.58573553E-03
  -10.1400003       7.58157717E-03
  -10.1300001       7.58779515E-03
  -10.1199999       7.60528073E-03
  -10.1099997       7.63453357E-03
  -10.1000004       7.67567940E-03
  -10.0900002       7.72845745E-03
  -10.0799999       7.79224327E-03
  -10.0699997       7.86610413E-03
  -10.0600004       7.94888288E-03
  -10.0500002       8.03926215E-03
  -10.0400000       8.13586451E-03
  -10.0299997       8.23729485E-03
  -10.0200005       8.34221859E-03
  -10.0100002       8.44941754E-03
  -10.0000000       8.55776202E-03
  -9.98999977       8.66629370E-03
  -9.97999954       8.77418835E-03
  -9.97000027       8.88074934E-03
  -9.96000004       8.98546539E-03
  -9.94999981       9.08796582E-03
  -9.93999958       9.18811932E-03
  -9.93000031       9.28603020E-03
  -9.92000008       9.38209146E-03
  -9.90999985       9.47703421E-03
  -9.89999962       9.57194995E-03
  -9.89000034       9.66829527E-03
  -9.88000011       9.76786949E-03
  -9.86999989       9.87279043E-03
  -9.85999966       9.98535566E-03
  -9.85000038       1.01079950E-02
  -9.84000015       1.02431467E-02
  -9.82999992       1.03931492E-02
  -9.81999969       1.05601354E-02
  -9.81000042       1.07460395E-02
  -9.80000019       1.09524895E-02
  -9.78999996       1.11808246E-02
  -9.77999973       1.14321206E-02
  -9.77000046       1.17071541E-02
  -9.76000023       1.20064458E-02
  -9.75000000       1.23302182E-02
  -9.73999977       1.26784164E-02
  -9.72999954       1.30506335E-02
  -9.72000027       1.34461112E-02
  -9.71000004       1.38637200E-02
  -9.69999981       1.43019119E-02
  -9.68999958       1.47588160E-02
  -9.68000031       1.52322082E-02
  -9.67000008       1.57196019E-02
  -9.65999985       1.62182078E-02
  -9.64999962       1.67250633E-02
  -9.64000034       1.72369517E-02
  -9.63000011       1.77504085E-02
  -9.61999989       1.82618015E-02
  -9.60999966       1.87671557E-02
  -9.60000038       1.92623772E-02
  -9.59000015       1.97431464E-02
  -9.57999992       2.02051327E-02
  -9.56999969       2.06440389E-02
  -9.56000042       2.10557617E-02
  -9.55000019       2.14365441E-02
  -9.53999996       2.17831023E-02
  -9.52999973       2.20926926E-02
  -9.52000046       2.23631617E-02
  -9.51000023       2.25930475E-02
  -9.50000000       2.27815323E-02
  -9.48999977       2.29284931E-02
  -9.47999954       2.30344720E-02
  -9.47000027       2.31006090E-02
  -9.46000004       2.31287293E-02
  -9.44999981       2.31212396E-02
  -9.43999958       2.30810754E-02
  -9.43000031       2.30118036E-02
  -9.42000008       2.29173768E-02
  -9.40999985       2.28022952E-02
  -9.39999962       2.26714592E-02
  -9.39000034       2.25302856E-02
  -9.38000011       2.23844592E-02
  -9.36999989       2.22401191E-02
  -9.35999966       2.21036803E-02
  -9.35000038       2.19817031E-02
  -9.34000015       2.18807869E-02
  -9.32999992       2.18073670E-02
  -9.31999969       2.17675883E-02
  -9.31000042       2.17670873E-02
  -9.30000019       2.18108781E-02
  -9.28999996       2.19033733E-02
  -9.27999973       2.20482759E-02
  -9.27000046       2.22486835E-02
  -9.26000023       2.25071143E-02
  -9.25000000       2.28256416E-02
  -9.23999977       2.32059099E-02
  -9.22999954       2.36491747E-02
  -9.22000027       2.41562836E-02
  -9.21000004       2.47277189E-02
  -9.19999981       2.53635272E-02
  -9.18999958       2.60632951E-02
  -9.18000031       2.68261526E-02
  -9.17000008       2.76507828E-02
  -9.15999985       2.85353847E-02
  -9.14999962       2.94776689E-02
  -9.14000034       3.04748192E-02
  -9.13000011       3.15235704E-02
  -9.11999989       3.26200128E-02
  -9.10999966       3.37595865E-02
  -9.10000038       3.49371955E-02
  -9.09000015       3.61470021E-02
  -9.07999992       3.73826437E-02
  -9.06999969       3.86372581E-02
  -9.06000042       3.99035923E-02
  -9.05000019       4.11741622E-02
  -9.03999996       4.24413122E-02
  -9.02999973       4.36974689E-02
  -9.02000046       4.49349955E-02
  -9.01000023       4.61465269E-02
  -9.00000000       4.73247655E-02
  -8.98999977       4.84625921E-02
  -8.97999954       4.95530181E-02
  -8.97000027       5.05893417E-02
  -8.96000004       5.15650660E-02
  -8.94999981       5.24739325E-02
  -8.93999958       5.33100665E-02
  -8.93000031       5.40680140E-02
  -8.92000008       5.47429584E-02
  -8.90999985       5.53305335E-02
  -8.89999962       5.58272079E-02
  -8.89000034       5.62301762E-02
  -8.88000011       5.65374494E-02
  -8.86999989       5.67478426E-02
  -8.85999966       5.68609722E-02
  -8.85000038       5.68772480E-02
  -8.84000015       5.67978993E-02
  -8.82999992       5.66248335E-02
  -8.81999969       5.63605875E-02
  -8.81000042       5.60083389E-02
  -8.80000019       5.55717908E-02
  -8.78999996       5.50550558E-02
  -8.77999973       5.44626005E-02
  -8.77000046       5.37992418E-02
  -8.76000023       5.30699231E-02
  -8.75000000       5.22799678E-02
  -8.73999977       5.14347255E-02
  -8.72999954       5.05399704E-02
  -8.72000027       4.96015213E-02
  -8.71000004       4.86256741E-02
  -8.69999981       4.76189144E-02
  -8.68999958       4.65879515E-02
  -8.68000031       4.55397181E-02
  -8.67000008       4.44809943E-02
  -8.65999985       4.34185453E-02
  -8.64999962       4.23588082E-02
  -8.64000034       4.13075574E-02
  -8.63000011       4.02702168E-02
  -8.61999989       3.92514504E-02
  -8.60999966       3.82553227E-02
  -8.60000038       3.72852422E-02
  -8.59000015       3.63439284E-02
  -8.57999992       3.54336910E-02
  -8.56999969       3.45563740E-02
  -8.56000042       3.37133557E-02
  -8.55000019       3.29056941E-02
  -8.53999996       3.21342237E-02
  -8.52999973       3.13994288E-02
  -8.52000046       3.07014659E-02
  -8.51000023       3.00402716E-02
  -8.50000000       2.94154659E-02
  -8.48999977       2.88262144E-02
  -8.47999954       2.82714590E-02
  -8.47000027       2.77496856E-02
  -8.46000004       2.72589289E-02
  -8.44999981       2.67970730E-02
  -8.43999958       2.63617709E-02
  -8.43000031       2.59502791E-02
  -8.42000008       2.55602710E-02
  -8.40999985       2.51892954E-02
  -8.39999962       2.48352494E-02
  -8.39000034       2.44964622E-02
  -8.38000011       2.41717435E-02
  -8.36999989       2.38603633E-02
  -8.35999966       2.35624630E-02
  -8.35000038       2.32782364E-02
  -8.34000015       2.30091028E-02
  -8.32999992       2.27566902E-02
  -8.31999969       2.25234311E-02
  -8.31000042       2.23119911E-02
  -8.30000019       2.21256968E-02
  -8.28999996       2.19680518E-02
  -8.27999973       2.18429267E-02
  -8.27000046       2.17543226E-02
  -8.26000023       2.17063017E-02
  -8.25000000       2.17030291E-02
  -8.23999977       2.17486601E-02
  -8.22999954       2.18473356E-02
  -8.22000027       2.20032465E-02
  -8.21000004       2.22203247E-02
  -8.19999981       2.25025918E-02
  -8.18999958       2.28536390E-02
  -8.18000031       2.32770722E-02
  -8.17000008       2.37758923E-02
  -8.15999985       2.43529659E-02
  -8.14999962       2.50107627E-02
  -8.14000034       2.57508922E-02
  -8.13000011       2.65747458E-02
  -8.11999989       2.74833608E-02
  -8.10999966       2.84769125E-02
  -8.10000038       2.95552239E-02
  -8.09000015       3.07178441E-02
  -8.07999992       3.19635421E-02
  -8.06999969       3.32909338E-02
  -8.06000042       3.46981622E-02
  -8.05000019       3.61831747E-02
  -8.03999996       3.77434529E-02
  -8.02999973       3.93761173E-02
  -8.02000046       4.10781130E-02
  -8.01000023       4.28456850E-02
  -8.00000000       4.46750224E-02
  -7.98999977       4.65616770E-02
  -7.98000002       4.85011227E-02
  -7.96999979       5.04883938E-02
  -7.96000004       5.25182039E-02
  -7.94999981       5.45854904E-02
  -7.94000006       5.66846356E-02
  -7.92999983       5.88105582E-02
  -7.92000008       6.09574318E-02
  -7.90999985       6.31200969E-02
  -7.90000010       6.52928352E-02
  -7.88999987       6.74702898E-02
  -7.88000011       6.96469992E-02
  -7.86999989       7.18173683E-02
  -7.86000013       7.39763454E-02
  -7.84999990       7.61187971E-02
  -7.84000015       7.82396719E-02
  -7.82999992       8.03343579E-02
  -7.82000017       8.23981166E-02
  -7.80999994       8.44267234E-02
  -7.80000019       8.64164457E-02
  -7.78999996       8.83634686E-02
  -7.78000021       9.02648196E-02
  -7.76999998       9.21177864E-02
  -7.76000023       9.39201862E-02
  -7.75000000       9.56706926E-02
  -7.73999977       9.73679349E-02
  -7.73000002       9.90116671E-02
  -7.71999979      0.100601502    
  -7.71000004      0.102137856    
  -7.69999981      0.103621520    
  -7.69000006      0.105053745    
  -7.67999983      0.106435992    
  -7.67000008      0.107770793    
  -7.65999985      0.109060846    
  -7.65000010      0.110309243    
  -7.63999987      0.111519925    
  -7.63000011      0.112697080    
  -7.61999989      0.113844678    
  -7.61000013      0.114967532    
  -7.59999990      0.116070211    
  -7.59000015      0.117156632    
  -7.57999992      0.118231498    
  -7.57000017      0.119299240    
  -7.55999994      0.120363772    
  -7.55000019      0.121429518    
  -7.53999996      0.122500882    
  -7.53000021      0.123582207    
  -7.51999998      0.124677852    
  -7.51000023      0.125792027    
  -7.50000000      0.126929253    
  -7.48999977      0.128093347    
  -7.48000002      0.129287809    
  -7.46999979      0.130516291    
  -7.46000004      0.131781369    
  -7.44999981      0.133085966    
  -7.44000006      0.134432405    