  -16.0000000       0.00000000    
  -15.9899998       0.00000000    
  -15.9799995       0.00000000    
  -15.9700003       0.00000000    
  -15.9600000       0.00000000    
  -15.9499998       0.00000000    
  -15.9399996       0.00000000    
  -15.9300003       0.00000000    
  -15.9200001       0.00000000    
  -15.9099998       0.00000000    
  -15.8999996       0.00000000    
  -15.8900003       0.00000000    
  -15.8800001       0.00000000    
  -15.8699999       0.00000000    
  -15.8599997       0.00000000    
  -15.8500004      -0.00000000    
  -15.8400002      -0.00000000    
  -15.8299999      -1.40129846E-45
  -15.8199997      -1.40129846E-45
  -15.8100004       4.20389539E-45
  -15.8000002       6.86636248E-44
  -15.7900000       5.38098610E-43
  -15.7799997       3.03661377E-42
  -15.7700005       1.39793535E-41
  -15.7600002       5.51144699E-41
  -15.7500000       1.90781181E-40
  -15.7399998       5.88323950E-40
  -15.7299995       1.63041777E-39
  -15.7200003       4.07912518E-39
  -15.7100000       9.22000440E-39
  -15.6999998       1.87535661E-38
  -15.6899996       3.39445327E-38
  -15.6800003       5.32911620E-38
  -15.6700001       6.80610440E-38
  -15.6599998       5.60641187E-38
  -15.6499996      -2.32721343E-38
  -15.6400003      -2.24883673E-37
  -15.6300001      -5.92604771E-37
  -15.6199999      -1.09966756E-36
  -15.6099997      -1.55636718E-36
  -15.6000004      -1.52362855E-36
  -15.5900002      -3.32580433E-37
  -15.5799999       2.63269893E-36
  -15.5699997       7.25346810E-36
  -15.5600004       1.16731260E-35
  -15.5500002       1.15409768E-35
  -15.5400000       7.45812073E-37
  -15.5299997      -2.47324499E-35
  -15.5200005      -5.90618814E-35
  -15.5100002      -7.72219375E-35
  -15.5000000      -3.20111448E-35
  -15.4899998       1.28987535E-34
  -15.4799995       4.13275299E-34
  -15.4700003       7.02524648E-34
  -15.4600000       6.80349131E-34
  -15.4499998      -1.40716626E-34
  -15.4399996      -2.17098286E-33
  -15.4300003      -5.20160769E-33
  -15.4200001      -7.69174369E-33
  -15.4099998      -6.35524409E-33
  -15.3999996       3.12191243E-33
  -15.3900003       2.33668778E-32
  -15.3800001       5.04994254E-32
  -15.3699999       6.89575549E-32
  -15.3599997       5.03363843E-32
  -15.3500004      -3.75165781E-32
  -15.3400002      -2.06425342E-31
  -15.3299999      -4.11786627E-31
  -15.3199997      -5.21751960E-31
  -15.3100004      -3.25126315E-31
  -15.3000002       3.82773710E-31
  -15.2900000       1.61853780E-30
  -15.2799997       2.97684691E-30
  -15.2700005       3.48137491E-30
  -15.2600002       1.73989527E-30
  -15.2500000      -3.38588227E-30
  -15.2399998      -1.15767747E-29
  -15.2299995      -1.97117320E-29
  -15.2200003      -2.13063102E-29
  -15.2100000      -8.00726138E-30
  -15.1999998       2.58770385E-29
  -15.1899996       7.61868034E-29
  -15.1800003       1.21867984E-28
  -15.1700001       1.23583795E-28
  -15.1599998       3.46751379E-29
  -15.1499996      -1.71508142E-28
  -15.1400003      -4.62105079E-28
  -15.1300001      -7.10208478E-28
  -15.1199999      -6.95047654E-28
  -15.1099997      -1.69539288E-28
  -15.1000004       9.89867325E-28
  -15.0900002       2.58041660E-27
  -15.0799999       3.91020093E-27
  -15.0699997       3.82351636E-27
  -15.0600004       1.06505399E-27
  -15.0500002      -4.96426277E-27
  -15.0400000      -1.32240682E-26
  -15.0299997      -2.02796602E-26
  -15.0200005      -2.04657836E-26
  -15.0100002      -7.63730139E-27
  -15.0000000       2.12977992E-26
  -14.9899998       6.18480447E-26
  -14.9799995       9.84615198E-26
  -14.9700003       1.05128867E-25
  -14.9600000       5.29430376E-26
  -14.9499998      -7.45497529E-26
  -14.9399996      -2.61490232E-25
  -14.9300003      -4.43853377E-25
  -14.9200001      -5.10139042E-25
  -14.9099998      -3.30657113E-25
  -14.8999996       1.80511824E-25
  -14.8900003       9.82918420E-25
  -14.8800001       1.83918700E-24
  -14.8699999       2.30557024E-24
  -14.8599997       1.83248976E-24
  -14.8500004      -4.10678869E-27
  -14.8400002      -3.17863317E-24
  -14.8299999      -6.91455516E-24
  -14.8199997      -9.58679860E-24
  -14.8100004      -9.01815058E-24
  -14.8000002      -3.27185819E-24
  -14.7900000       8.15751044E-24
  -14.7799997       2.31284488E-23
  -14.7700005       3.62369441E-23
  -14.7600002       3.95048225E-23
  -14.7500000       2.48355564E-23
  -14.7399998      -1.19266042E-23
  -14.7299995      -6.64207756E-23
  -14.7200003      -1.22681679E-22
  -14.7100000      -1.53988653E-22
  -14.6999998      -1.29570315E-22
  -14.6899996      -2.72887592E-23
  -14.6800003       1.50454657E-22
  -14.6700001       3.63501021E-22
  -14.6599998       5.31334953E-22
  -14.6499996       5.48327395E-22
  -14.6400003       3.19464483E-22
  -14.6300001      -1.89104259E-22
  -14.6199999      -9.00426890E-22
  -14.6099997      -1.60169076E-21
  -14.6000004      -1.96842349E-21
  -14.5900002      -1.65267879E-21
  -14.5799999      -4.28114182E-22
  -14.5699997       1.64471425E-21
  -14.5600004       4.09708697E-21
  -14.5500002       6.05125270E-21
  -14.5400000       6.40000787E-21
  -14.5299997       4.17582382E-21
  -14.5200005      -9.60557529E-22
  -14.5100002      -8.26767103E-21
  -14.5000000      -1.57197791E-20
  -14.4899998      -2.02559504E-20
  -14.4799995      -1.85843961E-20
  -14.4700003      -8.45445633E-21
  -14.4600000       9.92845502E-21
  -14.4499998       3.28730558E-20
  -14.4399996       5.31544484E-20
  -14.4300003       6.13948314E-20
  -14.4200001       4.89197167E-20
  -14.4099998       1.15516023E-20
  -14.3999996      -4.68008192E-20
  -14.3900003      -1.12284779E-19
  -14.3800001      -1.62425224E-19
  -14.3699999      -1.71382698E-19
  -14.3599997      -1.18641623E-19
  -14.3500004       9.26094935E-22
  -14.3400002       1.69002757E-19
  -14.3299999       3.41653433E-19
  -14.3199997       4.56097308E-19
  -14.3100004       4.47170686E-19
  -14.3000002       2.70803449E-19
  -14.2900000      -7.17886208E-20
  -14.2799997      -5.17991977E-19
  -14.2700005      -9.44607586E-19
  -14.2600002      -1.19117679E-18
  -14.2500000      -1.10498653E-18
  -14.2399998      -5.98674553E-19
  -14.2299995       2.96235970E-19
  -14.2200003       1.40049763E-18
  -14.2100000       2.40132269E-18
  -14.1999998       2.91829734E-18
  -14.1899996       2.61403280E-18
  -14.1800003       1.32458086E-18
  -14.1700001      -8.29848218E-19
  -14.1599998      -3.39819258E-18
  -14.1499996      -5.65095797E-18
  -14.1400003      -6.74277476E-18
  -14.1300001      -5.96148158E-18
  -14.1199999      -3.00400959E-18
  -14.1099997       1.80614390E-18
  -14.1000004       7.44857116E-18
  -14.0900002       1.23458435E-17
  -14.0799999       1.47234377E-17
  -14.0699997       1.31293746E-17
  -14.0600004       6.98529046E-18
  -14.0500002      -3.00146435E-18
  -14.0400000      -1.47321148E-17
  -14.0299997      -2.50261261E-17
  -14.0200005      -3.03480126E-17
  -14.0100002      -2.78204894E-17
  -14.0000000      -1.62723533E-17
  -13.9899998       2.99850304E-18
  -13.9799995       2.60481772E-17
  -13.9700003       4.68808450E-17
  -13.9600000       5.87994986E-17
  -13.9499998       5.62630187E-17
  -13.9399996       3.67920639E-17
  -13.9300003       2.35807831E-18
  -13.9200001      -4.02674963E-17
  -13.9099998      -8.05163050E-17
  -13.8999996      -1.06345959E-16
  -13.8900003      -1.07450126E-16
  -13.8800001      -7.85787370E-17
  -13.8699999      -2.20150745E-17
  -13.8599997       5.16670444E-17
  -13.8500004       1.25095821E-16
  -13.8400002       1.77808256E-16
  -13.8299999       1.91486833E-16
  -13.8199997       1.55483141E-16
  -13.8100004       7.10973118E-17
  -13.8000002      -4.68088241E-17
  -13.7900000      -1.71749231E-16
  -13.7799997      -2.71108935E-16
  -13.7700005      -3.14191202E-16
  -13.7600002      -2.80936212E-16
  -13.7500000      -1.68962162E-16
  -13.7399998       3.27948534E-18
  -13.7299995       1.98656278E-16
  -13.7200003       3.68930706E-16
  -13.7100000       4.66364694E-16
  -13.6999998       4.56640968E-16
  -13.6899996       3.29677029E-16
  -13.6800003       1.05083000E-16
  -13.6700001      -1.69863325E-16
  -13.6599998      -4.29987964E-16
  -13.6499996      -6.07844978E-16
  -13.6400003      -6.51446369E-16
  -13.6300001      -5.39371364E-16
  -13.6199999      -2.88805412E-16
  -13.6099997       4.63391575E-17
  -13.6000004       3.87490733E-16
  -13.5900002       6.51030635E-16
  -13.5799999       7.70407276E-16
  -13.5699997       7.14586852E-16
  -13.5600004       4.97295055E-16
  -13.5500002       1.73851196E-16
  -13.5400000      -1.74083283E-16
  -13.5299997      -4.61805698E-16
  -13.5200005      -6.26117225E-16
  -13.5100002      -6.43449214E-16
  -13.5000000      -5.35434937E-16
  -13.4899998      -3.59448940E-16
  -13.4799995      -1.86470081E-16
  -13.4700003      -7.31746006E-17
  -13.4600000      -3.78921148E-17
  -13.4499998      -4.98166778E-17
  -13.4399996      -3.73548346E-17
  -13.4300003       8.45628593E-17
  -13.4200001       3.75303729E-16
  -13.4099998       8.30167727E-16
  -13.3999996       1.35766094E-15
  -13.3900003       1.78465734E-15
  -13.3800001       1.89444784E-15
  -13.3699999       1.49234606E-15
  -13.3599997       4.82964899E-16
  -13.3500004      -1.06415057E-15
  -13.3400002      -2.88513546E-15
  -13.3299999      -4.54696731E-15
  -13.3199997      -5.53215429E-15
  -13.3100004      -5.37046883E-15
  -13.3000002      -3.78829980E-15
  -13.2900000      -8.34967386E-16
  -13.2799997       3.05584034E-15
  -13.2700005       7.10035278E-15
  -13.2600002       1.03036950E-14
  -13.2500000       1.16842808E-14
  -13.2399998       1.05368629E-14
  -13.2299995       6.66877510E-15
  -13.2200003       5.40536087E-16
  -13.2100000      -6.74276935E-15
  -13.1999998      -1.36104701E-14
  -13.1899996      -1.83539724E-14
  -13.1800003      -1.95382650E-14
  -13.1700001      -1.64009414E-14
  -13.1599998      -9.13274735E-15
  -13.1499996       1.04884871E-15
  -13.1400003       1.20781418E-14
  -13.1300001       2.14559019E-14
  -13.1199999       2.68207172E-14
  -13.1099997       2.65472137E-14
  -13.1000004       2.02200927E-14
  -13.0900002       8.84942923E-15
  -13.0799999      -5.25357024E-15
  -13.0699997      -1.89403953E-14
  -13.0600004      -2.89400495E-14
  -13.0500002      -3.26625561E-14
  -13.0400000      -2.88912571E-14
  -13.0299997      -1.81764936E-14
  -13.0200005      -2.80600924E-15
  -13.0100002       1.36706755E-14
  -13.0000000       2.72710135E-14
  -12.9899998       3.45680888E-14
  -12.9799995       3.35900470E-14
  -12.9700003       2.43880047E-14
  -12.9600000       9.10270818E-15
  -12.9499998      -8.51605231E-15
  -12.9399996      -2.40388713E-14
  -12.9300003      -3.35090334E-14
  -12.9200001      -3.45176294E-14
  -12.9099998      -2.69045379E-14
  -12.8999996      -1.28730365E-14
  -12.8900003       3.54549865E-15
  -12.8800001       1.75652475E-14
  -12.8699999       2.49907110E-14
  -12.8599997       2.34738935E-14
  -12.8500004       1.33271198E-14
  -12.8400002      -2.36503479E-15
  -12.8299999      -1.84141863E-14
  -12.8199997      -2.88471300E-14
  -12.8100004      -2.85595861E-14
  -12.8000002      -1.48784861E-14
  -12.7900000       1.13939543E-14
  -12.7799997       4.57661761E-14
  -12.7700005       8.07813289E-14
  -12.7600002       1.07545436E-13
  -12.7500000       1.17710705E-13
  -12.7399998       1.05436296E-13
  -12.7299995       6.88433550E-14
  -12.7200003       1.06054403E-14
  -12.7100000      -6.24633876E-14
  -12.6999998      -1.40699166E-13
  -12.6899996      -2.13406522E-13
  -12.6800003      -2.70724605E-13
  -12.6700001      -3.05066438E-13
  -12.6599998      -3.11802830E-13
  -12.6499996      -2.89105355E-13
  -12.6400003      -2.37135046E-13
  -12.6300001      -1.56983150E-13
  -12.6199999      -4.98671505E-14
  -12.6099997       8.29796572E-14
  -12.6000004       2.39506630E-13
  -12.5900002       4.15231651E-13
  -12.5799999       6.01247242E-13
  -12.5699997       7.82523297E-13
  -12.5600004       9.37253855E-13
  -12.5500002       1.03785491E-12
  -12.5400000       1.05387736E-12
  -12.5299997       9.56625079E-13
  -12.5200005       7.24790562E-13
  -12.5100002       3.50042830E-13
  -12.5000000      -1.58640909E-13
  -12.4899998      -7.72960092E-13
  -12.4799995      -1.44624579E-12
  -12.4700003      -2.11742754E-12
  -12.4600000      -2.71739792E-12
  -12.4499998      -3.17661067E-12
  -12.4399996      -3.43245289E-12
  -12.4300003      -3.43498819E-12
  -12.4200001      -3.15004620E-12
  -12.4099998      -2.55929306E-12
  -12.3999996      -1.65767356E-12
  -12.3900003      -4.49271398E-13
  -12.3800001       1.05696181E-12
  -12.3699999       2.85013159E-12
  -12.3599997       4.91789595E-12
  -12.3500004       7.24413541E-12
  -12.3400002       9.80423728E-12
  -12.3299999       1.25592080E-11
  -12.3199997       1.54503250E-11
  -12.3100004       1.83960434E-11
  -12.3000002       2.12925129E-11
  -12.2900000       2.40182926E-11
  -12.2799997       2.64427421E-11
  -12.2700005       2.84368033E-11
  -12.2600002       2.98841125E-11
  -12.2500000       3.06902143E-11
  -12.2399998       3.07880978E-11
  -12.2299995       3.01390649E-11
  -12.2200003       2.87290261E-11
  -12.2100000       2.65613590E-11
  -12.1999998       2.36484235E-11
  -12.1899996       2.00041147E-11
  -12.1800003       1.56392885E-11
  -12.1700001       1.05616982E-11
  -12.1599998       4.78007954E-12
  -12.1499996      -1.68802472E-12
  -12.1400003      -8.80717981E-12
  -12.1300001      -1.65160559E-11
  -12.1199999      -2.47224324E-11
  -12.1099997      -3.33032282E-11
  -12.1000004      -4.21094062E-11
  -12.0900002      -5.09753004E-11
  -12.0799999      -5.97305122E-11
  -12.0699997      -6.82115406E-11
  -12.0600004      -7.62715238E-11
  -12.0500002      -8.37857700E-11
  -12.0400000      -9.06528880E-11
  -12.0299997      -9.67916233E-11
  -12.0200005      -1.02135161E-10
  -12.0100002      -1.06624841E-10
  -12.0000000      -1.10204873E-10
  -11.9899998      -1.12819885E-10
  -11.9799995      -1.14415505E-10
  -11.9700003      -1.14941362E-10
  -11.9600000      -1.14355324E-10
  -11.9499998      -1.12627005E-10
  -11.9399996      -1.09739676E-10
  -11.9300003      -1.05688382E-10
  -11.9200001      -1.00476072E-10
  -11.9099998      -9.41068196E-11
  -11.8999996      -8.65802083E-11
  -11.8900003      -7.78858783E-11
  -11.8800001      -6.80029713E-11
  -11.8699999      -5.69028054E-11
  -11.8599997      -4.45560845E-11
  -11.8500004      -3.09426304E-11
  -11.8400002      -1.60619382E-11
  -11.8299999       5.72741114E-14
  -11.8199997       1.73509679E-11
  -11.8100004       3.57183033E-11
  -11.8000002       5.50240443E-11
  -11.7900000       7.51059909E-11
  -11.7799997       9.57830759E-11
  -11.7700005       1.16864421E-10
  -11.7600002       1.38156653E-10
  -11.7500000       1.59469021E-10
  -11.7399998       1.80614551E-10
  -11.7299995       2.01409653E-10
  -11.7200003       2.21671473E-10
  -11.7100000       2.41215464E-10
  -11.6999998       2.59853833E-10
  -11.6899996       2.77395579E-10
  -11.6800003       2.93648328E-10
  -11.6700001       3.08421649E-10
  -11.6599998       3.21531080E-10
  -11.6499996       3.32800593E-10
  -11.6400003       3.42065848E-10
  -11.6300001       3.49173884E-10
  -11.6199999       3.53983204E-10
  -11.6099997       3.56362662E-10
  -11.6000004       3.56190605E-10
  -11.5900002       3.53355234E-10
  -11.5799999       3.47757323E-10
  -11.5699997       3.39313522E-10
  -11.5600004       3.27961519E-10
  -11.5500002       3.13664900E-10
  -11.5400000       2.96416947E-10
  -11.5299997       2.76241224E-10
  -11.5200005       2.53190025E-10
  -11.5100002       2.27338981E-10
  -11.5000000       1.98778563E-10
  -11.4899998       1.67605166E-10
  -11.4799995       1.33910619E-10
  -11.4700003       9.77753919E-11
  -11.4600000       5.92648361E-11
  -11.4499998       1.84273551E-11
  -11.4399996      -2.46995237E-11
  -11.4300003      -7.00826966E-11
  -11.4200001      -1.17683335E-10
  -11.4099998      -1.67448805E-10
  -11.3999996      -2.19303631E-10
  -11.3900003      -2.73144507E-10
  -11.3800001      -3.28839123E-10
  -11.3699999      -3.86227494E-10
  -11.3599997      -4.45128934E-10
  -11.3500004      -5.05345099E-10
  -11.3400002      -5.66669323E-10
  -11.3299999      -6.28891217E-10
  -11.3199997      -6.91800617E-10
  -11.3100004      -7.55191465E-10
  -11.3000002      -8.18862589E-10
  -11.2900000      -8.82618756E-10
  -11.2799997      -9.46270617E-10
  -11.2700005      -1.00963649E-09
  -11.2600002      -1.07254228E-09
  -11.2500000      -1.13482257E-09
  -11.2399998      -1.19632015E-09
  -11.2299995      -1.25688548E-09
  -11.2200003      -1.31637179E-09
  -11.2100000      -1.37463174E-09
  -11.1999998      -1.43151457E-09
  -11.1899996      -1.48685786E-09
  -11.1800003      -1.54049051E-09
  -11.1700001      -1.59222924E-09
  -11.1599998      -1.64188529E-09
  -11.1499996      -1.68926795E-09
  -11.1400003      -1.73419956E-09
  -11.1300001      -1.77651849E-09
  -11.1199999      -1.81609539E-09
  -11.1099997      -1.85283511E-09
  -11.1000004      -1.88668481E-09
  -11.0900002      -1.91763627E-09
  -11.0799999      -1.94572203E-09
  -11.0699997      -1.97101513E-09
  -11.0600004      -1.99361860E-09
  -11.0500002      -2.01365902E-09
  -11.0400000      -2.03127870E-09
  -11.0299997      -2.04662154E-09
  -11.0200005      -2.05982742E-09
  -11.0100002      -2.07101092E-09
  -11.0000000      -2.08026041E-09
  -10.9899998      -2.08761342E-09
  -10.9799995      -2.09307727E-09
  -10.9700003      -2.09660533E-09
  -10.9600000      -2.09811746E-09
  -10.9499998      -2.09750151E-09
  -10.9399996      -2.09463336E-09
  -10.9300003      -2.08939777E-09
  -10.9200001      -2.08170592E-09
  -10.9099998      -2.07151052E-09
  -10.8999996      -2.05882267E-09
  -10.8900003      -2.04370676E-09
  -10.8800001      -2.02629313E-09
  -10.8699999      -2.00676142E-09
  -10.8599997      -1.98533723E-09
  -10.8500004      -1.96227123E-09
  -10.8400002      -1.93782945E-09
  -10.8299999      -1.91227234E-09
  -10.8199997      -1.88587324E-09
  -10.8100004      -1.85888593E-09
  -10.8000002      -1.83155191E-09
  -10.7900000      -1.80409698E-09
  -10.7799997      -1.77672654E-09
  -10.7700005      -1.74962711E-09
  -10.7600002      -1.72294468E-09
  -10.7500000      -1.69679326E-09
  -10.7399998      -1.67122360E-09
  -10.7299995      -1.64624492E-09
  -10.7200003      -1.62179958E-09
  -10.7100000      -1.59779112E-09
  -10.6999998      -1.57409941E-09
  -10.6899996      -1.55058277E-09
  -10.6800003      -1.52713830E-09
  -10.6700001      -1.50369883E-09
  -10.6599998      -1.48026880E-09
  -10.6499996      -1.45694046E-09
  -10.6400003      -1.43388346E-09
  -10.6300001      -1.41134837E-09
  -10.6199999      -1.38966594E-09
  -10.6099997      -1.36916656E-09
  -10.6000004      -1.35020239E-09
  -10.5900002      -1.33309630E-09
  -10.5799999      -1.31812017E-09
  -10.5699997      -1.30548450E-09
  -10.5600004      -1.29531252E-09
  -10.5500002      -1.28767652E-09
  -10.5400000      -1.28257616E-09
  -10.5299997      -1.27998379E-09
  -10.5200005      -1.27985778E-09
  -10.5100002      -1.28213351E-09
  -10.5000000      -1.28678090E-09
  -10.4899998      -1.29378930E-09
  -10.4799995      -1.30316413E-09
  -10.4700003      -1.31490674E-09
  -10.4600000      -1.32901246E-09
  -10.4499998      -1.34544331E-09
  -10.4399996      -1.36410427E-09
  -10.4300003      -1.38484268E-09
  -10.4200001      -1.40743761E-09
  -10.4099998      -1.43162471E-09
  -10.3999996      -1.45709378E-09
  -10.3900003      -1.48352508E-09
  -10.3800001      -1.51061441E-09
  -10.3699999      -1.53806823E-09
  -10.3599997      -1.56561730E-09
  -10.3500004      -1.59300495E-09
  -10.3400002      -1.61998204E-09
  -10.3299999      -1.64626557E-09
  -10.3199997      -1.67154746E-09
  -10.3100004      -1.69545156E-09
  -10.3000002      -1.71758074E-09
  -10.2900000      -1.73752968E-09
  -10.2799997      -1.75490988E-09
  -10.2700005      -1.76943027E-09
  -10.2600002      -1.78089266E-09
  -10.2500000      -1.78926651E-09
  -10.2399998      -1.79466997E-09
  -10.2299995      -1.79734339E-09
  -10.2200003      -1.79765947E-09
  -10.2100000      -1.79602466E-09
  -10.1999998      -1.79285065E-09
  -10.1899996      -1.78847381E-09
  -10.1800003      -1.78313420E-09
  -10.1700001      -1.77695647E-09
  -10.1599998      -1.76995663E-09
  -10.1499996      -1.76205217E-09
  -10.1400003      -1.75312331E-09
  -10.1300001      -1.74304104E-09
  -10.1199999      -1.73170411E-09
  -10.1099997      -1.71907033E-09
  -10.1000004      -1.70517889E-09
  -10.0900002      -1.69013559E-09
  -10.0799999      -1.67410974E-09
  -10.0699997      -1.65733427E-09
  -10.0600004      -1.64005098E-09
  -10.0500002      -1.62250502E-09
  -10.0400000      -1.60490654E-09
  -10.0299997      -1.58742108E-09
  -10.0200005      -1.57015612E-09
  -10.0100002      -1.55316715E-09
  -10.0000000      -1.53644597E-09
  -9.98999977      -1.51995860E-09
  -9.97999954      -1.50366164E-09
  -9.97000027      -1.48750834E-09
  -9.96000004      -1.47150081E-09
  -9.94999981      -1.45566803E-09
  -9.93999958      -1.44010159E-09
  -9.93000031      -1.42491885E-09
  -9.92000008      -1.41026846E-09
  -9.90999985      -1.39627654E-09
  -9.89999962      -1.38307354E-09
  -9.89000034      -1.37074674E-09
  -9.88000011      -1.35935829E-09
  -9.86999989      -1.34896683E-09
  -9.85999966      -1.33962563E-09
  -9.85000038      -1.33142042E-09
  -9.84000015      -1.32447475E-09
  -9.82999992      -1.31894706E-09
  -9.81999969      -1.31501054E-09
  -9.81000042      -1.31283628E-09
  -9.80000019      -1.31256872E-09
  -9.78999996      -1.31428823E-09
  -9.77999973      -1.31802580E-09
  -9.77000046      -1.32374445E-09
  -9.76000023      -1.33139921E-09
  -9.75000000      -1.34094946E-09
  -9.73999977      -1.35239242E-09
  -9.72999954      -1.36580336E-09
  -9.72000027      -1.38133083E-09
  -9.71000004      -1.39918277E-09
  -9.69999981      -1.41958700E-09
  -9.68999958      -1.44275536E-09
  -9.68000031      -1.46883805E-09
  -9.67000008      -1.49788182E-09
  -9.65999985      -1.52983781E-09
  -9.64999962      -1.56455326E-09
  -9.64000034      -1.60180869E-09
  -9.63000011      -1.64135172E-09
  -9.61999989      -1.68295722E-09
  -9.60999966      -1.72642989E-09
  -9.60000038      -1.77164605E-09
  -9.59000015      -1.81856319E-09
  -9.57999992      -1.86719085E-09
  -9.56999969      -1.91760163E-09
  -9.56000042      -1.96989736E-09
  -9.55000019      -2.02420147E-09
  -9.53999996      -2.08063389E-09
  -9.52999973      -2.13931006E-09
  -9.52000046      -2.20033880E-09
  -9.51000023      -2.26379582E-09
  -9.50000000      -2.32974373E-09
  -9.48999977      -2.39820186E-09
  -9.47999954      -2.46914733E-09
  -9.47000027      -2.54252353E-09
  -9.46000004      -2.61822986E-09
  -9.44999981      -2.69612133E-09
  -9.43999958      -2.77601364E-09
  -9.43000031      -2.85767610E-09
  -9.42000008      -2.94083136E-09
  -9.40999985      -3.02511349E-09
  -9.39999962      -3.11007975E-09
  -9.39000034      -3.19517657E-09
  -9.38000011      -3.27973360E-09
  -9.36999989      -3.36295214E-09
  -9.35999966      -3.44394135E-09
  -9.35000038      -3.52174534E-09
  -9.34000015      -3.59537666E-09
  -9.32999992      -3.66386610E-09
  -9.31999969      -3.72628728E-09
  -9.31000042      -3.78180998E-09
  -9.30000019      -3.82968013E-09
  -9.28999996      -3.86922050E-09
  -9.27999973      -3.89981558E-09
  -9.27000046      -3.92089028E-09
  -9.26000023      -3.93191213E-09
  -9.25000000      -3.93237931E-09
  -9.23999977      -3.92185040E-09
  -9.22999954      -3.89995325E-09
  -9.22000027      -3.86643473E-09
  -9.21000004      -3.82115140E-09
  -9.19999981      -3.76410281E-09
  -9.18999958      -3.69543507E-09
  -9.18000031      -3.61539931E-09
  -9.17000008      -3.52434926E-09
  -9.15999985      -3.42273099E-09
  -9.14999962      -3.31104566E-09
  -9.14000034      -3.18987325E-09
  -9.13000011      -3.05988523E-09
  -9.11999989      -2.92182434E-09
  -9.10999966      -2.77652590E-09
  -9.10000038      -2.62494226E-09
  -9.09000015      -2.46809240E-09
  -9.07999992      -2.30707098E-09
  -9.06999969      -2.14301643E-09
  -9.06000042      -1.97704786E-09
  -9.05000019      -1.81030047E-09
  -9.03999996      -1.64384406E-09
  -9.02999973      -1.47875912E-09
  -9.02000046      -1.31608324E-09
  -9.01000023      -1.15686316E-09
  -9.00000000      -1.00215181E-09
  -8.98999977      -8.53024706E-10
  -8.97999954      -7.10580983E-10
  -8.97000027      -5.75926251E-10
  -8.96000004      -4.50175147E-10
  -8.94999981      -3.34447942E-10
  -8.93999958      -2.29855787E-10
  -8.93000031      -1.37511169E-10
  -8.92000008      -5.85111681E-11
  -8.90999985       6.07982631E-12
  -8.89999962       5.52293419E-11
  -8.89000034       8.79511949E-11
  -8.88000011       1.03349392E-10
  -8.86999989       1.00602131E-10
  -8.85999966       7.89991961E-11
  -8.85000038       3.78980076E-11
  -8.84000015      -2.32438947E-11
  -8.82999992      -1.04947856E-10
  -8.81999969      -2.07727974E-10
  -8.81000042      -3.32085165E-10
  -8.80000019      -4.78535878E-10
  -8.78999996      -6.47625398E-10
  -8.77999973      -8.39867897E-10
  -8.77000046      -1.05577058E-09
  -8.76000023      -1.29574940E-09
  -8.75000000      -1.56017066E-09
  -8.73999977      -1.84931481E-09
  -8.72999954      -2.16343121E-09
  -8.72000027      -2.50270271E-09
  -8.71000004      -2.86728175E-09
  -8.69999981      -3.25727223E-09
  -8.68999958      -3.67274988E-09
  -8.68000031      -4.11364898E-09
  -8.67000008      -4.57980232E-09
  -8.65999985      -5.07084330E-09
  -8.64999962      -5.58620528E-09
  -8.64000034      -6.12511286E-09
  -8.63000011      -6.68657796E-09
  -8.61999989      -7.26945082E-09
  -8.60999966      -7.87244225E-09
  -8.60000038      -8.49416981E-09
  -8.59000015      -9.13316445E-09
  -8.57999992      -9.78790826E-09
  -8.56999969      -1.04568088E-08
  -8.56000042      -1.11382308E-08
  -8.55000019      -1.18304690E-08
  -8.53999996      -1.25317738E-08
  -8.52999973      -1.32403795E-08
  -8.52000046      -1.39545255E-08
  -8.51000023      -1.46724837E-08
  -8.50000000      -1.53926010E-08
  -8.48999977      -1.61132760E-08
  -8.47999954      -1.68330647E-08
  -8.47000027      -1.75505424E-08
  -8.46000004      -1.82644033E-08
  -8.44999981      -1.89734095E-08
  -8.43999958      -1.96764418E-08
  -8.43000031      -2.03724575E-08
  -8.42000008      -2.10605400E-08
  -8.40999985      -2.17399023E-08
  -8.39999962      -2.24098926E-08
  -8.39000034      -2.30699584E-08
  -8.38000011      -2.37196751E-08
  -8.36999989      -2.43586378E-08
  -8.35999966      -2.49864698E-08
  -8.35000038      -2.56028212E-08
  -8.34000015      -2.62072977E-08
  -8.32999992      -2.67994906E-08
  -8.31999969      -2.73790288E-08
  -8.31000042      -2.79455250E-08
  -8.30000019      -2.84986612E-08
  -8.28999996      -2.90381124E-08
  -8.27999973      -2.95636227E-08
  -8.27000046      -3.00748653E-08
  -8.26000023      -3.05714742E-08
  -8.25000000      -3.10529593E-08
  -8.23999977      -3.15187556E-08
  -8.22999954      -3.19681632E-08
  -8.22000027      -3.24003757E-08
  -8.21000004      -3.28145262E-08
  -8.19999981      -3.32096874E-08
  -8.18999958      -3.35849464E-08
  -8.18000031      -3.39394148E-08
  -8.17000008      -3.42722082E-08
  -8.15999985      -3.45825022E-08
  -8.14999962      -3.48695117E-08
  -8.14000034      -3.51324729E-08
  -8.13000011      -3.53707001E-08
  -8.11999989      -3.55834580E-08
  -8.10999966      -3.57702774E-08
  -8.10000038      -3.59305155E-08
  -8.09000015      -3.60637742E-08
  -8.07999992      -3.61696593E-08
  -8.06999969      -3.62478403E-08
  -8.06000042      -3.62980899E-08
  -8.05000019      -3.63201629E-08
  -8.03999996      -3.63138888E-08
  -8.02999973      -3.62792214E-08
  -8.02000046      -3.62161430E-08
  -8.01000023      -3.61248382E-08
  -8.00000000      -3.60056482E-08
  -7.98999977      -3.58590171E-08
  -7.98000002      -3.56855168E-08
  -7.96999979      -3.54858685E-08
  -7.96000004      -3.52607721E-08
  -7.94999981      -3.50110732E-08
  -7.94000006      -3.47375853E-08
  -7.92999983      -3.44410793E-08
  -7.92000008      -3.41223760E-08
  -7.90999985      -3.37823671E-08
  -7.90000010      -3.34219870E-08
  -7.88999987      -3.30423120E-08
  -7.88000011      -3.26445786E-08
  -7.86999989      -3.22301226E-08
  -7.86000013      -3.18004147E-08
  -7.84999990      -3.13568123E-08
  -7.84000015      -3.09009422E-08
  -7.82999992      -3.04342009E-08
  -7.82000017      -2.99580591E-08
  -7.80999994      -2.94739575E-08
  -7.80000019      -2.89834592E-08
  -7.78999996      -2.84880883E-08
  -7.78000021      -2.79896639E-08
  -7.76999998      -2.74900867E-08
  -7.76000023      -2.69912839E-08
  -7.75000000      -2.64953908E-08
  -7.73999977      -2.60043347E-08
  -7.73000002      -2.55204444E-08
  -7.71999979      -2.50457308E-08
  -7.71000004      -2.45822491E-08
  -7.69999981      -2.41320919E-08
  -7.69000006      -2.36971598E-08
  -7.67999983      -2.32794353E-08
  -7.67000008      -2.28808279E-08
  -7.65999985      -2.25030927E-08
  -7.65000010      -2.21476935E-08
  -7.63999987      -2.18161578E-08
  -7.63000011      -2.15094413E-08
  -7.61999989      -2.12287681E-08
  -7.61000013      -2.09746052E-08
  -7.59999990      -2.07476614E-08
  -7.59000015      -2.05482813E-08
  -7.57999992      -2.03768451E-08
  -7.57000017      -2.02335677E-08
  -7.55999994      -2.01186481E-08
  -7.55000019      -2.00320383E-08
  -7.53999996      -1.99739016E-08
  -7.53000021      -1.99439132E-08
  -7.51999998      -1.99416181E-08
  -7.51000023      -1.99667110E-08
  -7.50000000      -2.00185895E-08
  -7.48999977      -2.00968078E-08
  -7.48000002      -2.02009236E-08
  -7.46999979      -2.03303081E-08
  -7.46000004      -2.04846522E-08
  -7.44999981      -2.06633803E-08
  -7.44000006      -2.08661373E-08