  -16.0000000       0.00000000    
  -15.9899998       0.00000000    
  -15.9799995       0.00000000    
  -15.9700003       0.00000000    
  -15.9600000       0.00000000    
  -15.9499998       0.00000000    
  -15.9399996       0.00000000    
  -15.9300003       0.00000000    
  -15.9200001       0.00000000    
  -15.9099998       0.00000000    
  -15.8999996       0.00000000    
  -15.8900003       0.00000000    
  -15.8800001       0.00000000    
  -15.8699999      -1.29984446E-41
  -15.8599997      -4.41736920E-40
  -15.8500004      -7.00591218E-39
  -15.8400002      -7.21040031E-38
  -15.8299999      -5.52674805E-37
  -15.8199997      -3.38091195E-36
  -15.8100004      -1.72012361E-35
  -15.8000002      -7.46402580E-35
  -15.7900000      -2.80679192E-34
  -15.7799997      -9.23847092E-34
  -15.7700005      -2.67541302E-33
  -15.7600002      -6.81869522E-33
  -15.7500000      -1.51940388E-32
  -15.7399998      -2.90322096E-32
  -15.7299995      -4.51655757E-32
  -15.7200003      -4.77513312E-32
  -15.7100000       5.27359165E-33
  -15.6999998       1.97600342E-31
  -15.6899996       6.59481765E-31
  -15.6800003       1.53567861E-30
  -15.6700001       2.87332667E-30
  -15.6599998       4.37826356E-30
  -15.6499996       5.01517800E-30
  -15.6400003       2.54208308E-30
  -15.6300001      -6.65563999E-30
  -15.6199999      -2.66048895E-29
  -15.6099997      -5.83716204E-29
  -15.6000004      -9.31720310E-29
  -15.5900002      -1.02899632E-28
  -15.5799999      -3.41314960E-29
  -15.5699997       1.80476139E-28
  -15.5600004       5.73743245E-28
  -15.5500002       1.04648706E-27
  -15.5400000       1.24541049E-27
  -15.5299997       5.12844618E-28
  -15.5200005      -1.91175317E-27
  -15.5100002      -6.24227676E-27
  -15.5000000      -1.10312722E-26
  -15.4899998      -1.20564070E-26
  -15.4799995      -2.39895683E-27
  -15.4700003       2.45489153E-26
  -15.4600000       6.78905836E-26
  -15.4499998       1.09062066E-25
  -15.4399996       1.04654466E-25
  -15.4300003      -6.49553539E-27
  -15.4200001      -2.69242122E-25
  -15.4099998      -6.47422533E-25
  -15.3999996      -9.49146101E-25
  -15.3900003      -7.98697656E-25
  -15.3800001       2.59785282E-25
  -15.3699999       2.45594232E-24
  -15.3599997       5.30873294E-24
  -15.3500004       7.17584798E-24
  -15.3400002       5.26953563E-24
  -15.3299999      -3.32908847E-24
  -15.3199997      -1.93686683E-23
  -15.3100004      -3.83099065E-23
  -15.3000002      -4.80647017E-23
  -15.2900000      -3.03897620E-23
  -15.2799997       3.12216410E-23
  -15.2700005       1.36508177E-22
  -15.2600002       2.50626486E-22
  -15.2500000       2.94616955E-22
  -15.2399998       1.60079328E-22
  -15.2299995      -2.38536518E-22
  -15.2200003      -8.75862292E-22
  -15.2100000      -1.52230263E-21
  -15.1999998      -1.70962158E-21
  -15.1899996      -8.37807238E-22
  -15.1800003       1.51901400E-21
  -15.1700001       5.13888621E-21
  -15.1599998       8.69022623E-21
  -15.1499996       9.61736241E-21
  -15.1400003       4.77018742E-21
  -15.1300001      -7.98355792E-21
  -15.1199999      -2.73836623E-20
  -15.1099997      -4.65657901E-20
  -15.1000004      -5.26248267E-20
  -15.0900002      -2.97649408E-20
  -15.0799999       3.29700815E-20
  -15.0699997       1.30522393E-19
  -15.0600004       2.31460128E-19
  -15.0500002       2.75619191E-19
  -15.0400000       1.87663112E-19
  -15.0299997      -8.91139768E-20
  -15.0200005      -5.43427987E-19
  -15.0100002      -1.04876679E-18
  -15.0000000      -1.34807196E-18
  -14.9899998      -1.10350919E-18
  -14.9799995      -3.08133825E-20
  -14.9700003       1.89716562E-18
  -14.9600000       4.24388612E-18
  -14.9499998       6.01435951E-18
  -14.9399996       5.80441983E-18
  -14.9300003       2.28169169E-18
  -14.9200001      -5.03764408E-18
  -14.9099998      -1.49379174E-17
  -14.8999996      -2.39879780E-17
  -14.8900003      -2.68573187E-17
  -14.8800001      -1.78410583E-17
  -14.8699999       6.42691749E-18
  -14.8599997       4.37253230E-17
  -14.8500004       8.37969298E-17
  -14.8400002       1.08444172E-16
  -14.8299999       9.56727486E-17
  -14.8199997       2.82462724E-17
  -14.8100004      -9.49742640E-17
  -14.8000002      -2.48857036E-16
  -14.7900000      -3.78622616E-16
  -14.7799997      -4.08776327E-16
  -14.7700005      -2.66971735E-16
  -14.7600002       8.02644914E-17
  -14.7500000       5.90320396E-16
  -14.7399998       1.12239648E-15
  -14.7299995       1.44878305E-15
  -14.7200003       1.31177811E-15
  -14.7100000       5.23792363E-16
  -14.6999998      -9.12755187E-16
  -14.6899996      -2.70969440E-15
  -14.6800003      -4.27605568E-15
  -14.6700001      -4.82549630E-15
  -14.6599998      -3.62043820E-15
  -14.6499996      -3.11042780E-16
  -14.6400003       4.73361440E-15
  -14.6300001       1.02477163E-14
  -14.6199999       1.41886853E-14
  -14.6099997       1.42356101E-14
  -14.6000004       8.62120129E-15
  -14.5900002      -2.90713439E-15
  -14.5799999      -1.83405588E-14
  -14.5699997      -3.32712678E-14
  -14.5600004      -4.16671329E-14
  -14.5500002      -3.76068941E-14
  -14.5400000      -1.76520667E-14
  -14.5299997       1.68496571E-14
  -14.5200005       5.84711993E-14
  -14.5100002       9.43068594E-14
  -14.5000000       1.08914532E-13
  -14.4899998       8.92805727E-14
  -14.4799995       3.05772185E-14
  -14.4700003      -5.92434969E-14
  -14.4600000      -1.58174973E-13
  -14.4499998      -2.33771010E-13
  -14.4399996      -2.51827720E-13
  -14.4300003      -1.88410160E-13
  -14.4200001      -4.16851510E-14
  -14.4099998       1.60974573E-13
  -14.3999996       3.64673678E-13
  -14.3900003       4.99338635E-13
  -14.3800001       5.01053788E-13
  -14.3699999       3.36807703E-13
  -14.3599997       2.42407125E-14
  -14.3500004      -3.62382758E-13
  -14.3400002      -7.05807591E-13
  -14.3299999      -8.78845824E-13
  -14.3199997      -7.89145387E-13
  -14.3100004      -4.21423394E-13
  -14.3000002       1.39780968E-13
  -14.2900000       7.20530515E-13
  -14.2799997       1.10533154E-12
  -14.2700005       1.11299425E-12
  -14.2600002       6.77591392E-13
  -14.2500000      -9.65199261E-14
  -14.2399998      -9.34619678E-13
  -14.2299995      -1.46155061E-12
  -14.2200003      -1.33299242E-12
  -14.2100000      -3.92638748E-13
  -14.1999998       1.20056742E-12
  -14.1899996       2.93497670E-12
  -14.1800003       4.04074604E-12
  -14.1700001       3.71943405E-12
  -14.1599998       1.46074483E-12
  -14.1499996      -2.64868834E-12
  -14.1400003      -7.74398861E-12
  -14.1300001      -1.22353048E-11
  -14.1199999      -1.41473378E-11
  -14.1099997      -1.17081449E-11
  -14.1000004      -4.05187862E-12
  -14.0900002       8.17719243E-12
  -14.0799999       2.25547202E-11
  -14.0699997       3.51241258E-11
  -14.0600004       4.12209399E-11
  -14.0500002       3.67573125E-11
  -14.0400000       1.96732249E-11
  -14.0299997      -8.85945657E-12
  -14.0200005      -4.39142021E-11
  -14.0100002      -7.72854072E-11
  -14.0000000      -9.90485471E-11
  -13.9899998      -9.99806904E-11
  -13.9799995      -7.43265310E-11
  -13.9700003      -2.21876233E-11
  -13.9600000       4.92066665E-11
  -13.9499998       1.25913002E-10
  -13.9399996       1.89567889E-10
  -13.9300003       2.21278745E-10
  -13.9200001       2.06360706E-10
  -13.9099998       1.38815667E-10
  -13.8999996       2.43725040E-11
  -13.8900003      -1.18908910E-10
  -13.8800001      -2.62979277E-10
  -13.8699999      -3.74920095E-10
  -13.8599997      -4.23981128E-10
  -13.8500004      -3.89072857E-10
  -13.8400002      -2.64968797E-10
  -13.8299999      -6.55837953E-11
  -13.8199997       1.76809484E-10
  -13.8100004       4.16711277E-10
  -13.8000002       6.04128525E-10
  -13.7900000       6.95230984E-10
  -13.7799997       6.62579824E-10
  -13.7700005       5.02431763E-10
  -13.7600002       2.37082409E-10
  -13.7500000      -8.87455179E-11
  -13.7399998      -4.17035545E-10
  -13.7299995      -6.89206969E-10
  -13.7200003      -8.59313010E-10
  -13.7100000      -9.04189668E-10
  -13.6999998      -8.27482083E-10
  -13.6899996      -6.56013854E-10
  -13.6800003      -4.29124847E-10
  -13.6700001      -1.83974461E-10
  -13.6599998       5.84273879E-11
  -13.6499996       3.01148551E-10
  -13.6400003       5.69040981E-10
  -13.6300001       8.94879837E-10
  -13.6199999       1.29646538E-09
  -13.6099997       1.75129022E-09
  -13.6000004       2.17795426E-09
  -13.5900002       2.43396792E-09
  -13.5799999       2.33650566E-09
  -13.5699997       1.70690317E-09
  -13.5600004       4.32069658E-10
  -13.5500002      -1.47158452E-09
  -13.5400000      -3.81085608E-09
  -13.5299997      -6.20439922E-09
  -13.5200005      -8.12103007E-09
  -13.5100002      -8.97038621E-09
  -13.5000000      -8.23444068E-09
  -13.4899998      -5.61446267E-09
  -13.4799995      -1.15860221E-09
  -13.4700003       4.66682293E-09
  -13.4600000       1.09912062E-08
  -13.4499998       1.66509491E-08
  -13.4399996       2.03879456E-08
  -13.4300003       2.11019007E-08
  -13.4200001       1.81057587E-08
  -13.4099998       1.13267831E-08
  -13.3999996       1.40211531E-09
  -13.3900003      -1.03619682E-08
  -13.3800001      -2.21695906E-08
  -13.3699999      -3.20249072E-08
  -13.3599997      -3.80767133E-08
  -13.3500004      -3.89511783E-08
  -13.3400002      -3.40048487E-08
  -13.3299999      -2.34514079E-08
  -13.3199997      -8.34179303E-09
  -13.3100004       9.58955937E-09
  -13.3000002       2.81718933E-08
  -13.2900000       4.50840894E-08
  -13.2799997       5.81255755E-08
  -13.2700005       6.54332979E-08
  -13.2600002       6.56312906E-08
  -13.2500000       5.79251527E-08
  -13.2399998       4.21679047E-08
  -13.2299995       1.89290059E-08
  -13.2200003      -1.04203268E-08
  -13.2100000      -4.36189040E-08
  -13.1999998      -7.74701761E-08
  -13.1899996      -1.07910303E-07
  -13.1800003      -1.30258726E-07
  -13.1700001      -1.39704596E-07
  -13.1599998      -1.32023473E-07
  -13.1499996      -1.04454138E-07
  -13.1400003      -5.65933718E-08
  -13.1300001       8.88639029E-09
  -13.1199999       8.59072031E-08
  -13.1099997       1.65216932E-07
  -13.1000004       2.35276829E-07
  -13.0900002       2.83761068E-07
  -13.0799999       2.99503512E-07
  -13.0699997       2.74578127E-07
  -13.0600004       2.06144648E-07
  -13.0500002       9.76721992E-08
  -13.0400000      -4.07640748E-08
  -13.0299997      -1.93267297E-07
  -13.0200005      -3.39953317E-07
  -13.0100002      -4.59578160E-07
  -13.0000000      -5.32583670E-07
  -12.9899998      -5.44042678E-07
  -12.9799995      -4.86048009E-07
  -12.9700003      -3.59156701E-07
  -12.9600000      -1.72688360E-07
  -12.9499998       5.61180897E-08
  -12.9399996       3.03909502E-07
  -12.9300003       5.43665863E-07
  -12.9200001       7.47449178E-07
  -12.9099998       8.89123783E-07
  -12.8999996       9.46827186E-07
  -12.8900003       9.05108038E-07
  -12.8800001       7.56668669E-07
  -12.8699999       5.03759907E-07
  -12.8599997       1.59162695E-07
  -12.8500004      -2.53368825E-07
  -12.8400002      -6.99464692E-07
  -12.8299999      -1.13556484E-06
  -12.8199997      -1.51174481E-06
  -12.8100004      -1.77603954E-06
  -12.8000002      -1.88013928E-06
  -12.7900000      -1.78595133E-06
  -12.7799997      -1.47227036E-06
  -12.7700005      -9.40451628E-07
  -12.7600002      -2.18013753E-07
  -12.7500000       6.40786652E-07
  -12.7399998       1.55798534E-06
  -12.7299995       2.43854129E-06
  -12.7200003       3.17995978E-06
  -12.7100000       3.68380574E-06
  -12.6999998       3.86753345E-06
  -12.6899996       3.67500525E-06
  -12.6800003       3.08429185E-06
  -12.6700001       2.11167890E-06
  -12.6599998       8.11518532E-07
  -12.6499996      -7.27888846E-07
  -12.6400003      -2.39164524E-06
  -12.6300001      -4.04760203E-06
  -12.6199999      -5.55675479E-06
  -12.6099997      -6.78329206E-06
  -12.6000004      -7.60392095E-06
  -12.5900002      -7.91558068E-06
  -12.5799999      -7.64200922E-06
  -12.5699997      -6.73882369E-06
  -12.5600004      -5.19741025E-06
  -12.5500002      -3.04767605E-06
  -12.5400000      -3.59385211E-07
  -12.5299997       2.75828393E-06
  -12.5200005       6.15929730E-06
  -12.5100002       9.66573407E-06
  -12.5000000       1.30752132E-05
  -12.4899998       1.61698590E-05
  -12.4799995       1.87265578E-05
  -12.4700003       2.05263586E-05
  -12.4600000       2.13623844E-05
  -12.4499998       2.10445560E-05
  -12.4399996       1.94009572E-05
  -12.4300003       1.62760080E-05
  -12.4200001       1.15263838E-05
  -12.4099998       5.01656632E-06
  -12.3999996      -3.38360746E-06
  -12.3900003      -1.37980514E-05
  -12.3800001      -2.63371949E-05
  -12.3699999      -4.10851790E-05
  -12.3599997      -5.80825981E-05
  -12.3500004      -7.73031206E-05
  -12.3400002      -9.86313535E-05
  -12.3299999      -1.21841040E-04
  -12.3199997      -1.46577513E-04
  -12.3100004      -1.72349028E-04
  -12.3000002      -1.98524052E-04
  -12.2900000      -2.24338582E-04
  -12.2799997      -2.48910423E-04
  -12.2700005      -2.71264755E-04
  -12.2600002      -2.90355645E-04
  -12.2500000      -3.05106427E-04
  -12.2399998      -3.14438395E-04
  -12.2299995      -3.17311642E-04
  -12.2200003      -3.12765565E-04
  -12.2100000      -2.99958832E-04
  -12.1999998      -2.78205873E-04
  -12.1899996      -2.47019227E-04
  -12.1800003      -2.06136523E-04
  -12.1700001      -1.55545902E-04
  -12.1599998      -9.54973220E-05
  -12.1499996      -2.65049930E-05
  -12.1400003       5.06679753E-05
  -12.1300001       1.35034221E-04
  -12.1199999       2.25415381E-04
  -12.1099997       3.20488907E-04
  -12.1000004       4.18823096E-04
  -12.0900002       5.18927642E-04
  -12.0799999       6.19284809E-04
  -12.0699997       7.18382013E-04
  -12.0600004       8.14737054E-04
  -12.0500002       9.06910514E-04
  -12.0400000       9.93522350E-04
  -12.0299997       1.07325648E-03
  -12.0200005       1.14487193E-03
  -12.0100002       1.20720954E-03
  -12.0000000       1.25919271E-03
  -11.9899998       1.29984331E-03
  -11.9799995       1.32827554E-03
  -11.9700003       1.34369463E-03
  -11.9600000       1.34540303E-03
  -11.9499998       1.33278628E-03
  -11.9399996       1.30530796E-03
  -11.9300003       1.26250612E-03
  -11.9200001       1.20399380E-03
  -11.9099998       1.12946285E-03
  -11.8999996       1.03869545E-03
  -11.8900003       9.31579387E-04
  -11.8800001       8.08136014E-04
  -11.8699999       6.68534951E-04
  -11.8599997       5.13117062E-04
  -11.8500004       3.42416228E-04
  -11.8400002       1.57157148E-04
  -11.8299999      -4.17371702E-05
  -11.8199997      -2.53149570E-04
  -11.8100004      -4.75775305E-04
  -11.8000002      -7.08137988E-04
  -11.7900000      -9.48591449E-04
  -11.7799997      -1.19532796E-03
  -11.7700005      -1.44638447E-03
  -11.7600002      -1.69965008E-03
  -11.7500000      -1.95285899E-03
  -11.7399998      -2.20361934E-03
  -11.7299995      -2.44941469E-03
  -11.7200003      -2.68764351E-03
  -11.7100000      -2.91564642E-03
  -11.6999998      -3.13075446E-03
  -11.6899996      -3.33033013E-03
  -11.6800003      -3.51181813E-03
  -11.6700001      -3.67278676E-03
  -11.6599998      -3.81096848E-03
  -11.6499996      -3.92427994E-03
  -11.6400003      -4.01085010E-03
  -11.6300001      -4.06902516E-03
  -11.6199999      -4.09737322E-03
  -11.6099997      -4.09468636E-03
  -11.6000004      -4.05997364E-03
  -11.5900002      -3.99245275E-03
  -11.5799999      -3.89153883E-03
  -11.5699997      -3.75683000E-03
  -11.5600004      -3.58809181E-03
  -11.5500002      -3.38524301E-03
  -11.5400000      -3.14832618E-03
  -11.5299997      -2.87750876E-03
  -11.5200005      -2.57304963E-03
  -11.5100002      -2.23531481E-03
  -11.5000000      -1.86476973E-03
  -11.4899998      -1.46199891E-03
  -11.4799995      -1.02772657E-03
  -11.4700003      -5.62845438E-04
  -11.4600000      -6.84517217E-05
  -11.4499998       4.54127323E-04
  -11.4399996       1.00331148E-03
  -11.4300003       1.57725438E-03
  -11.4200001       2.17384868E-03
  -11.4099998       2.79072206E-03
  -11.3999996       3.42527288E-03
  -11.3900003       4.07468947E-03
  -11.3800001       4.73599788E-03
  -11.3699999       5.40607329E-03
  -11.3599997       6.08171523E-03
  -11.3500004       6.75966637E-03
  -11.3400002       7.43665639E-03
  -11.3299999       8.10945407E-03
  -11.3199997       8.77492689E-03
  -11.3100004       9.43007506E-03
  -11.3000002       1.00720925E-02
  -11.2900000       1.06984125E-02
  -11.2799997       1.13067394E-02
  -11.2700005       1.18950875E-02
  -11.2600002       1.24617955E-02
  -11.2500000       1.30054951E-02
  -11.2399998       1.35251405E-02
  -11.2299995       1.40199205E-02
  -11.2200003       1.44892717E-02
  -11.2100000       1.49327833E-02
  -11.1999998       1.53501788E-02
  -11.1899996       1.57412849E-02
  -11.1800003       1.61059499E-02
  -11.1700001       1.64440814E-02
  -11.1599998       1.67555828E-02
  -11.1499996       1.70403589E-02
  -11.1400003       1.72983222E-02
  -11.1300001       1.75293591E-02
  -11.1199999       1.77333783E-02
  -11.1099997       1.79102793E-02
  -11.1000004       1.80599820E-02
  -11.0900002       1.81824341E-02
  -11.0799999       1.82776321E-02
  -11.0699997       1.83456466E-02
  -11.0600004       1.83866639E-02
  -11.0500002       1.84010062E-02
  -11.0400000       1.83891635E-02
  -11.0299997       1.83518101E-02
  -11.0200005       1.82898492E-02
  -11.0100002       1.82043854E-02
  -11.0000000       1.80967152E-02
  -10.9899998       1.79683194E-02
  -10.9799995       1.78207923E-02
  -10.9700003       1.76558532E-02
  -10.9600000       1.74752101E-02
  -10.9499998       1.72805991E-02
  -10.9399996       1.70736630E-02
  -10.9300003       1.68559272E-02
  -10.9200001       1.66287832E-02
  -10.9099998       1.63934156E-02
  -10.8999996       1.61508415E-02
  -10.8900003       1.59018207E-02
  -10.8800001       1.56469010E-02
  -10.8699999       1.53863793E-02
  -10.8599997       1.51203191E-02
  -10.8500004       1.48485648E-02
  -10.8400002       1.45707056E-02
  -10.8299999       1.42861465E-02
  -10.8199997       1.39941135E-02
  -10.8100004       1.36936735E-02
  -10.8000002       1.33838076E-02
  -10.7900000       1.30634410E-02
  -10.7799997       1.27315260E-02
  -10.7700005       1.23870857E-02
  -10.7600002       1.20292716E-02
  -10.7500000       1.16574243E-02
  -10.7399998       1.12711033E-02
  -10.7299995       1.08701289E-02
  -10.7200003       1.04545765E-02
  -10.7100000       1.00247776E-02
  -10.6999998       9.58133861E-03
  -10.6899996       9.12508182E-03
  -10.6800003       8.65701865E-03
  -10.6700001       8.17836728E-03
  -10.6599998       7.69049209E-03
  -10.6499996       7.19486736E-03
  -10.6400003       6.69310521E-03
  -10.6300001       6.18688809E-03
  -10.6199999       5.67798410E-03
  -10.6099997       5.16822794E-03
  -10.6000004       4.65949345E-03
  -10.5900002       4.15370660E-03
  -10.5799999       3.65276658E-03
  -10.5699997       3.15861660E-03
  -10.5600004       2.67313141E-03
  -10.5500002       2.19817250E-03
  -10.5400000       1.73550297E-03
  -10.5299997       1.28680596E-03
  -10.5200005       8.53667094E-04
  -10.5100002       4.37505107E-04
  -10.5000000       3.96092837E-05
  -10.4899998      -3.38925718E-04
  -10.4799995      -6.97182433E-04
  -10.4700003      -1.03446585E-03
  -10.4600000      -1.35028735E-03
  -10.4499998      -1.64438481E-03
  -10.4399996      -1.91672775E-03
  -10.4300003      -2.16747099E-03
  -10.4200001      -2.39699078E-03
  -10.4099998      -2.60580773E-03
  -10.3999996      -2.79460871E-03
  -10.3900003      -2.96415156E-03
  -10.3800001      -3.11531266E-03
  -10.3699999      -3.24897817E-03
  -10.3599997      -3.36610572E-03
  -10.3500004      -3.46767693E-03
  -10.3400002      -3.55473743E-03
  -10.3299999      -3.62836639E-03
  -10.3199997      -3.68971797E-03
  -10.3100004      -3.74003360E-03
  -10.3000002      -3.78057826E-03
  -10.2900000      -3.81271308E-03
  -10.2799997      -3.83778056E-03
  -10.2700005      -3.85708408E-03
  -10.2600002      -3.87189211E-03
  -10.2500000      -3.88335460E-03
  -10.2399998      -3.89249832E-03
  -10.2299995      -3.90021713E-03
  -10.2200003      -3.90721671E-03
  -10.2100000      -3.91408009E-03
  -10.1999998      -3.92126106E-03
  -10.1899996      -3.92906694E-03
  -10.1800003      -3.93770868E-03
  -10.1700001      -3.94725706E-03
  -10.1599998      -3.95768136E-03
  -10.1499996      -3.96887120E-03
  -10.1400003      -3.98055371E-03
  -10.1300001      -3.99238570E-03
  -10.1199999      -4.00391547E-03
  -10.1099997      -4.01459774E-03
  -10.1000004      -4.02373867E-03
  -10.0900002      -4.03058622E-03
  -10.0799999      -4.03432595E-03
  -10.0699997      -4.03396552E-03
  -10.0600004      -4.02851216E-03
  -10.0500002      -4.01688088E-03
  -10.0400000      -3.99798388E-03
  -10.0299997      -3.97071894E-03
  -10.0200005      -3.93407838E-03
  -10.0100002      -3.88714648E-03
  -10.0000000      -3.82914930E-03
  -9.98999977      -3.75941535E-03
  -9.97999954      -3.67742707E-03
  -9.97000027      -3.58273508E-03
  -9.96000004      -3.47491028E-03
  -9.94999981      -3.35347885E-03
  -9.93999958      -3.21786385E-03
  -9.93000031      -3.06731975E-03
  -9.92000008      -2.90094386E-03
  -9.90999985      -2.71761976E-03
  -9.89999962      -2.51613162E-03
  -9.89000034      -2.29509268E-03
  -9.88000011      -2.05314811E-03
  -9.86999989      -1.78888824E-03
  -9.85999966      -1.50114635E-03
  -9.85000038      -1.18880777E-03
  -9.84000015      -8.51008401E-04
  -9.82999992      -4.87186422E-04
  -9.81999969      -9.69937173E-05
  -9.81000042       3.19599611E-04
  -9.80000019       7.62358366E-04
  -9.78999996       1.23075477E-03
  -9.77999973       1.72402209E-03
  -9.77000046       2.24112184E-03
  -9.76000023       2.78074574E-03
  -9.75000000       3.34138353E-03
  -9.73999977       3.92129598E-03
  -9.72999954       4.51851822E-03
  -9.72000027       5.13088796E-03
  -9.71000004       5.75612485E-03
  -9.69999981       6.39177673E-03
  -9.68999958       7.03535462E-03
  -9.68000031       7.68432487E-03
  -9.67000008       8.33610445E-03
  -9.65999985       8.98821745E-03
  -9.64999962       9.63818841E-03
  -9.64000034       1.02837235E-02
  -9.63000011       1.09226285E-02
  -9.61999989       1.15529243E-02
  -9.60999966       1.21728862E-02
  -9.60000038       1.27810510E-02
  -9.59000015       1.33762667E-02
  -9.57999992       1.39577230E-02
  -9.56999969       1.45248296E-02
  -9.56000042       1.50773339E-02
  -9.55000019       1.56151112E-02
  -9.53999996       1.61381718E-02
  -9.52999973       1.66465621E-02
  -9.52000046       1.71403401E-02
  -9.51000023       1.76193994E-02
  -9.50000000       1.80836860E-02
  -9.48999977       1.85329653E-02
  -9.47999954       1.89669766E-02
  -9.47000027       1.93854682E-02
  -9.46000004       1.97881106E-02
  -9.44999981       2.01747138E-02
  -9.43999958       2.05451567E-02
  -9.43000031       2.08993033E-02
  -9.42000008       2.12371703E-02
  -9.40999985       2.15587560E-02
  -9.39999962       2.18640454E-02
  -9.39000034       2.21529864E-02
  -9.38000011       2.24252995E-02
  -9.36999989       2.26806235E-02
  -9.35999966       2.29182392E-02
  -9.35000038       2.31372602E-02
  -9.34000015       2.33365111E-02
  -9.32999992       2.35145316E-02
  -9.31999969       2.36697271E-02
  -9.31000042       2.38003414E-02
  -9.30000019       2.39045061E-02
  -9.28999996       2.39802878E-02
  -9.27999973       2.40257327E-02
  -9.27000046       2.40388066E-02
  -9.26000023       2.40175221E-02
  -9.25000000       2.39598379E-02
  -9.23999977       2.38637980E-02
  -9.22999954       2.37274934E-02
  -9.22000027       2.35491786E-02
  -9.21000004       2.33273488E-02
  -9.19999981       2.30607856E-02
  -9.18999958       2.27485094E-02
  -9.18000031       2.23900974E-02
  -9.17000008       2.19853371E-02
  -9.15999985       2.15344094E-02
  -9.14999962       2.10378673E-02
  -9.14000034       2.04965733E-02
  -9.13000011       1.99118014E-02
  -9.11999989       1.92851052E-02
  -9.10999966       1.86184328E-02
  -9.10000038       1.79141928E-02
  -9.09000015       1.71751343E-02
  -9.07999992       1.64044388E-02
  -9.06999969       1.56057253E-02
  -9.06000042       1.47828255E-02
  -9.05000019       1.39399553E-02
  -9.03999996       1.30815543E-02
  -9.02999973       1.22123780E-02
  -9.02000046       1.13373296E-02
  -9.01000023       1.04616750E-02
  -9.00000000       9.59081855E-03
  -8.98999977       8.73041246E-03
  -8.97999954       7.88628869E-03
  -8.97000027       7.06441374E-03
  -8.96000004       6.27089478E-03
  -8.94999981       5.51189296E-03
  -8.93999958       4.79356619E-03
  -8.93000031       4.12209798E-03
  -8.92000008       3.50378826E-03
  -8.90999985       2.94495886E-03
  -8.89999962       2.45192065E-03
  -8.89000034       2.03103921E-03
  -8.88000011       1.68864196E-03
  -8.86999989       1.43101905E-03
  -8.85999966       1.26430392E-03
  -8.85000038       1.19438895E-03
  -8.84000015       1.22688315E-03
  -8.82999992       1.36706710E-03
  -8.81999969       1.61992176E-03
  -8.81000042       1.99001399E-03
  -8.80000019       2.48158071E-03
  -8.78999996       3.09837982E-03
  -8.77999973       3.84397176E-03
  -8.77000046       4.72135516E-03
  -8.76000023       5.73314680E-03
  -8.75000000       6.88130176E-03
  -8.73999977       8.16725753E-03
  -8.72999954       9.59177036E-03
  -8.72000027       1.11547904E-02
  -8.71000004       1.28556797E-02
  -8.69999981       1.46928104E-02
  -8.68999958       1.66640393E-02
  -8.68000031       1.87665746E-02
  -8.67000008       2.09969953E-02
  -8.65999985       2.33513359E-02
  -8.64999962       2.58250609E-02
  -8.64000034       2.84131970E-02
  -8.63000011       3.11099645E-02
  -8.61999989       3.39092799E-02
  -8.60999966       3.68041024E-02
  -8.60000038       3.97868119E-02
  -8.59000015       4.28491980E-02
  -8.57999992       4.59825322E-02
  -8.56999969       4.91776392E-02
  -8.56000042       5.24252579E-02
  -8.55000019       5.57159968E-02
  -8.53999996       5.90405650E-02
  -8.52999973       6.23900108E-02
  -8.52000046       6.57555163E-02
  -8.51000023       6.91284910E-02
  -8.50000000       7.25008175E-02
  -8.48999977       7.58646429E-02
  -8.47999954       7.92124718E-02
  -8.47000027       8.25370401E-02
  -8.46000004       8.58318433E-02
  -8.44999981       8.90906602E-02
  -8.43999958       9.23081040E-02
  -8.43000031       9.54790637E-02
  -8.42000008       9.85990241E-02
  -8.40999985      0.101663910    
  -8.39999962      0.104670160    
  -8.39000034      0.107614450    
  -8.38000011      0.110493734    
  -8.36999989      0.113305598    
  -8.35999966      0.116047733    
  -8.35000038      0.118718497    
  -8.34000015      0.121316448    
  -8.32999992      0.123840459    
  -8.31999969      0.126289651    
  -8.31000042      0.128663138    
  -8.30000019      0.130959913    
  -8.28999996      0.133179024    
  -8.27999973      0.135319188    
  -8.27000046      0.137379065    
  -8.26000023      0.139357418    
  -8.25000000      0.141252756    
  -8.23999977      0.143063739    
  -8.22999954      0.144788936    
  -8.22000027      0.146426812    
  -8.21000004      0.147975385    
  -8.19999981      0.149432510    
  -8.18999958      0.150795579    
  -8.18000031      0.152061507    
  -8.17000008      0.153227001    
  -8.15999985      0.154288352    
  -8.14999962      0.155241922    
  -8.14000034      0.156083912    
  -8.13000011      0.156810477    
  -8.11999989      0.157418028    
  -8.10999966      0.157902837    
  -8.10000038      0.158261061    
  -8.09000015      0.158488646    
  -8.07999992      0.158581629    
  -8.06999969      0.158536226    
  -8.06000042      0.158347979    
  -8.05000019      0.158013448    
  -8.03999996      0.157529011    
  -8.02999973      0.156891778    
  -8.02000046      0.156099141    
  -8.01000023      0.155149251    
  -8.00000000      0.154040903    
  -7.98999977      0.152773052    
  -7.98000002      0.151345596    
  -7.96999979      0.149758756    
  -7.96000004      0.148013696    
  -7.94999981      0.146112174    
  -7.94000006      0.144056693    
  -7.92999983      0.141850501    
  -7.92000008      0.139497787    
  -7.90999985      0.137003735    
  -7.90000010      0.134373590    
  -7.88999987      0.131613702    
  -7.88000011      0.128730476    
  -7.86999989      0.125731274    
  -7.86000013      0.122623436    
  -7.84999990      0.119415142    
  -7.84000015      0.116115488    
  -7.82999992      0.112733550    
  -7.82000017      0.109279640    
  -7.80999994      0.105764672    
  -7.80000019      0.102199629    
  -7.78999996       9.85963047E-02
  -7.78000021       9.49661359E-02
  -7.76999998       9.13210735E-02
  -7.76000023       8.76727104E-02
  -7.75000000       8.40331316E-02
  -7.73999977       8.04136544E-02
  -7.73000002       7.68267959E-02
  -7.71999979       7.32846484E-02
  -7.71000004       6.97997063E-02
  -7.69999981       6.63842931E-02
  -7.69000006       6.30507022E-02
  -7.67999983       5.98110370E-02
  -7.67000008       5.66766635E-02
  -7.65999985       5.36583737E-02
  -7.65000010       5.07661216E-02
  -7.63999987       4.80092540E-02
  -7.63000011       4.53968309E-02
  -7.61999989       4.29366380E-02
  -7.61000013       4.06365842E-02
  -7.59999990       3.85036208E-02
  -7.59000015       3.65444086E-02
  -7.57999992       3.47646140E-02
  -7.57000017       3.31695452E-02
  -7.55999994       3.17630507E-02
  -7.55000019       3.05484924E-02
  -7.53999996       2.95283776E-02
  -7.53000021       2.87039913E-02
  -7.51999998       2.80767065E-02
  -7.51000023       2.76462696E-02
  -7.50000000       2.74124835E-02
  -7.48999977       2.73742005E-02
  -7.48000002       2.75294781E-02
  -7.46999979       2.78758556E-02
  -7.46000004       2.84093954E-02
  -7.44999981       2.91259903E-02
  -7.44000006       3.00202984E-02