  -16.0000000       0.00000000    
  -15.9899998       0.00000000    
  -15.9799995       0.00000000    
  -15.9700003       0.00000000    
  -15.9600000       0.00000000    
  -15.9499998       0.00000000    
  -15.9399996       0.00000000    
  -15.9300003       0.00000000    
  -15.9200001       0.00000000    
  -15.9099998       0.00000000    
  -15.8999996       0.00000000    
  -15.8900003       0.00000000    
  -15.8800001       0.00000000    
  -15.8699999       0.00000000    
  -15.8599997       0.00000000    
  -15.8500004       0.00000000    
  -15.8400002       0.00000000    
  -15.8299999       2.80259693E-45
  -15.8199997       2.24207754E-44
  -15.8100004       1.47136339E-43
  -15.8000002       7.88931035E-43
  -15.7900000       3.60834355E-42
  -15.7799997       1.44249664E-41
  -15.7700005       5.10352901E-41
  -15.7600002       1.61274039E-40
  -15.7500000       4.57710321E-40
  -15.7399998       1.16925465E-39
  -15.7299995       2.68407931E-39
  -15.7200003       5.49657361E-39
  -15.7100000       9.86815818E-39
  -15.6999998       1.49063292E-38
  -15.6899996       1.67877966E-38
  -15.6800003       6.24349091E-39
  -15.6700001      -3.35277557E-38
  -15.6599998      -1.25567385E-37
  -15.6499996      -2.89603304E-37
  -15.6400003      -5.18975438E-37
  -15.6300001      -7.42844952E-37
  -15.6199999      -7.83985102E-37
  -15.6099997      -3.41859652E-37
  -15.6000004       9.47966707E-37
  -15.5900002       3.31971687E-36
  -15.5799999       6.52254078E-36
  -15.5699997       9.37729453E-36
  -15.5600004       9.48786375E-36
  -15.5500002       3.54458828E-36
  -15.5400000      -1.12600736E-35
  -15.5299997      -3.44429631E-35
  -15.5200005      -5.86580004E-35
  -15.5100002      -6.74250071E-35
  -15.5000000      -3.78940521E-35
  -15.4899998       4.72044925E-35
  -15.4799995       1.77320774E-34
  -15.4700003       2.88997858E-34
  -15.4600000       2.58766967E-34
  -15.4499998      -5.36415438E-35
  -15.4399996      -6.84654195E-34
  -15.4300003      -1.38273924E-33
  -15.4200001      -1.46113176E-33
  -15.4099998       1.05254671E-34
  -15.3999996       4.08525209E-33
  -15.3900003       9.79519459E-33
  -15.3800001       1.36647986E-32
  -15.3699999       8.68465879E-33
  -15.3599997      -1.34625401E-32
  -15.3500004      -5.59504572E-32
  -15.3400002      -1.06385589E-31
  -15.3299999      -1.27048817E-31
  -15.3199997      -5.59460608E-32
  -15.3100004       1.68065482E-31
  -15.3000002       5.47950955E-31
  -15.2900000       9.49798307E-31
  -15.2799997       1.04614972E-30
  -15.2700005       3.58467026E-31
  -15.2600002      -1.51741886E-30
  -15.2500000      -4.47638367E-30
  -15.2399998      -7.37927506E-30
  -15.2299995      -7.77058867E-30
  -15.2200003      -2.34777575E-30
  -15.2100000       1.13508420E-29
  -15.1999998       3.20359548E-29
  -15.1899996       5.14955088E-29
  -15.1800003       5.33530562E-29
  -15.1700001       1.67660402E-29
  -15.1599998      -7.25696181E-29
  -15.1499996      -2.04827079E-28
  -15.1400003      -3.28224203E-28
  -15.1300001      -3.43830351E-28
  -15.1199999      -1.29320490E-28
  -15.1099997       3.97012980E-28
  -15.1000004       1.17850985E-27
  -15.0900002       1.92509968E-27
  -15.0799999       2.08953673E-27
  -15.0699997       9.97555733E-28
  -15.0600004      -1.81515739E-27
  -15.0500002      -6.09825225E-27
  -15.0400000      -1.03999354E-26
  -15.0299997      -1.19346119E-26
  -15.0200005      -7.20087257E-27
  -15.0100002       6.40159353E-27
  -15.0000000       2.81374513E-26
  -14.9899998       5.15346035E-26
  -14.9799995       6.35476208E-26
  -14.9700003       4.70897791E-26
  -14.9600000      -1.18856363E-26
  -14.9499998      -1.13410945E-25
  -14.9399996      -2.32158067E-25
  -14.9300003      -3.12196954E-25
  -14.9200001      -2.75677501E-25
  -14.9099998      -5.10035491E-26
  -14.8999996       3.81107553E-25
  -14.8900003       9.36778932E-25
  -14.8800001       1.39874811E-24
  -14.8699999       1.43885271E-24
  -14.8599997       7.18654158E-25
  -14.8500004      -9.31872414E-25
  -14.8400002      -3.30070802E-24
  -14.8299999      -5.63717242E-24
  -14.8199997      -6.67600205E-24
  -14.8100004      -4.95210076E-24
  -14.8000002       5.65593843E-25
  -14.7900000       9.64236912E-24
  -14.7799997       2.00516073E-23
  -14.7700005       2.73981143E-23
  -14.7600002       2.59336682E-23
  -14.7500000       1.05792306E-23
  -14.7399998      -2.01092020E-23
  -14.7299995      -6.09291677E-23
  -14.7200003      -9.84394154E-23
  -14.7100000      -1.12428002E-22
  -14.6999998      -8.15540055E-23
  -14.6899996       7.10091172E-24
  -14.6800003       1.46871120E-22
  -14.6700001       3.03122037E-22
  -14.6599998       4.13182143E-22
  -14.6499996       3.99313590E-22
  -14.6400003       1.95949742E-22
  -14.6300001      -2.13513850E-22
  -14.6199999      -7.62018430E-22
  -14.6099997      -1.28311526E-21
  -14.6000004      -1.53137425E-21
  -14.5900002      -1.24874960E-21
  -14.5799999      -2.71261851E-22
  -14.5699997       1.35034408E-21
  -14.5600004       3.26165091E-21
  -14.5500002       4.80174630E-21
  -14.5400000       5.13024686E-21
  -14.5299997       3.49316717E-21
  -14.5200005      -4.18318574E-22
  -14.5100002      -6.12304050E-21
  -14.5000000      -1.21695983E-20
  -14.4899998      -1.62718236E-20
  -14.4799995      -1.58484784E-20
  -14.4700003      -8.92945026E-21
  -14.4600000       4.77568284E-21
  -14.4499998       2.30057395E-20
  -14.4399996       4.07063496E-20
  -14.4300003       5.07851770E-20
  -14.4200001       4.59881143E-20
  -14.4099998       2.16310089E-20
  -14.3999996      -2.15211894E-20
  -14.3900003      -7.52776233E-20
  -14.3800001      -1.24064839E-19
  -14.3699999      -1.47772740E-19
  -14.3599997      -1.27422572E-19
  -14.3500004      -5.26199638E-20
  -14.3400002       7.13007781E-20
  -14.3299999       2.19192290E-19
  -14.3199997       3.47692756E-19
  -14.3100004       4.03986946E-19
  -14.3000002       3.41127372E-19
  -14.2900000       1.36732529E-19
  -14.2799997      -1.90424667E-19
  -14.2700005      -5.72512640E-19
  -14.2600002      -8.99123509E-19
  -14.2500000      -1.04063695E-18
  -14.2399998      -8.85887068E-19
  -14.2299995      -3.85778866E-19
  -14.2200003       4.10134242E-19
  -14.2100000       1.33868046E-18
  -14.1999998       2.14131273E-18
  -14.1899996       2.51944367E-18
  -14.1800003       2.21944263E-18
  -14.1700001       1.12792043E-18
  -14.1599998      -6.50876784E-19
  -14.1499996      -2.76568500E-18
  -14.1400003      -4.65942236E-18
  -14.1300001      -5.68678399E-18
  -14.1199999      -5.29099834E-18
  -14.1099997      -3.19934208E-18
  -14.1000004       4.19095271E-19
  -14.0900002       4.89173728E-18
  -14.0799999       9.11937674E-18
  -14.0699997       1.18008953E-17
  -14.0600004       1.17718654E-17
  -14.0500002       8.38047781E-18
  -14.0400000       1.79620884E-18
  -14.0299997      -6.85543014E-18
  -14.0200005      -1.56089379E-17
  -14.0100002      -2.20433161E-17
  -14.0000000      -2.38765700E-17
  -13.9899998      -1.96387864E-17
  -13.9799995      -9.24421318E-18
  -13.9700003       5.72054041E-18
  -13.9600000       2.21255726E-17
  -13.9499998       3.58806234E-17
  -13.9399996       4.28842524E-17
  -13.9300003       4.01333905E-17
  -13.9200001       2.67091127E-17
  -13.9099998       4.34603134E-18
  -13.8999996      -2.26332646E-17
  -13.8900003      -4.80910996E-17
  -13.8800001      -6.54392310E-17
  -13.8699999      -6.93004704E-17
  -13.8599997      -5.70524071E-17
  -13.8500004      -2.98211746E-17
  -13.8400002       7.40588285E-18
  -13.8299999       4.66729183E-17
  -13.8199997       7.88145298E-17
  -13.8100004       9.56883459E-17
  -13.8000002       9.23208341E-17
  -13.7900000       6.83787265E-17
  -13.7799997       2.85149804E-17
  -13.7700005      -1.85858120E-17
  -13.7600002      -6.22860582E-17
  -13.7500000      -9.26920926E-17
  -13.7399998      -1.03251086E-16
  -13.7299995      -9.25085975E-17
  -13.7200003      -6.44800456E-17
  -13.7100000      -2.74586012E-17
  -13.6999998       8.46558642E-18
  -13.6899996       3.44923827E-17
  -13.6800003       4.58861140E-17
  -13.6700001       4.35401074E-17
  -13.6599998       3.37341128E-17
  -13.6499996       2.60009733E-17
  -13.6400003       2.96113255E-17
  -13.6300001       4.96865821E-17
  -13.6199999       8.41949691E-17
  -13.6099997       1.22968445E-16
  -13.6000004       1.49396892E-16
  -13.5900002       1.44710537E-16
  -13.5799999       9.39408243E-17
  -13.5699997      -8.00041809E-18
  -13.5600004      -1.51961999E-16
  -13.5500002      -3.13522046E-16
  -13.5400000      -4.56170547E-16
  -13.5299997      -5.38516866E-16
  -13.5200005      -5.24186498E-16
  -13.5100002      -3.92149176E-16
  -13.5000000      -1.44833528E-16
  -13.4899998       1.88368243E-16
  -13.4799995       5.53643657E-16
  -13.4700003       8.81405438E-16
  -13.4600000       1.09957688E-15
  -13.4499998       1.14877795E-15
  -13.4399996       9.96043195E-16
  -13.4300003       6.43889300E-16
  -13.4200001       1.32476879E-16
  -13.4099998      -4.65798347E-16
  -13.3999996      -1.05824400E-15
  -13.3900003      -1.54780914E-15
  -13.3800001      -1.84967474E-15
  -13.3699999      -1.90514523E-15
  -13.3599997      -1.69033874E-15
  -13.3500004      -1.21857516E-15
  -13.3400002      -5.36918250E-16
  -13.3299999       2.81444167E-16
  -13.3199997       1.14667858E-15
  -13.3100004       1.96151379E-15
  -13.3000002       2.62898973E-15
  -13.2900000       3.05869378E-15
  -13.2799997       3.17252929E-15
  -13.2700005       2.91153007E-15
  -13.2600002       2.24485542E-15
  -13.2500000       1.18087584E-15
  -13.2399998      -2.21425834E-16
  -13.2299995      -1.84415844E-15
  -13.2200003      -3.50966641E-15
  -13.2100000      -4.99108658E-15
  -13.1999998      -6.03651413E-15
  -13.1899996      -6.40588995E-15
  -13.1800003      -5.91600548E-15
  -13.1700001      -4.48586785E-15
  -13.1599998      -2.17241314E-15
  -13.1499996       8.13101707E-16
  -13.1400003       4.11526383E-15
  -13.1300001       7.27362693E-15
  -13.1199999       9.78728275E-15
  -13.1099997       1.11954073E-14
  -13.1000004       1.11599013E-14
  -13.0900002       9.53432652E-15
  -13.0799999       6.40515092E-15
  -13.0699997       2.09564040E-15
  -13.0600004      -2.87013133E-15
  -13.0500002      -7.83815406E-15
  -13.0400000      -1.21184826E-14
  -13.0299997      -1.50864361E-14
  -13.0200005      -1.62740796E-14
  -13.0100002      -1.54376888E-14
  -13.0000000      -1.25917589E-14
  -12.9899998      -8.00704057E-15
  -12.9799995      -2.17590207E-15
  -12.9700003       4.24680043E-15
  -12.9600000       1.05172701E-14
  -12.9499998       1.58811647E-14
  -12.9399996       1.96493111E-14
  -12.9300003       2.12664969E-14
  -12.9200001       2.03713575E-14
  -12.9099998       1.68461555E-14
  -12.8999996       1.08542978E-14
  -12.8900003       2.86099629E-15
  -12.8800001      -6.36983261E-15
  -12.8699999      -1.58109830E-14
  -12.8599997      -2.42463435E-14
  -12.8500004      -3.03873443E-14
  -12.8400002      -3.30264313E-14
  -12.8299999      -3.12143432E-14
  -12.8199997      -2.44388572E-14
  -12.8100004      -1.27778884E-14
  -12.8000002       3.00226445E-15
  -12.7900000       2.14281599E-14
  -12.7799997       4.03954112E-14
  -12.7700005       5.73423145E-14
  -12.7600002       6.95094007E-14
  -12.7500000       7.42601916E-14
  -12.7399998       6.94288445E-14
  -12.7299995       5.36575179E-14
  -12.7200003       2.66839773E-14
  -12.7100000      -1.04525492E-14
  -12.6999998      -5.53143651E-14
  -12.6899996      -1.04095741E-13
  -12.6800003      -1.51792668E-13
  -12.6700001      -1.92515275E-13
  -12.6599998      -2.19939708E-13
  -12.6499996      -2.27887018E-13
  -12.6400003      -2.11001138E-13
  -12.6300001      -1.65485559E-13
  -12.6199999      -8.98356232E-14
  -12.6099997       1.45125001E-14
  -12.6000004       1.42707501E-13
  -12.5900002       2.86279708E-13
  -12.5799999       4.33289526E-13
  -12.5699997       5.68885379E-13
  -12.5600004       6.76284874E-13
  -12.5500002       7.38140560E-13
  -12.5400000       7.38201221E-13
  -12.5299997       6.63124124E-13
  -12.5200005       5.04271755E-13
  -12.5100002       2.59302779E-13
  -12.5000000      -6.66149332E-14
  -12.4899998      -4.60111224E-13
  -12.4799995      -8.99530721E-13
  -12.4700003      -1.35549146E-12
  -12.4600000      -1.79206606E-12
  -12.4499998      -2.16849412E-12
  -12.4399996      -2.44132969E-12
  -12.4300003      -2.56686382E-12
  -12.4200001      -2.50367825E-12
  -12.4099998      -2.21517141E-12
  -12.3999996      -1.67191478E-12
  -12.3900003      -8.53694936E-13
  -12.3800001       2.48881617E-13
  -12.3699999       1.63332683E-12
  -12.3599997       3.28482055E-12
  -12.3500004       5.17640618E-12
  -12.3400002       7.26982754E-12
  -12.3299999       9.51693498E-12
  -12.3199997       1.18615309E-11
  -12.3100004       1.42414847E-11
  -12.3000002       1.65908971E-11
  -12.2900000       1.88421830E-11
  -12.2799997       2.09277942E-11
  -12.2700005       2.27815388E-11
  -12.2600002       2.43394575E-11
  -12.2500000       2.55402800E-11
  -12.2399998       2.63256257E-11
  -12.2299995       2.66400773E-11
  -12.2200003       2.64314334E-11
  -12.2100000       2.56512121E-11
  -12.1999998       2.42556617E-11
  -12.1899996       2.22071424E-11
  -12.1800003       1.94759573E-11
  -12.1700001       1.60425787E-11
  -12.1599998       1.18998778E-11
  -12.1499996       7.05518500E-12
  -12.1400003       1.53209325E-12
  -12.1300001      -4.62842048E-12
  -12.1199999      -1.13675328E-11
  -12.1099997      -1.86087881E-11
  -12.1000004      -2.62593159E-11
  -12.0900002      -3.42115433E-11
  -12.0799999      -4.23457623E-11
  -12.0699997      -5.05332096E-11
  -12.0600004      -5.86396209E-11
  -12.0500002      -6.65290253E-11
  -12.0400000      -7.40677242E-11
  -12.0299997      -8.11280557E-11
  -12.0200005      -8.75918990E-11
  -12.0100002      -9.33535610E-11
  -12.0000000      -9.83217466E-11
  -11.9899998      -1.02420496E-10
  -11.9799995      -1.05588940E-10
  -11.9700003      -1.07780049E-10
  -11.9600000      -1.08958162E-10
  -11.9499998      -1.09096385E-10
  -11.9399996      -1.08173075E-10
  -11.9300003      -1.06169171E-10
  -11.9200001      -1.03065917E-10
  -11.9099998      -9.88434543E-11
  -11.8999996      -9.34811603E-11
  -11.8900003      -8.69587735E-11
  -11.8800001      -7.92583915E-11
  -11.8699999      -7.03678921E-11
  -11.8599997      -6.02839029E-11
  -11.8500004      -4.90152328E-11
  -11.8400002      -3.65848844E-11
  -11.8299999      -2.30324249E-11
  -11.8199997      -8.41436643E-12
  -11.8100004       7.19592224E-12
  -11.8000002       2.37090625E-11
  -11.7900000       4.10214258E-11
  -11.7799997       5.90171315E-11
  -11.7700005       7.75699435E-11
  -11.7600002       9.65454869E-11
  -11.7500000       1.15803110E-10
  -11.7399998       1.35197742E-10
  -11.7299995       1.54580904E-10
  -11.7200003       1.73802014E-10
  -11.7100000       1.92709057E-10
  -11.6999998       2.11148876E-10
  -11.6899996       2.28966748E-10
  -11.6800003       2.46006604E-10
  -11.6700001       2.62110306E-10
  -11.6599998       2.77116718E-10
  -11.6499996       2.90861918E-10
  -11.6400003       3.03178760E-10
  -11.6300001       3.13898102E-10
  -11.6199999       3.22849802E-10
  -11.6099997       3.29865080E-10
  -11.6000004       3.34779787E-10
  -11.5900002       3.37437689E-10
  -11.5799999       3.37693873E-10
  -11.5699997       3.35419748E-10
  -11.5600004       3.30504596E-10
  -11.5500002       3.22859489E-10
  -11.5400000       3.12418758E-10
  -11.5299997       2.99140129E-10
  -11.5200005       2.83005425E-10
  -11.5100002       2.64018751E-10
  -11.5000000       2.42204173E-10
  -11.4899998       2.17604185E-10
  -11.4799995       1.90275212E-10
  -11.4700003       1.60285021E-10
  -11.4600000       1.27709426E-10
  -11.4499998       9.26291474E-11
  -11.4399996       5.51272708E-11
  -11.4300003       1.52867319E-11
  -11.4200001      -2.68113916E-11
  -11.4099998      -7.10880105E-11
  -11.3999996      -1.17466065E-10
  -11.3900003      -1.65869277E-10
  -11.3800001      -2.16220902E-10
  -11.3699999      -2.68442046E-10
  -11.3599997      -3.22447291E-10
  -11.3500004      -3.78143378E-10
  -11.3400002      -4.35424696E-10
  -11.3299999      -4.94171926E-10
  -11.3199997      -5.54249036E-10
  -11.3100004      -6.15501705E-10
  -11.3000002      -6.77756351E-10
  -11.2900000      -7.40820738E-10
  -11.2799997      -8.04485090E-10
  -11.2700005      -8.68523975E-10
  -11.2600002      -9.32699251E-10
  -11.2500000      -9.96764893E-10
  -11.2399998      -1.06047182E-09
  -11.2299995      -1.12357346E-09
  -11.2200003      -1.18583221E-09
  -11.2100000      -1.24702526E-09
  -11.1999998      -1.30694988E-09
  -11.1899996      -1.36542877E-09
  -11.1800003      -1.42231360E-09
  -11.1700001      -1.47748824E-09
  -11.1599998      -1.53086610E-09
  -11.1499996      -1.58239144E-09
  -11.1400003      -1.63203517E-09
  -11.1300001      -1.67978775E-09
  -11.1199999      -1.72565673E-09
  -11.1099997      -1.76965864E-09
  -11.1000004      -1.81180682E-09
  -11.0900002      -1.85211768E-09
  -11.0799999      -1.89059390E-09
  -11.0699997      -1.92722593E-09
  -11.0600004      -1.96199190E-09
  -11.0500002      -1.99485428E-09
  -11.0400000      -2.02576000E-09
  -11.0299997      -2.05464468E-09
  -11.0200005      -2.08143502E-09
  -11.0100002      -2.10605267E-09
  -11.0000000      -2.12841522E-09
  -10.9899998      -2.14844253E-09
  -10.9799995      -2.16605622E-09
  -10.9700003      -2.18118767E-09
  -10.9600000      -2.19378049E-09
  -10.9499998      -2.20379381E-09
  -10.9399996      -2.21120700E-09
  -10.9300003      -2.21601670E-09
  -10.9200001      -2.21824559E-09
  -10.9099998      -2.21794205E-09
  -10.8999996      -2.21517338E-09
  -10.8900003      -2.21003305E-09
  -10.8800001      -2.20262564E-09
  -10.8699999      -2.19306262E-09
  -10.8599997      -2.18146878E-09
  -10.8500004      -2.16796581E-09
  -10.8400002      -2.15266116E-09
  -10.8299999      -2.13565210E-09
  -10.8199997      -2.11701989E-09
  -10.8100004      -2.09681827E-09
  -10.8000002      -2.07508100E-09
  -10.7900000      -2.05182382E-09
  -10.7799997      -2.02703543E-09
  -10.7700005      -2.00070449E-09
  -10.7600002      -1.97280081E-09
  -10.7500000      -1.94329419E-09
  -10.7399998      -1.91215732E-09
  -10.7299995      -1.87936267E-09
  -10.7200003      -1.84489490E-09
  -10.7100000      -1.80875237E-09
  -10.6999998      -1.77094517E-09
  -10.6899996      -1.73150771E-09
  -10.6800003      -1.69048986E-09
  -10.6700001      -1.64796787E-09
  -10.6599998      -1.60403735E-09
  -10.6499996      -1.55882951E-09
  -10.6400003      -1.51248580E-09
  -10.6300001      -1.46517398E-09
  -10.6199999      -1.41708056E-09
  -10.6099997      -1.36842049E-09
  -10.6000004      -1.31938027E-09
  -10.5900002      -1.27019117E-09
  -10.5799999      -1.22106347E-09
  -10.5699997      -1.17221211E-09
  -10.5600004      -1.12385456E-09
  -10.5500002      -1.07617715E-09
  -10.5400000      -1.02938791E-09
  -10.5299997      -9.83669923E-10
  -10.5200005      -9.39199496E-10
  -10.5100002      -8.96146601E-10
  -10.5000000      -8.54665394E-10
  -10.4899998      -8.14901480E-10
  -10.4799995      -7.76975262E-10
  -10.4700003      -7.40981276E-10
  -10.4600000      -7.06998016E-10
  -10.4499998      -6.75074718E-10
  -10.4399996      -6.45234477E-10
  -10.4300003      -6.17478069E-10
  -10.4200001      -5.91795779E-10
  -10.4099998      -5.68144365E-10
  -10.3999996      -5.46499068E-10
  -10.3900003      -5.26809762E-10
  -10.3800001      -5.09039810E-10
  -10.3699999      -4.93151464E-10
  -10.3599997      -4.79134288E-10
  -10.3500004      -4.66958361E-10
  -10.3400002      -4.56615246E-10
  -10.3299999      -4.48089149E-10
  -10.3199997      -4.41374215E-10
  -10.3100004      -4.36453929E-10
  -10.3000002      -4.33313357E-10
  -10.2900000      -4.31936098E-10
  -10.2799997      -4.32306801E-10
  -10.2700005      -4.34399516E-10
  -10.2600002      -4.38185488E-10
  -10.2500000      -4.43643899E-10
  -10.2399998      -4.50746718E-10
  -10.2299995      -4.59460053E-10
  -10.2200003      -4.69751293E-10
  -10.2100000      -4.81568951E-10
  -10.1999998      -4.94864594E-10
  -10.1899996      -5.09561060E-10
  -10.1800003      -5.25581412E-10
  -10.1700001      -5.42847489E-10
  -10.1599998      -5.61258762E-10
  -10.1499996      -5.80735460E-10
  -10.1400003      -6.01194761E-10
  -10.1300001      -6.22565055E-10
  -10.1199999      -6.44779730E-10
  -10.1099997      -6.67806810E-10
  -10.1000004      -6.91608215E-10
  -10.0900002      -7.16191051E-10
  -10.0799999      -7.41563977E-10
  -10.0699997      -7.67741704E-10
  -10.0600004      -7.94763533E-10
  -10.0500002      -8.22672652E-10
  -10.0400000      -8.51511528E-10
  -10.0299997      -8.81311746E-10
  -10.0200005      -9.12100950E-10
  -10.0100002      -9.43886524E-10
  -10.0000000      -9.76676406E-10
  -9.98999977      -1.01043773E-09
  -9.97999954      -1.04513698E-09
  -9.97000027      -1.08071785E-09
  -9.96000004      -1.11714060E-09
  -9.94999981      -1.15432930E-09
  -9.93999958      -1.19223531E-09
  -9.93000031      -1.23082744E-09
  -9.92000008      -1.27006083E-09
  -9.90999985      -1.30993461E-09
  -9.89999962      -1.35046019E-09
  -9.89000034      -1.39166856E-09
  -9.88000011      -1.43361012E-09
  -9.86999989      -1.47635482E-09
  -9.85999966      -1.51999680E-09
  -9.85000038      -1.56465296E-09
  -9.84000015      -1.61043767E-09
  -9.82999992      -1.65746661E-09
  -9.81999969      -1.70587411E-09
  -9.81000042      -1.75578641E-09
  -9.80000019      -1.80730708E-09
  -9.78999996      -1.86053273E-09
  -9.77999973      -1.91554839E-09
  -9.77000046      -1.97240180E-09
  -9.76000023      -2.03112660E-09
  -9.75000000      -2.09174522E-09
  -9.73999977      -2.15423501E-09
  -9.72999954      -2.21857821E-09
  -9.72000027      -2.28473862E-09
  -9.71000004      -2.35268649E-09
  -9.69999981      -2.42235720E-09
  -9.68999958      -2.49370813E-09
  -9.68000031      -2.56668886E-09
  -9.67000008      -2.64121636E-09
  -9.65999985      -2.71720690E-09
  -9.64999962      -2.79457968E-09
  -9.64000034      -2.87321855E-09
  -9.63000011      -2.95300429E-09
  -9.61999989      -3.03379966E-09
  -9.60999966      -3.11546788E-09
  -9.60000038      -3.19788174E-09
  -9.59000015      -3.28087735E-09
  -9.57999992      -3.36432526E-09
  -9.56999969      -3.44807871E-09
  -9.56000042      -3.53199492E-09
  -9.55000019      -3.61593444E-09
  -9.53999996      -3.69974962E-09
  -9.52999973      -3.78329190E-09
  -9.52000046      -3.86643295E-09
  -9.51000023      -3.94901223E-09
  -9.50000000      -4.03086897E-09
  -9.48999977      -4.11186152E-09
  -9.47999954      -4.19183754E-09
  -9.47000027      -4.27064695E-09
  -9.46000004      -4.34815384E-09
  -9.44999981      -4.42424142E-09
  -9.43999958      -4.49878401E-09
  -9.43000031      -4.57169946E-09
  -9.42000008      -4.64285455E-09
  -9.40999985      -4.71216532E-09
  -9.39999962      -4.77958828E-09
  -9.39000034      -4.84504925E-09
  -9.38000011      -4.90852292E-09
  -9.36999989      -4.96996400E-09
  -9.35999966      -5.02938313E-09
  -9.35000038      -5.08676390E-09
  -9.34000015      -5.14214848E-09
  -9.32999992      -5.19558130E-09
  -9.31999969      -5.24715071E-09
  -9.31000042      -5.29694155E-09
  -9.30000019      -5.34508526E-09
  -9.28999996      -5.39173950E-09
  -9.27999973      -5.43707701E-09
  -9.27000046      -5.48129764E-09
  -9.26000023      -5.52459412E-09
  -9.25000000      -5.56722712E-09
  -9.23999977      -5.60939961E-09
  -9.22999954      -5.65138780E-09
  -9.22000027      -5.69344616E-09
  -9.21000004      -5.73581405E-09
  -9.19999981      -5.77875836E-09
  -9.18999958      -5.82250781E-09
  -9.18000031      -5.86725868E-09
  -9.17000008      -5.91319438E-09
  -9.15999985      -5.96049832E-09
  -9.14999962      -6.00926242E-09
  -9.14000034      -6.05955597E-09
  -9.13000011      -6.11142870E-09
  -9.11999989      -6.16487972E-09
  -9.10999966      -6.21991703E-09
  -9.10000038      -6.27648333E-09
  -9.09000015      -6.33454444E-09
  -9.07999992      -6.39404751E-09
  -9.06999969      -6.45491305E-09
  -9.06000042      -6.51705889E-09
  -9.05000019      -6.58041710E-09
  -9.03999996      -6.64486244E-09
  -9.02999973      -6.71034694E-09
  -9.02000046      -6.77678003E-09
  -9.01000023      -6.84408796E-09
  -9.00000000      -6.91217039E-09
  -8.98999977      -6.98091318E-09
  -8.97999954      -7.05023373E-09
  -8.97000027      -7.11996906E-09
  -8.96000004      -7.19006144E-09
  -8.94999981      -7.26030880E-09
  -8.93999958      -7.33061434E-09
  -8.93000031      -7.40084172E-09
  -8.92000008      -7.47085149E-09
  -8.90999985      -7.54054152E-09
  -8.89999962      -7.60976349E-09
  -8.89000034      -7.67847208E-09
  -8.88000011      -7.74659714E-09
  -8.86999989      -7.81409693E-09
  -8.85999966      -7.88090482E-09
  -8.85000038      -7.94702171E-09
  -8.84000015      -8.01244671E-09
  -8.82999992      -8.07728995E-09
  -8.81999969      -8.14155587E-09
  -8.81000042      -8.20537061E-09
  -8.80000019      -8.26887092E-09
  -8.78999996      -8.33223268E-09
  -8.77999973      -8.39570813E-09
  -8.77000046      -8.45948378E-09
  -8.76000023      -8.52394155E-09
  -8.75000000      -8.58932037E-09
  -8.73999977      -8.65598704E-09
  -8.72999954      -8.72435102E-09
  -8.72000027      -8.79477646E-09
  -8.71000004      -8.86771456E-09
  -8.69999981      -8.94354812E-09
  -8.68999958      -9.02271236E-09
  -8.68000031      -9.10555098E-09
  -8.67000008      -9.19247078E-09
  -8.65999985      -9.28385013E-09
  -8.64999962      -9.37993239E-09
  -8.64000034      -9.48104084E-09
  -8.63000011      -9.58740731E-09
  -8.61999989      -9.69925917E-09
  -8.60999966      -9.81673232E-09
  -8.60000038      -9.93997595E-09
  -8.59000015      -1.00691180E-08
  -8.57999992      -1.02041779E-08
  -8.56999969      -1.03451656E-08
  -8.56000042      -1.04920819E-08
  -8.55000019      -1.06448672E-08
  -8.53999996      -1.08034461E-08
  -8.52999973      -1.09676073E-08
  -8.52000046      -1.11372200E-08
  -8.51000023      -1.13121539E-08
  -8.50000000      -1.14920820E-08
  -8.48999977      -1.16768426E-08
  -8.47999954      -1.18661285E-08
  -8.47000027      -1.20597381E-08
  -8.46000004      -1.22573045E-08
  -8.44999981      -1.24586537E-08
  -8.43999958      -1.26634667E-08
  -8.43000031      -1.28714470E-08
  -8.42000008      -1.30824471E-08
  -8.40999985      -1.32961810E-08
  -8.39999962      -1.35125600E-08
  -8.39000034      -1.37313547E-08
  -8.38000011      -1.39524525E-08
  -8.36999989      -1.41757290E-08
  -8.35999966      -1.44010723E-08
  -8.35000038      -1.46283563E-08
  -8.34000015      -1.48574673E-08
  -8.32999992      -1.50883110E-08
  -8.31999969      -1.53208344E-08
  -8.31000042      -1.55548712E-08
  -8.30000019      -1.57903504E-08
  -8.28999996      -1.60271529E-08
  -8.27999973      -1.62652594E-08
  -8.27000046      -1.65045400E-08
  -8.26000023      -1.67449805E-08
  -8.25000000      -1.69863981E-08
  -8.23999977      -1.72286843E-08
  -8.22999954      -1.74717076E-08
  -8.22000027      -1.77152835E-08
  -8.21000004      -1.79593975E-08
  -8.19999981      -1.82038384E-08
  -8.18999958      -1.84484854E-08
  -8.18000031      -1.86932088E-08
  -8.17000008      -1.89379179E-08
  -8.15999985      -1.91823712E-08
  -8.14999962      -1.94265368E-08
  -8.14000034      -1.96701322E-08
  -8.13000011      -1.99130579E-08
  -8.11999989      -2.01552108E-08
  -8.10999966      -2.03962944E-08
  -8.10000038      -2.06362305E-08
  -8.09000015      -2.08747082E-08
  -8.07999992      -2.11114362E-08
  -8.06999969      -2.13461480E-08
  -8.06000042      -2.15784315E-08
  -8.05000019      -2.18079901E-08
  -8.03999996      -2.20343797E-08
  -8.02999973      -2.22570691E-08
  -8.02000046      -2.24755610E-08
  -8.01000023      -2.26894308E-08
  -8.00000000      -2.28980408E-08
  -7.98999977      -2.31009238E-08
  -7.98000002      -2.32976340E-08
  -7.96999979      -2.34876030E-08
  -7.96000004      -2.36702693E-08
  -7.94999981      -2.38452262E-08
  -7.94000006      -2.40121150E-08
  -7.92999983      -2.41705003E-08
  -7.92000008      -2.43200553E-08
  -7.90999985      -2.44605136E-08
  -7.90000010      -2.45915501E-08
  -7.88999987      -2.47129712E-08
  -7.88000011      -2.48244501E-08
  -7.86999989      -2.49260754E-08
  -7.86000013      -2.50174743E-08
  -7.84999990      -2.50989345E-08
  -7.84000015      -2.51703387E-08
  -7.82999992      -2.52317900E-08
  -7.82000017      -2.52834305E-08
  -7.80999994      -2.53255408E-08
  -7.80000019      -2.53583021E-08
  -7.78999996      -2.53821213E-08
  -7.78000021      -2.53975383E-08
  -7.76999998      -2.54048551E-08
  -7.76000023      -2.54046437E-08
  -7.75000000      -2.53974477E-08
  -7.73999977      -2.53839421E-08
  -7.73000002      -2.53648409E-08
  -7.71999979      -2.53406878E-08
  -7.71000004      -2.53122021E-08
  -7.69999981      -2.52803343E-08
  -7.69000006      -2.52454697E-08
  -7.67999983      -2.52085979E-08
  -7.67000008      -2.51707029E-08
  -7.65999985      -2.51324419E-08
  -7.65000010      -2.50947014E-08
  -7.63999987      -2.50582453E-08
  -7.63000011      -2.50238852E-08
  -7.61999989      -2.49925414E-08
  -7.61000013      -2.49650629E-08
  -7.59999990      -2.49422598E-08
  -7.59000015      -2.49250185E-08
  -7.57999992      -2.49142378E-08
  -7.57000017      -2.49109409E-08
  -7.55999994      -2.49156731E-08
  -7.55000019      -2.49298218E-08
  -7.53999996      -2.49540104E-08
  -7.53000021      -2.49888803E-08
  -7.51999998      -2.50356429E-08
  -7.51000023      -2.50949785E-08
  -7.50000000      -2.51675072E-08
  -7.48999977      -2.52540335E-08
  -7.48000002      -2.53552166E-08
  -7.46999979      -2.54716390E-08
  -7.46000004      -2.56040629E-08
  -7.44999981      -2.57528967E-08
  -7.44000006      -2.59187427E-08