  -16.0000000       0.00000000    
  -15.9899998       0.00000000    
  -15.9799995       0.00000000    
  -15.9700003       0.00000000    
  -15.9600000       0.00000000    
  -15.9499998       0.00000000    
  -15.9399996       0.00000000    
  -15.9300003       0.00000000    
  -15.9200001       0.00000000    
  -15.9099998       0.00000000    
  -15.8999996       0.00000000    
  -15.8900003       0.00000000    
  -15.8800001       0.00000000    
  -15.8699999      -5.88110952E-41
  -15.8599997      -2.44265660E-39
  -15.8500004      -3.94335505E-38
  -15.8400002      -3.85223315E-37
  -15.8299999      -2.68577195E-36
  -15.8199997      -1.44977311E-35
  -15.8100004      -6.33301312E-35
  -15.8000002      -2.28674977E-34
  -15.7900000      -6.83339662E-34
  -15.7799997      -1.64174886E-33
  -15.7700005      -2.82902901E-33
  -15.7600002      -1.49372381E-33
  -15.7500000       1.27658069E-32
  -15.7399998       6.80223845E-32
  -15.7299995       2.23201997E-31
  -15.7200003       5.72565948E-31
  -15.7100000       1.21120728E-30
  -15.6999998       2.11236015E-30
  -15.6899996       2.87245643E-30
  -15.6800003       2.34827359E-30
  -15.6700001      -1.62907417E-30
  -15.6599998      -1.20567916E-29
  -15.6499996      -3.15184273E-29
  -15.6400003      -5.94411194E-29
  -15.6300001      -8.78716070E-29
  -15.6199999      -9.65377982E-29
  -15.6099997      -4.88250324E-29
  -15.6000004       1.08199178E-28
  -15.5900002       4.32468484E-28
  -15.5799999       9.47979311E-28
  -15.5699997       1.55071016E-27
  -15.5600004       1.83719811E-27
  -15.5500002       8.96986560E-28
  -15.5400000      -2.72029612E-27
  -15.5299997      -1.03887157E-26
  -15.5200005      -2.14960437E-26
  -15.5100002      -2.99759995E-26
  -15.5000000      -2.05718792E-26
  -15.4899998       3.09023718E-26
  -15.4799995       1.45771043E-25
  -15.4700003       3.11657817E-25
  -15.4600000       4.34233958E-25
  -15.4499998       2.96443328E-25
  -15.4399996      -4.15620736E-25
  -15.4300003      -1.93623168E-24
  -15.4200001      -4.03581673E-24
  -15.4099998      -5.50169779E-24
  -15.3999996      -3.80893402E-24
  -15.3900003       4.39562920E-24
  -15.3800001       2.12618083E-23
  -15.3699999       4.38705523E-23
  -15.3599997       5.95931718E-23
  -15.3500004       4.39216011E-23
  -15.3400002      -3.38656377E-23
  -15.3299999      -1.91797607E-22
  -15.3199997      -4.02370382E-22
  -15.3100004      -5.56316524E-22
  -15.3000002      -4.49603763E-22
  -15.2900000       1.66653657E-22
  -15.2799997       1.43800543E-21
  -15.2700005       3.16317481E-21
  -15.2600002       4.53805501E-21
  -15.2500000       4.07447682E-21
  -15.2399998      -4.51610657E-23
  -15.2299995      -8.96279274E-21
  -15.2200003      -2.15337489E-20
  -15.2100000      -3.26541599E-20
  -15.1999998      -3.26879192E-20
  -15.1899996      -9.55544907E-21
  -15.1800003       4.52698630E-20
  -15.1700001       1.27128057E-19
  -15.1599998       2.07977931E-19
  -15.1499996       2.32091655E-19
  -15.1400003       1.26258690E-19
  -15.1300001      -1.68516543E-19
  -15.1199999      -6.44629968E-19
  -15.1099997      -1.16993448E-18
  -15.1000004      -1.45665834E-18
  -15.0900002      -1.10119019E-18
  -15.0799999       2.67539420E-19
  -15.0699997       2.72891930E-18
  -15.0600004       5.76546004E-18
  -15.0500002       8.05897173E-18
  -15.0400000       7.59654716E-18
  -15.0299997       2.27926557E-18
  -15.0200005      -8.91647099E-18
  -15.0100002      -2.44605744E-17
  -15.0000000      -3.90797146E-17
  -14.9899998      -4.37663975E-17
  -14.9799995      -2.79096992E-17
  -14.9700003       1.60316636E-17
  -14.9600000       8.60012271E-17
  -14.9499998       1.64186749E-16
  -14.9399996       2.14870593E-16
  -14.9300003       1.90362277E-16
  -14.9200001       4.76154774E-17
  -14.9099998      -2.25752571E-16
  -14.8999996      -5.83179908E-16
  -14.8900003      -9.01824968E-16
  -14.8800001      -9.92584654E-16
  -14.8699999      -6.50711515E-16
  -14.8599997       2.51764212E-16
  -14.8500004       1.65097193E-15
  -14.8400002       3.19628200E-15
  -14.8299999       4.23536082E-15
  -14.8199997       3.93695069E-15
  -14.8100004       1.57739462E-15
  -14.8000002      -3.04663754E-15
  -14.7900000      -9.19992300E-15
  -14.7799997      -1.49799894E-14
  -14.7700005      -1.74975611E-14
  -14.7600002      -1.36210818E-14
  -14.7500000      -1.26618985E-15
  -14.7399998       1.90508433E-14
  -14.7299995       4.29539488E-14
  -14.7200003       6.19738703E-14
  -14.7100000       6.50071834E-14
  -14.6999998       4.17341400E-14
  -14.6899996      -1.24630886E-14
  -14.6800003      -9.14422821E-14
  -14.6700001      -1.75220624E-13
  -14.6599998      -2.31214001E-13
  -14.6499996      -2.21452753E-13
  -14.6400003      -1.15704402E-13
  -14.6300001       9.20978788E-14
  -14.6199999       3.69357377E-13
  -14.6099997       6.39177242E-13
  -14.6000004       7.90082084E-13
  -14.5900002       7.04313940E-13
  -14.5799999       3.01807516E-13
  -14.5699997      -4.10677135E-13
  -14.5600004      -1.30251127E-12
  -14.5500002      -2.11420876E-12
  -14.5400000      -2.50039594E-12
  -14.5299997      -2.12452538E-12
  -14.5200005      -7.90665059E-13
  -14.5100002       1.42280361E-12
  -14.5000000       4.07759547E-12
  -14.4899998       6.38978670E-12
  -14.4799995       7.37825426E-12
  -14.4700003       6.14451502E-12
  -14.4600000       2.23133643E-12
  -14.4499998      -4.04165677E-12
  -14.4399996      -1.13957533E-11
  -14.4300003      -1.76865744E-11
  -14.4200001      -2.03387151E-11
  -14.4099998      -1.70879647E-11
  -14.3999996      -6.87640483E-12
  -14.3900003       9.36163473E-12
  -14.3800001       2.83321023E-11
  -14.3699999       4.46976622E-11
  -14.3599997       5.21907274E-11
  -14.3500004       4.53964574E-11
  -14.3400002       2.18139447E-11
  -14.3299999      -1.64129803E-11
  -14.3199997      -6.17677506E-11
  -14.3100004      -1.02171181E-10
  -14.3000002      -1.23504013E-10
  -14.2900000      -1.13500126E-10
  -14.2799997      -6.61287206E-11
  -14.2700005       1.48108349E-11
  -14.2600002       1.14229813E-10
  -14.2500000       2.07431475E-10
  -14.2399998       2.65186623E-10
  -14.2299995       2.61438426E-10
  -14.2200003       1.81874737E-10
  -14.2100000       3.09331102E-11
  -14.1999998      -1.65242944E-10
  -14.1899996      -3.61658870E-10
  -14.1800003      -5.03483366E-10
  -14.1700001      -5.39770340E-10
  -14.1599998      -4.38727249E-10
  -14.1499996      -2.00338302E-10
  -14.1400003       1.37829831E-10
  -14.1300001       5.04485176E-10
  -14.1199999       8.08587586E-10
  -14.1099997       9.61032365E-10
  -14.1000004       8.98970454E-10
  -14.0900002       6.06278694E-10
  -14.0799999       1.23894936E-10
  -14.0699997      -4.54098342E-10
  -14.0600004      -9.99145211E-10
  -14.0500002      -1.37796430E-09
  -14.0400000      -1.48617552E-09
  -14.0299997      -1.27680666E-09
  -14.0200005      -7.75471132E-10
  -14.0100002      -7.71893521E-11
  -14.0000000       6.75153156E-10
  -13.9899998       1.32538691E-09
  -13.9799995       1.74228532E-09
  -13.9700003       1.85057414E-09
  -13.9600000       1.64570546E-09
  -13.9499998       1.18820265E-09
  -13.9399996       5.79707893E-10
  -13.9300003      -7.10451628E-11
  -13.9200001      -6.80448697E-10
  -13.9099998      -1.20881072E-09
  -13.8999996      -1.65826408E-09
  -13.8900003      -2.04986805E-09
  -13.8800001      -2.38796760E-09
  -13.8699999      -2.62630007E-09
  -13.8599997      -2.65199396E-09
  -13.8500004      -2.29994757E-09
  -13.8400002      -1.40073808E-09
  -13.8299999       1.46566717E-10
  -13.8199997       2.29692998E-09
  -13.8100004       4.80401185E-09
  -13.8000002       7.21294846E-09
  -13.7900000       8.91765417E-09
  -13.7799997       9.28207644E-09
  -13.7700005       7.80504017E-09
  -13.7600002       4.29081926E-09
  -13.7500000      -1.02176279E-09
  -13.7399998      -7.41590256E-09
  -13.7299995      -1.37673419E-08
  -13.7200003      -1.87303346E-08
  -13.7100000      -2.10100932E-08
  -13.6999998      -1.96652472E-08
  -13.6899996      -1.43696095E-08
  -13.6800003      -5.56362822E-09
  -13.6700001       5.55194513E-09
  -13.6599998       1.71933578E-08
  -13.6499996       2.73127032E-08
  -13.6400003       3.39917960E-08
  -13.6300001       3.58231631E-08
  -13.6199999       3.21894404E-08
  -13.6099997       2.33766055E-08
  -13.6000004       1.04985878E-08
  -13.5900002      -4.74088058E-09
  -13.5799999      -2.03801331E-08
  -13.5699997      -3.45340538E-08
  -13.5600004      -4.56433860E-08
  -13.5500002      -5.25837898E-08
  -13.5400000      -5.46297549E-08
  -13.5299997      -5.13225160E-08
  -13.5200005      -4.23315392E-08
  -13.5100002      -2.74094010E-08
  -13.5000000      -6.51277743E-09
  -13.4899998       1.98973691E-08
  -13.4799995       5.04423845E-08
  -13.4700003       8.24375803E-08
  -13.4600000       1.11709781E-07
  -13.4499998       1.32790618E-07
  -13.4399996       1.39589559E-07
  -13.4300003       1.26525208E-07
  -13.4200001       8.99592152E-08
  -13.4099998       2.96362508E-08
  -13.3999996      -5.02347746E-08
  -13.3900003      -1.40623328E-07
  -13.3800001      -2.28299399E-07
  -13.3699999      -2.97506176E-07
  -13.3599997      -3.32512371E-07
  -13.3500004      -3.20644972E-07
  -13.3400002      -2.55228798E-07
  -13.3299999      -1.37803639E-07
  -13.3199997       2.09222932E-08
  -13.3100004       2.01726905E-07
  -13.3000002       3.79159815E-07
  -13.2900000       5.25169753E-07
  -13.2799997       6.13484588E-07
  -13.2700005       6.23996527E-07
  -13.2600002       5.46379056E-07
  -13.2500000       3.82304904E-07
  -13.2399998       1.45890567E-07
  -13.2299995      -1.37681170E-07
  -13.2200003      -4.35095586E-07
  -13.2100000      -7.08906896E-07
  -13.1999998      -9.22017193E-07
  -13.1899996      -1.04203593E-06
  -13.1800003      -1.04508661E-06
  -13.1700001      -9.18763249E-07
  -13.1599998      -6.64106381E-07
  -13.1499996      -2.96552003E-07
  -13.1400003       1.54185443E-07
  -13.1300001       6.45384262E-07
  -13.1199999       1.12391785E-06
  -13.1099997       1.53034807E-06
  -13.1000004       1.80459324E-06
  -13.0900002       1.89300260E-06
  -13.0799999       1.75629953E-06
  -13.0699997       1.37747031E-06
  -13.0600004       7.68286498E-07
  -13.0500002      -2.69585065E-08
  -13.0400000      -9.31834848E-07
  -13.0299997      -1.84312523E-06
  -13.0200005      -2.64126402E-06
  -13.0100002      -3.20501886E-06
  -13.0000000      -3.42871385E-06
  -12.9899998      -3.23943300E-06
  -12.9799995      -2.61147966E-06
  -12.9700003      -1.57539603E-06
  -12.9600000      -2.19585942E-07
  -12.9499998       1.31634135E-06
  -12.9399996       2.85603960E-06
  -12.9300003       4.20700189E-06
  -12.9200001       5.18449588E-06
  -12.9099998       5.63556023E-06
  -12.8999996       5.45979128E-06
  -12.8900003       4.62417529E-06
  -12.8800001       3.17015633E-06
  -12.8699999       1.21224275E-06
  -12.8599997      -1.07142864E-06
  -12.8500004      -3.45532976E-06
  -12.8400002      -5.68767155E-06
  -12.8299999      -7.51453763E-06
  -12.8199997      -8.70480926E-06
  -12.8100004      -9.07416961E-06
  -12.8000002      -8.50626566E-06
  -12.7900000      -6.96965162E-06
  -12.7799997      -4.52850827E-06
  -12.7700005      -1.34574827E-06
  -12.7600002       2.32305433E-06
  -12.7500000       6.14590499E-06
  -12.7399998       9.74069644E-06
  -12.7299995       1.27105759E-05
  -12.7200003       1.46852872E-05
  -12.7100000       1.53645087E-05
  -12.6999998       1.45577587E-05
  -12.6899996       1.22149731E-05
  -12.6800003       8.44311307E-06
  -12.6700001       3.50479991E-06
  -12.6599998      -2.20193169E-06
  -12.6499996      -8.18111403E-06
  -12.6400003      -1.38892729E-05
  -12.6300001      -1.87921778E-05
  -12.6199999      -2.24203595E-05
  -12.6099997      -2.44161292E-05
  -12.6000004      -2.45659685E-05
  -12.5900002      -2.28152130E-05
  -12.5799999      -1.92638672E-05
  -12.5699997      -1.41465835E-05
  -12.5600004      -7.80076880E-06
  -12.5500002      -6.28672296E-07
  -12.5400000       6.94091068E-06
  -12.5299997       1.44862752E-05
  -12.5200005       2.16190110E-05
  -12.5100002       2.80009899E-05
  -12.5000000       3.33526950E-05
  -12.4899998       3.74537995E-05
  -12.4799995       4.01380821E-05
  -12.4700003       4.12834088E-05
  -12.4600000       4.07989501E-05
  -12.4499998       3.86087086E-05
  -12.4399996       3.46333654E-05
  -12.4300003       2.87704570E-05
  -12.4200001       2.08753863E-05
  -12.4099998       1.07453679E-05
  -12.3999996      -1.88871479E-06
  -12.3900003      -1.73598673E-05
  -12.3800001      -3.60474660E-05
  -12.3699999      -5.83435467E-05
  -12.3599997      -8.46038602E-05
  -12.3500004      -1.15085008E-04
  -12.3400002      -1.49877713E-04
  -12.3299999      -1.88839535E-04
  -12.3199997      -2.31537721E-04
  -12.3100004      -2.77211744E-04
  -12.3000002      -3.24757304E-04
  -12.2900000      -3.72734765E-04
  -12.2799997      -4.19409422E-04
  -12.2700005      -4.62806143E-04
  -12.2600002      -5.00784896E-04
  -12.2500000      -5.31126745E-04
  -12.2399998      -5.51623700E-04
  -12.2299995      -5.60164626E-04
  -12.2200003      -5.54823433E-04
  -12.2100000      -5.33937477E-04
  -12.1999998      -4.96182416E-04
  -12.1899996      -4.40637377E-04
  -12.1800003      -3.66847176E-04
  -12.1700001      -2.74866266E-04
  -12.1599998      -1.65297315E-04
  -12.1499996      -3.93019363E-05
  -12.1400003       1.01407131E-04
  -12.1300001       2.54598126E-04
  -12.1199999       4.17588511E-04
  -12.1099997       5.87330607E-04
  -12.1000004       7.60519935E-04
  -12.0900002       9.33721603E-04
  -12.0799999       1.10349560E-03
  -12.0699997       1.26651896E-03
  -12.0600004       1.41970068E-03
  -12.0500002       1.56026287E-03
  -12.0400000       1.68581819E-03
  -12.0299997       1.79439562E-03
  -12.0200005       1.88445288E-03
  -12.0100002       1.95486774E-03
  -12.0000000       2.00488744E-03
  -11.9899998       2.03406997E-03
  -11.9799995       2.04222044E-03
  -11.9700003       2.02929671E-03
  -11.9600000       1.99533254E-03
  -11.9499998       1.94035913E-03
  -11.9399996       1.86433818E-03
  -11.9300003       1.76713336E-03
  -11.9200001       1.64848182E-03
  -11.9099998       1.50801672E-03
  -11.8999996       1.34531432E-03
  -11.8900003       1.15996087E-03
  -11.8800001       9.51658410E-04
  -11.8699999       7.20315962E-04
  -11.8599997       4.66161029E-04
  -11.8500004       1.89843355E-04
  -11.8400002      -1.07496584E-04
  -11.8299999      -4.24166908E-04
  -11.8199997      -7.57906702E-04
  -11.8100004      -1.10588223E-03
  -11.8000002      -1.46473723E-03
  -11.7900000      -1.83065515E-03
  -11.7799997      -2.19944399E-03
  -11.7700005      -2.56664725E-03
  -11.7600002      -2.92766024E-03
  -11.7500000      -3.27786570E-03
  -11.7399998      -3.61274090E-03
  -11.7299995      -3.92798241E-03
  -11.7200003      -4.21960419E-03
  -11.7100000      -4.48401459E-03
  -11.6999998      -4.71806619E-03
  -11.6899996      -4.91906982E-03
  -11.6800003      -5.08481776E-03
  -11.6700001      -5.21352608E-03
  -11.6599998      -5.30380895E-03
  -11.6499996      -5.35462145E-03
  -11.6400003      -5.36520779E-03
  -11.6300001      -5.33506041E-03
  -11.6199999      -5.26387012E-03
  -11.6099997      -5.15151722E-03
  -11.6000004      -4.99804877E-03
  -11.5900002      -4.80367756E-03
  -11.5799999      -4.56876960E-03
  -11.5699997      -4.29383805E-03
  -11.5600004      -3.97951808E-03
  -11.5500002      -3.62656545E-03
  -11.5400000      -3.23581276E-03
  -11.5299997      -2.80816248E-03
  -11.5200005      -2.34457175E-03
  -11.5100002      -1.84605736E-03
  -11.5000000      -1.31371722E-03
  -11.4899998      -7.48775085E-04
  -11.4799995      -1.52615685E-04
  -11.4700003       4.73147695E-04
  -11.4600000       1.12663046E-03
  -11.4499998       1.80564262E-03
  -11.4399996       2.50765425E-03
  -11.4300003       3.22980853E-03
  -11.4200001       3.96894477E-03
  -11.4099998       4.72162012E-03
  -11.3999996       5.48418751E-03
  -11.3900003       6.25283318E-03
  -11.3800001       7.02365395E-03
  -11.3699999       7.79273408E-03
  -11.3599997       8.55621602E-03
  -11.3500004       9.31037404E-03
  -11.3400002       1.00517171E-02
  -11.3299999       1.07770599E-02
  -11.3199997       1.14836385E-02
  -11.3100004       1.21691618E-02
  -11.3000002       1.28318993E-02
  -11.2900000       1.34706907E-02
  -11.2799997       1.40849845E-02
  -11.2700005       1.46747753E-02
  -11.2600002       1.52405221E-02
  -11.2500000       1.57830752E-02
  -11.2399998       1.63035356E-02
  -11.2299995       1.68031156E-02
  -11.2200003       1.72830503E-02
  -11.2100000       1.77444667E-02
  -11.1999998       1.81883425E-02
  -11.1899996       1.86154395E-02
  -11.1800003       1.90263242E-02
  -11.1700001       1.94213055E-02
  -11.1599998       1.98005382E-02
  -11.1499996       2.01639831E-02
  -11.1400003       2.05114689E-02
  -11.1300001       2.08426788E-02
  -11.1199999       2.11572181E-02
  -11.1099997       2.14546416E-02
  -11.1000004       2.17344426E-02
  -11.0900002       2.19962001E-02
  -11.0799999       2.22395584E-02
  -11.0699997       2.24643368E-02
  -11.0600004       2.26705726E-02
  -11.0500002       2.28585694E-02
  -11.0400000       2.30289046E-02
  -11.0299997       2.31824219E-02
  -11.0200005       2.33201776E-02
  -11.0100002       2.34433543E-02
  -11.0000000       2.35532038E-02
  -10.9899998       2.36509107E-02
  -10.9799995       2.37375367E-02
  -10.9700003       2.38139927E-02
  -10.9600000       2.38809306E-02
  -10.9499998       2.39388309E-02
  -10.9399996       2.39879154E-02
  -10.9300003       2.40282211E-02
  -10.9200001       2.40596011E-02
  -10.9099998       2.40817312E-02
  -10.8999996       2.40940657E-02
  -10.8900003       2.40958426E-02
  -10.8800001       2.40860917E-02
  -10.8699999       2.40635276E-02
  -10.8599997       2.40266472E-02
  -10.8500004       2.39737201E-02
  -10.8400002       2.39028614E-02
  -10.8299999       2.38121003E-02
  -10.8199997       2.36994717E-02
  -10.8100004       2.35631596E-02
  -10.8000002       2.34015044E-02
  -10.7900000       2.32131388E-02
  -10.7799997       2.29970291E-02
  -10.7700005       2.27524489E-02
  -10.7600002       2.24790517E-02
  -10.7500000       2.21768264E-02
  -10.7399998       2.18461305E-02
  -10.7299995       2.14876570E-02
  -10.7200003       2.11024862E-02
  -10.7100000       2.06920244E-02
  -10.6999998       2.02580541E-02
  -10.6899996       1.98027007E-02
  -10.6800003       1.93284117E-02
  -10.6700001       1.88378431E-02
  -10.6599998       1.83338616E-02
  -10.6499996       1.78194698E-02
  -10.6400003       1.72976498E-02
  -10.6300001       1.67713799E-02
  -10.6199999       1.62434988E-02
  -10.6099997       1.57167595E-02
  -10.6000004       1.51937231E-02
  -10.5900002       1.46768522E-02
  -10.5799999       1.41684609E-02
  -10.5699997       1.36707453E-02
  -10.5600004       1.31858485E-02
  -10.5500002       1.27158491E-02
  -10.5400000       1.22627206E-02
  -10.5299997       1.18283927E-02
  -10.5200005       1.14146816E-02
  -10.5100002       1.10232597E-02
  -10.5000000       1.06556201E-02
  -10.4899998       1.03130192E-02
  -10.4799995       9.99648403E-03
  -10.4700003       9.70671605E-03
  -10.4600000       9.44411661E-03
  -10.4499998       9.20877699E-03
  -10.4399996       9.00042430E-03
  -10.4300003       8.81846342E-03
  -10.4200001       8.66199937E-03
  -10.4099998       8.52983445E-03
  -10.3999996       8.42050090E-03
  -10.3900003       8.33230000E-03
  -10.3800001       8.26338399E-03
  -10.3699999       8.21169931E-03
  -10.3599997       8.17517098E-03
  -10.3500004       8.15169420E-03
  -10.3400002       8.13921820E-03
  -10.3299999       8.13575648E-03
  -10.3199997       8.13947991E-03
  -10.3100004       8.14877637E-03
  -10.3000002       8.16220418E-03
  -10.2900000       8.17851536E-03
  -10.2799997       8.19675811E-03
  -10.2700005       8.21607094E-03
  -10.2600002       8.23582709E-03
  -10.2500000       8.25557578E-03
  -10.2399998       8.27500876E-03
  -10.2299995       8.29394627E-03
  -10.2200003       8.31238460E-03
  -10.2100000       8.33046809E-03
  -10.1999998       8.34849011E-03
  -10.1899996       8.36686790E-03
  -10.1800003       8.38621333E-03
  -10.1700001       8.40722397E-03
  -10.1599998       8.43072962E-03
  -10.1499996       8.45775288E-03
  -10.1400003       8.48931074E-03
  -10.1300001       8.52660649E-03
  -10.1199999       8.57083779E-03
  -10.1099997       8.62336997E-03
  -10.1000004       8.68560467E-03
  -10.0900002       8.75902455E-03
  -10.0799999       8.84514116E-03
  -10.0699997       8.94554053E-03
  -10.0600004       9.06177051E-03
  -10.0500002       9.19542462E-03
  -10.0400000       9.34796873E-03
  -10.0299997       9.52083711E-03
  -10.0200005       9.71526094E-03
  -10.0100002       9.93237086E-03
  -10.0000000       1.01730293E-02
  -9.98999977       1.04380036E-02
  -9.97999954       1.07278368E-02
  -9.97000027       1.10430345E-02
  -9.96000004       1.13839889E-02
  -9.94999981       1.17509933E-02
  -9.93999958       1.21444864E-02
  -9.93000031       1.25650419E-02
  -9.92000008       1.30131636E-02
  -9.90999985       1.34895081E-02
  -9.89999962       1.39947496E-02
  -9.89000034       1.45295812E-02
  -9.88000011       1.50945215E-02
  -9.86999989       1.56897996E-02
  -9.85999966       1.63155142E-02
  -9.85000038       1.69712957E-02
  -9.84000015       1.76564902E-02
  -9.82999992       1.83700230E-02
  -9.81999969       1.91104654E-02
  -9.81000042       1.98760536E-02
  -9.80000019       2.06646752E-02
  -9.78999996       2.14740597E-02
  -9.77999973       2.23015845E-02
  -9.77000046       2.31446531E-02
  -9.76000023       2.40002889E-02
  -9.75000000       2.48656552E-02
  -9.73999977       2.57378612E-02
  -9.72999954       2.66142115E-02
  -9.72000027       2.74922382E-02
  -9.71000004       2.83697918E-02
  -9.69999981       2.92450916E-02
  -9.68999958       3.01168133E-02
  -9.68000031       3.09840813E-02
  -9.67000008       3.18462849E-02
  -9.65999985       3.27032208E-02
  -9.64999962       3.35546657E-02
  -9.64000034       3.44007239E-02
  -9.63000011       3.52413356E-02
  -9.61999989       3.60763408E-02
  -9.60999966       3.69056575E-02
  -9.60000038       3.77290249E-02
  -9.59000015       3.85461748E-02
  -9.57999992       3.93568873E-02
  -9.56999969       4.01610658E-02
  -9.56000042       4.09586988E-02
  -9.55000019       4.17499058E-02
  -9.53999996       4.25348990E-02
  -9.52999973       4.33139428E-02
  -9.52000046       4.40872498E-02
  -9.51000023       4.48549874E-02
  -9.50000000       4.56172116E-02
  -9.48999977       4.63736653E-02
  -9.47999954       4.71240990E-02
  -9.47000027       4.78679985E-02
  -9.46000004       4.86048833E-02
  -9.44999981       4.93341759E-02
  -9.43999958       5.00554815E-02
  -9.43000031       5.07682599E-02
  -9.42000008       5.14723435E-02
  -9.40999985       5.21675386E-02
  -9.39999962       5.28537929E-02
  -9.39000034       5.35311811E-02
  -9.38000011       5.41995838E-02
  -9.36999989       5.48594072E-02
  -9.35999966       5.55107780E-02
  -9.35000038       5.61540164E-02
  -9.34000015       5.67894839E-02
  -9.32999992       5.74177615E-02
  -9.31999969       5.80393858E-02
  -9.31000042       5.86550459E-02
  -9.30000019       5.92654534E-02
  -9.28999996       5.98711036E-02
  -9.27999973       6.04728013E-02
  -9.27000046       6.10708743E-02
  -9.26000023       6.16658442E-02
  -9.25000000       6.22581542E-02
  -9.23999977       6.28482774E-02
  -9.22999954       6.34365231E-02
  -9.22000027       6.40238076E-02
  -9.21000004       6.46109432E-02
  -9.19999981       6.51989654E-02
  -9.18999958       6.57893941E-02
  -9.18000031       6.63835257E-02
  -9.17000008       6.69831038E-02
  -9.15999985       6.75898418E-02
  -9.14999962       6.82052225E-02
  -9.14000034       6.88308105E-02
  -9.13000011       6.94678724E-02
  -9.11999989       7.01174587E-02
  -9.10999966       7.07806349E-02
  -9.10000038       7.14582205E-02
  -9.09000015       7.21508339E-02
  -9.07999992       7.28590861E-02
  -9.06999969       7.35833794E-02
  -9.06000042       7.43238479E-02
  -9.05000019       7.50804916E-02
  -9.03999996       7.58528486E-02
  -9.02999973       7.66401514E-02
  -9.02000046       7.74415210E-02
  -9.01000023       7.82555267E-02
  -9.00000000       7.90806189E-02
  -8.98999977       7.99151361E-02
  -8.97999954       8.07575732E-02
  -8.97000027       8.16062540E-02
  -8.96000004       8.24597776E-02
  -8.94999981       8.33167955E-02
  -8.93999958       8.41763318E-02
  -8.93000031       8.50375518E-02
  -8.92000008       8.58995989E-02
  -8.90999985       8.67622346E-02
  -8.89999962       8.76250342E-02
  -8.89000034       8.84880871E-02
  -8.88000011       8.93516392E-02
  -8.86999989       9.02166739E-02
  -8.85999966       9.10839736E-02
  -8.85000038       9.19550583E-02
  -8.84000015       9.28313509E-02
  -8.82999992       9.37149003E-02
  -8.81999969       9.46077406E-02
  -8.81000042       9.55120400E-02
  -8.80000019       9.64303762E-02
  -8.78999996       9.73654836E-02
  -8.77999973       9.83204171E-02
  -8.77000046       9.92980227E-02
  -8.76000023      0.100302033    
  -8.75000000      0.101335838    
  -8.73999977      0.102402918    
  -8.72999954      0.103507243    
  -8.72000027      0.104652219    
  -8.71000004      0.105841130    
  -8.69999981      0.107077226    
  -8.68999958      0.108363308    
  -8.68000031      0.109701581    
  -8.67000008      0.111094080    
  -8.65999985      0.112542361    
  -8.64999962      0.114047103    
  -8.64000034      0.115608700    
  -8.63000011      0.117226616    
  -8.61999989      0.118899889    
  -8.60999966      0.120626852    
  -8.60000038      0.122405887    
  -8.59000015      0.124234222    
  -8.57999992      0.126109391    
  -8.56999969      0.128028989    
  -8.56000042      0.129989788    
  -8.55000019      0.131989196    
  -8.53999996      0.134024352    
  -8.52999973      0.136092767    
  -8.52000046      0.138191462    
  -8.51000023      0.140318543    
  -8.50000000      0.142471895    
  -8.48999977      0.144649342    
  -8.47999954      0.146849915    
  -8.47000027      0.149072006    
  -8.46000004      0.151314467    
  -8.44999981      0.153576374    
  -8.43999958      0.155857101    
  -8.43000031      0.158155337    
  -8.42000008      0.160470575    
  -8.40999985      0.162801966    
  -8.39999962      0.165148303    
  -8.39000034      0.167509094    
  -8.38000011      0.169883698    
  -8.36999989      0.172271550    
  -8.35999966      0.174671665    
  -8.35000038      0.177083403    
  -8.34000015      0.179505765    
  -8.32999992      0.181937993    
  -8.31999969      0.184378803    
  -8.31000042      0.186827451    
  -8.30000019      0.189282477    
  -8.28999996      0.191743746    
  -8.27999973      0.194210008    
  -8.27000046      0.196680829    
  -8.26000023      0.199155062    
  -8.25000000      0.201632380    
  -8.23999977      0.204111069    
  -8.22999954      0.206590131    
  -8.22000027      0.209067568    
  -8.21000004      0.211541817    
  -8.19999981      0.214010388    
  -8.18999958      0.216471449    
  -8.18000031      0.218922883    
  -8.17000008      0.221362606    
  -8.15999985      0.223788053    
  -8.14999962      0.226197407    
  -8.14000034      0.228588045    
  -8.13000011      0.230957910    
  -8.11999989      0.233304083    
  -8.10999966      0.235623702    
  -8.10000038      0.237914726    
  -8.09000015      0.240173861    
  -8.07999992      0.242398769    
  -8.06999969      0.244586587    
  -8.06000042      0.246734679    
  -8.05000019      0.248840645    
  -8.03999996      0.250901341    
  -8.02999973      0.252914876    
  -8.02000046      0.254877716    
  -8.01000023      0.256787390    
  -8.00000000      0.258641690    
  -7.98999977      0.260437846    
  -7.98000002      0.262174040    
  -7.96999979      0.263847649    
  -7.96000004      0.265457809    
  -7.94999981      0.267002761    
  -7.94000006      0.268481940    
  -7.92999983      0.269894123    
  -7.92000008      0.271239668    
  -7.90999985      0.272518247    
  -7.90000010      0.273730695    
  -7.88999987      0.274877608    
  -7.88000011      0.275960863    
  -7.86999989      0.276982337    
  -7.86000013      0.277943999    
  -7.84999990      0.278848916    
  -7.84000015      0.279699653    
  -7.82999992      0.280499965    
  -7.82000017      0.281253457    
  -7.80999994      0.281964391    
  -7.80000019      0.282638013    
  -7.78999996      0.283279777    
  -7.78000021      0.283896536    
  -7.76999998      0.284494579    
  -7.76000023      0.285081625    
  -7.75000000      0.285664499    
  -7.73999977      0.286250561    
  -7.73000002      0.286847681    
  -7.71999979      0.287462145    
  -7.71000004      0.288101315    
  -7.69999981      0.288772255    
  -7.69000006      0.289481252    
  -7.67999983      0.290235639    
  -7.67000008      0.291042000    
  -7.65999985      0.291907489    
  -7.65000010      0.292838216    
  -7.63999987      0.293841511    
  -7.63000011      0.294923246    
  -7.61999989      0.296089530    
  -7.61000013      0.297345072    
  -7.59999990      0.298695803    
  -7.59000015      0.300146550    
  -7.57999992      0.301701874    
  -7.57000017      0.303366691    
  -7.55999994      0.305144131    
  -7.55000019      0.307038367    
  -7.53999996      0.309051245    
  -7.53000021      0.311185777    
  -7.51999998      0.313443303    
  -7.51000023      0.315825135    
  -7.50000000      0.318331659    
  -7.48999977      0.320963323    
  -7.48000002      0.323721290    
  -7.46999979      0.326605916    
  -7.46000004      0.329616994    
  -7.44999981      0.332755655    
  -7.44000006      0.336020827    