  -16.0000000       0.00000000    
  -15.9899998       0.00000000    
  -15.9799995       0.00000000    
  -15.9700003       0.00000000    
  -15.9600000       0.00000000    
  -15.9499998       0.00000000    
  -15.9399996       0.00000000    
  -15.9300003       0.00000000    
  -15.9200001       0.00000000    
  -15.9099998       0.00000000    
  -15.8999996       0.00000000    
  -15.8900003       0.00000000    
  -15.8800001       0.00000000    
  -15.8699999       0.00000000    
  -15.8599997      -0.00000000    
  -15.8500004      -4.20389539E-45
  -15.8400002      -5.32493416E-44
  -15.8299999      -4.55422001E-43
  -15.8199997      -3.21457868E-42
  -15.8100004      -1.92104006E-41
  -15.8000002      -9.86037677E-41
  -15.7900000      -4.39553697E-40
  -15.7799997      -1.71723241E-39
  -15.7700005      -5.92479781E-39
  -15.7600002      -1.81654762E-38
  -15.7500000      -4.97144037E-38
  -15.7399998      -1.21712469E-37
  -15.7299995      -2.66321459E-37
  -15.7200003      -5.17779334E-37
  -15.7100000      -8.80917468E-37
  -15.6999998      -1.26343186E-36
  -15.6899996      -1.36704445E-36
  -15.6800003      -5.57827413E-37
  -15.6700001       2.22081260E-36
  -15.6599998       8.37150787E-36
  -15.6499996       1.92161629E-35
  -15.6400003       3.49681703E-35
  -15.6300001       5.28312103E-35
  -15.6199999       6.41297659E-35
  -15.6099997       5.11107125E-35
  -15.6000004      -1.41673027E-35
  -15.5900002      -1.63532513E-34
  -15.5799999      -4.11076482E-34
  -15.5699997      -7.10235891E-34
  -15.5600004      -8.96762692E-34
  -15.5500002      -6.53962589E-34
  -15.5400000       4.24739537E-34
  -15.5299997       2.58238054E-33
  -15.5200005       5.41739575E-33
  -15.5100002       7.32607532E-33
  -15.5000000       5.33330015E-33
  -15.4899998      -3.93877410E-33
  -15.4799995      -2.15064861E-32
  -15.4700003      -4.17217975E-32
  -15.4600000      -4.86282000E-32
  -15.4499998      -1.75614580E-32
  -15.4399996       7.23973805E-32
  -15.4300003       2.12703422E-31
  -15.4200001       3.33770289E-31
  -15.4099998       2.90428143E-31
  -15.3999996      -9.91186828E-32
  -15.3900003      -9.28010096E-31
  -15.3800001      -1.99526380E-30
  -15.3699999      -2.60830592E-30
  -15.3599997      -1.58486411E-30
  -15.3500004       2.29707113E-30
  -15.3400002       9.24658752E-30
  -15.3299999       1.69921037E-29
  -15.3199997       1.96719510E-29
  -15.3100004       8.46941235E-30
  -15.3000002      -2.44654733E-29
  -15.2900000      -7.82137183E-29
  -15.2799997      -1.33325353E-28
  -15.2700005      -1.45804609E-28
  -15.2600002      -5.39756733E-29
  -15.2500000       1.92674582E-28
  -15.2399998       5.80780978E-28
  -15.2299995       9.71064085E-28
  -15.2200003       1.06439600E-27
  -15.2100000       4.52120143E-28
  -15.1999998      -1.19698982E-27
  -15.1899996      -3.80725073E-27
  -15.1800003      -6.51656500E-27
  -15.1700001      -7.47039028E-27
  -15.1599998      -4.11421970E-27
  -15.1499996       5.71939256E-27
  -15.1400003       2.18991855E-26
  -15.1300001       3.97739015E-26
  -15.1199999       4.88672583E-26
  -15.1099997       3.42616065E-26
  -15.1000004      -1.77004579E-26
  -15.0900002      -1.09139843E-25
  -15.0799999      -2.18329532E-25
  -15.0699997      -2.91545857E-25
  -15.0600004      -2.48156462E-25
  -15.0500002      -7.56284725E-27
  -15.0400000       4.59776239E-25
  -15.0299997       1.06835225E-24
  -15.0200005       1.56946539E-24
  -15.0100002       1.56240844E-24
  -15.0000000       6.08346308E-25
  -14.9899998      -1.53661772E-24
  -14.9799995      -4.61152821E-24
  -14.9700003      -7.58690210E-24
  -14.9600000      -8.64145372E-24
  -14.9499998      -5.58514507E-24
  -14.9399996       3.16635337E-24
  -14.9300003       1.72004873E-23
  -14.9200001       3.27789850E-23
  -14.9099998       4.23776268E-23
  -14.8999996       3.60108187E-23
  -14.8900003       4.92924233E-24
  -14.8800001      -5.26199065E-23
  -14.8699999      -1.25250134E-22
  -14.8599997      -1.85004871E-22
  -14.8500004      -1.90442294E-22
  -14.8400002      -9.91649970E-23
  -14.8299999       1.10327183E-22
  -14.8199997       4.12651549E-22
  -14.8100004       7.16313066E-22
  -14.8000002       8.65864534E-22
  -14.7900000       6.78607029E-22
  -14.7799997       1.97097386E-23
  -14.7700005      -1.09760041E-21
  -14.7600002      -2.42145129E-21
  -14.7500000      -3.43212746E-21
  -14.7399998      -3.42761391E-21
  -14.7299995      -1.75311964E-21
  -14.7200003       1.84951446E-21
  -14.7100000       6.86996844E-21
  -14.6999998       1.18019052E-20
  -14.6899996       1.42554093E-20
  -14.6800003       1.15566421E-20
  -14.6700001       1.83503880E-21
  -14.6599998      -1.46312288E-20
  -14.6499996      -3.42920389E-20
  -14.6400003      -5.00698306E-20
  -14.6300001      -5.25738194E-20
  -14.6199999      -3.30419202E-20
  -14.6099997       1.23782611E-20
  -14.6000004       7.82074712E-20
  -14.5900002       1.46969251E-19
  -14.5799999       1.90383903E-19
  -14.5699997       1.75910749E-19
  -14.5600004       7.85463568E-20
  -14.5500002      -1.04540352E-19
  -14.5400000      -3.41385349E-19
  -14.5299997      -5.60989704E-19
  -14.5200005      -6.63373519E-19
  -14.5100002      -5.46658851E-19
  -14.5000000      -1.48099257E-19
  -14.4899998       5.11255883E-19
  -14.4799995       1.29483886E-18
  -14.4700003       1.95066084E-18
  -14.4600000       2.15774943E-18
  -14.4499998       1.62130026E-18
  -14.4399996       2.00522487E-19
  -14.4300003      -1.96674040E-18
  -14.4200001      -4.39271907E-18
  -14.4099998      -6.27231992E-18
  -14.3999996      -6.65124722E-18
  -14.3900003      -4.72225914E-18
  -14.3800001      -1.90447660E-19
  -14.3699999       6.40150651E-18
  -14.3599997       1.35256074E-17
  -14.3500004       1.88237224E-17
  -14.3400002       1.96279007E-17
  -14.3299999       1.37980178E-17
  -14.3199997       6.95725121E-19
  -14.3100004      -1.80032552E-17
  -14.3000002      -3.80078341E-17
  -14.2900000      -5.29159746E-17
  -14.2799997      -5.56410649E-17
  -14.2700005      -4.05946992E-17
  -14.2600002      -6.14085983E-18
  -14.2500000       4.34243319E-17
  -14.2399998       9.72035687E-17
  -14.2299995       1.39009952E-16
  -14.2200003       1.50884864E-16
  -14.2100000       1.18382833E-16
  -14.1999998       3.64568804E-17
  -14.1899996      -8.57852999E-17
  -14.1800003      -2.23357215E-16
  -14.1700001      -3.38201753E-16
  -14.1599998      -3.87028015E-16
  -14.1499996      -3.33215588E-16
  -14.1400003      -1.60252638E-16
  -14.1300001       1.17042060E-16
  -14.1199999       4.47631660E-16
  -14.1099997       7.49024141E-16
  -14.1000004       9.22936840E-16
  -14.0900002       8.80117048E-16
  -14.0799999       5.69340554E-16
  -14.0699997       3.02657528E-18
  -14.0600004      -7.29013200E-16
  -14.0500002      -1.46480552E-15
  -14.0400000      -1.99770116E-15
  -14.0299997      -2.12366809E-15
  -14.0200005      -1.69959480E-15
  -14.0100002      -6.98553736E-16
  -14.0000000       7.54369025E-16
  -13.9899998       2.38023183E-15
  -13.9799995       3.78649223E-15
  -13.9700003       4.54738616E-15
  -13.9600000       4.31084162E-15
  -13.9499998       2.90819720E-15
  -13.9399996       4.37552710E-16
  -13.9300003      -2.70682571E-15
  -13.9200001      -5.87714912E-15
  -13.9099998      -8.28871036E-15
  -13.8999996      -9.19295954E-15
  -13.8900003      -8.07166579E-15
  -13.8800001      -4.80563380E-15
  -13.8699999       2.29057455E-16
  -13.8599997       6.17226090E-15
  -13.8500004       1.18105988E-14
  -13.8400002       1.58113116E-14
  -13.8299999       1.70145592E-14
  -13.8199997       1.47202298E-14
  -13.8100004       8.90056461E-15
  -13.8000002       2.81990821E-16
  -13.7900000      -9.73303029E-15
  -13.7799997      -1.92969521E-14
  -13.7700005      -2.64575908E-14
  -13.7600002      -2.95381937E-14
  -13.7500000      -2.74775116E-14
  -13.7399998      -2.00601407E-14
  -13.7299995      -7.99385904E-15
  -13.7200003       7.17380748E-15
  -13.7100000       2.32734262E-14
  -13.6999998       3.78165110E-14
  -13.6899996       4.83271057E-14
  -13.6800003       5.26563927E-14
  -13.6700001       4.92550675E-14
  -13.6599998       3.73991846E-14
  -13.6499996       1.73758103E-14
  -13.6400003      -9.37059082E-15
  -13.6300001      -4.01528786E-14
  -13.6199999      -7.10675008E-14
  -13.6099997      -9.72055078E-14
  -13.6000004      -1.13119542E-13
  -13.5900002      -1.13582158E-13
  -13.5799999      -9.45991942E-14
  -13.5699997      -5.45471464E-14
  -13.5600004       4.78988238E-15
  -13.5500002       7.75657140E-14
  -13.5400000       1.53881614E-13
  -13.5299997       2.20657992E-13
  -13.5200005       2.63408653E-13
  -13.5100002       2.68751872E-13
  -13.5000000       2.27281288E-13
  -13.4899998       1.36257271E-13
  -13.4799995       1.51816267E-15
  -13.4700003      -1.61924822E-13
  -13.4600000      -3.30946316E-13
  -13.4499998      -4.77067550E-13
  -13.4399996      -5.70630294E-13
  -13.4300003      -5.85794488E-13
  -13.4200001      -5.05565425E-13
  -13.4099998      -3.25986010E-13
  -13.3999996      -5.87203219E-14
  -13.3900003       2.68524677E-13
  -13.3800001       6.13996159E-13
  -13.3699999       9.26226869E-13
  -13.3599997       1.15031628E-12
  -13.3500004       1.23552210E-12
  -13.3400002       1.14334421E-12
  -13.3299999       8.55159151E-13
  -13.3199997       3.78392467E-13
  -13.3100004      -2.49800994E-13
  -13.3000002      -9.62322778E-13
  -13.2900000      -1.66617122E-12
  -13.2799997      -2.25117082E-12
  -13.2700005      -2.60324227E-12
  -13.2600002      -2.62128795E-12
  -13.2500000      -2.23586557E-12
  -13.2399998      -1.42695675E-12
  -13.2299995      -2.37545498E-13
  -13.2200003       1.22037211E-12
  -13.2100000       2.77015910E-12
  -13.1999998       4.18677983E-12
  -13.1899996       5.22445498E-12
  -13.1800003       5.65299760E-12
  -13.1700001       5.29793397E-12
  -13.1599998       4.07793460E-12
  -13.1499996       2.03257203E-12
  -13.1400003      -6.65741767E-13
  -13.1300001      -3.71971811E-12
  -13.1199999      -6.73593516E-12
  -13.1099997      -9.27169973E-12
  -13.1000004      -1.08940417E-11
  -13.0900002      -1.12425885E-11
  -13.0799999      -1.00871395E-11
  -13.0699997      -7.37156690E-12
  -13.0600004      -3.23787438E-12
  -13.0500002       1.97285439E-12
  -13.0400000       7.74257221E-12
  -13.0299997       1.34190003E-11
  -13.0200005       1.82748695E-11
  -13.0100002       2.15790597E-11
  -13.0000000       2.26752627E-11
  -12.9899998       2.10637931E-11
  -12.9799995       1.64819044E-11
  -12.9700003       8.97623208E-12
  -12.9600000      -1.04156571E-12
  -12.9499998      -1.27674581E-11
  -12.9399996      -2.50194605E-11
  -12.9300003      -3.63061456E-11
  -12.9200001      -4.49571248E-11
  -12.9099998      -4.93142818E-11
  -12.8999996      -4.79704471E-11
  -12.8900003      -4.00281787E-11
  -12.8800001      -2.53391388E-11
  -12.8699999      -4.67787007E-12
  -12.8599997       2.01955588E-11
  -12.8500004       4.66181017E-11
  -12.8400002       7.12651327E-11
  -12.8299999       9.05372444E-11
  -12.8199997       1.01049800E-10
  -12.8100004       1.00157597E-10
  -12.8000002       8.64314315E-11
  -12.7900000       6.00037173E-11
  -12.7799997       2.27137024E-11
  -12.7700005      -2.19869730E-11
  -12.7600002      -6.93697322E-11
  -12.7500000      -1.13966954E-10
  -12.7399998      -1.50238905E-10
  -12.7299995      -1.73274742E-10
  -12.7200003      -1.79427556E-10
  -12.7100000      -1.66795175E-10
  -12.6999998      -1.35485567E-10
  -12.6899996      -8.76391043E-11
  -12.6800003      -2.72166820E-11
  -12.6700001       4.04083988E-11
  -12.6599998       1.08996735E-10
  -12.6499996       1.72061532E-10
  -12.6400003       2.23496263E-10
  -12.6300001       2.58157384E-10
  -12.6199999       2.72357636E-10
  -12.6099997       2.64235772E-10
  -12.6000004       2.33972092E-10
  -12.5900002       1.83823318E-10
  -12.5799999       1.17954327E-10
  -12.5699997       4.20532151E-11
  -12.5600004      -3.72639072E-11
  -12.5500002      -1.13222536E-10
  -12.5400000      -1.79761164E-10
  -12.5299997      -2.32392647E-10
  -12.5200005      -2.68916389E-10
  -12.5100002      -2.89830077E-10
  -12.5000000      -2.98310182E-10
  -12.4899998      -2.99675479E-10
  -12.4799995      -3.00326375E-10
  -12.4700003      -3.06244613E-10
  -12.4600000      -3.21234067E-10
  -12.4499998      -3.45155265E-10
  -12.4399996      -3.72453263E-10
  -12.4300003      -3.91266519E-10
  -12.4200001      -3.83350185E-10
  -12.4099998      -3.24940019E-10
  -12.3999996      -1.88554894E-10
  -12.3900003       5.44070622E-11
  -12.3800001       4.30548847E-10
  -12.3699999       9.61169144E-10
  -12.3599997       1.65916203E-09
  -12.3500004       2.52646060E-09
  -12.3400002       3.55230290E-09
  -12.3299999       4.71249439E-09
  -12.3199997       5.96970340E-09
  -12.3100004       7.27474392E-09
  -12.3000002       8.56872795E-09
  -12.2900000       9.78589121E-09
  -12.2799997       1.08569589E-08
  -12.2700005       1.17128094E-08
  -12.2600002       1.22883348E-08
  -12.2500000       1.25262627E-08
  -12.2399998       1.23807924E-08
  -12.2299995       1.18207844E-08
  -12.2200003       1.08321618E-08
  -12.2100000       9.41927603E-09
  -12.1999998       7.60498686E-09
  -12.1899996       5.42916556E-09
  -12.1800003       2.94569658E-09
  -12.1700001       2.18112181E-10
  -12.1599998      -2.68572320E-09
  -12.1499996      -5.69923175E-09
  -12.1400003      -8.76241035E-09
  -12.1300001      -1.18259527E-08
  -12.1199999      -1.48536676E-08
  -12.1099997      -1.78228614E-08
  -12.1000004      -2.07225739E-08
  -12.0900002      -2.35500401E-08
  -12.0799999      -2.63059956E-08
  -12.0699997      -2.89895130E-08
  -12.0600004      -3.15933697E-08
  -12.0500002      -3.41005304E-08
  -12.0400000      -3.64822341E-08
  -12.0299997      -3.86978840E-08
  -12.0200005      -4.06965839E-08
  -12.0100002      -4.24198809E-08
  -12.0000000      -4.38051337E-08
  -11.9899998      -4.47890294E-08
  -11.9799995      -4.53107809E-08
  -11.9700003      -4.53147067E-08
  -11.9600000      -4.47521984E-08
  -11.9499998      -4.35831851E-08
  -11.9399996      -4.17772164E-08
  -11.9300003      -3.93144823E-08
  -11.9200001      -3.61866732E-08
  -11.9099998      -3.23979563E-08
  -11.8999996      -2.79653154E-08
  -11.8900003      -2.29186767E-08
  -11.8800001      -1.72999322E-08
  -11.8699999      -1.11612604E-08
  -11.8599997      -4.56254323E-09
  -11.8500004       2.43176679E-09
  -11.8400002       9.75595604E-09
  -11.8299999       1.73460695E-08
  -11.8199997       2.51418779E-08
  -11.8100004       3.30876979E-08
  -11.8000002       4.11320258E-08
  -11.7900000       4.92258856E-08
  -11.7799997       5.73204950E-08
  -11.7700005       6.53647092E-08
  -11.7600002       7.33028074E-08
  -11.7500000       8.10730114E-08
  -11.7399998       8.86073650E-08
  -11.7299995       9.58324193E-08
  -11.7200003       1.02671152E-07
  -11.7100000       1.09045352E-07
  -11.6999998       1.14878198E-07
  -11.6899996       1.20096331E-07
  -11.6800003       1.24631640E-07
  -11.6700001       1.28421959E-07
  -11.6599998       1.31411198E-07
  -11.6499996       1.33548667E-07
  -11.6400003       1.34788294E-07
  -11.6300001       1.35087802E-07
  -11.6199999       1.34407941E-07
  -11.6099997       1.32712245E-07
  -11.6000004       1.29966963E-07
  -11.5900002       1.26141515E-07
  -11.5799999       1.21209112E-07
  -11.5699997       1.15147252E-07
  -11.5600004       1.07938483E-07
  -11.5500002       9.95710110E-08
  -11.5400000       9.00388244E-08
  -11.5299997       7.93427617E-08
  -11.5200005       6.74908947E-08
  -11.5100002       5.44991892E-08
  -11.5000000       4.03924645E-08
  -11.4899998       2.52055106E-08
  -11.4799995       8.98374619E-09
  -11.4700003      -8.21619572E-09
  -11.4600000      -2.63263509E-08
  -11.4499998      -4.52680098E-08
  -11.4399996      -6.49526370E-08
  -11.4300003      -8.52833679E-08
  -11.4200001      -1.06157309E-07
  -11.4099998      -1.27467587E-07
  -11.3999996      -1.49105460E-07
  -11.3900003      -1.70962593E-07
  -11.3800001      -1.92933570E-07
  -11.3699999      -2.14917293E-07
  -11.3599997      -2.36819218E-07
  -11.3500004      -2.58553342E-07
  -11.3400002      -2.80043565E-07
  -11.3299999      -3.01225640E-07
  -11.3199997      -3.22047981E-07
  -11.3100004      -3.42471992E-07
  -11.3000002      -3.62471638E-07
  -11.2900000      -3.82031544E-07
  -11.2799997      -4.01144092E-07
  -11.2700005      -4.19805559E-07
  -11.2600002      -4.38012108E-07
  -11.2500000      -4.55754844E-07
  -11.2399998      -4.73016314E-07
  -11.2299995      -4.89767785E-07
  -11.2200003      -5.05966909E-07
  -11.2100000      -5.21559286E-07
  -11.1999998      -5.36478638E-07
  -11.1899996      -5.50650782E-07
  -11.1800003      -5.63996139E-07
  -11.1700001      -5.76434218E-07
  -11.1599998      -5.87886348E-07
  -11.1499996      -5.98280110E-07
  -11.1400003      -6.07551613E-07
  -11.1300001      -6.15647139E-07
  -11.1199999      -6.22526727E-07
  -11.1099997      -6.28163775E-07
  -11.1000004      -6.32546346E-07
  -11.0900002      -6.35680692E-07
  -11.0799999      -6.37588585E-07
  -11.0699997      -6.38309530E-07
  -11.0600004      -6.37897301E-07
  -11.0500002      -6.36422214E-07
  -11.0400000      -6.33963225E-07
  -11.0299997      -6.30607474E-07
  -11.0200005      -6.26446933E-07
  -11.0100002      -6.21572212E-07
  -11.0000000      -6.16071759E-07
  -10.9899998      -6.10025609E-07
  -10.9799995      -6.03506123E-07
  -10.9700003      -5.96573273E-07
  -10.9600000      -5.89277533E-07
  -10.9499998      -5.81654888E-07
  -10.9399996      -5.73729494E-07
  -10.9300003      -5.65508344E-07
  -10.9200001      -5.56986777E-07
  -10.9099998      -5.48140349E-07
  -10.8999996      -5.38926713E-07
  -10.8900003      -5.29288741E-07
  -10.8800001      -5.19151854E-07
  -10.8699999      -5.08427831E-07
  -10.8599997      -4.97021063E-07
  -10.8500004      -4.84827865E-07
  -10.8400002      -4.71747057E-07
  -10.8299999      -4.57682802E-07
  -10.8199997      -4.42551880E-07
  -10.8100004      -4.26285737E-07
  -10.8000002      -4.08833358E-07
  -10.7900000      -3.90168339E-07
  -10.7799997      -3.70283118E-07
  -10.7700005      -3.49192192E-07
  -10.7600002      -3.26933247E-07
  -10.7500000      -3.03559148E-07
  -10.7399998      -2.79142967E-07
  -10.7299995      -2.53769684E-07
  -10.7200003      -2.27531487E-07
  -10.7100000      -2.00530678E-07
  -10.6999998      -1.72869932E-07
  -10.6899996      -1.44648581E-07
  -10.6800003      -1.15955260E-07
  -10.6700001      -8.68669545E-08
  -10.6599998      -5.74420547E-08
  -10.6499996      -2.77191496E-08
  -10.6400003       2.28795338E-09
  -10.6300001       3.25865308E-08
  -10.6199999       6.32070680E-08
  -10.6099997       9.41919680E-08
  -10.6000004       1.25599726E-07
  -10.5900002       1.57493929E-07
  -10.5799999       1.89936173E-07
  -10.5699997       2.22992881E-07
  -10.5600004       2.56719147E-07
  -10.5500002       2.91160518E-07
  -10.5400000       3.26351397E-07
  -10.5299997       3.62315490E-07
  -10.5200005       3.99060610E-07
  -10.5100002       4.36583406E-07
  -10.5000000       4.74864095E-07
  -10.4899998       5.13860869E-07
  -10.4799995       5.53516202E-07
  -10.4700003       5.93747586E-07
  -10.4600000       6.34447360E-07
  -10.4499998       6.75484898E-07
  -10.4399996       7.16701095E-07
  -10.4300003       7.57915643E-07
  -10.4200001       7.98926862E-07
  -10.4099998       8.39514826E-07
  -10.3999996       8.79449772E-07
  -10.3900003       9.18494379E-07
  -10.3800001       9.56409849E-07
  -10.3699999       9.92967671E-07
  -10.3599997       1.02795025E-06
  -10.3500004       1.06116386E-06
  -10.3400002       1.09243979E-06
  -10.3299999       1.12164025E-06
  -10.3199997       1.14866566E-06
  -10.3100004       1.17345201E-06
  -10.3000002       1.19597655E-06
  -10.2900000       1.21625055E-06
  -10.2799997       1.23432324E-06
  -10.2700005       1.25027077E-06
  -10.2600002       1.26419866E-06
  -10.2500000       1.27623321E-06
  -10.2399998       1.28652027E-06
  -10.2299995       1.29521845E-06
  -10.2200003       1.30249487E-06
  -10.2100000       1.30852345E-06
  -10.1999998       1.31347940E-06
  -10.1899996       1.31753688E-06
  -10.1800003       1.32086655E-06
  -10.1700001       1.32363277E-06
  -10.1599998       1.32599223E-06
  -10.1499996       1.32809203E-06
  -10.1400003       1.33006847E-06
  -10.1300001       1.33204549E-06
  -10.1199999       1.33413118E-06
  -10.1099997       1.33641720E-06
  -10.1000004       1.33897436E-06
  -10.0900002       1.34185063E-06
  -10.0799999       1.34507047E-06
  -10.0699997       1.34863160E-06
  -10.0600004       1.35250855E-06
  -10.0500002       1.35665357E-06
  -10.0400000       1.36100152E-06
  -10.0299997       1.36547533E-06
  -10.0200005       1.36999199E-06
  -10.0100002       1.37446932E-06
  -10.0000000       1.37883114E-06
  -9.98999977       1.38301311E-06
  -9.97999954       1.38696817E-06
  -9.97000027       1.39066708E-06
  -9.96000004       1.39410110E-06
  -9.94999981       1.39728354E-06
  -9.93999958       1.40024690E-06
  -9.93000031       1.40304314E-06
  -9.92000008       1.40574036E-06
  -9.90999985       1.40842099E-06
  -9.89999962       1.41118153E-06
  -9.89000034       1.41413000E-06
  -9.88000011       1.41738485E-06
  -9.86999989       1.42107558E-06
  -9.85999966       1.42534373E-06
  -9.85000038       1.43034401E-06
  -9.84000015       1.43624152E-06
  -9.82999992       1.44321893E-06
  -9.81999969       1.45146623E-06
  -9.81000042       1.46118407E-06
  -9.80000019       1.47257811E-06
  -9.78999996       1.48585548E-06
  -9.77999973       1.50121798E-06
  -9.77000046       1.51885865E-06
  -9.76000023       1.53895587E-06
  -9.75000000       1.56166391E-06
  -9.73999977       1.58710930E-06
  -9.72999954       1.61538128E-06
  -9.72000027       1.64653000E-06
  -9.71000004       1.68055703E-06
  -9.69999981       1.71741465E-06
  -9.68999958       1.75700347E-06
  -9.68000031       1.79917322E-06
  -9.67000008       1.84372095E-06
  -9.65999985       1.89039838E-06
  -9.64999962       1.93891287E-06
  -9.64000034       1.98892872E-06
  -9.63000011       2.04007642E-06
  -9.61999989       2.09195105E-06
  -9.60999966       2.14411898E-06
  -9.60000038       2.19612480E-06
  -9.59000015       2.24749306E-06
  -9.57999992       2.29773696E-06
  -9.56999969       2.34636491E-06
  -9.56000042       2.39289238E-06
  -9.55000019       2.43684849E-06
  -9.53999996       2.47778144E-06
  -9.52999973       2.51527149E-06
  -9.52000046       2.54893666E-06
  -9.51000023       2.57842908E-06
  -9.50000000       2.60345951E-06
  -9.48999977       2.62379626E-06
  -9.47999954       2.63926177E-06
  -9.47000027       2.64975461E-06
  -9.46000004       2.65524613E-06
  -9.44999981       2.65578342E-06
  -9.43999958       2.65149174E-06
  -9.43000031       2.64258165E-06
  -9.42000008       2.62933600E-06
  -9.40999985       2.61211994E-06
  -9.39999962       2.59135913E-06
  -9.39000034       2.56755129E-06
  -9.38000011       2.54125621E-06
  -9.36999989       2.51308006E-06
  -9.35999966       2.48368974E-06
  -9.35000038       2.45379283E-06
  -9.34000015       2.42414876E-06
  -9.32999992       2.39554333E-06
  -9.31999969       2.36880214E-06
  -9.31000042       2.34476761E-06
  -9.30000019       2.32431466E-06
  -9.28999996       2.30831847E-06
  -9.27999973       2.29764964E-06
  -9.27000046       2.29317629E-06
  -9.26000023       2.29573106E-06
  -9.25000000       2.30611067E-06
  -9.23999977       2.32506750E-06
  -9.22999954       2.35327298E-06
  -9.22000027       2.39133351E-06
  -9.21000004       2.43976888E-06
  -9.19999981       2.49899813E-06
  -9.18999958       2.56934186E-06
  -9.18000031       2.65103154E-06
  -9.17000008       2.74418380E-06
  -9.15999985       2.84882003E-06
  -9.14999962       2.96484632E-06
  -9.14000034       3.09206121E-06
  -9.13000011       3.23016548E-06
  -9.11999989       3.37874872E-06
  -9.10999966       3.53729774E-06
  -9.10000038       3.70519524E-06
  -9.09000015       3.88174294E-06
  -9.07999992       4.06614163E-06
  -9.06999969       4.25751887E-06
  -9.06000042       4.45492105E-06
  -9.05000019       4.65732046E-06
  -9.03999996       4.86363479E-06
  -9.02999973       5.07270897E-06
  -9.02000046       5.28334522E-06
  -9.01000023       5.49430706E-06
  -9.00000000       5.70431803E-06
  -8.98999977       5.91208391E-06
  -8.97999954       6.11630639E-06
  -8.97000027       6.31568355E-06
  -8.96000004       6.50894208E-06
  -8.94999981       6.69481324E-06
  -8.93999958       6.87206466E-06
  -8.93000031       7.03950127E-06
  -8.92000008       7.19597620E-06
  -8.90999985       7.34039668E-06
  -8.89999962       7.47173635E-06
  -8.89000034       7.58904525E-06
  -8.88000011       7.69144117E-06
  -8.86999989       7.77813511E-06
  -8.85999966       7.84843178E-06
  -8.85000038       7.90173453E-06
  -8.84000015       7.93754498E-06
  -8.82999992       7.95546111E-06
  -8.81999969       7.95517008E-06
  -8.81000042       7.93646996E-06
  -8.80000019       7.89924252E-06
  -8.78999996       7.84348140E-06
  -8.77999973       7.76926936E-06
  -8.77000046       7.67679649E-06
  -8.76000023       7.56634427E-06
  -8.75000000       7.43829605E-06
  -8.73999977       7.29309431E-06
  -8.72999954       7.13130294E-06
  -8.72000027       6.95356175E-06
  -8.71000004       6.76056379E-06
  -8.69999981       6.55308759E-06
  -8.68999958       6.33195486E-06
  -8.68000031       6.09805056E-06
  -8.67000008       5.85230009E-06
  -8.65999985       5.59565024E-06
  -8.64999962       5.32908916E-06
  -8.64000034       5.05359912E-06
  -8.63000011       4.77018784E-06
  -8.61999989       4.47984621E-06
  -8.60999966       4.18352784E-06
  -8.60000038       3.88220269E-06
  -8.59000015       3.57677254E-06
  -8.57999992       3.26812778E-06
  -8.56999969       2.95709765E-06
  -8.56000042       2.64448158E-06
  -8.55000019       2.33102878E-06
  -8.53999996       2.01743865E-06
  -8.52999973       1.70437659E-06
  -8.52000046       1.39244219E-06
  -8.51000023       1.08218751E-06
  -8.50000000       7.74126079E-07
  -8.48999977       4.68705480E-07
  -8.47999954       1.66307970E-07
  -8.47000027      -1.32715968E-07
  -8.46000004      -4.28112457E-07
  -8.44999981      -7.19628872E-07
  -8.43999958      -1.00706427E-06
  -8.43000031      -1.29025489E-06
  -8.42000008      -1.56904207E-06
  -8.40999985      -1.84326109E-06
  -8.39999962      -2.11279485E-06
  -8.39000034      -2.37749509E-06
  -8.38000011      -2.63719812E-06
  -8.36999989      -2.89175887E-06
  -8.35999966      -3.14099066E-06
  -8.35000038      -3.38472364E-06
  -8.34000015      -3.62271157E-06
  -8.32999992      -3.85472504E-06
  -8.31999969      -4.08045662E-06
  -8.31000042      -4.29958845E-06
  -8.30000019      -4.51177493E-06
  -8.28999996      -4.71663179E-06
  -8.27999973      -4.91374567E-06
  -8.27000046      -5.10268774E-06
  -8.26000023      -5.28300097E-06
  -8.25000000      -5.45418561E-06
  -8.23999977      -5.61571687E-06
  -8.22999954      -5.76702450E-06
  -8.22000027      -5.90752052E-06
  -8.21000004      -6.03655280E-06
  -8.19999981      -6.15346153E-06
  -8.18999958      -6.25757229E-06
  -8.18000031      -6.34820526E-06
  -8.17000008      -6.42468331E-06
  -8.15999985      -6.48635933E-06
  -8.14999962      -6.53261031E-06
  -8.14000034      -6.56285556E-06
  -8.13000011      -6.57655937E-06
  -8.11999989      -6.57323699E-06
  -8.10999966      -6.55244457E-06
  -8.10000038      -6.51382334E-06
  -8.09000015      -6.45704722E-06
  -8.07999992      -6.38187021E-06
  -8.06999969      -6.28810631E-06
  -8.06000042      -6.17562728E-06
  -8.05000019      -6.04438355E-06
  -8.03999996      -5.89439560E-06
  -8.02999973      -5.72573845E-06
  -8.02000046      -5.53856535E-06
  -8.01000023      -5.33308594E-06
  -8.00000000      -5.10958398E-06
  -7.98999977      -4.86840463E-06
  -7.98000002      -4.60996625E-06
  -7.96999979      -4.33474770E-06
  -7.96000004      -4.04329467E-06
  -7.94999981      -3.73622379E-06
  -7.94000006      -3.41421469E-06
  -7.92999983      -3.07801361E-06
  -7.92000008      -2.72841226E-06
  -7.90999985      -2.36627125E-06
  -7.90000010      -1.99249325E-06
  -7.88999987      -1.60802608E-06
  -7.88000011      -1.21385324E-06
  -7.86999989      -8.11003360E-07
  -7.86000013      -4.00527853E-07
  -7.84999990       1.64872667E-08
  -7.84000015       4.38934109E-07
  -7.82999992       8.65693607E-07
  -7.82000017       1.29563682E-06
  -7.80999994       1.72763794E-06
  -7.80000019       2.16059357E-06
  -7.78999996       2.59342482E-06
  -7.78000021       3.02507419E-06
  -7.76999998       3.45451622E-06
  -7.76000023       3.88076387E-06
  -7.75000000       4.30286536E-06
  -7.73999977       4.71990006E-06
  -7.73000002       5.13098848E-06
  -7.71999979       5.53532254E-06
  -7.71000004       5.93213372E-06
  -7.69999981       6.32075262E-06
  -7.69000006       6.70059671E-06
  -7.67999983       7.07118261E-06
  -7.67000008       7.43212604E-06
  -7.65999985       7.78314825E-06
  -7.65000010       8.12405779E-06
  -7.63999987       8.45474460E-06
  -7.63000011       8.77518596E-06
  -7.61999989       9.08543188E-06
  -7.61000013       9.38561971E-06
  -7.59999990       9.67593496E-06
  -7.59000015       9.95668233E-06
  -7.57999992       1.02282083E-05
  -7.57000017       1.04909268E-05
  -7.55999994       1.07453188E-05
  -7.55000019       1.09918892E-05
  -7.53999996       1.12311627E-05
  -7.53000021       1.14636814E-05
  -7.51999998       1.16899982E-05
  -7.51000023       1.19106862E-05
  -7.50000000       1.21262910E-05
  -7.48999977       1.23373948E-05
  -7.48000002       1.25445731E-05
  -7.46999979       1.27483909E-05
  -7.46000004       1.29493774E-05
  -7.44999981       1.31480592E-05
  -7.44000006       1.33448993E-05