  -16.0000000       0.00000000    
  -15.9899998       0.00000000    
  -15.9799995       0.00000000    
  -15.9700003       0.00000000    
  -15.9600000       0.00000000    
  -15.9499998       0.00000000    
  -15.9399996       0.00000000    
  -15.9300003       0.00000000    
  -15.9200001       0.00000000    
  -15.9099998       0.00000000    
  -15.8999996       0.00000000    
  -15.8900003       0.00000000    
  -15.8800001      -1.54142831E-44
  -15.8699999      -1.19390629E-42
  -15.8599997      -2.61145982E-41
  -15.8500004      -3.21682075E-40
  -15.8400002      -2.74562153E-39
  -15.8299999      -1.79288543E-38
  -15.8199997      -9.48677715E-38
  -15.8100004      -4.22124414E-37
  -15.8000002      -1.62062369E-36
  -15.7900000      -5.47132389E-36
  -15.7799997      -1.64911483E-35
  -15.7700005      -4.49763309E-35
  -15.7600002      -1.12488105E-34
  -15.7500000      -2.61778161E-34
  -15.7399998      -5.75762597E-34
  -15.7299995      -1.21397094E-33
  -15.7200003      -2.47258735E-33
  -15.7100000      -4.84178078E-33
  -15.6999998      -8.92699871E-33
  -15.6899996      -1.48828781E-32
  -15.6800003      -2.07488036E-32
  -15.6700001      -1.91156761E-32
  -15.6599998       7.38380752E-33
  -15.6499996       8.83463468E-32
  -15.6400003       2.57518862E-31
  -15.6300001       5.22599539E-31
  -15.6199999       8.05501673E-31
  -15.6099997       8.67495459E-31
  -15.6000004       2.76993936E-31
  -15.5900002      -1.47303360E-30
  -15.5799999      -4.58387389E-30
  -15.5699997      -8.29991697E-30
  -15.5600004      -1.02556605E-29
  -15.5500002      -6.47128260E-30
  -15.5400000       7.11371641E-30
  -15.5299997       3.10110561E-29
  -15.5200005       5.71872698E-29
  -15.5100002       6.55887359E-29
  -15.5000000       2.71385076E-29
  -15.4899998      -8.17558525E-29
  -15.4799995      -2.52042865E-28
  -15.4700003      -4.09658203E-28
  -15.4600000      -3.96680011E-28
  -15.4499998       5.92959261E-30
  -15.4399996       9.84208942E-28
  -15.4300003       2.50657895E-27
  -15.4200001       4.05803184E-27
  -15.4099998       4.36095328E-27
  -15.3999996       1.26204167E-27
  -15.3900003      -7.85444460E-27
  -15.3800001      -2.45700328E-26
  -15.3699999      -4.63035405E-26
  -15.3599997      -6.16680858E-26
  -15.3500004      -4.62905983E-26
  -15.3400002       3.57873190E-26
  -15.3299999       2.16874749E-25
  -15.3199997       4.88711410E-25
  -15.3100004       7.45391070E-25
  -15.3000002       7.30460842E-25
  -15.2900000       4.59858638E-26
  -15.2799997      -1.69218770E-24
  -15.2700005      -4.48528995E-24
  -15.2600002      -7.40477936E-24
  -15.2500000      -8.11672238E-24
  -15.2399998      -2.99709518E-24
  -15.2299995       1.14822531E-23
  -15.2200003       3.56492365E-23
  -15.2100000       6.22683064E-23
  -15.1999998       7.30019707E-23
  -15.1899996       3.96068980E-23
  -15.1800003      -6.54724638E-23
  -15.1700001      -2.46605467E-22
  -15.1599998      -4.54649999E-22
  -15.1499996      -5.63547236E-22
  -15.1400003      -3.79422254E-22
  -15.1300001       2.89372986E-22
  -15.1199999       1.48845830E-21
  -15.1099997       2.92837346E-21
  -15.1000004       3.84115939E-21
  -15.0900002       3.03222259E-21
  -15.0799999      -7.13644166E-22
  -15.0699997      -7.80781516E-21
  -15.0600004      -1.67808548E-20
  -15.0500002      -2.34509500E-20
  -15.0400000      -2.11346521E-20
  -15.0299997      -2.72886157E-21
  -15.0200005       3.50022704E-20
  -15.0100002       8.57599339E-20
  -15.0000000       1.29120322E-19
  -14.9899998       1.30930076E-19
  -14.9799995       5.27698224E-20
  -14.9700003      -1.27711232E-19
  -14.9600000      -3.89105269E-19
  -14.9499998      -6.42206225E-19
  -14.9399996      -7.27387992E-19
  -14.9300003      -4.52447064E-19
  -14.9200001       3.19313559E-19
  -14.9099998       1.54338678E-18
  -14.8999996       2.87553582E-18
  -14.8900003       3.63544018E-18
  -14.8800001       2.93654473E-18
  -14.8699999       3.31463970E-20
  -14.8599997      -5.15089669E-18
  -14.8500004      -1.14766264E-17
  -14.8400002      -1.63211304E-17
  -14.8299999      -1.59342266E-17
  -14.8199997      -6.66982735E-18
  -14.8100004       1.29650387E-17
  -14.8000002       3.99847461E-17
  -14.7900000       6.53825261E-17
  -14.7799997       7.47245584E-17
  -14.7700005       5.20015463E-17
  -14.7600002      -1.31195941E-17
  -14.7500000      -1.16184373E-16
  -14.7399998      -2.30473668E-16
  -14.7299995      -3.06033639E-16
  -14.7200003      -2.79824402E-16
  -14.7100000      -9.88339153E-17
  -14.6999998       2.47375337E-16
  -14.6899996       6.95059196E-16
  -14.6800003       1.09174055E-15
  -14.6700001       1.21600092E-15
  -14.6599998       8.42283634E-16
  -14.6499996      -1.54209627E-16
  -14.6400003      -1.67949015E-15
  -14.6300001      -3.33804292E-15
  -14.6199999      -4.44412903E-15
  -14.6099997      -4.17412288E-15
  -14.6000004      -1.86678354E-15
  -14.5900002       2.58633082E-15
  -14.5799999       8.39016797E-15
  -14.5699997       1.37151770E-14
  -14.5600004       1.59598371E-14
  -14.5500002       1.24929160E-14
  -14.5400000       1.79118161E-15
  -14.5299997      -1.53289026E-14
  -14.5200005      -3.48772220E-14
  -14.5100002      -4.98113446E-14
  -14.5000000      -5.15249634E-14
  -14.4899998      -3.27218382E-14
  -14.4799995       8.89023674E-15
  -14.4700003       6.72616327E-14
  -14.4600000       1.26582731E-13
  -14.4499998       1.63250530E-13
  -14.4399996       1.51928559E-13
  -14.4300003       7.50272443E-14
  -14.4200001      -6.67650207E-14
  -14.4099998      -2.46712969E-13
  -14.3999996      -4.11332210E-13
  -14.3900003      -4.90004033E-13
  -14.3800001      -4.15367447E-13
  -14.3699999      -1.50850388E-13
  -14.3599997       2.82571113E-13
  -14.3500004       7.91107685E-13
  -14.3400002       1.21479291E-12
  -14.3299999       1.36192620E-12
  -14.3199997       1.06875305E-12
  -14.3100004       2.71208701E-13
  -14.3000002      -9.33850545E-13
  -14.2900000      -2.26467109E-12
  -14.2799997      -3.29013422E-12
  -14.2700005      -3.53262536E-12
  -14.2600002      -2.62382347E-12
  -14.2500000      -4.74608471E-13
  -14.2399998       2.59776142E-12
  -14.2299995       5.84513818E-12
  -14.2200003       8.20870021E-12
  -14.2100000       8.58729320E-12
  -14.1999998       6.20539297E-12
  -14.1899996       9.82058944E-13
  -14.1800003      -6.22767593E-12
  -14.1700001      -1.36405947E-11
  -14.1599998      -1.88720810E-11
  -14.1499996      -1.95608460E-11
  -14.1400003      -1.41620457E-11
  -14.1300001      -2.68615447E-12
  -14.1199999       1.28797866E-11
  -14.1099997       2.86931815E-11
  -14.1000004       3.98182806E-11
  -14.0900002       4.15390500E-11
  -14.0799999       3.09256336E-11
  -14.0699997       8.20267899E-12
  -14.0600004      -2.25725185E-11
  -14.0500002      -5.38994474E-11
  -14.0400000      -7.64041608E-11
  -14.0299997      -8.13429948E-11
  -14.0200005      -6.34395800E-11
  -14.0100002      -2.32237667E-11
  -14.0000000       3.19656593E-11
  -13.9899998       8.88891322E-11
  -13.9799995       1.31301123E-10
  -13.9700003       1.44292328E-10
  -13.9600000       1.18987098E-10
  -13.9499998       5.62041316E-11
  -13.9399996      -3.22193314E-11
  -13.9300003      -1.25219224E-10
  -13.9200001      -1.97342143E-10
  -13.9099998      -2.25600150E-10
  -13.8999996      -1.96537134E-10
  -13.8900003      -1.11381265E-10
  -13.8800001       1.25388892E-11
  -13.8699999       1.45018636E-10
  -13.8599997       2.50422627E-10
  -13.8500004       2.97571828E-10
  -13.8400002       2.69321093E-10
  -13.8299999       1.68855790E-10
  -13.8199997       2.04236957E-11
  -13.8100004      -1.36291353E-10
  -13.8000002      -2.57036809E-10
  -13.7900000      -3.06212666E-10
  -13.7799997      -2.68509825E-10
  -13.7700005      -1.55117877E-10
  -13.7600002      -1.98350928E-12
  -13.7500000       1.40118958E-10
  -13.7399998       2.21331911E-10
  -13.7299995       2.09757781E-10
  -13.7200003       1.04350743E-10
  -13.7100000      -6.10847761E-11
  -13.6999998      -2.25213737E-10
  -13.6899996      -3.16861926E-10
  -13.6800003      -2.78653045E-10
  -13.6700001      -8.96650185E-11
  -13.6599998       2.20433741E-10
  -13.6499996       5.71623637E-10
  -13.6400003       8.50262305E-10
  -13.6300001       9.39539557E-10
  -13.6199999       7.56245122E-10
  -13.6099997       2.83458673E-10
  -13.6000004      -4.11428364E-10
  -13.5900002      -1.18097465E-09
  -13.5799999      -1.82624316E-09
  -13.5699997      -2.14475415E-09
  -13.5600004      -1.98665262E-09
  -13.5500002      -1.30414390E-09
  -13.5400000      -1.79370130E-10
  -13.5299997       1.17968790E-09
  -13.5200005       2.47783793E-09
  -13.5100002       3.39897843E-09
  -13.5000000       3.68480046E-09
  -13.4899998       3.20568239E-09
  -13.4799995       2.00389483E-09
  -13.4700003       2.95177938E-10
  -13.4600000      -1.57484337E-09
  -13.4499998      -3.21065441E-09
  -13.4399996      -4.26369162E-09
  -13.4300003      -4.52038629E-09
  -13.4200001      -3.95653910E-09
  -13.4099998      -2.74118728E-09
  -13.3999996      -1.18667542E-09
  -13.3900003       3.42796791E-10
  -13.3800001       1.53870883E-09
  -13.3699999       2.23974772E-09
  -13.3599997       2.47772025E-09
  -13.3500004       2.45994269E-09
  -13.3400002       2.48853294E-09
  -13.3299999       2.83709700E-09
  -13.3199997       3.62124286E-09
  -13.3100004       4.70588857E-09
  -13.3000002       5.68642511E-09
  -13.2900000       5.96286220E-09
  -13.2799997       4.89997287E-09
  -13.2700005       2.03907868E-09
  -13.2600002      -2.69377365E-09
  -13.2500000      -8.84608209E-09
  -13.2399998      -1.54169335E-08
  -13.2299995      -2.09826787E-08
  -13.2200003      -2.39616167E-08
  -13.2100000      -2.29708608E-08
  -13.1999998      -1.71987029E-08
  -13.1899996      -6.70253542E-09
  -13.1800003       7.44884909E-09
  -13.1700001       2.32402400E-08
  -13.1599998       3.79896079E-08
  -13.1499996       4.88007039E-08
  -13.1400003       5.31055129E-08
  -13.1300001       4.91892145E-08
  -13.1199999       3.65898707E-08
  -13.1099997       1.62882614E-08
  -13.1000004      -9.35489197E-09
  -13.0900002      -3.69069575E-08
  -13.0799999      -6.23619414E-08
  -13.0699997      -8.17407226E-08
  -13.0600004      -9.16901470E-08
  -13.0500002      -8.99849724E-08
  -13.0400000      -7.58613297E-08
  -13.0299997      -5.01452142E-08
  -13.0200005      -1.51754715E-08
  -13.0100002       2.54497721E-08
  -13.0000000       6.72564582E-08
  -12.9899998       1.05356001E-07
  -12.9799995       1.34937608E-07
  -12.9700003       1.51754548E-07
  -12.9600000       1.52576916E-07
  -12.9499998       1.35587271E-07
  -12.9399996       1.00695168E-07
  -12.9300003       4.97384072E-08
  -12.9200001      -1.34666296E-08
  -12.9099998      -8.32657463E-08
  -12.8999996      -1.52530220E-07
  -12.8900003      -2.13253173E-07
  -12.8800001      -2.57355367E-07
  -12.8699999      -2.77637270E-07
  -12.8599997      -2.68772766E-07
  -12.8500004      -2.28210780E-07
  -12.8400002      -1.56839249E-07
  -12.8299999      -5.92809037E-08
  -12.8199997       5.62702915E-08
  -12.8100004       1.78699764E-07
  -12.8000002       2.95064069E-07
  -12.7900000       3.92004608E-07
  -12.7799997       4.57306101E-07
  -12.7700005       4.81393613E-07
  -12.7600002       4.58564671E-07
  -12.7500000       3.87791403E-07
  -12.7399998       2.72990349E-07
  -12.7299995       1.22734789E-07
  -12.7200003      -5.05414377E-08
  -12.7100000      -2.31738994E-07
  -12.6999998      -4.04542419E-07
  -12.6899996      -5.52967322E-07
  -12.6800003      -6.62858042E-07
  -12.6700001      -7.23212224E-07
  -12.6599998      -7.27227018E-07
  -12.6499996      -6.72985152E-07
  -12.6400003      -5.63710387E-07
  -12.6300001      -4.07536049E-07
  -12.6199999      -2.16754430E-07
  -12.6099997      -6.55696164E-09
  -12.6000004       2.06662662E-07
  -12.5900002       4.07285995E-07
  -12.5799999       5.82487189E-07
  -12.5699997       7.23983362E-07
  -12.5600004       8.29180522E-07
  -12.5500002       9.01415490E-07
  -12.5400000       9.49092794E-07
  -12.5299997       9.83673658E-07
  -12.5200005       1.01667433E-06
  -12.5100002       1.05602112E-06
  -12.5000000       1.10227120E-06
  -12.4899998       1.14529564E-06
  -12.4799995       1.16201375E-06
  -12.4700003       1.11567272E-06
  -12.4600000       9.56991244E-07
  -12.4499998       6.27257464E-07
  -12.4399996       6.32338768E-08
  -12.4300003      -7.96504821E-07
  -12.4200001      -2.00435647E-06
  -12.4099998      -3.59627620E-06
  -12.3999996      -5.58490638E-06
  -12.3900003      -7.95399501E-06
  -12.3800001      -1.06547750E-05
  -12.3699999      -1.36048775E-05
  -12.3599997      -1.66901427E-05
  -12.3500004      -1.97694444E-05
  -12.3400002      -2.26823868E-05
  -12.3299999      -2.52593418E-05
  -12.3199997      -2.73330461E-05
  -12.3100004      -2.87506555E-05
  -12.3000002      -2.93850917E-05
  -12.2900000      -2.91444703E-05
  -12.2799997      -2.79785945E-05
  -12.2700005      -2.58819109E-05
  -12.2600002      -2.28927147E-05
  -12.2500000      -1.90889277E-05
  -12.2399998      -1.45812155E-05
  -12.2299995      -9.50441517E-06
  -12.2200003      -4.00846147E-06
  -12.2100000       1.75027844E-06
  -12.1999998       7.61654974E-06
  -12.1899996       1.34423717E-05
  -12.1800003       1.90918654E-05
  -12.1700001       2.44450894E-05
  -12.1599998       2.94012571E-05
  -12.1499996       3.38815371E-05
  -12.1400003       3.78314544E-05
  -12.1300001       4.12224908E-05
  -12.1199999       4.40521871E-05
  -12.1099997       4.63421893E-05
  -12.1000004       4.81336647E-05
  -12.0900002       4.94800734E-05
  -12.0799999       5.04378149E-05
  -12.0699997       5.10559839E-05
  -12.0600004       5.13668019E-05
  -12.0500002       5.13784762E-05
  -12.0400000       5.10720929E-05
  -12.0299997       5.04033706E-05
  -12.0200005       4.93092411E-05
  -12.0100002       4.77184039E-05
  -12.0000000       4.55638437E-05
  -11.9899998       4.27952837E-05
  -11.9799995       3.93889968E-05
  -11.9700003       3.53535070E-05
  -11.9600000       3.07300361E-05
  -11.9499998       2.55881278E-05
  -11.9399996       2.00175200E-05
  -11.9300003       1.41182045E-05
  -11.9200001       7.99087593E-06
  -11.9099998       1.72953196E-06
  -11.8999996      -4.58251543E-06
  -11.8900003      -1.08731692E-05
  -11.8800001      -1.70791445E-05
  -11.8699999      -2.31421418E-05
  -11.8599997      -2.90051903E-05
  -11.8500004      -3.46105444E-05
  -11.8400002      -3.99000346E-05
  -11.8299999      -4.48177525E-05
  -11.8199997      -4.93144689E-05
  -11.8100004      -5.33523926E-05
  -11.8000002      -5.69086878E-05
  -11.7900000      -5.99767773E-05
  -11.7799997      -6.25644680E-05
  -11.7700005      -6.46893168E-05
  -11.7600002      -6.63719184E-05
  -11.7500000      -6.76287018E-05
  -11.7399998      -6.84657789E-05
  -11.7299995      -6.88751534E-05
  -11.7200003      -6.88343571E-05
  -11.7100000      -6.83095423E-05
  -11.6999998      -6.72614478E-05
  -11.6899996      -6.56530246E-05
  -11.6800003      -6.34572789E-05
  -11.6700001      -6.06637477E-05
  -11.6599998      -5.72825556E-05
  -11.6499996      -5.33452621E-05
  -11.6400003      -4.89026315E-05
  -11.6300001      -4.40197655E-05
  -11.6199999      -3.87697510E-05
  -11.6099997      -3.32267664E-05
  -11.6000004      -2.74600570E-05
  -11.5900002      -2.15293694E-05
  -11.5799999      -1.54825648E-05
  -11.5699997      -9.35534899E-06
  -11.5600004      -3.17287027E-06
  -11.5500002       3.04731725E-06
  -11.5400000       9.29169164E-06
  -11.5299997       1.55471171E-05
  -11.5200005       2.17976158E-05
  -11.5100002       2.80218719E-05
  -11.5000000       3.41914238E-05
  -11.4899998       4.02696423E-05
  -11.4799995       4.62112039E-05
  -11.4700003       5.19620335E-05
  -11.4600000       5.74598853E-05
  -11.4499998       6.26354304E-05
  -11.4399996       6.74144758E-05
  -11.4300003       7.17209841E-05
  -11.4200001       7.54815992E-05
  -11.4099998       7.86309101E-05
  -11.3999996       8.11176142E-05
  -11.3900003       8.29103592E-05
  -11.3800001       8.40028661E-05
  -11.3699999       8.44172173E-05
  -11.3599997       8.42046575E-05
  -11.3500004       8.34439197E-05
  -11.3400002       8.22365546E-05
  -11.3299999       8.07001634E-05
  -11.3199997       7.89602418E-05
  -11.3100004       7.71413615E-05
  -11.3000002       7.53586864E-05
  -11.2900000       7.37105220E-05
  -11.2799997       7.22723635E-05
  -11.2700005       7.10925597E-05
  -11.2600002       7.01898825E-05
  -11.2500000       6.95529525E-05
  -11.2399998       6.91414461E-05
  -11.2299995       6.88896471E-05
  -11.2200003       6.87119973E-05
  -11.2100000       6.85106934E-05
  -11.1999998       6.81851379E-05
  -11.1899996       6.76420095E-05
  -11.1800003       6.68051871E-05
  -11.1700001       6.56237753E-05
  -11.1599998       6.40774088E-05
  -11.1499996       6.21773361E-05
  -11.1400003       5.99639679E-05
  -11.1300001       5.75006634E-05
  -11.1199999       5.48658572E-05
  -11.1099997       5.21448019E-05
  -11.1000004       4.94229353E-05
  -11.0900002       4.67819373E-05
  -11.0799999       4.42987330E-05
  -11.0699997       4.20470205E-05
  -11.0600004       4.00997378E-05
  -11.0500002       3.85305393E-05
  -11.0400000       3.74130032E-05
  -11.0299997       3.68162036E-05
  -11.0200005       3.67970060E-05
  -11.0100002       3.73902476E-05
  -11.0000000       3.85988278E-05
  -10.9899998       4.03858103E-05
  -10.9799995       4.26710067E-05
  -10.9700003       4.53328103E-05
  -10.9600000       4.82155483E-05
  -10.9499998       5.11411345E-05
  -10.9399996       5.39232205E-05
  -10.9300003       5.63813519E-05
  -10.9200001       5.83533001E-05
  -10.9099998       5.97040198E-05
  -10.8999996       6.03307781E-05
  -10.8900003       6.01647807E-05
  -10.8800001       5.91702410E-05
  -10.8699999       5.73420912E-05
  -10.8599997       5.47031814E-05
  -10.8500004       5.13013474E-05
  -10.8400002       4.72067441E-05
  -10.8299999       4.25085382E-05
  -10.8199997       3.73109178E-05
  -10.8100004       3.17277663E-05
  -10.8000002       2.58763030E-05
  -10.7900000       1.98701564E-05
  -10.7799997       1.38128144E-05
  -10.7700005       7.79255424E-06
  -10.7600002       1.87988348E-06
  -10.7500000      -3.87193222E-06
  -10.7399998      -9.42338102E-06
  -10.7299995      -1.47427372E-05
  -10.7200003      -1.97989175E-05
  -10.7100000      -2.45545561E-05
  -10.6999998      -2.89609652E-05
  -10.6899996      -3.29559407E-05
  -10.6800003      -3.64652806E-05
  -10.6700001      -3.94075068E-05
  -10.6599998      -4.17012816E-05
  -10.6499996      -4.32738998E-05
  -10.6400003      -4.40692929E-05
  -10.6300001      -4.40540207E-05
  -10.6199999      -4.32202141E-05
  -10.6099997      -4.15849972E-05
  -10.6000004      -3.91869144E-05
  -10.5900002      -3.60804224E-05
  -10.5799999      -3.23298409E-05
  -10.5699997      -2.80043387E-05
  -10.5600004      -2.31745653E-05
  -10.5500002      -1.79119379E-05
  -10.5400000      -1.22894435E-05
  -10.5299997      -6.38363872E-06
  -10.5200005      -2.76554886E-07
  -10.5100002       5.94389212E-06
  -10.5000000       1.21851717E-05
  -10.4899998       1.83534121E-05
  -10.4799995       2.43579143E-05
  -10.4700003       3.01165674E-05
  -10.4600000       3.55608463E-05
  -10.4499998       4.06402614E-05
  -10.4399996       4.53256762E-05
  -10.4300003       4.96114444E-05
  -10.4200001       5.35166582E-05
  -10.4099998       5.70849406E-05
  -10.3999996       6.03826229E-05
  -10.3900003       6.34941607E-05
  -10.3800001       6.65146363E-05
  -10.3699999       6.95387644E-05
  -10.3599997       7.26473518E-05
  -10.3500004       7.58924070E-05
  -10.3400002       7.92842693E-05
  -10.3299999       8.27825934E-05
  -10.3199997       8.62945672E-05
  -10.3100004       8.96812999E-05
  -10.3000002       9.27722867E-05
  -10.2900000       9.53860435E-05
  -10.2799997       9.73534188E-05
  -10.2700005       9.85394799E-05
  -10.2600002       9.88605389E-05
  -10.2500000       9.82930214E-05
  -10.2399998       9.68738896E-05
  -10.2299995       9.46929722E-05
  -10.2200003       9.18795267E-05
  -10.2100000       8.85854897E-05
  -10.1999998       8.49692515E-05
  -10.1899996       8.11806240E-05
  -10.1800003       7.73499851E-05
  -10.1700001       7.35807625E-05
  -10.1599998       6.99459924E-05
  -10.1499996       6.64884283E-05
  -10.1400003       6.32238007E-05
  -10.1300001       6.01469837E-05
  -10.1199999       5.72409590E-05
  -10.1099997       5.44876857E-05
  -10.1000004       5.18796478E-05
  -10.0900002       4.94301057E-05
  -10.0799999       4.71809108E-05
  -10.0699997       4.52048153E-05
  -10.0600004       4.36025512E-05
  -10.0500002       4.24937134E-05
  -10.0400000       4.20031611E-05
  -10.0299997       4.22452067E-05
  -10.0200005       4.33084097E-05
  -10.0100002       4.52430941E-05
  -10.0000000       4.80551134E-05
  -9.98999977       5.17049339E-05
  -9.97999954       5.61134220E-05
  -9.97000027       6.11717987E-05
  -9.96000004       6.67546192E-05
  -9.94999981       7.27327497E-05
  -9.93999958       7.89847254E-05
  -9.93000031       8.54047466E-05
  -9.92000008       9.19068989E-05
  -9.90999985       9.84249127E-05
  -9.89999962       1.04909341E-04
  -9.89000034       1.11322392E-04
  -9.88000011       1.17631927E-04
  -9.86999989       1.23806894E-04
  -9.85999966       1.29814303E-04
  -9.85000038       1.35618553E-04
  -9.84000015       1.41182973E-04
  -9.82999992       1.46473045E-04
  -9.81999969       1.51460306E-04
  -9.81000042       1.56125563E-04
  -9.80000019       1.60462281E-04
  -9.78999996       1.64478464E-04
  -9.77999973       1.68198894E-04
  -9.77000046       1.71667314E-04
  -9.76000023       1.74949309E-04
  -9.75000000       1.78134651E-04
  -9.73999977       1.81338342E-04
  -9.72999954       1.84697958E-04
  -9.72000027       1.88365739E-04
  -9.71000004       1.92493957E-04
  -9.69999981       1.97214773E-04
  -9.68999958       2.02616604E-04
  -9.68000031       2.08721845E-04
  -9.67000008       2.15469976E-04
  -9.65999985       2.22712144E-04
  -9.64999962       2.30218342E-04
  -9.64000034       2.37697910E-04
  -9.63000011       2.44829629E-04
  -9.61999989       2.51296326E-04
  -9.60999966       2.56816711E-04
  -9.60000038       2.61168956E-04
  -9.59000015       2.64201430E-04
  -9.57999992       2.65830749E-04
  -9.56999969       2.66028743E-04
  -9.56000042       2.64803035E-04
  -9.55000019       2.62176763E-04
  -9.53999996       2.58172455E-04
  -9.52999973       2.52803235E-04
  -9.52000046       2.46071751E-04
  -9.51000023       2.37976346E-04
  -9.50000000       2.28521196E-04
  -9.48999977       2.17727909E-04
  -9.47999954       2.05645149E-04
  -9.47000027       1.92355728E-04
  -9.46000004       1.77980008E-04
  -9.44999981       1.62675540E-04
  -9.43999958       1.46634193E-04
  -9.43000031       1.30077984E-04
  -9.42000008       1.13253598E-04
  -9.40999985       9.64261490E-05
  -9.39999962       7.98738110E-05
  -9.39000034       6.38811762E-05
  -9.38000011       4.87340149E-05
  -9.36999989       3.47142959E-05
  -9.35999966       2.20951424E-05
  -9.35000038       1.11372219E-05
  -9.34000015       2.08491019E-06
  -9.32999992      -4.83746908E-06
  -9.31999969      -9.42771294E-06
  -9.31000042      -1.15074881E-05
  -9.30000019      -1.09235434E-05
  -9.28999996      -7.54628400E-06
  -9.27999973      -1.26968905E-06
  -9.27000046       7.98784549E-06
  -9.26000023       2.02808096E-05
  -9.25000000       3.56295495E-05
  -9.23999977       5.40092042E-05
  -9.22999954       7.53373024E-05
  -9.22000027       9.94612346E-05
  -9.21000004       1.26149884E-04
  -9.19999981       1.55091504E-04
  -9.18999958       1.85902085E-04
  -9.18000031       2.18140834E-04
  -9.17000008       2.51331396E-04
  -9.15999985       2.84985232E-04
  -9.14999962       3.18621169E-04
  -9.14000034       3.51780793E-04
  -9.13000011       3.84035491E-04
  -9.11999989       4.14990733E-04
  -9.10999966       4.44288307E-04
  -9.10000038       4.71610692E-04
  -9.09000015       4.96688648E-04
  -9.07999992       5.19311521E-04
  -9.06999969       5.39335830E-04
  -9.06000042       5.56686311E-04
  -9.05000019       5.71349345E-04
  -9.03999996       5.83352987E-04
  -9.02999973       5.92741068E-04
  -9.02000046       5.99546009E-04
  -9.01000023       6.03767228E-04
  -9.00000000       6.05365087E-04
  -8.98999977       6.04270841E-04
  -8.97999954       6.00408821E-04
  -8.97000027       5.93727047E-04
  -8.96000004       5.84224879E-04
  -8.94999981       5.71969373E-04
  -8.93999958       5.57095162E-04
  -8.93000031       5.39791887E-04
  -8.92000008       5.20283356E-04
  -8.90999985       4.98807756E-04
  -8.89999962       4.75606968E-04
  -8.89000034       4.50928201E-04
  -8.88000011       4.25035367E-04
  -8.86999989       3.98223376E-04
  -8.85999966       3.70825146E-04
  -8.85000038       3.43205407E-04
  -8.84000015       3.15738580E-04
  -8.82999992       2.88778509E-04
  -8.81999969       2.62627029E-04
  -8.81000042       2.37516768E-04
  -8.80000019       2.13613719E-04
  -8.78999996       1.91043160E-04
  -8.77999973       1.69929655E-04
  -8.77000046       1.50439228E-04
  -8.76000023       1.32808113E-04
  -8.75000000       1.17344789E-04
  -8.73999977       1.04403080E-04
  -8.72999954       9.43342602E-05
  -8.72000027       8.74296020E-05
  -8.71000004       8.38721680E-05
  -8.69999981       8.37123080E-05
  -8.68999958       8.68724674E-05
  -8.68000031       9.31771719E-05
  -8.67000008       1.02396443E-04
  -8.65999985       1.14286500E-04
  -8.64999962       1.28612679E-04
  -8.64000034       1.45151789E-04
  -8.63000011       1.63675038E-04
  -8.61999989       1.83922108E-04
  -8.60999966       2.05582357E-04
  -8.60000038       2.28292512E-04
  -8.59000015       2.51656835E-04
  -8.57999992       2.75280530E-04
  -8.56999969       2.98809377E-04
  -8.56000042       3.21955507E-04
  -8.55000019       3.44503525E-04
  -8.53999996       3.66291235E-04
  -8.52999973       3.87174397E-04
  -8.52000046       4.06988314E-04
  -8.51000023       4.25520906E-04
  -8.50000000       4.42511111E-04
  -8.48999977       4.57673712E-04
  -8.47999954       4.70744475E-04
  -8.47000027       4.81527619E-04
  -8.46000004       4.89935977E-04
  -8.44999981       4.96003020E-04
  -8.43999958       4.99869348E-04
  -8.43000031       5.01745264E-04
  -8.42000008       5.01863309E-04
  -8.40999985       5.00440074E-04
  -8.39999962       4.97654430E-04
  -8.39000034       4.93650441E-04
  -8.38000011       4.88561287E-04
  -8.36999989       4.82539705E-04
  -8.35999966       4.75786335E-04
  -8.35000038       4.68560174E-04
  -8.34000015       4.61169402E-04
  -8.32999992       4.53944027E-04
  -8.31999969       4.47201426E-04
  -8.31000042       4.41217155E-04
  -8.30000019       4.36210219E-04
  -8.28999996       4.32347617E-04
  -8.27999973       4.29768319E-04
  -8.27000046       4.28612839E-04
  -8.26000023       4.29054169E-04
  -8.25000000       4.31312248E-04
  -8.23999977       4.35652357E-04
  -8.22999954       4.42364078E-04
  -8.22000027       4.51726664E-04
  -8.21000004       4.63970588E-04
  -8.19999981       4.79245995E-04
  -8.18999958       4.97600355E-04
  -8.18000031       5.18974033E-04
  -8.17000008       5.43211761E-04
  -8.15999985       5.70081291E-04
  -8.14999962       5.99300198E-04
  -8.14000034       6.30558701E-04
  -8.13000011       6.63536950E-04
  -8.11999989       6.97913405E-04
  -8.10999966       7.33366644E-04
  -8.10000038       7.69569306E-04
  -8.09000015       8.06184369E-04
  -8.07999992       8.42858863E-04
  -8.06999969       8.79227591E-04
  -8.06000042       9.14920936E-04
  -8.05000019       9.49577487E-04
  -8.03999996       9.82857542E-04
  -8.02999973       1.01445778E-03
  -8.02000046       1.04411773E-03
  -8.01000023       1.07161712E-03
  -8.00000000       1.09677191E-03
  -7.98999977       1.11942110E-03
  -7.98000002       1.13942067E-03
  -7.96999979       1.15664327E-03
  -7.96000004       1.17098074E-03
  -7.94999981       1.18236442E-03
  -7.94000006       1.19077472E-03
  -7.92999983       1.19625591E-03
  -7.92000008       1.19891251E-03
  -7.90999985       1.19889865E-03
  -7.90000010       1.19639456E-03
  -7.88999987       1.19158148E-03
  -7.88000011       1.18462043E-03
  -7.86999989       1.17565377E-03
  -7.86000013       1.16481562E-03
  -7.84999990       1.15226326E-03
  -7.84000015       1.13821251E-03
  -7.82999992       1.12296036E-03
  -7.82000017       1.10688899E-03
  -7.80999994       1.09044160E-03
  -7.80000019       1.07407745E-03
  -7.78999996       1.05821295E-03
  -7.78000021       1.04317057E-03
  -7.76999998       1.02914742E-03
  -7.76000023       1.01621659E-03
  -7.75000000       1.00435817E-03
  -7.73999977       9.93507216E-04
  -7.73000002       9.83607722E-04
  -7.71999979       9.74643743E-04
  -7.71000004       9.66650958E-04
  -7.69999981       9.59694269E-04
  -7.69000006       9.53829091E-04
  -7.67999983       9.49058158E-04
  -7.67000008       9.45308013E-04
  -7.65999985       9.42429702E-04
  -7.65000010       9.40230500E-04
  -7.63999987       9.38526820E-04
  -7.63000011       9.37198172E-04
  -7.61999989       9.36227792E-04
  -7.61000013       9.35713819E-04
  -7.59999990       9.35849617E-04
  -7.59000015       9.36880358E-04
  -7.57999992       9.39049525E-04
  -7.57000017       9.42555780E-04
  -7.55999994       9.47530847E-04
  -7.55000019       9.54047428E-04
  -7.53999996       9.62147256E-04
  -7.53000021       9.71880159E-04
  -7.51999998       9.83337406E-04
  -7.51000023       9.96663119E-04
  -7.50000000       1.01204764E-03
  -7.48999977       1.02968956E-03
  -7.48000002       1.04975409E-03
  -7.46999979       1.07232982E-03
  -7.46000004       1.09739508E-03
  -7.44999981       1.12481252E-03
  -7.44000006       1.15434011E-03