  -16.0000000       0.00000000    
  -15.9899998       0.00000000    
  -15.9799995       0.00000000    
  -15.9700003       0.00000000    
  -15.9600000       0.00000000    
  -15.9499998       0.00000000    
  -15.9399996       0.00000000    
  -15.9300003       0.00000000    
  -15.9200001       0.00000000    
  -15.9099998       0.00000000    
  -15.8999996       0.00000000    
  -15.8900003       0.00000000    
  -15.8800001       0.00000000    
  -15.8699999       0.00000000    
  -15.8599997       0.00000000    
  -15.8500004       0.00000000    
  -15.8400002       1.40129846E-45
  -15.8299999       1.40129846E-44
  -15.8199997       1.07899982E-43
  -15.8100004       6.69820666E-43
  -15.8000002       3.39814878E-42
  -15.7900000       1.44039469E-41
  -15.7799997       5.12917277E-41
  -15.7700005       1.52225855E-40
  -15.7600002       3.61337421E-40
  -15.7500000       5.84962235E-40
  -15.7399998       1.15705214E-41
  -15.7299995      -4.60944658E-39
  -15.7200003      -2.31097869E-38
  -15.7100000      -8.01701685E-38
  -15.6999998      -2.28748544E-37
  -15.6899996      -5.66193949E-37
  -15.6800003      -1.24220602E-36
  -15.6700001      -2.43422162E-36
  -15.6599998      -4.25177684E-36
  -15.6499996      -6.53121924E-36
  -15.6400003      -8.51973252E-36
  -15.6300001      -8.54912848E-36
  -15.6199999      -3.96350665E-36
  -15.6099997       8.26681971E-36
  -15.6000004       2.97960325E-35
  -15.5900002       5.79342850E-35
  -15.5799999       8.22967555E-35
  -15.5699997       8.33124791E-35
  -15.5600004       3.60620401E-35
  -15.5500002      -7.73068394E-35
  -15.5400000      -2.46592266E-34
  -15.5299997      -4.11052742E-34
  -15.5200005      -4.51718143E-34
  -15.5100002      -2.20939122E-34
  -15.5000000       3.74257840E-34
  -15.4899998       1.24406562E-33
  -15.4799995       1.99815397E-33
  -15.4700003       1.94306920E-33
  -15.4600000       3.16276145E-34
  -15.4499998      -3.18582001E-33
  -15.4399996      -7.70520017E-33
  -15.4300003      -1.07240805E-32
  -15.4200001      -8.37162318E-33
  -15.4099998       2.89968044E-33
  -15.3999996       2.32212885E-32
  -15.3900003       4.58197089E-32
  -15.3800001       5.54760982E-32
  -15.3699999       3.20638007E-32
  -15.3599997      -3.85925140E-32
  -15.3500004      -1.47801629E-31
  -15.3400002      -2.48270684E-31
  -15.3299999      -2.52986039E-31
  -15.3199997      -6.40198439E-32
  -15.3100004       3.61570378E-31
  -15.3000002       9.23237589E-31
  -15.2900000       1.31208980E-30
  -15.2799997       1.04331199E-30
  -15.2700005      -3.42684180E-31
  -15.2600002      -2.89785444E-30
  -15.2500000      -5.81622831E-30
  -15.2399998      -7.19184521E-30
  -15.2299995      -4.37291873E-30
  -15.2200003       4.77166673E-30
  -15.2100000       1.97349605E-29
  -15.1999998       3.51589194E-29
  -15.1899996       4.00721954E-29
  -15.1800003       2.05240291E-29
  -15.1700001      -3.31062874E-29
  -15.1599998      -1.15058847E-28
  -15.1499996      -1.93926352E-28
  -15.1400003      -2.11291632E-28
  -15.1300001      -9.83822613E-29
  -15.1199999       1.84798407E-28
  -15.1099997       5.95476450E-28
  -15.1000004       9.64214516E-28
  -15.0900002       1.00106276E-27
  -15.0799999       3.91538693E-28
  -15.0699997      -1.00622203E-27
  -15.0600004      -2.91289470E-27
  -15.0500002      -4.45667161E-27
  -15.0400000      -4.26503965E-27
  -15.0299997      -9.81982664E-28
  -15.0200005       5.78227070E-27
  -15.0100002       1.43531008E-26
  -15.0000000       2.03702621E-26
  -14.9899998       1.74694619E-26
  -14.9799995      -9.80594634E-29
  -14.9700003      -3.30474726E-26
  -14.9600000      -7.22972777E-26
  -14.9499998      -9.67355106E-26
  -14.9399996      -7.70671498E-26
  -14.9300003       1.17964865E-26
  -14.9200001       1.70891801E-25
  -14.9099998       3.56626784E-25
  -14.8999996       4.71966457E-25
  -14.8900003       3.84235880E-25
  -14.8800001      -2.06992063E-26
  -14.8699999      -7.53077583E-25
  -14.8599997      -1.63094675E-24
  -14.8500004      -2.24010642E-24
  -14.8400002      -2.00256837E-24
  -14.8299999      -3.93576116E-25
  -14.8199997       2.71105914E-24
  -14.8100004       6.66467716E-24
  -14.8000002       9.85334918E-24
  -14.7900000       9.90875482E-24
  -14.7799997       4.49722384E-24
  -14.7700005      -7.35763703E-24
  -14.7600002      -2.37869804E-23
  -14.7500000      -3.91296182E-23
  -14.7399998      -4.44036361E-23
  -14.7299995      -2.98793816E-23
  -14.7200003       1.02512853E-23
  -14.7100000       7.22362140E-23
  -14.6999998       1.38504159E-22
  -14.6899996       1.77879551E-22
  -14.6800003       1.52947192E-22
  -14.6700001       3.51868567E-23
  -14.6599998      -1.75103670E-22
  -14.6499996      -4.31285226E-22
  -14.6400003      -6.35471408E-22
  -14.6300001      -6.56098417E-22
  -14.6199999      -3.72374432E-22
  -14.6099997       2.60724689E-22
  -14.6000004       1.14682675E-21
  -14.5900002       2.01322049E-21
  -14.5799999       2.44038879E-21
  -14.5699997       1.97744048E-21
  -14.5600004       3.35688714E-22
  -14.5500002      -2.38823683E-21
  -14.5400000      -5.54772387E-21
  -14.5299997      -7.94665629E-21
  -14.5200005      -8.09070931E-21
  -14.5100002      -4.70434942E-21
  -14.5000000       2.58449452E-21
  -14.4899998       1.26142071E-20
  -14.4799995       2.24208694E-20
  -14.4700003       2.76276709E-20
  -14.4600000       2.36422065E-20
  -14.4499998       7.53046812E-21
  -14.4399996      -1.99185705E-20
  -14.4300003      -5.27316622E-20
  -14.4200001      -7.97949084E-20
  -14.4099998      -8.70768895E-20
  -14.3999996      -6.20932303E-20
  -14.3900003       2.32138389E-22
  -14.3800001       9.21034076E-20
  -14.3699999       1.90196727E-19
  -14.3599997       2.58112896E-19
  -14.3500004       2.55149495E-19
  -14.3400002       1.50573651E-19
  -14.3299999      -5.99517954E-20
  -14.3199997      -3.41365832E-19
  -14.3100004      -6.16119120E-19
  -14.3000002      -7.76233887E-19
  -14.2900000      -7.11964021E-19
  -14.2799997      -3.52711907E-19
  -14.2700005       2.90495905E-19
  -14.2600002       1.09635645E-18
  -14.2500000       1.83449821E-18
  -14.2399998       2.20745761E-18
  -14.2299995       1.93334360E-18
  -14.2200003       8.54126331E-19
  -14.2100000      -9.60285450E-19
  -14.1999998      -3.15118756E-18
  -14.1899996      -5.09080284E-18
  -14.1800003      -6.00432167E-18
  -14.1700001      -5.18740224E-18
  -14.1599998      -2.27635183E-18
  -14.1499996       2.50462535E-18
  -14.1400003       8.21229379E-18
  -14.1300001       1.32535708E-17
  -14.1199999       1.56986109E-17
  -14.1099997       1.38128219E-17
  -14.1000004       6.70109519E-18
  -14.0900002      -5.11417525E-18
  -14.0799999      -1.93940005E-17
  -14.0699997      -3.23497136E-17
  -14.0600004      -3.93678448E-17
  -14.0500002      -3.62310171E-17
  -14.0400000      -2.05934257E-17
  -14.0299997       6.68505658E-18
  -14.0200005       4.08139153E-17
  -14.0100002       7.33671153E-17
  -14.0000000       9.38047233E-17
  -13.9899998       9.21012408E-17
  -13.9799995       6.19800742E-17
  -13.9700003       3.92563375E-18
  -13.9600000      -7.30135717E-17
  -13.9499998      -1.51514713E-16
  -13.9399996      -2.08842048E-16
  -13.9300003      -2.22104030E-16
  -13.9200001      -1.74961087E-16
  -13.9099998      -6.41619583E-17
  -13.8999996       9.60659042E-17
  -13.8900003       2.73595798E-16
  -13.8800001       4.23043644E-16
  -13.8699999       4.95339838E-16
  -13.8599997       4.50635080E-16
  -13.8500004       2.71622396E-16
  -13.8400002      -2.63991830E-17
  -13.8299999      -3.92252038E-16
  -13.8199997      -7.44746096E-16
  -13.8100004      -9.87941748E-16
  -13.8000002      -1.03351074E-15
  -13.7900000      -8.25509628E-16
  -13.7799997      -3.61385231E-16
  -13.7700005       2.97020097E-16
  -13.7600002       1.02704915E-15
  -13.7500000       1.66483299E-15
  -13.7399998       2.03839305E-15
  -13.7299995       2.00788440E-15
  -13.7200003       1.50399858E-15
  -13.7100000       5.54963282E-16
  -13.6999998      -7.05624397E-16
  -13.6899996      -2.05396448E-15
  -13.6800003      -3.21292556E-15
  -13.6700001      -3.90418322E-15
  -13.6599998      -3.90548300E-15
  -13.6499996      -3.10143443E-15
  -13.6400003      -1.51752729E-15
  -13.6300001       6.69433696E-16
  -13.6199999       3.14653957E-15
  -13.6099997       5.50307099E-15
  -13.6000004       7.28602749E-15
  -13.5900002       8.06552480E-15
  -13.5799999       7.50308222E-15
  -13.5699997       5.41685151E-15
  -13.5600004       1.83855765E-15
  -13.5500002      -2.94387148E-15
  -13.5400000      -8.36633754E-15
  -13.5299997      -1.36028917E-14
  -13.5200005      -1.76277331E-14
  -13.5100002      -1.93363019E-14
  -13.5000000      -1.77288265E-14
  -13.4899998      -1.21447559E-14
  -13.4799995      -2.51638560E-15
  -13.4700003       1.04108608E-14
  -13.4600000       2.49592488E-14
  -13.4499998       3.85705668E-14
  -13.4399996       4.80815745E-14
  -13.4300003       5.02372632E-14
  -13.4200001       4.23988135E-14
  -13.4099998       2.33379363E-14
  -13.3999996      -6.04975749E-15
  -13.3900003      -4.23128329E-14
  -13.3800001      -7.94856328E-14
  -13.3699999      -1.09733898E-13
  -13.3599997      -1.24621708E-13
  -13.3500004      -1.16867968E-13
  -13.3400002      -8.23031083E-14
  -13.3299999      -2.16111597E-14
  -13.3199997       5.86110546E-14
  -13.3100004       1.45896058E-13
  -13.3000002       2.23301453E-13
  -13.2900000       2.72144151E-13
  -13.2799997       2.75734080E-13
  -13.2700005       2.23458852E-13
  -13.2600002       1.14352199E-13
  -13.2500000      -4.07689087E-14
  -13.2399998      -2.19354794E-13
  -13.2299995      -3.89742709E-13
  -13.2200003      -5.16203833E-13
  -13.2100000      -5.65695494E-13
  -13.1999998      -5.15098435E-13
  -13.1899996      -3.57439284E-13
  -13.1800003      -1.05626831E-13
  -13.1700001       2.07400869E-13
  -13.1599998       5.32550946E-13
  -13.1499996       8.12082389E-13
  -13.1400003       9.89543842E-13
  -13.1300001       1.02033670E-12
  -13.1199999       8.80872686E-13
  -13.1099997       5.74478778E-13
  -13.1000004       1.32814400E-13
  -13.0900002      -3.87572461E-13
  -13.0799999      -9.12983339E-13
  -13.0699997      -1.36324220E-12
  -13.0600004      -1.66347719E-12
  -13.0500002      -1.75511645E-12
  -13.0400000      -1.60450939E-12
  -13.0299997      -1.20815575E-12
  -13.0200005      -5.94166318E-13
  -13.0100002       1.79872894E-13
  -13.0000000       1.03211222E-12
  -12.9899998       1.86407378E-12
  -12.9799995       2.57010125E-12
  -12.9700003       3.04804554E-12
  -12.9600000       3.21057460E-12
  -12.9499998       2.99629245E-12
  -12.9399996       2.37955142E-12
  -12.9300003       1.37756516E-12
  -12.9200001       5.33853730E-14
  -12.9099998      -1.48636138E-12
  -12.8999996      -3.09932852E-12
  -12.8900003      -4.62017534E-12
  -12.8800001      -5.87637274E-12
  -12.8699999      -6.70450240E-12
  -12.8599997      -6.96441212E-12
  -12.8500004      -6.54929409E-12
  -12.8400002      -5.39123910E-12
  -12.8299999      -3.46363454E-12
  -12.8199997      -7.83316662E-13
  -12.8100004       2.58395670E-12
  -12.8000002       6.51192685E-12
  -12.7900000       1.07955945E-11
  -12.7799997       1.51292191E-11
  -12.7700005       1.90871798E-11
  -12.7600002       2.21172074E-11
  -12.7500000       2.35566792E-11
  -12.7399998       2.26807739E-11
  -12.7299995       1.87869685E-11
  -12.7200003       1.13131830E-11
  -12.7100000      -2.09231029E-14
  -12.6999998      -1.50679625E-11
  -12.6899996      -3.31257348E-11
  -12.6800003      -5.28550745E-11
  -12.6700001      -7.22663041E-11
  -12.6599998      -8.87924387E-11
  -12.6499996      -9.94580321E-11
  -12.6400003      -1.01141900E-10
  -12.6300001      -9.09211317E-11
  -12.6199999      -6.64733338E-11
  -12.6099997      -2.65054593E-11
  -12.6000004       2.88293243E-11
  -12.5900002       9.75701395E-11
  -12.5799999       1.75688630E-10
  -12.5699997       2.56978744E-10
  -12.5600004       3.33139821E-10
  -12.5500002       3.94092425E-10
  -12.5400000       4.28552693E-10
  -12.5299997       4.24874080E-10
  -12.5200005       3.72142456E-10
  -12.5100002       2.61482641E-10
  -12.5000000       8.75053779E-11
  -12.4899998      -1.50202781E-10
  -12.4799995      -4.45667586E-10
  -12.4700003      -7.85327359E-10
  -12.4600000      -1.14718135E-09
  -12.4499998      -1.50041679E-09
  -12.4399996      -1.80562065E-09
  -12.4300003      -2.01565808E-09
  -12.4200001      -2.07725925E-09
  -12.4099998      -1.93330796E-09
  -12.3999996      -1.52578084E-09
  -12.3900003      -7.99235955E-10
  -12.3800001       2.95309999E-10
  -12.3699999       1.79631665E-09
  -12.3599997       3.72771503E-09
  -12.3500004       6.09523276E-09
  -12.3400002       8.88333052E-09
  -12.3299999       1.20530341E-08
  -12.3199997       1.55408681E-08
  -12.3100004       1.92590939E-08
  -12.3000002       2.30973320E-08
  -12.2900000       2.69255338E-08
  -12.2799997       3.05982510E-08
  -12.2700005       3.39600206E-08
  -12.2600002       3.68515032E-08
  -12.2500000       3.91161414E-08
  -12.2399998       4.06069560E-08
  -12.2299995       4.11930543E-08
  -12.2200003       4.07654746E-08
  -12.2100000       3.92420638E-08
  -12.1999998       3.65710271E-08
  -12.1899996       3.27329879E-08
  -12.1800003       2.77413204E-08
  -12.1700001       2.16408989E-08
  -12.1599998       1.45050780E-08
  -12.1499996       6.43165121E-09
  -12.1400003      -2.46249177E-09
  -12.1300001      -1.20469785E-08
  -12.1199999      -2.21836878E-08
  -12.1099997      -3.27319505E-08
  -12.1000004      -4.35529586E-08
  -12.0900002      -5.45128209E-08
  -12.0799999      -6.54845067E-08
  -12.0699997      -7.63483499E-08
  -12.0600004      -8.69914842E-08
  -12.0500002      -9.73062626E-08
  -12.0400000      -1.07188356E-07
  -12.0299997      -1.16534380E-07
  -12.0200005      -1.25239666E-07
  -12.0100002      -1.33196366E-07
  -12.0000000      -1.40292045E-07
  -11.9899998      -1.46408922E-07
  -11.9799995      -1.51423848E-07
  -11.9700003      -1.55209236E-07
  -11.9600000      -1.57634787E-07
  -11.9499998      -1.58570359E-07
  -11.9399996      -1.57889531E-07
  -11.9300003      -1.55473728E-07
  -11.9200001      -1.51217378E-07
  -11.9099998      -1.45032473E-07
  -11.8999996      -1.36853402E-07
  -11.8900003      -1.26641140E-07
  -11.8800001      -1.14386332E-07
  -11.8699999      -1.00110988E-07
  -11.8599997      -8.38695158E-08
  -11.8500004      -6.57478836E-08
  -11.8400002      -4.58615865E-08
  -11.8299999      -2.43527847E-08
  -11.8199997      -1.38663181E-09
  -11.8100004       2.28531860E-08
  -11.8000002       4.81692588E-08
  -11.7900000       7.43550714E-08
  -11.7799997       1.01200094E-07
  -11.7700005       1.28493397E-07
  -11.7600002       1.56027653E-07
  -11.7500000       1.83601216E-07
  -11.7399998       2.11019284E-07
  -11.7299995       2.38093591E-07
  -11.7200003       2.64640732E-07
  -11.7100000       2.90479761E-07
  -11.6999998       3.15428281E-07
  -11.6899996       3.39299163E-07
  -11.6800003       3.61897037E-07
  -11.6700001       3.83016015E-07
  -11.6599998       4.02438332E-07
  -11.6499996       4.19935162E-07
  -11.6400003       4.35268532E-07
  -11.6300001       4.48195237E-07
  -11.6199999       4.58471845E-07
  -11.6099997       4.65860893E-07
  -11.6000004       4.70137422E-07
  -11.5900002       4.71095746E-07
  -11.5799999       4.68555555E-07
  -11.5699997       4.62366955E-07
  -11.5600004       4.52414611E-07
  -11.5500002       4.38619082E-07
  -11.5400000       4.20936686E-07
  -11.5299997       3.99357077E-07
  -11.5200005       3.73899013E-07
  -11.5100002       3.44604729E-07
  -11.5000000       3.11533427E-07
  -11.4899998       2.74754768E-07
  -11.4799995       2.34343872E-07
  -11.4700003       1.90377577E-07
  -11.4600000       1.42932024E-07
  -11.4499998       9.20846475E-08
  -11.4399996       3.79157825E-08
  -11.4300003      -1.94866967E-08
  -11.4200001      -8.00227724E-08
  -11.4099998      -1.43574709E-07
  -11.3999996      -2.10003932E-07
  -11.3900003      -2.79147713E-07
  -11.3800001      -3.50817686E-07
  -11.3699999      -4.24803375E-07
  -11.3599997      -5.00873512E-07
  -11.3500004      -5.78780998E-07
  -11.3400002      -6.58270324E-07
  -11.3299999      -7.39082111E-07
  -11.3199997      -8.20961418E-07
  -11.3100004      -9.03662624E-07
  -11.3000002      -9.86955229E-07
  -11.2900000      -1.07062817E-06
  -11.2799997      -1.15449131E-06
  -11.2700005      -1.23837663E-06
  -11.2600002      -1.32213654E-06
  -11.2500000      -1.40564123E-06
  -11.2399998      -1.48877598E-06
  -11.2299995      -1.57143461E-06
  -11.2200003      -1.65351696E-06
  -11.2100000      -1.73492310E-06
  -11.1999998      -1.81555060E-06
  -11.1899996      -1.89529123E-06
  -11.1800003      -1.97403233E-06
  -11.1700001      -2.05165497E-06
  -11.1599998      -2.12803570E-06
  -11.1499996      -2.20305219E-06
  -11.1400003      -2.27658279E-06
  -11.1300001      -2.34851177E-06
  -11.1199999      -2.41873522E-06
  -11.1099997      -2.48716060E-06
  -11.1000004      -2.55370969E-06
  -11.0900002      -2.61832406E-06
  -11.0799999      -2.68096255E-06
  -11.0699997      -2.74160539E-06
  -11.0600004      -2.80025051E-06
  -11.0500002      -2.85691112E-06
  -11.0400000      -2.91162451E-06
  -11.0299997      -2.96443136E-06
  -11.0200005      -3.01538876E-06
  -11.0100002      -3.06455172E-06
  -11.0000000      -3.11197255E-06
  -10.9899998      -3.15770308E-06
  -10.9799995      -3.20177628E-06
  -10.9700003      -3.24421512E-06
  -10.9600000      -3.28501847E-06
  -10.9499998      -3.32417585E-06
  -10.9399996      -3.36165476E-06
  -10.9300003      -3.39741428E-06
  -10.9200001      -3.43139527E-06
  -10.9099998      -3.46353227E-06
  -10.8999996      -3.49376614E-06
  -10.8900003      -3.52203119E-06
  -10.8800001      -3.54826716E-06
  -10.8699999      -3.57243130E-06
  -10.8599997      -3.59447608E-06
  -10.8500004      -3.61437333E-06
  -10.8400002      -3.63210484E-06
  -10.8299999      -3.64766242E-06
  -10.8199997      -3.66104337E-06
  -10.8100004      -3.67224720E-06
  -10.8000002      -3.68127826E-06
  -10.7900000      -3.68811902E-06
  -10.7799997      -3.69275813E-06
  -10.7700005      -3.69515897E-06
  -10.7600002      -3.69528038E-06
  -10.7500000      -3.69306758E-06
  -10.7399998      -3.68846599E-06
  -10.7299995      -3.68142628E-06
  -10.7200003      -3.67190137E-06
  -10.7100000      -3.65986534E-06
  -10.6999998      -3.64532480E-06
  -10.6899996      -3.62831247E-06
  -10.6800003      -3.60889521E-06
  -10.6700001      -3.58717261E-06
  -10.6599998      -3.56328133E-06
  -10.6499996      -3.53740256E-06
  -10.6400003      -3.50972346E-06
  -10.6300001      -3.48047547E-06
  -10.6199999      -3.44989576E-06
  -10.6099997      -3.41822602E-06
  -10.6000004      -3.38572727E-06
  -10.5900002      -3.35263712E-06
  -10.5799999      -3.31919045E-06
  -10.5699997      -3.28560486E-06
  -10.5600004      -3.25208248E-06
  -10.5500002      -3.21880270E-06
  -10.5400000      -3.18594584E-06
  -10.5299997      -3.15367402E-06
  -10.5200005      -3.12214934E-06
  -10.5100002      -3.09152165E-06
  -10.5000000      -3.06193670E-06
  -10.4899998      -3.03353772E-06
  -10.4799995      -3.00646298E-06
  -10.4700003      -2.98083091E-06
  -10.4600000      -2.95675932E-06
  -10.4499998      -2.93434641E-06
  -10.4399996      -2.91368451E-06
  -10.4300003      -2.89484842E-06
  -10.4200001      -2.87790181E-06
  -10.4099998      -2.86290765E-06
  -10.3999996      -2.84989324E-06
  -10.3900003      -2.83889108E-06
  -10.3800001      -2.82990436E-06
  -10.3699999      -2.82293490E-06
  -10.3599997      -2.81793450E-06
  -10.3500004      -2.81488678E-06
  -10.3400002      -2.81374287E-06
  -10.3299999      -2.81446091E-06
  -10.3199997      -2.81700591E-06
  -10.3100004      -2.82133578E-06
  -10.3000002      -2.82741894E-06
  -10.2900000      -2.83523468E-06
  -10.2799997      -2.84474618E-06
  -10.2700005      -2.85592796E-06
  -10.2600002      -2.86873160E-06
  -10.2500000      -2.88312526E-06
  -10.2399998      -2.89904983E-06
  -10.2299995      -2.91643596E-06
  -10.2200003      -2.93524590E-06
  -10.2100000      -2.95542645E-06
  -10.1999998      -2.97690099E-06
  -10.1899996      -2.99963813E-06
  -10.1800003      -3.02360309E-06
  -10.1700001      -3.04876426E-06
  -10.1599998      -3.07511596E-06
  -10.1499996      -3.10265000E-06
  -10.1400003      -3.13139503E-06
  -10.1300001      -3.16138994E-06
  -10.1199999      -3.19267997E-06
  -10.1099997      -3.22536403E-06
  -10.1000004      -3.25953602E-06
  -10.0900002      -3.29527893E-06
  -10.0799999      -3.33269259E-06
  -10.0699997      -3.37188817E-06
  -10.0600004      -3.41296231E-06
  -10.0500002      -3.45601984E-06
  -10.0400000      -3.50116011E-06
  -10.0299997      -3.54848339E-06
  -10.0200005      -3.59809701E-06
  -10.0100002      -3.65010214E-06
  -10.0000000      -3.70459361E-06
  -9.98999977      -3.76164940E-06
  -9.97999954      -3.82133612E-06
  -9.97000027      -3.88368244E-06
  -9.96000004      -3.94874041E-06
  -9.94999981      -4.01651323E-06
  -9.93999958      -4.08699680E-06
  -9.93000031      -4.16020657E-06
  -9.92000008      -4.23616257E-06
  -9.90999985      -4.31487024E-06
  -9.89999962      -4.39635824E-06
  -9.89000034      -4.48066476E-06
  -9.88000011      -4.56779981E-06
  -9.86999989      -4.65780522E-06
  -9.85999966      -4.75068100E-06
  -9.85000038      -4.84643624E-06
  -9.84000015      -4.94508413E-06
  -9.82999992      -5.04660920E-06
  -9.81999969      -5.15101465E-06
  -9.81000042      -5.25830501E-06
  -9.80000019      -5.36846346E-06
  -9.78999996      -5.48150501E-06
  -9.77999973      -5.59744558E-06
  -9.77000046      -5.71630471E-06
  -9.76000023      -5.83813380E-06
  -9.75000000      -5.96298241E-06
  -9.73999977      -6.09092058E-06
  -9.72999954      -6.22205653E-06
  -9.72000027      -6.35647984E-06
  -9.71000004      -6.49430876E-06
  -9.69999981      -6.63564970E-06
  -9.68999958      -6.78060223E-06
  -9.68000031      -6.92924914E-06
  -9.67000008      -7.08161951E-06
  -9.65999985      -7.23774383E-06
  -9.64999962      -7.39757479E-06
  -9.64000034      -7.56105055E-06
  -9.63000011      -7.72804833E-06
  -9.61999989      -7.89841306E-06
  -9.60999966      -8.07195374E-06
  -9.60000038      -8.24839844E-06
  -9.59000015      -8.42746977E-06
  -9.57999992      -8.60881028E-06
  -9.56999969      -8.79203890E-06
  -9.56000042      -8.97669997E-06
  -9.55000019      -9.16234603E-06
  -9.53999996      -9.34845320E-06
  -9.52999973      -9.53453036E-06
  -9.52000046      -9.72006092E-06
  -9.51000023      -9.90455101E-06
  -9.50000000      -1.00875068E-05
  -9.48999977      -1.02684198E-05
  -9.47999954      -1.04468763E-05
  -9.47000027      -1.06224416E-05
  -9.46000004      -1.07947244E-05
  -9.44999981      -1.09634057E-05
  -9.43999958      -1.11281906E-05
  -9.43000031      -1.12888756E-05
  -9.42000008      -1.14453142E-05
  -9.40999985      -1.15974581E-05
  -9.39999962      -1.17453492E-05
  -9.39000034      -1.18891021E-05
  -9.38000011      -1.20289315E-05
  -9.36999989      -1.21651556E-05
  -9.35999966      -1.22981792E-05
  -9.35000038      -1.24285052E-05
  -9.34000015      -1.25567203E-05
  -9.32999992      -1.26834339E-05
  -9.31999969      -1.28093470E-05
  -9.31000042      -1.29352129E-05
  -9.30000019      -1.30617700E-05
  -9.28999996      -1.31897968E-05
  -9.27999973      -1.33200938E-05
  -9.27000046      -1.34533775E-05
  -9.26000023      -1.35903783E-05
  -9.25000000      -1.37317838E-05
  -9.23999977      -1.38782443E-05
  -9.22999954      -1.40303719E-05
  -9.22000027      -1.41886985E-05
  -9.21000004      -1.43537191E-05
  -9.19999981      -1.45258737E-05
  -9.18999958      -1.47055634E-05
  -9.18000031      -1.48930703E-05
  -9.17000008      -1.50886572E-05
  -9.15999985      -1.52924986E-05
  -9.14999962      -1.55046891E-05
  -9.14000034      -1.57252798E-05
  -9.13000011      -1.59542706E-05
  -9.11999989      -1.61915323E-05
  -9.10999966      -1.64369376E-05
  -9.10000038      -1.66902773E-05
  -9.09000015      -1.69512787E-05
  -9.07999992      -1.72196251E-05
  -9.06999969      -1.74948855E-05
  -9.06000042      -1.77765887E-05
  -9.05000019      -1.80642710E-05
  -9.03999996      -1.83573156E-05
  -9.02999973      -1.86551133E-05
  -9.02000046      -1.89569946E-05
  -9.01000023      -1.92622228E-05
  -9.00000000      -1.95700704E-05
  -8.98999977      -1.98797479E-05
  -8.97999954      -2.01904622E-05
  -8.97000027      -2.05013930E-05
  -8.96000004      -2.08117490E-05
  -8.94999981      -2.11206825E-05
  -8.93999958      -2.14274387E-05
  -8.93000031      -2.17312481E-05
  -8.92000008      -2.20313523E-05
  -8.90999985      -2.23271709E-05
  -8.89999962      -2.26180728E-05
  -8.89000034      -2.29035195E-05
  -8.88000011      -2.31830636E-05
  -8.86999989      -2.34564050E-05
  -8.85999966      -2.37231998E-05
  -8.85000038      -2.39832916E-05
  -8.84000015      -2.42366223E-05
  -8.82999992      -2.44831317E-05
  -8.81999969      -2.47229200E-05
  -8.81000042      -2.49560835E-05
  -8.80000019      -2.51829060E-05
  -8.78999996      -2.54036750E-05
  -8.77999973      -2.56187795E-05
  -8.77000046      -2.58285745E-05
  -8.76000023      -2.60335000E-05
  -8.75000000      -2.62340764E-05
  -8.73999977      -2.64307582E-05
  -8.72999954      -2.66240932E-05
  -8.72000027      -2.68146159E-05
  -8.71000004      -2.70030414E-05
  -8.69999981      -2.71899244E-05
  -8.68999958      -2.73759324E-05
  -8.68000031      -2.75617185E-05
  -8.67000008      -2.77480158E-05
  -8.65999985      -2.79353808E-05
  -8.64999962      -2.81246157E-05
  -8.64000034      -2.83163117E-05
  -8.63000011      -2.85111219E-05
  -8.61999989      -2.87096227E-05
  -8.60999966      -2.89124655E-05
  -8.60000038      -2.91201213E-05
  -8.59000015      -2.93331377E-05
  -8.57999992      -2.95519530E-05
  -8.56999969      -2.97769475E-05
  -8.56000042      -3.00085230E-05
  -8.55000019      -3.02468779E-05
  -8.53999996      -3.04922523E-05
  -8.52999973      -3.07448536E-05
  -8.52000046      -3.10047144E-05
  -8.51000023      -3.12718876E-05
  -8.50000000      -3.15464749E-05
  -8.48999977      -3.18283419E-05
  -8.47999954      -3.21173902E-05
  -8.47000027      -3.24135181E-05
  -8.46000004      -3.27165653E-05
  -8.44999981      -3.30263392E-05
  -8.43999958      -3.33426324E-05
  -8.43000031      -3.36652120E-05
  -8.42000008      -3.39937396E-05
  -8.40999985      -3.43281245E-05
  -8.39999962      -3.46681918E-05
  -8.39000034      -3.50136143E-05
  -8.38000011      -3.53641371E-05
  -8.36999989      -3.57197641E-05
  -8.35999966      -3.60802369E-05
  -8.35000038      -3.64454936E-05
  -8.34000015      -3.68153705E-05
  -8.32999992      -3.71898059E-05
  -8.31999969      -3.75687414E-05
  -8.31000042      -3.79521625E-05
  -8.30000019      -3.83401857E-05
  -8.28999996      -3.87328109E-05
  -8.27999973      -3.91301874E-05
  -8.27000046      -3.95325296E-05
  -8.26000023      -3.99399287E-05
  -8.25000000      -4.03525628E-05
  -8.23999977      -4.07707812E-05
  -8.22999954      -4.11947985E-05
  -8.22000027      -4.16249823E-05
  -8.21000004      -4.20616379E-05
  -8.19999981      -4.25050348E-05
  -8.18999958      -4.29555330E-05
  -8.18000031      -4.34133908E-05
  -8.17000008      -4.38789684E-05
  -8.15999985      -4.43525169E-05
  -8.14999962      -4.48342071E-05
  -8.14000034      -4.53242683E-05
  -8.13000011      -4.58229006E-05
  -8.11999989      -4.63302131E-05
  -8.10999966      -4.68463004E-05
  -8.10000038      -4.73711625E-05
  -8.09000015      -4.79049013E-05
  -8.07999992      -4.84473057E-05
  -8.06999969      -4.89983468E-05
  -8.06000042      -4.95578170E-05
  -8.05000019      -5.01254217E-05
  -8.03999996      -5.07008845E-05
  -8.02999973      -5.12837069E-05
  -8.02000046      -5.18734923E-05
  -8.01000023      -5.24695824E-05
  -8.00000000      -5.30715442E-05
  -7.98999977      -5.36786938E-05
  -7.98000002      -5.42904527E-05
  -7.96999979      -5.49059296E-05
  -7.96000004      -5.55244005E-05
  -7.94999981      -5.61450688E-05
  -7.94000006      -5.67671268E-05
  -7.92999983      -5.73900870E-05
  -7.92000008      -5.80131127E-05
  -7.90999985      -5.86354327E-05
  -7.90000010      -5.92564211E-05
  -7.88999987      -5.98755068E-05
  -7.88000011      -6.04923262E-05
  -7.86999989      -6.11060241E-05
  -7.86000013      -6.17162441E-05
  -7.84999990      -6.23228116E-05
  -7.84000015      -6.29249043E-05
  -7.82999992      -6.35225661E-05
  -7.82000017      -6.41152583E-05
  -7.80999994      -6.47028064E-05
  -7.80000019      -6.52850722E-05
  -7.78999996      -6.58620629E-05
  -7.78000021      -6.64334511E-05
  -7.76999998      -6.69993824E-05
  -7.76000023      -6.75596675E-05
  -7.75000000      -6.81144738E-05
  -7.73999977      -6.86639833E-05
  -7.73000002      -6.92082249E-05
  -7.71999979      -6.97475625E-05
  -7.71000004      -7.02822290E-05
  -7.69999981      -7.08126463E-05
  -7.69000006      -7.13393238E-05
  -7.67999983      -7.18628580E-05
  -7.67000008      -7.23839476E-05
  -7.65999985      -7.29031235E-05
  -7.65000010      -7.34213172E-05
  -7.63999987      -7.39392708E-05
  -7.63000011      -7.44580320E-05
  -7.61999989      -7.49783503E-05
  -7.61000013      -7.55013752E-05
  -7.59999990      -7.60283001E-05
  -7.59000015      -7.65601726E-05
  -7.57999992      -7.70981715E-05
  -7.57000017      -7.76434899E-05
  -7.55999994      -7.81974450E-05
  -7.55000019      -7.87609824E-05
  -7.53999996      -7.93354629E-05
  -7.53000021      -7.99219051E-05
  -7.51999998      -8.05215604E-05
  -7.51000023      -8.11355203E-05
  -7.50000000      -8.17647597E-05
  -7.48999977      -8.24102826E-05
  -7.48000002      -8.30731078E-05
  -7.46999979      -8.37540210E-05
  -7.46000004      -8.44536771E-05
  -7.44999981      -8.51729710E-05
  -7.44000006      -8.59124557E-05