  -16.0000000       0.00000000    
  -15.9899998       0.00000000    
  -15.9799995       0.00000000    
  -15.9700003       0.00000000    
  -15.9600000       0.00000000    
  -15.9499998       0.00000000    
  -15.9399996       0.00000000    
  -15.9300003       0.00000000    
  -15.9200001       0.00000000    
  -15.9099998       0.00000000    
  -15.8999996       0.00000000    
  -15.8900003       0.00000000    
  -15.8800001       0.00000000    
  -15.8699999       0.00000000    
  -15.8599997      -0.00000000    
  -15.8500004      -8.40779079E-45
  -15.8400002      -1.35925951E-43
  -15.8299999      -1.41110755E-42
  -15.8199997      -1.10436332E-41
  -15.8100004      -6.91638883E-41
  -15.8000002      -3.60974484E-40
  -15.7900000      -1.61446539E-39
  -15.7799997      -6.31321532E-39
  -15.7700005      -2.19035225E-38
  -15.7600002      -6.81458225E-38
  -15.7500000      -1.91534608E-37
  -15.7399998      -4.88578920E-37
  -15.7299995      -1.13315370E-36
  -15.7200003      -2.38615990E-36
  -15.7100000      -4.53544952E-36
  -15.6999998      -7.67773590E-36
  -15.6899996      -1.12419619E-35
  -15.6800003      -1.32265600E-35
  -15.6700001      -9.36180662E-36
  -15.6599998       7.14305099E-36
  -15.6499996       4.40510481E-35
  -15.6400003       1.05241986E-34
  -15.6300001       1.81727925E-34
  -15.6199999       2.40201204E-34
  -15.6099997       2.15415676E-34
  -15.6000004       1.83976848E-35
  -15.5900002      -4.24358420E-34
  -15.5799999      -1.09122197E-33
  -15.5699997      -1.75756334E-33
  -15.5600004      -1.91319071E-33
  -15.5500002      -8.10606762E-34
  -15.5400000       2.21767699E-33
  -15.5299997       7.07705713E-33
  -15.5200005       1.19559097E-32
  -15.5100002       1.25638453E-32
  -15.5000000       2.52079106E-33
  -15.4899998      -2.38174757E-32
  -15.4799995      -6.51947093E-32
  -15.4700003      -1.04824474E-31
  -15.4600000      -1.03695870E-31
  -15.4499998      -4.68637639E-33
  -15.4399996       2.41112441E-31
  -15.4300003       6.18973336E-31
  -15.4200001       9.76283981E-31
  -15.4099998       9.70802040E-31
  -15.3999996       1.17708103E-31
  -15.3900003      -1.97629414E-30
  -15.3800001      -5.15528489E-30
  -15.3699999      -8.14629472E-30
  -15.3599997      -8.23256886E-30
  -15.3500004      -1.74338903E-30
  -15.3400002       1.40645684E-29
  -15.3299999       3.76503596E-29
  -15.3199997       5.94063985E-29
  -15.3100004       6.00590961E-29
  -15.3000002       1.50243044E-29
  -15.2900000      -9.21362358E-29
  -15.2799997      -2.47860612E-28
  -15.2700005      -3.86463314E-28
  -15.2600002      -3.84719264E-28
  -15.2500000      -9.49073601E-29
  -15.2399998       5.69131076E-28
  -15.2299995       1.50401503E-27
  -15.2200003       2.30088347E-27
  -15.2100000       2.23986789E-27
  -15.1999998       5.07605270E-28
  -15.1899996      -3.30491466E-27
  -15.1800003      -8.51647762E-27
  -15.1700001      -1.27967537E-26
  -15.1599998      -1.22514336E-26
  -15.1499996      -2.68695924E-27
  -15.1400003       1.77518140E-26
  -15.1300001       4.51598401E-26
  -15.1199999       6.73175871E-26
  -15.1099997       6.45112268E-26
  -15.1000004       1.61216221E-26
  -15.0900002      -8.64430514E-26
  -15.0799999      -2.23627325E-25
  -15.0699997      -3.36321923E-25
  -15.0600004      -3.30541890E-25
  -15.0500002      -1.08467770E-25
  -15.0400000       3.72444012E-25
  -15.0299997       1.02704819E-24
  -15.0200005       1.59164461E-24
  -15.0100002       1.64338738E-24
  -15.0000000       7.33036276E-25
  -14.9899998      -1.36233754E-24
  -14.9799995      -4.32789051E-24
  -14.9700003      -7.08333195E-24
  -14.9600000      -7.83743328E-24
  -14.9499998      -4.60189661E-24
  -14.9399996       3.79870447E-24
  -14.9300003       1.64461532E-23
  -14.9200001       2.93181575E-23
  -14.9099998       3.53158481E-23
  -14.8999996       2.60431920E-23
  -14.8900003      -4.43914514E-24
  -14.8800001      -5.46094768E-23
  -14.8699999      -1.11131619E-22
  -14.8599997      -1.47963030E-22
  -14.8500004      -1.31711498E-22
  -14.8400002      -3.44857203E-23
  -14.8299999       1.47706884E-22
  -14.8199997       3.77131680E-22
  -14.8100004       5.66744634E-22
  -14.8000002       5.93241526E-22
  -14.7900000       3.36905781E-22
  -14.7799997      -2.55520958E-22
  -14.7700005      -1.10266427E-21
  -14.7600002      -1.94599369E-21
  -14.7500000      -2.36940737E-21
  -14.7399998      -1.90793187E-21
  -14.7299995      -2.44393173E-22
  -14.7200003       2.55053165E-21
  -14.7100000       5.82566423E-21
  -14.6999998       8.32286756E-21
  -14.6899996       8.42213732E-21
  -14.6800003       4.69315138E-21
  -14.6700001      -3.33656568E-21
  -14.6599998      -1.44353954E-20
  -14.6499996      -2.52978149E-20
  -14.6400003      -3.09187285E-20
  -14.6300001      -2.59317487E-20
  -14.6199999      -6.80910039E-21
  -14.6099997       2.56170339E-20
  -14.6000004       6.42649543E-20
  -14.5900002       9.56921177E-20
  -14.5799999       1.02690654E-19
  -14.5699997       6.97911605E-20
  -14.5600004      -9.28331958E-21
  -14.5500002      -1.24461873E-19
  -14.5400000      -2.45643872E-19
  -14.5299997      -3.25666384E-19
  -14.5200005      -3.11762357E-19
  -14.5100002      -1.64644265E-19
  -14.5000000       1.19204572E-19
  -14.4899998       4.89715324E-19
  -14.4799995       8.39132338E-19
  -14.4700003       1.01928938E-18
  -14.4600000       8.82598508E-19
  -14.4499998       3.40572101E-19
  -14.4399996      -5.75860447E-19
  -14.4300003      -1.67722853E-18
  -14.4200001      -2.62165734E-18
  -14.4099998      -2.98244871E-18
  -14.3999996      -2.37590281E-18
  -14.3900003      -6.24548142E-19
  -14.3800001       2.09242036E-18
  -14.3699999       5.16342062E-18
  -14.3599997       7.60090144E-18
  -14.3500004       8.25940752E-18
  -14.3400002       6.19538137E-18
  -14.3299999       1.08895298E-18
  -14.3199997      -6.40428831E-18
  -14.3100004      -1.45252337E-17
  -14.3000002      -2.06341957E-17
  -14.2900000      -2.18295942E-17
  -14.2799997      -1.58803888E-17
  -14.2700005      -2.24949472E-18
  -14.2600002       1.71225659E-17
  -14.2500000       3.76309243E-17
  -14.2399998       5.26818263E-17
  -14.2299995       5.52811686E-17
  -14.2200003       4.02858994E-17
  -14.2100000       6.75893704E-18
  -14.1999998      -4.03435506E-17
  -14.1899996      -8.99351724E-17
  -14.1800003      -1.26542447E-16
  -14.1700001      -1.34049833E-16
  -14.1599998      -1.00801222E-16
  -14.1499996      -2.47697679E-17
  -14.1400003       8.28875274E-17
  -14.1300001       1.97525013E-16
  -14.1199999       2.84979073E-16
  -14.1099997       3.09730726E-16
  -14.1000004       2.45790009E-16
  -14.0900002       8.75584707E-17
  -14.0799999      -1.42801417E-16
  -14.0699997      -3.94743373E-16
  -14.0600004      -5.97420437E-16
  -14.0500002      -6.76172796E-16
  -14.0400000      -5.74403641E-16
  -14.0299997      -2.75400322E-16
  -14.0200005       1.82631143E-16
  -14.0100002       7.04554065E-16
  -14.0000000       1.15299988E-15
  -13.9899998       1.37919061E-15
  -13.9799995       1.26426698E-15
  -13.9700003       7.61083296E-16
  -13.9600000      -7.58874817E-17
  -13.9499998      -1.08396733E-15
  -13.9399996      -2.01587086E-15
  -13.9300003      -2.59280936E-15
  -13.9200001      -2.57760935E-15
  -13.9099998      -1.85059208E-15
  -13.8999996      -4.66840568E-16
  -13.8900003       1.32515202E-15
  -13.8800001       3.11599366E-15
  -13.8699999       4.41916909E-15
  -13.8599997       4.79153070E-15
  -13.8500004       3.96298129E-15
  -13.8400002       1.94053851E-15
  -13.8299999      -9.46497168E-16
  -13.8199997      -4.08243496E-15
  -13.8100004      -6.68504533E-15
  -13.8000002      -7.98939687E-15
  -13.7900000      -7.45484962E-15
  -13.7799997      -4.94207429E-15
  -13.7700005      -8.07649092E-16
  -13.7600002       4.12082122E-15
  -13.7500000       8.69841427E-15
  -13.7399998       1.17208328E-14
  -13.7299995       1.22304392E-14
  -13.7200003       9.79441646E-15
  -13.7100000       4.67741207E-15
  -13.6999998      -2.14912799E-15
  -13.6899996      -9.18129505E-15
  -13.6800003      -1.47135484E-14
  -13.6700001      -1.72541052E-14
  -13.6599998      -1.59229929E-14
  -13.6499996      -1.07260849E-14
  -13.6400003      -2.62221622E-15
  -13.6300001       6.65070068E-15
  -13.6199999       1.49623711E-14
  -13.6099997       2.03019212E-14
  -13.6000004       2.12868155E-14
  -13.5900002       1.75335380E-14
  -13.5799999       9.78452311E-15
  -13.5699997      -2.53002892E-16
  -13.5600004      -1.03226719E-14
  -13.5500002      -1.81829717E-14
  -13.5400000      -2.21674265E-14
  -13.5299997      -2.15848965E-14
  -13.5200005      -1.68459505E-14
  -13.5100002      -9.28013024E-15
  -13.5000000      -7.02010319E-16
  -13.4899998       7.13629747E-15
  -13.4799995       1.30285958E-14
  -13.4700003       1.65723877E-14
  -13.4600000       1.81108163E-14
  -13.4499998       1.83769913E-14
  -13.4399996       1.79707848E-14
  -13.4300003       1.68765216E-14
  -13.4200001       1.42422949E-14
  -13.4099998       8.57473560E-15
  -13.3999996      -1.63200803E-15
  -13.3900003      -1.69819484E-14
  -13.3800001      -3.62737523E-14
  -13.3699999      -5.59780189E-14
  -13.3599997      -7.04250297E-14
  -13.3500004      -7.28682319E-14
  -13.3400002      -5.73330378E-14
  -13.3299999      -2.08707478E-14
  -13.3199997       3.43936678E-14
  -13.3100004       1.00127853E-13
  -13.3000002       1.62177685E-13
  -13.2900000       2.02775242E-13
  -13.2799997       2.04410409E-13
  -13.2700005       1.54693641E-13
  -13.2600002       5.11111268E-14
  -13.2500000      -9.56471434E-14
  -13.2399998      -2.61000368E-13
  -13.2299995      -4.09204761E-13
  -13.2200003      -4.99543224E-13
  -13.2100000      -4.95145808E-13
  -13.1999998      -3.72796656E-13
  -13.1899996      -1.31532792E-13
  -13.1800003       2.02260301E-13
  -13.1700001       5.75112982E-13
  -13.1599998       9.13004373E-13
  -13.1499996       1.13374902E-12
  -13.1400003       1.16343675E-12
  -13.1300001       9.53910453E-13
  -13.1199999       4.97630745E-13
  -13.1099997      -1.63678207E-13
  -13.1000004      -9.39301263E-13
  -13.0900002      -1.69984176E-12
  -13.0799999      -2.29670059E-12
  -13.0699997      -2.58782297E-12
  -13.0600004      -2.46526302E-12
  -13.0500002      -1.87934542E-12
  -13.0400000      -8.54503480E-13
  -13.0299997       5.06787212E-13
  -13.0200005       2.03341380E-12
  -13.0100002       3.50728799E-12
  -13.0000000       4.69384731E-12
  -12.9899998       5.37633263E-12
  -12.9799995       5.38819076E-12
  -12.9700003       4.63854346E-12
  -12.9600000       3.12724586E-12
  -12.9499998       9.48221861E-13
  -12.9399996      -1.71807121E-12
  -12.9300003      -4.62056955E-12
  -12.9200001      -7.45873849E-12
  -12.9099998      -9.90606208E-12
  -12.8999996      -1.16341606E-11
  -12.8900003      -1.23372458E-11
  -12.8800001      -1.17577658E-11
  -12.8699999      -9.71444800E-12
  -12.8599997      -6.13304416E-12
  -12.8500004      -1.07822442E-12
  -12.8400002       5.21740767E-12
  -12.8299999       1.23335621E-11
  -12.8199997       1.96594598E-11
  -12.8100004       2.64152485E-11
  -12.8000002       3.17024289E-11
  -12.7900000       3.45837733E-11
  -12.7799997       3.41877637E-11
  -12.7700005       2.98271720E-11
  -12.7600002       2.11171098E-11
  -12.7500000       8.07594269E-12
  -12.7399998      -8.80633153E-12
  -12.7299995      -2.85440820E-11
  -12.7200003      -4.96825948E-11
  -12.7100000      -7.03740261E-11
  -12.6999998      -8.84961965E-11
  -12.6899996      -1.01803177E-10
  -12.6800003      -1.08094929E-10
  -12.6700001      -1.05394485E-10
  -12.6599998      -9.21235657E-11
  -12.6499996      -6.72711262E-11
  -12.6400003      -3.05516723E-11
  -12.6300001       1.74504074E-11
  -12.6199999       7.51562215E-11
  -12.6099997       1.39899092E-10
  -12.6000004       2.07879852E-10
  -12.5900002       2.74193723E-10
  -12.5799999       3.32953026E-10
  -12.5699997       3.77528092E-10
  -12.5600004       4.00917938E-10
  -12.5500002       3.96251171E-10
  -12.5400000       3.57396029E-10
  -12.5299997       2.79641865E-10
  -12.5200005       1.60400679E-10
  -12.5100002      -1.37345999E-13
  -12.5000000      -1.98456210E-10
  -12.4899998      -4.27333807E-10
  -12.4799995      -6.75671630E-10
  -12.4700003      -9.28561616E-10
  -12.4600000      -1.16759102E-09
  -12.4499998      -1.37137446E-09
  -12.4399996      -1.51628743E-09
  -12.4300003      -1.57736790E-09
  -12.4200001      -1.52934643E-09
  -12.4099998      -1.34777878E-09
  -12.3999996      -1.01023467E-09
  -12.3900003      -4.97536956E-10
  -12.3800001       2.05018932E-10
  -12.3699999       1.10647003E-09
  -12.3599997       2.20908936E-09
  -12.3500004       3.50744678E-09
  -12.3400002       4.98767916E-09
  -12.3299999       6.62704203E-09
  -12.3199997       8.39383318E-09
  -12.3100004       1.02476463E-08
  -12.3000002       1.21400543E-08
  -12.2900000       1.40156748E-08
  -12.2799997       1.58135425E-08
  -12.2700005       1.74687553E-08
  -12.2600002       1.89143048E-08
  -12.2500000       2.00829930E-08
  -12.2399998       2.09093738E-08
  -12.2299995       2.13316067E-08
  -12.2200003       2.12932800E-08
  -12.2100000       2.07450359E-08
  -12.1999998       1.96461620E-08
  -12.1899996       1.79659629E-08
  -12.1800003       1.56851119E-08
  -12.1700001       1.27966429E-08
  -12.1599998       9.30691701E-09
  -12.1499996       5.23613553E-09
  -12.1400003       6.18569529E-10
  -12.1300001      -4.49776083E-09
  -12.1199999      -1.00518891E-08
  -12.1099997      -1.59711959E-08
  -12.1000004      -2.21732090E-08
  -12.0900002      -2.85677757E-08
  -12.0799999      -3.50593936E-08
  -12.0699997      -4.15496437E-08
  -12.0600004      -4.79394373E-08
  -12.0500002      -5.41309966E-08
  -12.0400000      -6.00295422E-08
  -12.0299997      -6.55444410E-08
  -12.0200005      -7.05901613E-08
  -12.0100002      -7.50868168E-08
  -12.0000000      -7.89605821E-08
  -11.9899998      -8.21439343E-08
  -11.9799995      -8.45757810E-08
  -11.9700003      -8.62016023E-08
  -11.9600000      -8.69734507E-08
  -11.9499998      -8.68499015E-08
  -11.9399996      -8.57958113E-08
  -11.9300003      -8.37822398E-08
  -11.9200001      -8.07862008E-08
  -11.9099998      -7.67905206E-08
  -11.8999996      -7.17840649E-08
  -11.8900003      -6.57621229E-08
  -11.8800001      -5.87271032E-08
  -11.8699999      -5.06896320E-08
  -11.8599997      -4.16695087E-08
  -11.8500004      -3.16969881E-08
  -11.8400002      -2.08137170E-08
  -11.8299999      -9.07332431E-09
  -11.8199997       3.45854279E-09
  -11.8100004       1.67043623E-08
  -11.8000002       3.05757801E-08
  -11.7900000       4.49745912E-08
  -11.7799997       5.97941252E-08
  -11.7700005       7.49205924E-08
  -11.7600002       9.02343942E-08
  -11.7500000       1.05611321E-07
  -11.7399998       1.20923247E-07
  -11.7299995       1.36039333E-07
  -11.7200003       1.50826580E-07
  -11.7100000       1.65150738E-07
  -11.6999998       1.78877357E-07
  -11.6899996       1.91872530E-07
  -11.6800003       2.04004294E-07
  -11.6700001       2.15143814E-07
  -11.6599998       2.25166687E-07
  -11.6499996       2.33954026E-07
  -11.6400003       2.41393735E-07
  -11.6300001       2.47381109E-07
  -11.6199999       2.51819642E-07
  -11.6099997       2.54621369E-07
  -11.6000004       2.55706738E-07
  -11.5900002       2.55004636E-07
  -11.5799999       2.52452139E-07
  -11.5699997       2.47993967E-07
  -11.5600004       2.41582512E-07
  -11.5500002       2.33177659E-07
  -11.5400000       2.22746692E-07
  -11.5299997       2.10265043E-07
  -11.5200005       1.95716808E-07
  -11.5100002       1.79095281E-07
  -11.5000000       1.60404056E-07
  -11.4899998       1.39657502E-07
  -11.4799995       1.16881445E-07
  -11.4700003       9.21132752E-08
  -11.4600000       6.54016858E-08
  -11.4499998       3.68064619E-08
  -11.4399996       6.39754205E-09
  -11.4300003      -2.57459121E-08
  -11.4200001      -5.95359850E-08
  -11.4099998      -9.48772581E-08
  -11.3999996      -1.31667321E-07
  -11.3900003      -1.69797715E-07
  -11.3800001      -2.09154550E-07
  -11.3699999      -2.49619177E-07
  -11.3599997      -2.91069682E-07
  -11.3500004      -3.33381223E-07
  -11.3400002      -3.76427579E-07
  -11.3299999      -4.20082500E-07
  -11.3199997      -4.64220193E-07
  -11.3100004      -5.08717221E-07
  -11.3000002      -5.53452310E-07
  -11.2900000      -5.98307565E-07
  -11.2799997      -6.43168050E-07
  -11.2700005      -6.87921727E-07
  -11.2600002      -7.32458261E-07
  -11.2500000      -7.76669481E-07
  -11.2399998      -8.20447838E-07
  -11.2299995      -8.63685443E-07
  -11.2200003      -9.06275602E-07
  -11.2100000      -9.48109573E-07
  -11.1999998      -9.89081514E-07
  -11.1899996      -1.02908575E-06
  -11.1800003      -1.06802031E-06
  -11.1700001      -1.10579015E-06
  -11.1599998      -1.14230511E-06
  -11.1499996      -1.17748391E-06
  -11.1400003      -1.21125629E-06
  -11.1300001      -1.24356097E-06
  -11.1199999      -1.27434885E-06
  -11.1099997      -1.30357989E-06
  -11.1000004      -1.33122512E-06
  -11.0900002      -1.35726464E-06
  -11.0799999      -1.38168639E-06
  -11.0699997      -1.40448617E-06
  -11.0600004      -1.42566614E-06
  -11.0500002      -1.44523437E-06
  -11.0400000      -1.46320269E-06
  -11.0299997      -1.47958463E-06
  -11.0200005      -1.49439256E-06
  -11.0100002      -1.50763753E-06
  -11.0000000      -1.51932375E-06
  -10.9899998      -1.52944983E-06
  -10.9799995      -1.53800590E-06
  -10.9700003      -1.54497377E-06
  -10.9600000      -1.55033206E-06
  -10.9499998      -1.55405496E-06
  -10.9399996      -1.55612020E-06
  -10.9300003      -1.55651082E-06
  -10.9200001      -1.55521798E-06
  -10.9099998      -1.55224893E-06
  -10.8999996      -1.54762449E-06
  -10.8900003      -1.54138036E-06
  -10.8800001      -1.53356496E-06
  -10.8699999      -1.52424036E-06
  -10.8599997      -1.51347422E-06
  -10.8500004      -1.50134122E-06
  -10.8400002      -1.48791446E-06
  -10.8299999      -1.47326853E-06
  -10.8199997      -1.45747595E-06
  -10.8100004      -1.44060130E-06
  -10.8000002      -1.42270505E-06
  -10.7900000      -1.40383804E-06
  -10.7799997      -1.38404346E-06
  -10.7700005      -1.36335495E-06
  -10.7600002      -1.34179515E-06
  -10.7500000      -1.31937702E-06
  -10.7399998      -1.29609884E-06
  -10.7299995      -1.27195506E-06
  -10.7200003      -1.24693815E-06
  -10.7100000      -1.22103768E-06
  -10.6999998      -1.19425408E-06
  -10.6899996      -1.16660635E-06
  -10.6800003      -1.13813485E-06
  -10.6700001      -1.10890403E-06
  -10.6599998      -1.07901667E-06
  -10.6499996      -1.04860294E-06
  -10.6400003      -1.01782871E-06
  -10.6300001      -9.86885652E-07
  -10.6199999      -9.55980568E-07
  -10.6099997      -9.25335257E-07
  -10.6000004      -8.95178630E-07
  -10.5900002      -8.65728509E-07
  -10.5799999      -8.37207836E-07
  -10.5699997      -8.09817266E-07
  -10.5600004      -7.83751659E-07
  -10.5500002      -7.59193256E-07
  -10.5400000      -7.36312018E-07
  -10.5299997      -7.15268754E-07
  -10.5200005      -6.96212396E-07
  -10.5100002      -6.79281243E-07
  -10.5000000      -6.64596769E-07
  -10.4899998      -6.52266351E-07
  -10.4799995      -6.42365706E-07
  -10.4700003      -6.34947412E-07
  -10.4600000      -6.30031934E-07
  -10.4499998      -6.27606084E-07
  -10.4399996      -6.27623365E-07
  -10.4300003      -6.30004990E-07
  -10.4200001      -6.34642447E-07
  -10.4099998      -6.41400561E-07
  -10.3999996      -6.50124434E-07
  -10.3900003      -6.60643025E-07
  -10.3800001      -6.72766248E-07
  -10.3699999      -6.86302428E-07
  -10.3599997      -7.01048236E-07
  -10.3500004      -7.16798468E-07
  -10.3400002      -7.33341722E-07
  -10.3299999      -7.50471941E-07
  -10.3199997      -7.67985000E-07
  -10.3100004      -7.85681891E-07
  -10.3000002      -8.03377191E-07
  -10.2900000      -8.20905541E-07
  -10.2799997      -8.38126311E-07
  -10.2700005      -8.54925133E-07
  -10.2600002      -8.71221459E-07
  -10.2500000      -8.86958787E-07
  -10.2399998      -9.02110060E-07
  -10.2299995      -9.16668284E-07
  -10.2200003      -9.30640397E-07
  -10.2100000      -9.44033388E-07
  -10.1999998      -9.56852887E-07
  -10.1899996      -9.69099460E-07
  -10.1800003      -9.80762934E-07
  -10.1700001      -9.91829666E-07
  -10.1599998      -1.00228044E-06
  -10.1499996      -1.01210480E-06
  -10.1400003      -1.02129889E-06
  -10.1300001      -1.02987201E-06
  -10.1199999      -1.03784714E-06
  -10.1099997      -1.04525668E-06
  -10.1000004      -1.05214770E-06
  -10.0900002      -1.05855941E-06
  -10.0799999      -1.06453490E-06
  -10.0699997      -1.07010590E-06
  -10.0600004      -1.07529672E-06
  -10.0500002      -1.08012273E-06
  -10.0400000      -1.08459039E-06
  -10.0299997      -1.08871086E-06
  -10.0200005      -1.09248856E-06
  -10.0100002      -1.09593589E-06
  -10.0000000      -1.09907057E-06
  -9.98999977      -1.10191922E-06
  -9.97999954      -1.10451219E-06
  -9.97000027      -1.10688723E-06
  -9.96000004      -1.10908297E-06
  -9.94999981      -1.11114139E-06
  -9.93999958      -1.11311272E-06
  -9.93000031      -1.11505040E-06
  -9.92000008      -1.11701809E-06
  -9.90999985      -1.11908469E-06
  -9.89999962      -1.12133421E-06
  -9.89000034      -1.12385783E-06
  -9.88000011      -1.12675627E-06
  -9.86999989      -1.13013448E-06
  -9.85999966      -1.13409772E-06
  -9.85000038      -1.13874330E-06
  -9.84000015      -1.14415820E-06
  -9.82999992      -1.15041212E-06
  -9.81999969      -1.15755540E-06
  -9.81000042      -1.16561262E-06
  -9.80000019      -1.17458603E-06
  -9.78999996      -1.18445951E-06
  -9.77999973      -1.19519723E-06
  -9.77000046      -1.20675202E-06
  -9.76000023      -1.21907055E-06
  -9.75000000      -1.23209452E-06
  -9.73999977      -1.24576673E-06
  -9.72999954      -1.26002544E-06
  -9.72000027      -1.27480769E-06
  -9.71000004      -1.29003945E-06
  -9.69999981      -1.30563546E-06
  -9.68999958      -1.32149466E-06
  -9.68000031      -1.33749859E-06
  -9.67000008      -1.35351695E-06
  -9.65999985      -1.36941435E-06
  -9.64999962      -1.38505652E-06
  -9.64000034      -1.40032478E-06
  -9.63000011      -1.41512589E-06
  -9.61999989      -1.42939928E-06
  -9.60999966      -1.44312435E-06
  -9.60000038      -1.45631930E-06
  -9.59000015      -1.46903733E-06
  -9.57999992      -1.48136735E-06
  -9.56999969      -1.49342372E-06
  -9.56000042      -1.50534368E-06
  -9.55000019      -1.51728273E-06
  -9.53999996      -1.52941288E-06
  -9.52999973      -1.54192469E-06
  -9.52000046      -1.55501789E-06
  -9.51000023      -1.56890121E-06
  -9.50000000      -1.58378396E-06
  -9.48999977      -1.59986871E-06
  -9.47999954      -1.61733703E-06
  -9.47000027      -1.63634536E-06
  -9.46000004      -1.65701715E-06
  -9.44999981      -1.67943574E-06
  -9.43999958      -1.70364194E-06
  -9.43000031      -1.72964155E-06
  -9.42000008      -1.75739990E-06
  -9.40999985      -1.78684502E-06
  -9.39999962      -1.81786584E-06
  -9.39000034      -1.85030945E-06
  -9.38000011      -1.88397371E-06
  -9.36999989      -1.91860522E-06
  -9.35999966      -1.95389384E-06
  -9.35000038      -1.98947464E-06
  -9.34000015      -2.02493152E-06
  -9.32999992      -2.05980905E-06
  -9.31999969      -2.09361519E-06
  -9.31000042      -2.12583404E-06
  -9.30000019      -2.15593991E-06
  -9.28999996      -2.18339278E-06
  -9.27999973      -2.20765378E-06
  -9.27000046      -2.22818062E-06
  -9.26000023      -2.24442988E-06
  -9.25000000      -2.25587019E-06
  -9.23999977      -2.26198995E-06
  -9.22999954      -2.26229827E-06
  -9.22000027      -2.25634426E-06
  -9.21000004      -2.24372434E-06
  -9.19999981      -2.22408335E-06
  -9.18999958      -2.19712274E-06
  -9.18000031      -2.16260446E-06
  -9.17000008      -2.12033933E-06
  -9.15999985      -2.07019093E-06
  -9.14999962      -2.01207786E-06
  -9.14000034      -1.94596964E-06
  -9.13000011      -1.87189232E-06
  -9.11999989      -1.78992684E-06
  -9.10999966      -1.70022258E-06
  -9.10000038      -1.60299896E-06
  -9.09000015      -1.49853997E-06
  -9.07999992      -1.38720031E-06
  -9.06999969      -1.26940199E-06
  -9.06000042      -1.14563215E-06
  -9.05000019      -1.01645423E-06
  -9.03999996      -8.82500899E-07
  -9.02999973      -7.44485590E-07
  -9.02000046      -6.03199169E-07
  -9.01000023      -4.59520862E-07
  -9.00000000      -3.14399728E-07
  -8.98999977      -1.68870287E-07
  -8.97999954      -2.40190445E-08
  -8.97000027       1.19020044E-07
  -8.96000004       2.59077808E-07
  -8.94999981       3.94966037E-07
  -8.93999958       5.25493363E-07
  -8.93000031       6.49468973E-07
  -8.92000008       7.65706716E-07
  -8.90999985       8.73036811E-07
  -8.89999962       9.70311589E-07
  -8.89000034       1.05641197E-06
  -8.88000011       1.13024782E-06
  -8.86999989       1.19077811E-06
  -8.85999966       1.23701034E-06
  -8.85000038       1.26800353E-06
  -8.84000015       1.28288116E-06
  -8.82999992       1.28081501E-06
  -8.81999969       1.26104158E-06
  -8.81000042       1.22285189E-06
  -8.80000019       1.16559477E-06
  -8.78999996       1.08868676E-06
  -8.77999973       9.91614115E-07
  -8.77000046       8.73937722E-07
  -8.76000023       7.35303331E-07
  -8.75000000       5.75440254E-07
  -8.73999977       3.94173242E-07
  -8.72999954       1.91410479E-07
  -8.72000027      -3.28436727E-08
  -8.71000004      -2.78504302E-07
  -8.69999981      -5.45404816E-07
  -8.68999958      -8.33288595E-07
  -8.68000031      -1.14181819E-06
  -8.67000008      -1.47056244E-06
  -8.65999985      -1.81900396E-06
  -8.64999962      -2.18653940E-06
  -8.64000034      -2.57248053E-06
  -8.63000011      -2.97607198E-06
  -8.61999989      -3.39649159E-06
  -8.60999966      -3.83285897E-06
  -8.60000038      -4.28425710E-06
  -8.59000015      -4.74972421E-06
  -8.57999992      -5.22827031E-06
  -8.56999969      -5.71886630E-06
  -8.56000042      -6.22045036E-06
  -8.55000019      -6.73193972E-06
  -8.53999996      -7.25222480E-06
  -8.52999973      -7.78017784E-06
  -8.52000046      -8.31469060E-06
  -8.51000023      -8.85466306E-06
  -8.50000000      -9.39903748E-06
  -8.48999977      -9.94681795E-06
  -8.47999954      -1.04970632E-05
  -8.47000027      -1.10489018E-05
  -8.46000004      -1.16015271E-05
  -8.44999981      -1.21541871E-05
  -8.43999958      -1.27061930E-05
  -8.43000031      -1.32568975E-05
  -8.42000008      -1.38056921E-05
  -8.40999985      -1.43520183E-05
  -8.39999962      -1.48953486E-05
  -8.39000034      -1.54352056E-05
  -8.38000011      -1.59711290E-05
  -8.36999989      -1.65026777E-05
  -8.35999966      -1.70294206E-05
  -8.35000038      -1.75509176E-05
  -8.34000015      -1.80667121E-05
  -8.32999992      -1.85762838E-05
  -8.31999969      -1.90791125E-05
  -8.31000042      -1.95746106E-05
  -8.30000019      -2.00621780E-05
  -8.28999996      -2.05411616E-05
  -8.27999973      -2.10108828E-05
  -8.27000046      -2.14706652E-05
  -8.26000023      -2.19197555E-05
  -8.25000000      -2.23573988E-05
  -8.23999977      -2.27827768E-05
  -8.22999954      -2.31950271E-05
  -8.22000027      -2.35932621E-05
  -8.21000004      -2.39765232E-05
  -8.19999981      -2.43438571E-05
  -8.18999958      -2.46943000E-05
  -8.18000031      -2.50268731E-05
  -8.17000008      -2.53406633E-05
  -8.15999985      -2.56347539E-05
  -8.14999962      -2.59082808E-05
  -8.14000034      -2.61604182E-05
  -8.13000011      -2.63903876E-05
  -8.11999989      -2.65974286E-05
  -8.10999966      -2.67808464E-05
  -8.10000038      -2.69400080E-05
  -8.09000015      -2.70743167E-05
  -8.07999992      -2.71832705E-05
  -8.06999969      -2.72664256E-05
  -8.06000042      -2.73234400E-05
  -8.05000019      -2.73540390E-05
  -8.03999996      -2.73579954E-05
  -8.02999973      -2.73351907E-05
  -8.02000046      -2.72855195E-05
  -8.01000023      -2.72089910E-05
  -8.00000000      -2.71056779E-05
  -7.98999977      -2.69757365E-05
  -7.98000002      -2.68193889E-05
  -7.96999979      -2.66369898E-05
  -7.96000004      -2.64289502E-05
  -7.94999981      -2.61957703E-05
  -7.94000006      -2.59380613E-05
  -7.92999983      -2.56564963E-05
  -7.92000008      -2.53518283E-05
  -7.90999985      -2.50248740E-05
  -7.90000010      -2.46765685E-05
  -7.88999987      -2.43078812E-05
  -7.88000011      -2.39198907E-05
  -7.86999989      -2.35137486E-05
  -7.86000013      -2.30906844E-05
  -7.84999990      -2.26520133E-05
  -7.84000015      -2.21990649E-05
  -7.82999992      -2.17332690E-05
  -7.82000017      -2.12560772E-05
  -7.80999994      -2.07689445E-05
  -7.80000019      -2.02734154E-05
  -7.78999996      -1.97710451E-05
  -7.78000021      -1.92634288E-05
  -7.76999998      -1.87522674E-05
  -7.76000023      -1.82392814E-05
  -7.75000000      -1.77262336E-05
  -7.73999977      -1.72149321E-05
  -7.73000002      -1.67071903E-05
  -7.71999979      -1.62048182E-05
  -7.71000004      -1.57096238E-05
  -7.69999981      -1.52233779E-05
  -7.69000006      -1.47478449E-05
  -7.67999983      -1.42847139E-05
  -7.67000008      -1.38356381E-05
  -7.65999985      -1.34022403E-05
  -7.65000010      -1.29861064E-05
  -7.63999987      -1.25886882E-05
  -7.63000011      -1.22113979E-05
  -7.61999989      -1.18555299E-05
  -7.61000013      -1.15222765E-05
  -7.59999990      -1.12127118E-05
  -7.59000015      -1.09277507E-05
  -7.57999992      -1.06682528E-05
  -7.57000017      -1.04349092E-05
  -7.55999994      -1.02283348E-05
  -7.55000019      -1.00490524E-05
  -7.53999996      -9.89747332E-06
  -7.53000021      -9.77391574E-06
  -7.51999998      -9.67859614E-06
  -7.51000023      -9.61160640E-06
  -7.50000000      -9.57295379E-06
  -7.48999977      -9.56251824E-06
  -7.48000002      -9.58007149E-06
  -7.46999979      -9.62538343E-06
  -7.46000004      -9.69808207E-06
  -7.44999981      -9.79776451E-06
  -7.44000006      -9.92399691E-06