  -16.0000000       0.00000000    
  -15.9899998       0.00000000    
  -15.9799995       0.00000000    
  -15.9700003       0.00000000    
  -15.9600000       0.00000000    
  -15.9499998       0.00000000    
  -15.9399996       0.00000000    
  -15.9300003       0.00000000    
  -15.9200001       0.00000000    
  -15.9099998       0.00000000    
  -15.8999996       0.00000000    
  -15.8900003       0.00000000    
  -15.8800001      -1.27518160E-43
  -15.8699999      -5.94851198E-42
  -15.8599997      -8.63396036E-41
  -15.8500004      -7.39235387E-40
  -15.8400002      -4.74733996E-39
  -15.8299999      -2.62552998E-38
  -15.8199997      -1.32993145E-37
  -15.8100004      -6.14917523E-37
  -15.8000002      -2.52223320E-36
  -15.7900000      -8.96169084E-36
  -15.7799997      -2.71688887E-35
  -15.7700005      -6.92667221E-35
  -15.7600002      -1.44437812E-34
  -15.7500000      -2.28224317E-34
  -15.7399998      -1.94453696E-34
  -15.7299995       2.79151784E-34
  -15.7200003       1.74747539E-33
  -15.7100000       4.77300518E-33
  -15.6999998       9.13644462E-33
  -15.6899996       1.22720868E-32
  -15.6800003       7.28604900E-33
  -15.6700001      -1.77052019E-32
  -15.6599998      -7.48802303E-32
  -15.6499996      -1.60306432E-31
  -15.6400003      -2.20602180E-31
  -15.6300001      -1.09746433E-31
  -15.6199999       4.23211962E-31
  -15.6099997       1.61896906E-30
  -15.6000004       3.32679647E-30
  -15.5900002       4.29555315E-30
  -15.5799999       1.43377547E-30
  -15.5699997      -9.93353062E-30
  -15.5600004      -3.29731755E-29
  -15.5500002      -6.17308394E-29
  -15.5400000      -7.02033182E-29
  -15.5299997      -6.32485249E-30
  -15.5200005       1.91461968E-28
  -15.5100002       5.33732965E-28
  -15.5000000       8.71933775E-28
  -15.4899998       7.92502502E-28
  -15.4799995      -3.52207592E-28
  -15.4700003      -3.07883379E-27
  -15.4600000      -6.94717906E-27
  -15.4499998      -9.48216509E-27
  -15.4399996      -5.67598941E-27
  -15.4300003       1.04541634E-26
  -15.4200001       4.08096759E-26
  -15.4099998       7.48809328E-26
  -15.3999996       8.22352796E-26
  -15.3900003       1.49716894E-26
  -15.3800001      -1.68100416E-25
  -15.3699999      -4.49697703E-25
  -15.3599997      -6.88727635E-25
  -15.3500004      -5.87887841E-25
  -15.3400002       2.29733453E-25
  -15.3299999       1.96478391E-24
  -15.3199997       4.21644616E-24
  -15.3100004       5.56941321E-24
  -15.3000002       3.59005076E-24
  -15.2900000      -4.25574050E-24
  -15.2799997      -1.84574503E-23
  -15.2700005      -3.45042743E-23
  -15.2600002      -4.07328959E-23
  -15.2500000      -1.97707965E-23
  -15.2399998       4.34990840E-23
  -15.2299995       1.46697104E-22
  -15.2200003       2.51849309E-22
  -15.2100000       2.76011879E-22
  -15.1999998       1.07649751E-22
  -15.1899996      -3.36564564E-22
  -15.1800003      -1.01620370E-21
  -15.1700001      -1.66618429E-21
  -15.1599998      -1.76201163E-21
  -15.1499996      -6.44527481E-22
  -15.1400003       2.12897933E-21
  -15.1300001       6.24197074E-21
  -15.1199999       1.00919185E-20
  -15.1099997       1.06735105E-20
  -15.1000004       4.34378672E-21
  -15.0900002      -1.12420243E-20
  -15.0799999      -3.42858221E-20
  -15.0699997      -5.62167583E-20
  -15.0600004      -6.12553804E-20
  -15.0500002      -3.04150822E-20
  -15.0400000       4.88231401E-20
  -15.0299997       1.68606564E-19
  -15.0200005       2.88004308E-19
  -15.0100002       3.30693264E-19
  -15.0000000       2.03184471E-19
  -14.9899998      -1.60976766E-19
  -14.9799995      -7.37503481E-19
  -14.9700003      -1.35186851E-18
  -14.9600000      -1.66380918E-18
  -14.9499998      -1.23977158E-18
  -14.9399996       2.62042029E-19
  -14.9300003       2.81790408E-18
  -14.9200001       5.77035612E-18
  -14.9099998       7.72643271E-18
  -14.8999996       6.80425868E-18
  -14.8900003       1.34099336E-18
  -14.8800001      -9.00738393E-18
  -14.8699999      -2.21146935E-17
  -14.8599997      -3.27883278E-17
  -14.8500004      -3.34451158E-17
  -14.8400002      -1.65642272E-17
  -14.8299999       2.12082955E-17
  -14.8199997       7.44070666E-17
  -14.8100004       1.25671790E-16
  -14.8000002       1.46916607E-16
  -14.7900000       1.06886366E-16
  -14.7799997      -1.47425902E-17
  -14.7700005      -2.09861452E-16
  -14.7600002      -4.27878905E-16
  -14.7500000      -5.74414917E-16
  -14.7399998      -5.31208190E-16
  -14.7299995      -2.00109562E-16
  -14.7200003       4.36287110E-16
  -14.7100000       1.25743735E-15
  -14.6999998       1.98105590E-15
  -14.6899996       2.20361169E-15
  -14.6800003       1.52231991E-15
  -14.6700001      -2.73686218E-16
  -14.6599998      -2.99510173E-15
  -14.6499996      -5.91575307E-15
  -14.6400003      -7.81032987E-15
  -14.6300001      -7.24294400E-15
  -14.6199999      -3.10715296E-15
  -14.6099997       4.69711448E-15
  -14.6000004       1.46856014E-14
  -14.5900002       2.36217008E-14
  -14.5799999       2.70412693E-14
  -14.5699997       2.05844219E-14
  -14.5600004       1.94700963E-15
  -14.5500002      -2.70985491E-14
  -14.5400000      -5.94568001E-14
  -14.5299997      -8.31433582E-14
  -14.5200005      -8.40047839E-14
  -14.5100002      -5.06313944E-14
  -14.5000000       1.96029801E-14
  -14.4899998       1.15392979E-13
  -14.4799995       2.09785328E-13
  -14.4700003       2.64117829E-13
  -14.4600000       2.38463004E-13
  -14.4499998       1.07121933E-13
  -14.4399996      -1.24954368E-13
  -14.4300003      -4.11020827E-13
  -14.4200001      -6.63296783E-13
  -14.4099998      -7.70176783E-13
  -14.3999996      -6.29738991E-13
  -14.3900003      -1.92921932E-13
  -14.3800001       4.96602054E-13
  -14.3699999       1.28249321E-12
  -14.3599997       1.91095707E-12
  -14.3500004       2.08848325E-12
  -14.3400002       1.57600463E-12
  -14.3299999       2.97411482E-13
  -14.3199997      -1.57286077E-12
  -14.3100004      -3.58295967E-12
  -14.3000002      -5.06844003E-12
  -14.2900000      -5.31649421E-12
  -14.2799997      -3.80350786E-12
  -14.2700005      -4.44674164E-13
  -14.2600002       4.22974242E-12
  -14.2500000       9.05769210E-12
  -14.2399998       1.24444552E-11
  -14.2299995       1.27747257E-11
  -14.2200003       8.95897679E-12
  -14.2100000       9.65191143E-13
  -14.1999998      -9.85134543E-12
  -14.1899996      -2.07913999E-11
  -14.1800003      -2.83196661E-11
  -14.1700001      -2.89954085E-11
  -14.1599998      -2.06295866E-11
  -14.1499996      -3.34379291E-12
  -14.1400003       1.98456529E-11
  -14.1300001       4.32333370E-11
  -14.1199999       5.95530292E-11
  -14.1099997       6.18910270E-11
  -14.1000004       4.59573803E-11
  -14.0900002       1.20709475E-11
  -14.0799999      -3.38418252E-11
  -14.0699997      -8.07763439E-11
  -14.0600004      -1.14881236E-10
  -14.0500002      -1.23063004E-10
  -14.0400000      -9.71324896E-11
  -14.0299997      -3.73204107E-11
  -14.0200005       4.60505523E-11
  -14.0100002       1.33615105E-10
  -14.0000000       2.00942471E-10
  -13.9899998       2.24785718E-10
  -13.9799995       1.90133617E-10
  -13.9700003       9.60882623E-11
  -13.9600000      -4.13945961E-11
  -13.9499998      -1.91251417E-10
  -13.9399996      -3.13766124E-10
  -13.9300003      -3.70582703E-10
  -13.9200001      -3.35883293E-10
  -13.9099998      -2.05627959E-10
  -13.8999996      -1.86689054E-12
  -13.8900003       2.29841202E-10
  -13.8800001       4.30114999E-10
  -13.8699999       5.40692713E-10
  -13.8599997       5.20990584E-10
  -13.8500004       3.61688596E-10
  -13.8400002       9.10383643E-11
  -13.8299999      -2.28824265E-10
  -13.8199997      -5.15691101E-10
  -13.8100004      -6.88402113E-10
  -13.8000002      -6.89993340E-10
  -13.7900000      -5.06376996E-10
  -13.7799997      -1.74621567E-10
  -13.7700005       2.22735025E-10
  -13.7600002       5.77209891E-10
  -13.7500000       7.83530407E-10
  -13.7399998       7.70901953E-10
  -13.7299995       5.27398070E-10
  -13.7200003       1.09492318E-10
  -13.7100000      -3.67766345E-10
  -13.6999998      -7.59223184E-10
  -13.6899996      -9.30409083E-10
  -13.6800003      -7.99939781E-10
  -13.6700001      -3.71057407E-10
  -13.6599998       2.58421062E-10
  -13.6499996       9.13386866E-10
  -13.6400003       1.38422540E-09
  -13.6300001       1.48563362E-09
  -13.6199999       1.11611964E-09
  -13.6099997       3.00746095E-10
  -13.6000004      -7.97546640E-10
  -13.5900002      -1.90532989E-09
  -13.5799999      -2.70171308E-09
  -13.5699997      -2.90327096E-09
  -13.5600004      -2.34922437E-09
  -13.5500002      -1.06269071E-09
  -13.5400000       7.32020222E-10
  -13.5299997       2.64574940E-09
  -13.5200005       4.20994439E-09
  -13.5100002       4.99236830E-09
  -13.5000000       4.71389150E-09
  -13.4899998       3.33423467E-09
  -13.4799995       1.08056297E-09
  -13.4700003      -1.59318581E-09
  -13.4600000      -4.10969170E-09
  -13.4499998      -5.90957194E-09
  -13.4399996      -6.59338717E-09
  -13.4300003      -6.02459638E-09
  -13.4200001      -4.36271863E-09
  -13.4099998      -2.01471928E-09
  -13.3999996       4.83699913E-10
  -13.3900003       2.62341704E-09
  -13.3800001       4.06713063E-09
  -13.3699999       4.73818451E-09
  -13.3599997       4.82143880E-09
  -13.3500004       4.67086414E-09
  -13.3400002       4.64892169E-09
  -13.3299999       4.94828933E-09
  -13.3199997       5.45850298E-09
  -13.3100004       5.73323211E-09
  -13.3000002       5.08795761E-09
  -13.2900000       2.81869483E-09
  -13.2799997      -1.50965529E-09
  -13.2700005      -7.78886999E-09
  -13.2600002      -1.52013726E-08
  -13.2500000      -2.22405756E-08
  -13.2399998      -2.69524918E-08
  -13.2299995      -2.73730780E-08
  -13.2200003      -2.20733618E-08
  -13.2100000      -1.06776170E-08
  -13.1999998       5.79505643E-09
  -13.1899996       2.48905039E-08
  -13.1800003       4.30421885E-08
  -13.1700001       5.62292470E-08
  -13.1599998       6.08497430E-08
  -13.1499996       5.46164181E-08
  -13.1400003       3.72533187E-08
  -13.1300001       1.07973293E-08
  -13.1199999      -2.06106883E-08
  -13.1099997      -5.14425338E-08
  -13.1000004      -7.58757892E-08
  -13.0900002      -8.90270542E-08
  -13.0799999      -8.80367992E-08
  -13.0699997      -7.27360501E-08
  -13.0600004      -4.57159572E-08
  -13.0500002      -1.17638921E-08
  -13.0400000       2.32097808E-08
  -13.0299997       5.34935936E-08
  -13.0200005       7.48117159E-08
  -13.0100002       8.51551221E-08
  -13.0000000       8.49876898E-08
  -12.9899998       7.67751231E-08
  -12.9799995       6.39739639E-08
  -12.9700003       4.97782260E-08
  -12.9600000       3.60051864E-08
  -12.9499998       2.24799859E-08
  -12.9399996       7.14992998E-09
  -12.9300003      -1.30476572E-08
  -12.9200001      -4.07709457E-08
  -12.9099998      -7.67107338E-08
  -12.8999996      -1.18369705E-07
  -12.8900003      -1.59632719E-07
  -12.8800001      -1.91401142E-07
  -12.8699999      -2.03291393E-07
  -12.8599997      -1.86095107E-07
  -12.8500004      -1.34447788E-07
  -12.8400002      -4.90257683E-08
  -12.8299999       6.23640659E-08
  -12.8199997       1.85221467E-07
  -12.8100004       3.00393623E-07
  -12.8000002       3.87402281E-07
  -12.7900000       4.28402700E-07
  -12.7799997       4.11919530E-07
  -12.7700005       3.35508929E-07
  -12.7600002       2.06705451E-07
  -12.7500000       4.19915374E-08
  -12.7399998      -1.36026188E-07
  -12.7299995      -3.02632429E-07
  -12.7200003      -4.35339757E-07
  -12.7100000      -5.17612420E-07
  -12.6999998      -5.41213240E-07
  -12.6899996      -5.06758965E-07
  -12.6800003      -4.22516933E-07
  -12.6700001      -3.01894971E-07
  -12.6599998      -1.60362873E-07
  -12.6499996      -1.26208342E-08
  -12.6400003       1.29317598E-07
  -12.6300001       2.56790599E-07
  -12.6199999       3.63973982E-07
  -12.6099997       4.46636079E-07
  -12.6000004       5.00832471E-07
  -12.5900002       5.22217249E-07
  -12.5799999       5.06420633E-07
  -12.5699997       4.50554381E-07
  -12.5600004       3.55457075E-07
  -12.5500002       2.27928126E-07
  -12.5400000       8.20354629E-08
  -12.5299997      -6.13109563E-08
  -12.5200005      -1.76948092E-07
  -12.5100002      -2.40078037E-07
  -12.5000000      -2.32172852E-07
  -12.4899998      -1.46930859E-07
  -12.4799995       5.16657384E-09
  -12.4700003       1.95023262E-07
  -12.4600000       3.76658079E-07
  -12.4499998       4.92597508E-07
  -12.4399996       4.82198573E-07
  -12.4300003       2.91453887E-07
  -12.4200001      -1.17586204E-07
  -12.4099998      -7.59650277E-07
  -12.3999996      -1.62277342E-06
  -12.3900003      -2.66919255E-06
  -12.3800001      -3.84032637E-06
  -12.3699999      -5.06469678E-06
  -12.3599997      -6.26703695E-06
  -12.3500004      -7.37666551E-06
  -12.3400002      -8.33352988E-06
  -12.3299999      -9.09096525E-06
  -12.3199997      -9.61520345E-06
  -12.3100004      -9.88247120E-06
  -12.3000002      -9.87519525E-06
  -12.2900000      -9.57898919E-06
  -12.2799997      -8.98179587E-06
  -12.2700005      -8.07582092E-06
  -12.2600002      -6.86198064E-06
  -12.2500000      -5.35561594E-06
  -12.2399998      -3.59166802E-06
  -12.2299995      -1.62733886E-06
  -12.2200003       4.59295251E-07
  -12.2100000       2.57534089E-06
  -12.1999998       4.62328262E-06
  -12.1899996       6.51363052E-06
  -12.1800003       8.17755881E-06
  -12.1700001       9.57681186E-06
  -12.1599998       1.07085652E-05
  -12.1499996       1.16039728E-05
  -12.1400003       1.23204254E-05
  -12.1300001       1.29289965E-05
  -12.1199999       1.34996071E-05
  -12.1099997       1.40869724E-05
  -12.1000004       1.47201863E-05
  -12.0900002       1.53979472E-05
  -12.0799999       1.60901236E-05
  -12.0699997       1.67449016E-05
  -12.0600004       1.72995788E-05
  -12.0500002       1.76923131E-05
  -12.0400000       1.78721675E-05
  -12.0299997       1.78053815E-05
  -12.0200005       1.74769466E-05
  -12.0100002       1.68877723E-05
  -12.0000000       1.60488999E-05
  -11.9899998       1.49748530E-05
  -11.9799995       1.36782774E-05
  -11.9700003       1.21674448E-05
  -11.9600000       1.04473775E-05
  -11.9499998       8.52401627E-06
  -11.9399996       6.41012730E-06
  -11.9300003       4.13094813E-06
  -11.9200001       1.72768318E-06
  -11.9099998      -7.42593159E-07
  -11.8999996      -3.21100879E-06
  -11.8900003      -5.60439321E-06
  -11.8800001      -7.85466182E-06
  -11.8699999      -9.90806893E-06
  -11.8599997      -1.17322961E-05
  -11.8500004      -1.33198264E-05
  -11.8400002      -1.46869006E-05
  -11.8299999      -1.58683615E-05
  -11.8199997      -1.69095856E-05
  -11.8100004      -1.78572045E-05
  -11.8000002      -1.87505666E-05
  -11.7900000      -1.96154651E-05
  -11.7799997      -2.04611370E-05
  -11.7700005      -2.12805880E-05
  -11.7600002      -2.20537841E-05
  -11.7500000      -2.27524779E-05
  -11.7399998      -2.33454211E-05
  -11.7299995      -2.38027351E-05
  -11.7200003      -2.40987592E-05
  -11.7100000      -2.42130518E-05
  -11.6999998      -2.41299913E-05
  -11.6899996      -2.38375524E-05
  -11.6800003      -2.33261853E-05
  -11.6700001      -2.25883796E-05
  -11.6599998      -2.16193694E-05
  -11.6499996      -2.04187945E-05
  -11.6400003      -1.89928705E-05
  -11.6300001      -1.73562657E-05
  -11.6199999      -1.55329217E-05
  -11.6099997      -1.35551454E-05
  -11.6000004      -1.14608374E-05
  -11.5900002      -9.28907411E-06
  -11.5799999      -7.07481286E-06
  -11.5699997      -4.84379052E-06
  -11.5600004      -2.60869933E-06
  -11.5500002      -3.67650074E-07
  -11.5400000       1.89462162E-06
  -11.5299997       4.20275637E-06
  -11.5200005       6.58464614E-06
  -11.5100002       9.06417245E-06
  -11.5000000       1.16541614E-05
  -11.4899998       1.43507559E-05
  -11.4799995       1.71302599E-05
  -11.4700003       1.99489186E-05
  -11.4600000       2.27456076E-05
  -11.4499998       2.54469651E-05
  -11.4399996       2.79740107E-05
  -11.4300003       3.02492535E-05
  -11.4200001       3.22033702E-05
  -11.4099998       3.37806268E-05
  -11.3999996       3.49427683E-05
  -11.3900003       3.56711716E-05
  -11.3800001       3.59675250E-05
  -11.3699999       3.58532125E-05
  -11.3599997       3.53677970E-05
  -11.3500004       3.45667104E-05
  -11.3400002       3.35182267E-05
  -11.3299999       3.22997512E-05
  -11.3199997       3.09933857E-05
  -11.3100004       2.96808630E-05
  -11.3000002       2.84380440E-05
  -11.2900000       2.73294045E-05
  -11.2799997       2.64030805E-05
  -11.2700005       2.56870153E-05
  -11.2600002       2.51867659E-05
  -11.2500000       2.48852921E-05
  -11.2399998       2.47448024E-05
  -11.2299995       2.47104399E-05
  -11.2200003       2.47153530E-05
  -11.2100000       2.46865984E-05
  -11.1999998       2.45511092E-05
  -11.1899996       2.42413134E-05
  -11.1800003       2.36999240E-05
  -11.1700001       2.28836707E-05
  -11.1599998       2.17659799E-05
  -11.1499996       2.03385916E-05
  -11.1400003       1.86122397E-05
  -11.1300001       1.66164082E-05
  -11.1199999       1.43981697E-05
  -11.1099997       1.20200693E-05
  -11.1000004       9.55701307E-06
  -11.0900002       7.09218421E-06
  -11.0799999       4.71230260E-06
  -11.0699997       2.50241737E-06
  -11.0600004       5.40823464E-07
  -11.0500002      -1.10542521E-06
  -11.0400000      -2.38401731E-06
  -11.0299997      -3.25958717E-06
  -11.0200005      -3.71461942E-06
  -11.0100002      -3.74927481E-06
  -11.0000000      -3.38044697E-06
  -10.9899998      -2.64044525E-06
  -10.9799995      -1.57556451E-06
  -10.9700003      -2.44577734E-07
  -10.9600000       1.28296745E-06
  -10.9499998       2.92903587E-06
  -10.9399996       4.61024592E-06
  -10.9300003       6.24203676E-06
  -10.9200001       7.74374257E-06
  -10.9099998       9.04397712E-06
  -10.8999996       1.00855405E-05
  -10.8900003       1.08288323E-05
  -10.8800001       1.12529870E-05
  -10.8699999       1.13543001E-05
  -10.8599997       1.11421905E-05
  -10.8500004       1.06334883E-05
  -10.8400002       9.84644976E-06
  -10.8299999       8.79591607E-06
  -10.8199997       7.49093851E-06
  -10.8100004       5.93549703E-06
  -10.8000002       4.13213593E-06
  -10.7900000       2.08752044E-06
  -10.7799997      -1.81670103E-07
  -10.7700005      -2.64431901E-06
  -10.7600002      -5.25326914E-06
  -10.7500000      -7.94727566E-06
  -10.7399998      -1.06561420E-05
  -10.7299995      -1.33078483E-05
  -10.7200003      -1.58357761E-05
  -10.7100000      -1.81841897E-05
  -10.6999998      -2.03104810E-05
  -10.6899996      -2.21837126E-05
  -10.6800003      -2.37800487E-05
  -10.6700001      -2.50765934E-05
  -10.6599998      -2.60457018E-05
  -10.6499996      -2.66517927E-05
  -10.6400003      -2.68520271E-05
  -10.6300001      -2.66011302E-05
  -10.6199999      -2.58594937E-05
  -10.6099997      -2.46027193E-05
  -10.6000004      -2.28302179E-05
  -10.5900002      -2.05706619E-05
  -10.5799999      -1.78827941E-05
  -10.5699997      -1.48510890E-05
  -10.5600004      -1.15771172E-05
  -10.5500002      -8.16829197E-06
  -10.5400000      -4.72630927E-06
  -10.5299997      -1.33754600E-06
  -10.5200005       1.93289065E-06
  -10.5100002       5.04260697E-06
  -10.5000000       7.96914173E-06
  -10.4899998       1.07039914E-05
  -10.4799995       1.32452005E-05
  -10.4700003       1.55903144E-05
  -10.4600000       1.77313486E-05
  -10.4499998       1.96527781E-05
  -10.4399996       2.13328440E-05
  -10.4300003       2.27477249E-05
  -10.4200001       2.38774210E-05
  -10.4099998       2.47119460E-05
  -10.3999996       2.52561313E-05
  -10.3900003       2.55317700E-05
  -10.3800001       2.55761734E-05
  -10.3699999       2.54370261E-05
  -10.3599997       2.51641559E-05
  -10.3500004       2.47996177E-05
  -10.3400002       2.43680970E-05
  -10.3299999       2.38696884E-05
  -10.3199997       2.32770562E-05
  -10.3100004       2.25381082E-05
  -10.3000002       2.15843938E-05
  -10.2900000       2.03441050E-05
  -10.2799997       1.87574642E-05
  -10.2700005       1.67915441E-05
  -10.2600002       1.44513369E-05
  -10.2500000       1.17844120E-05
  -10.2399998       8.87778151E-06
  -10.2299995       5.84696636E-06
  -10.2200003       2.81916800E-06
  -10.2100000      -8.64005898E-08
  -10.1999998      -2.77708705E-06
  -10.1899996      -5.20056619E-06
  -10.1800003      -7.35093408E-06
  -10.1700001      -9.26595749E-06
  -10.1599998      -1.10160345E-05
  -10.1499996      -1.26872055E-05
  -10.1400003      -1.43617845E-05
  -10.1300001      -1.61003500E-05
  -10.1199999      -1.79286399E-05
  -10.1099997      -1.98314665E-05
  -10.1000004      -2.17543857E-05
  -10.0900002      -2.36122032E-05
  -10.0799999      -2.53022190E-05
  -10.0699997      -2.67194482E-05
  -10.0600004      -2.77710751E-05
  -10.0500002      -2.83878926E-05
  -10.0400000      -2.85314727E-05
  -10.0299997      -2.81964549E-05
  -10.0200005      -2.74084068E-05
  -10.0100002      -2.62180019E-05
  -10.0000000      -2.46925283E-05
  -9.98999977      -2.29059278E-05
  -9.97999954      -2.09285099E-05
  -9.97000027      -1.88174909E-05
  -9.96000004      -1.66098434E-05
  -9.94999981      -1.43184252E-05
  -9.93999958      -1.19325941E-05
  -9.93000031      -9.42352199E-06
  -9.92000008      -6.75379624E-06
  -9.90999985      -3.88963463E-06
  -9.89999962      -8.13459451E-07
  -9.89000034       2.46610489E-06
  -9.88000011       5.90927493E-06
  -9.86999989       9.44667499E-06
  -9.85999966       1.29873233E-05
  -9.85000038       1.64313806E-05
  -9.84000015       1.96845704E-05
  -9.82999992       2.26709017E-05
  -9.81999969       2.53406870E-05
  -9.81000042       2.76725459E-05
  -9.80000019       2.96696981E-05
  -9.78999996       3.13527271E-05
  -9.77999973       3.27518319E-05
  -9.77000046       3.39013604E-05
  -9.76000023       3.48382164E-05
  -9.75000000       3.56038363E-05
  -9.73999977       3.62476530E-05
  -9.72999954       3.68288020E-05
  -9.72000027       3.74132214E-05
  -9.71000004       3.80647543E-05
  -9.69999981       3.88310618E-05
  -9.68999958       3.97278236E-05
  -9.68000031       4.07259504E-05
  -9.67000008       4.17467272E-05
  -9.65999985       4.26680854E-05
  -9.64999962       4.33424284E-05
  -9.64000034       4.36228474E-05
  -9.63000011       4.33922651E-05
  -9.61999989       4.25884718E-05
  -9.60999966       4.12191403E-05
  -9.60000038       3.93632035E-05
  -9.59000015       3.71586502E-05
  -9.57999992       3.47800997E-05
  -9.56999969       3.24118664E-05
  -9.56000042       3.02229728E-05
  -9.55000019       2.83489790E-05
  -9.53999996       2.68833774E-05
  -9.52999973       2.58782020E-05
  -9.52000046       2.53510771E-05
  -9.51000023       2.52950613E-05
  -9.50000000       2.56876010E-05
  -9.48999977       2.64963819E-05
  -9.47999954       2.76818319E-05
  -9.47000027       2.91972083E-05
  -9.46000004       3.09880925E-05
  -9.44999981       3.29928080E-05
  -9.43999958       3.51443196E-05
  -9.43000031       3.73730400E-05
  -9.42000008       3.96091964E-05
  -9.40999985       4.17837364E-05
  -9.39999962       4.38270981E-05
  -9.39000034       4.56666567E-05
  -9.38000011       4.72245047E-05
  -9.36999989       4.84176089E-05
  -9.35999966       4.91619212E-05
  -9.35000038       4.93804910E-05
  -9.34000015       4.90143138E-05
  -9.32999992       4.80330527E-05
  -9.31999969       4.64423683E-05
  -9.31000042       4.42852870E-05
  -9.30000019       4.16363619E-05
  -9.28999996       3.85897001E-05
  -9.27999973       3.52435272E-05
  -9.27000046       3.16852093E-05
  -9.26000023       2.79804481E-05
  -9.25000000       2.41692378E-05
  -9.23999977       2.02690044E-05
  -9.22999954       1.62835004E-05
  -9.22000027       1.22140791E-05
  -9.21000004       8.06990192E-06
  -9.19999981       3.87377258E-06
  -9.18999958      -3.38000916E-07
  -9.18000031      -4.52118229E-06
  -9.17000008      -8.63262721E-06
  -9.15999985      -1.26393334E-05
  -9.14999962      -1.65242545E-05
  -9.14000034      -2.02867795E-05
  -9.13000011      -2.39372475E-05
  -9.11999989      -2.74873091E-05
  -9.10999966      -3.09391398E-05
  -9.10000038      -3.42774802E-05
  -9.09000015      -3.74676638E-05
  -9.07999992      -4.04611383E-05
  -9.06999969      -4.32077068E-05
  -9.06000042      -4.56712369E-05
  -9.05000019      -4.78442089E-05
  -9.03999996      -4.97559595E-05
  -9.02999973      -5.14714447E-05
  -9.02000046      -5.30793586E-05
  -9.01000023      -5.46723531E-05
  -9.00000000      -5.63242647E-05
  -8.98999977      -5.80709893E-05
  -8.97999954      -5.99005907E-05
  -8.97000027      -6.17562036E-05
  -8.96000004      -6.35505567E-05
  -8.94999981      -6.51883020E-05
  -8.93999958      -6.65885891E-05
  -8.93000031      -6.77010030E-05
  -8.92000008      -6.85095947E-05
  -8.90999985      -6.90238521E-05
  -8.89999962      -6.92600079E-05
  -8.89000034      -6.92197282E-05
  -8.88000011      -6.88738437E-05
  -8.86999989      -6.81577148E-05
  -8.85999966      -6.69804576E-05
  -8.85000038      -6.52450908E-05
  -8.84000015      -6.28731505E-05
  -8.82999992      -5.98245570E-05
  -8.81999969      -5.61058441E-05
  -8.81000042      -5.17631379E-05
  -8.80000019      -4.68621802E-05
  -8.78999996      -4.14621063E-05
  -8.77999973      -3.55924385E-05
  -8.77000046      -2.92413479E-05
  -8.76000023      -2.23598436E-05
  -8.75000000      -1.48804284E-05
  -8.73999977      -6.74390276E-06
  -8.72999954       2.07524749E-06
  -8.72000027       1.15531975E-05
  -8.71000004       2.16164972E-05
  -8.69999981       3.21556399E-05
  -8.68999958       4.30473956E-05
  -8.68000031       5.41758600E-05
  -8.67000008       6.54444302E-05
  -8.65999985       7.67731763E-05
  -8.64999962       8.80828229E-05
  -8.64000034       9.92719943E-05
  -8.63000011       1.10197449E-04
  -8.61999989       1.20666584E-04
  -8.60999966       1.30448490E-04
  -8.60000038       1.39302283E-04
  -8.59000015       1.47016239E-04
  -8.57999992       1.53446425E-04
  -8.56999969       1.58543451E-04
  -8.56000042       1.62358498E-04
  -8.55000019       1.65026664E-04
  -8.53999996       1.66732600E-04
  -8.52999973       1.67667022E-04
  -8.52000046       1.67987790E-04
  -8.51000023       1.67795442E-04
  -8.50000000       1.67128426E-04
  -8.48999977       1.65978738E-04
  -8.47999954       1.64321027E-04
  -8.47000027       1.62146185E-04
  -8.46000004       1.59488060E-04
  -8.44999981       1.56436974E-04
  -8.43999958       1.53136411E-04
  -8.43000031       1.49764310E-04
  -8.42000008       1.46505903E-04
  -8.40999985       1.43526151E-04
  -8.39999962       1.40948556E-04
  -8.39000034       1.38846925E-04
  -8.38000011       1.37250128E-04
  -8.36999989       1.36157803E-04
  -8.35999966       1.35561364E-04
  -8.35000038       1.35463284E-04
  -8.34000015       1.35888666E-04
  -8.32999992       1.36885283E-04
  -8.31999969       1.38512609E-04
  -8.31000042       1.40822318E-04
  -8.30000019       1.43836776E-04
  -8.28999996       1.47532672E-04
  -8.27999973       1.51833927E-04
  -8.27000046       1.56617549E-04
  -8.26000023       1.61729782E-04
  -8.25000000       1.67008940E-04
  -8.23999977       1.72306856E-04
  -8.22999954       1.77502705E-04
  -8.22000027       1.82506497E-04
  -8.21000004       1.87250407E-04
  -8.19999981       1.91673884E-04
  -8.18999958       1.95707966E-04
  -8.18000031       1.99266346E-04
  -8.17000008       2.02246869E-04
  -8.15999985       2.04543408E-04
  -8.14999962       2.06063633E-04
  -8.14000034       2.06744939E-04
  -8.13000011       2.06561628E-04
  -8.11999989       2.05518969E-04
  -8.10999966       2.03634991E-04
  -8.10000038       2.00916766E-04
  -8.09000015       1.97339788E-04
  -8.07999992       1.92839783E-04
  -8.06999969       1.87322003E-04
  -8.06000042       1.80686417E-04
  -8.05000019       1.72860658E-04
  -8.03999996       1.63830147E-04
  -8.02999973       1.53653149E-04
  -8.02000046       1.42454694E-04
  -8.01000023       1.30400236E-04
  -8.00000000       1.17657190E-04
  -7.98999977       1.04357612E-04
  -7.98000002       9.05750567E-05
  -7.96999979       7.63240314E-05
  -7.96000004       6.15816098E-05
  -7.94999981       4.63233773E-05
  -7.94000006       3.05598842E-05
  -7.92999983       1.43594661E-05
  -7.92000008      -2.15135378E-06
  -7.90999985      -1.88105096E-05
  -7.90000010      -3.54571239E-05
  -7.88999987      -5.19687965E-05
  -7.88000011      -6.82833197E-05
  -7.86999989      -8.43962625E-05
  -7.86000013      -1.00332814E-04
  -7.84999990      -1.16103220E-04
  -7.84000015      -1.31656925E-04
  -7.82999992      -1.46852559E-04
  -7.82000017      -1.61454183E-04
  -7.80999994      -1.75157795E-04
  -7.80000019      -1.87639554E-04
  -7.78999996      -1.98610884E-04
  -7.78000021      -2.07863777E-04
  -7.76999998      -2.15292297E-04
  -7.76000023      -2.20885282E-04
  -7.75000000      -2.24695774E-04
  -7.73999977      -2.26798817E-04
  -7.73000002      -2.27254044E-04
  -7.71999979      -2.26086398E-04
  -7.71000004      -2.23291281E-04
  -7.69999981      -2.18860863E-04
  -7.69000006      -2.12821658E-04
  -7.67999983      -2.05267352E-04
  -7.67000008      -1.96374225E-04
  -7.65999985      -1.86390520E-04
  -7.65000010      -1.75601162E-04
  -7.63999987      -1.64276149E-04
  -7.63000011      -1.52618391E-04
  -7.61999989      -1.40725897E-04
  -7.61000013      -1.28580738E-04
  -7.59999990      -1.16068994E-04
  -7.59000015      -1.03026934E-04
  -7.57999992      -8.93012693E-05
  -7.57000017      -7.48066304E-05
  -7.55999994      -5.95642014E-05
  -7.55000019      -4.37101007E-05
  -7.53999996      -2.74717095E-05
  -7.53000021      -1.11180607E-05
  -7.51999998       5.10048221E-06
  -7.51000023       2.10056260E-05
  -7.50000000       3.65208907E-05
  -7.48999977       5.16682303E-05
  -7.48000002       6.65326370E-05
  -7.46999979       8.12052895E-05
  -7.46000004       9.57238954E-05
  -7.44999981       1.10030342E-04
  -7.44000006       1.23960795E-04