  -16.0000000       0.00000000    
  -15.9899998       0.00000000    
  -15.9799995       0.00000000    
  -15.9700003       0.00000000    
  -15.9600000       0.00000000    
  -15.9499998       0.00000000    
  -15.9399996       0.00000000    
  -15.9300003       0.00000000    
  -15.9200001       0.00000000    
  -15.9099998       0.00000000    
  -15.8999996       0.00000000    
  -15.8900003       0.00000000    
  -15.8800001       0.00000000    
  -15.8699999      -1.40129846E-45
  -15.8599997      -3.22298647E-44
  -15.8500004      -4.40007718E-43
  -15.8400002      -4.12121878E-42
  -15.8299999      -2.90587263E-41
  -15.8199997      -1.64156510E-40
  -15.8100004      -7.71375568E-40
  -15.8000002      -3.09411045E-39
  -15.7900000      -1.08011875E-38
  -15.7799997      -3.33186203E-38
  -15.7700005      -9.19645221E-38
  -15.7600002      -2.29540738E-37
  -15.7500000      -5.22663207E-37
  -15.7399998      -1.09278411E-36
  -15.7299995      -2.10365616E-36
  -15.7200003      -3.71207542E-36
  -15.7100000      -5.88908715E-36
  -15.6999998      -7.92541121E-36
  -15.6899996      -7.24696859E-36
  -15.6800003       3.12291663E-36
  -15.6700001       3.94286892E-35
  -15.6599998       1.35210905E-34
  -15.6499996       3.51221824E-34
  -15.6400003       7.78439726E-34
  -15.6300001       1.50766903E-33
  -15.6199999       2.51058667E-33
  -15.6099997       3.35609515E-33
  -15.6000004       2.73296669E-33
  -15.5900002      -2.02325316E-33
  -15.5799999      -1.46885072E-32
  -15.5699997      -3.77765563E-32
  -15.5600004      -6.63377071E-32
  -15.5500002      -7.78048602E-32
  -15.5400000      -2.30641851E-32
  -15.5299997       1.66428312E-31
  -15.5200005       5.30838061E-31
  -15.5100002       9.71666734E-31
  -15.5000000       1.09423177E-30
  -15.4899998       1.08038275E-31
  -15.4799995      -2.97977361E-30
  -15.4700003      -8.55732879E-30
  -15.4600000      -1.48074146E-29
  -15.4499998      -1.57312125E-29
  -15.4399996      -3.67937490E-31
  -15.4300003       4.38641499E-29
  -15.4200001       1.20369839E-28
  -15.4099998       2.04252237E-28
  -15.3999996       2.21230297E-28
  -15.3900003       4.28569938E-29
  -15.3800001      -4.72105952E-28
  -15.3699999      -1.36073248E-27
  -15.3599997      -2.36314262E-27
  -15.3500004      -2.72412314E-27
  -15.3400002      -1.16275507E-27
  -15.3299999       3.72973937E-27
  -15.3199997       1.24326636E-26
  -15.3100004       2.28155491E-26
  -15.3000002       2.84502162E-26
  -15.2900000       1.83165706E-26
  -15.2799997      -2.01022235E-26
  -15.2700005      -9.26515469E-26
  -15.2600002      -1.85612278E-25
  -15.2500000      -2.52555150E-25
  -15.2399998      -2.10790955E-25
  -15.2299995       3.88451288E-26
  -15.2200003       5.57295766E-25
  -15.2100000       1.27921398E-24
  -15.1999998       1.91911734E-24
  -15.1899996       1.93289085E-24
  -15.1800003       6.20505416E-25
  -15.1700001      -2.55464479E-24
  -15.1599998      -7.42770997E-24
  -15.1499996      -1.25208634E-23
  -15.1400003      -1.46960006E-23
  -15.1300001      -9.56070860E-24
  -15.1199999       6.91192904E-24
  -15.1099997       3.54446407E-23
  -15.1000004       6.98427658E-23
  -15.0900002       9.43670314E-23
  -15.0799999       8.46293829E-23
  -15.0699997       1.46149657E-23
  -15.0600004      -1.29044644E-22
  -15.0500002      -3.27848118E-22
  -15.0400000      -5.14470899E-22
  -15.0299997      -5.70012210E-22
  -15.0200005      -3.48896114E-22
  -15.0100002       2.60195609E-22
  -15.0000000       1.24293671E-21
  -14.9899998       2.36481950E-21
  -14.9799995       3.12390191E-21
  -14.9700003       2.81382833E-21
  -14.9600000       7.47308761E-22
  -14.9499998      -3.35963990E-21
  -14.9399996      -8.92898416E-21
  -14.9300003      -1.41767109E-20
  -14.9200001      -1.61484348E-20
  -14.9099998      -1.13886631E-20
  -14.8999996       2.65315253E-21
  -14.8900003       2.56845332E-20
  -14.8800001       5.27156808E-20
  -14.8699999       7.32784054E-20
  -14.8599997       7.28282317E-20
  -14.8500004       3.70858091E-20
  -14.8400002      -4.08807425E-20
  -14.8299999      -1.52494339E-19
  -14.8199997      -2.67658896E-19
  -14.8100004      -3.35115165E-19
  -14.8000002      -2.92944463E-19
  -14.7900000      -9.05256963E-20
  -14.7799997       2.81310762E-19
  -14.7700005       7.60899302E-19
  -14.7600002       1.20096533E-18
  -14.7500000       1.38361550E-18
  -14.7399998       1.07542982E-18
  -14.7299995       1.20858403E-19
  -14.7200003      -1.44584492E-18
  -14.7100000      -3.30882316E-18
  -14.6999998      -4.84962882E-18
  -14.6899996      -5.24395327E-18
  -14.6800003      -3.69701220E-18
  -14.6700001       2.09619678E-19
  -14.6599998       6.14781642E-18
  -14.6499996       1.27913423E-17
  -14.6400003       1.78457285E-17
  -14.6300001       1.84859763E-17
  -14.6199999       1.22223934E-17
  -14.6099997      -1.94900213E-18
  -14.6000004      -2.24362848E-17
  -14.5900002      -4.44398317E-17
  -14.5799999      -6.03070650E-17
  -14.5699997      -6.11513319E-17
  -14.5600004      -3.96704771E-17
  -14.5500002       6.39035694E-18
  -14.5400000       7.11717449E-17
  -14.5299997       1.39353410E-16
  -14.5200005       1.87750067E-16
  -14.5100002       1.90465337E-16
  -14.5000000       1.27142809E-16
  -14.4899998      -7.47152377E-18
  -14.4799995      -1.95609779E-16
  -14.4700003      -3.93687123E-16
  -14.4600000      -5.37564642E-16
  -14.4499998      -5.56998384E-16
  -14.4399996      -3.97546232E-16
  -14.4300003      -4.49712556E-17
  -14.4200001       4.55425793E-16
  -14.4099998       9.92920820E-16
  -14.3999996       1.40548897E-15
  -14.3900003       1.51580866E-15
  -14.3800001       1.18419960E-15
  -14.3699999       3.66310833E-16
  -14.3599997      -8.41982090E-16
  -14.3500004      -2.19105718E-15
  -14.3400002      -3.30916968E-15
  -14.3299999      -3.78222657E-15
  -14.3199997      -3.26999462E-15
  -14.3100004      -1.63210903E-15
  -14.3000002       9.73026028E-16
  -14.2900000       4.05440621E-15
  -14.2799997       6.84688368E-15
  -14.2700005       8.46715479E-15
  -14.2600002       8.14362548E-15
  -14.2500000       5.46844132E-15
  -14.2399998       6.01462849E-16
  -14.2299995      -5.64480967E-15
  -14.2200003      -1.18897075E-14
  -14.2100000      -1.64485752E-14
  -14.1999998      -1.77360652E-14
  -14.1899996      -1.47196352E-14
  -14.1800003      -7.30390327E-15
  -14.1700001       3.47396693E-15
  -14.1599998       1.55232154E-14
  -14.1499996       2.60733834E-14
  -14.1400003       3.22837833E-14
  -14.1300001       3.19554496E-14
  -14.1199999       2.41673662E-14
  -14.1099997       9.65950613E-15
  -14.1000004      -9.16398169E-15
  -14.0900002      -2.86460546E-14
  -14.0799999      -4.46276859E-14
  -14.0699997      -5.33670500E-14
  -14.0600004      -5.24009140E-14
  -14.0500002      -4.11300734E-14
  -14.0400000      -2.09795966E-14
  -14.0299997       4.89980566E-15
  -14.0200005       3.22970817E-14
  -14.0100002       5.67816871E-14
  -14.0000000       7.44895478E-14
  -13.9899998       8.26591399E-14
  -13.9799995       7.98231517E-14
  -13.9700003       6.56927583E-14
  -13.9600000       4.08884657E-14
  -13.9499998       6.72839902E-15
  -13.9399996      -3.47487542E-14
  -13.9300003      -8.04683536E-14
  -13.9200001      -1.25828330E-13
  -13.9099998      -1.64312303E-13
  -13.8999996      -1.87576652E-13
  -13.8900003      -1.86337152E-13
  -13.8800001      -1.52189364E-13
  -13.8699999      -8.01848144E-14
  -13.8599997       2.83599590E-14
  -13.8500004       1.63623821E-13
  -13.8400002       3.06503900E-13
  -13.8299999       4.30032420E-13
  -13.8199997       5.03287462E-13
  -13.8100004       4.97468711E-13
  -13.8000002       3.93127235E-13
  -13.7900000       1.86987863E-13
  -13.7799997      -1.03437136E-13
  -13.7700005      -4.39048862E-13
  -13.7600002      -7.63126921E-13
  -13.7500000      -1.01000686E-12
  -13.7399998      -1.11725668E-12
  -13.7299995      -1.03912809E-12
  -13.7200003      -7.58452546E-13
  -13.7100000      -2.94154864E-13
  -13.6999998       2.97738125E-13
  -13.6899996       9.30469135E-13
  -13.6800003       1.49959158E-12
  -13.6700001       1.90046438E-12
  -13.6599998       2.04689867E-12
  -13.6499996       1.88729588E-12
  -13.6400003       1.41510176E-12
  -13.6300001       6.71612126E-13
  -13.6199999      -2.59169829E-13
  -13.6099997      -1.26225679E-12
  -13.6000004      -2.20737643E-12
  -13.5900002      -2.96554448E-12
  -13.5799999      -3.42377320E-12
  -13.5699997      -3.49626036E-12
  -13.5600004      -3.13179604E-12
  -13.5500002      -2.31835037E-12
  -13.5400000      -1.08639259E-12
  -13.5299997       4.87850862E-13
  -13.5200005       2.27918205E-12
  -13.5100002       4.11197205E-12
  -13.5000000       5.76372283E-12
  -13.4899998       6.97763895E-12
  -13.4799995       7.48747852E-12
  -13.4700003       7.05556577E-12
  -13.4600000       5.52113780E-12
  -13.4499998       2.85192703E-12
  -13.4399996      -8.11770518E-13
  -13.4300003      -5.13308450E-12
  -13.4200001      -9.58604290E-12
  -13.4099998      -1.35016755E-11
  -13.3999996      -1.61528638E-11
  -13.3900003      -1.68693653E-11
  -13.3800001      -1.51662103E-11
  -13.3699999      -1.08626042E-11
  -13.3599997      -4.16687084E-12
  -13.3500004       4.29413146E-12
  -13.3400002       1.35143424E-11
  -13.3299999       2.22181665E-11
  -13.3199997       2.90289598E-11
  -13.3100004       3.26728991E-11
  -13.3000002       3.21869927E-11
  -13.2900000       2.70972498E-11
  -13.2799997       1.75368695E-11
  -13.2700005       4.28337227E-12
  -13.2600002      -1.12939276E-11
  -13.2500000      -2.73712164E-11
  -13.2399998      -4.18750590E-11
  -13.2299995      -5.27294770E-11
  -13.2200003      -5.81155679E-11
  -13.2100000      -5.67142826E-11
  -13.1999998      -4.79063664E-11
  -13.1899996      -3.19087118E-11
  -13.1800003      -9.83178296E-12
  -13.1700001       1.63522355E-11
  -13.1599998       4.39358445E-11
  -13.1499996       6.96974700E-11
  -13.1400003       9.02104641E-11
  -13.1300001       1.02223008E-10
  -13.1199999       1.03079698E-10
  -13.1099997       9.11416428E-11
  -13.1000004       6.61508764E-11
  -13.0900002       2.94770562E-11
  -13.0799999      -1.58118171E-11
  -13.0699997      -6.51001406E-11
  -13.0600004      -1.12615479E-10
  -13.0500002      -1.52043045E-10
  -13.0400000      -1.77307793E-10
  -13.0299997      -1.83430993E-10
  -13.0200005      -1.67342265E-10
  -13.0100002      -1.28518848E-10
  -13.0000000      -6.93369945E-11
  -12.9899998       4.94691310E-12
  -12.9799995       8.66159297E-11
  -12.9700003       1.66284833E-10
  -12.9600000       2.33977587E-10
  -12.9499998       2.80356821E-10
  -12.9399996       2.97944031E-10
  -12.9300003       2.82167678E-10
  -12.9200001       2.32096703E-10
  -12.9099998       1.50761806E-10
  -12.8999996       4.50179859E-11
  -12.8900003      -7.50386420E-11
  -12.8800001      -1.97036096E-10
  -12.8699999      -3.07570636E-10
  -12.8599997      -3.93600708E-10
  -12.8500004      -4.43854675E-10
  -12.8400002      -4.50117776E-10
  -12.8299999      -4.08275663E-10
  -12.8199997      -3.19011345E-10
  -12.8100004      -1.88072294E-10
  -12.8000002      -2.60533817E-11
  -12.7900000       1.52328608E-10
  -12.7799997       3.29447469E-10
  -12.7700005       4.86399920E-10
  -12.7600002       6.04932382E-10
  -12.7500000       6.69485190E-10
  -12.7399998       6.69129974E-10
  -12.7299995       5.99158556E-10
  -12.7200003       4.62089311E-10
  -12.7100000       2.67903227E-10
  -12.6999998       3.34093864E-11
  -12.6899996      -2.19255489E-10
  -12.6800003      -4.64859901E-10
  -12.6700001      -6.77798317E-10
  -12.6599998      -8.34970149E-10
  -12.6499996      -9.18447485E-10
  -12.6400003      -9.17579679E-10
  -12.6300001      -8.30257307E-10
  -12.6199999      -6.63174071E-10
  -12.6099997      -4.31065267E-10
  -12.6000004      -1.55046059E-10
  -12.5900002       1.39714601E-10
  -12.5799999       4.26668617E-10
  -12.5699997       6.80580980E-10
  -12.5600004       8.79928796E-10
  -12.5500002       1.00877340E-09
  -12.5400000       1.05795828E-09
  -12.5299997       1.02558151E-09
  -12.5200005       9.16781040E-10
  -12.5100002       7.42919504E-10
  -12.5000000       5.20295584E-10
  -12.4899998       2.68516737E-10
  -12.4799995       8.66359415E-12
  -12.4700003      -2.38631004E-10
  -12.4600000      -4.55065152E-10
  -12.4499998      -6.26393937E-10
  -12.4399996      -7.43865081E-10
  -12.4300003      -8.05237210E-10
  -12.4200001      -8.15260415E-10
  -12.4099998      -7.85531862E-10
  -12.3999996      -7.33701544E-10
  -12.3900003      -6.82056578E-10
  -12.3800001      -6.55607679E-10
  -12.3699999      -6.79849732E-10
  -12.3599997      -7.78424269E-10
  -12.3500004      -9.70906022E-10
  -12.3400002      -1.27091482E-09
  -12.3299999      -1.68469072E-09
  -12.3199997      -2.21019802E-09
  -12.3100004      -2.83673907E-09
  -12.3000002      -3.54502472E-09
  -12.2900000      -4.30761959E-09
  -12.2799997      -5.08966158E-09
  -12.2700005      -5.84986992E-09
  -12.2600002      -6.54180266E-09
  -12.2500000      -7.11547044E-09
  -12.2399998      -7.51935492E-09
  -12.2299995      -7.70286857E-09
  -12.2200003      -7.61927499E-09
  -12.2100000      -7.22893612E-09
  -12.1999998      -6.50266863E-09
  -12.1899996      -5.42488365E-09
  -12.1800003      -3.99623490E-09
  -12.1700001      -2.23529639E-09
  -12.1599998      -1.79063292E-10
  -12.1499996       2.11802909E-09
  -12.1400003       4.58640903E-09
  -12.1300001       7.14514092E-09
  -12.1199999       9.70663194E-09
  -12.1099997       1.21821113E-08
  -12.1000004       1.44873233E-08
  -12.0900002       1.65480394E-08
  -12.0799999       1.83048261E-08
  -12.0699997       1.97168433E-08
  -12.0600004       2.07642223E-08
  -12.0500002       2.14488569E-08
  -12.0400000       2.17935021E-08
  -12.0299997       2.18391456E-08
  -12.0200005       2.16407994E-08
  -12.0100002       2.12619042E-08
  -12.0000000       2.07679491E-08
  -11.9899998       2.02195167E-08
  -11.9799995       1.96656931E-08
  -11.9700003       1.91383176E-08
  -11.9600000       1.86476630E-08
  -11.9499998       1.81803621E-08
  -11.9399996       1.76993531E-08
  -11.9300003       1.71464549E-08
  -11.9200001       1.64472631E-08
  -11.9099998       1.55175304E-08
  -11.8999996       1.42706753E-08
  -11.8900003       1.26261721E-08
  -11.8800001       1.05167866E-08
  -11.8699999       7.89509702E-09
  -11.8599997       4.73819473E-09
  -11.8500004       1.05063369E-09
  -11.8400002      -3.13512882E-09
  -11.8299999      -7.76001219E-09
  -11.8199997      -1.27415927E-08
  -11.8100004      -1.79785946E-08
  -11.8000002      -2.33564563E-08
  -11.7900000      -2.87533126E-08
  -11.7799997      -3.40462627E-08
  -11.7700005      -3.91171753E-08
  -11.7600002      -4.38578844E-08
  -11.7500000      -4.81744564E-08
  -11.7399998      -5.19904226E-08
  -11.7299995      -5.52487762E-08
  -11.7200003      -5.79126720E-08
  -11.7100000      -5.99649326E-08
  -11.6999998      -6.14065883E-08
  -11.6899996      -6.22545926E-08
  -11.6800003      -6.25389447E-08
  -11.6700001      -6.22997689E-08
  -11.6599998      -6.15840605E-08
  -11.6499996      -6.04430568E-08
  -11.6400003      -5.89292029E-08
  -11.6300001      -5.70938354E-08
  -11.6199999      -5.49845858E-08
  -11.6099997      -5.26428146E-08
  -11.6000004      -5.01011570E-08
  -11.5900002      -4.73808406E-08
  -11.5799999      -4.44892621E-08
  -11.5699997      -4.14178167E-08
  -11.5600004      -3.81413052E-08
  -11.5500002      -3.46177487E-08
  -11.5400000      -3.07905061E-08
  -11.5299997      -2.65917262E-08
  -11.5200005      -2.19470291E-08
  -11.5100002      -1.67825167E-08
  -11.5000000      -1.10303677E-08
  -11.4899998      -4.63685002E-09
  -11.4799995       2.43262210E-09
  -11.4700003       1.01890185E-08
  -11.4600000       1.86167473E-08
  -11.4499998       2.76732166E-08
  -11.4399996       3.72899933E-08
  -11.4300003       4.73753836E-08
  -11.4200001       5.78186850E-08
  -11.4099998       6.84949200E-08
  -11.3999996       7.92695474E-08
  -11.3900003       9.00042920E-08
  -11.3800001       1.00562708E-07
  -11.3699999       1.10815677E-07
  -11.3599997       1.20647243E-07
  -11.3500004       1.29959957E-07
  -11.3400002       1.38679795E-07
  -11.3299999       1.46760513E-07
  -11.3199997       1.54186054E-07
  -11.3100004       1.60971595E-07
  -11.3000002       1.67161886E-07
  -11.2900000       1.72827853E-07
  -11.2799997       1.78060674E-07
  -11.2700005       1.82964271E-07
  -11.2600002       1.87647373E-07
  -11.2500000       1.92215197E-07
  -11.2399998       1.96762031E-07
  -11.2299995       2.01365040E-07
  -11.2200003       2.06081026E-07
  -11.2100000       2.10943611E-07
  -11.1999998       2.15963468E-07
  -11.1899996       2.21129213E-07
  -11.1800003       2.26409355E-07
  -11.1700001       2.31755322E-07
  -11.1599998       2.37103677E-07
  -11.1499996       2.42380651E-07
  -11.1400003       2.47503635E-07
  -11.1300001       2.52386684E-07
  -11.1199999       2.56943991E-07
  -11.1099997       2.61094840E-07
  -11.1000004       2.64768801E-07
  -11.0900002       2.67908717E-07
  -11.0799999       2.70476733E-07
  -11.0699997       2.72456106E-07
  -11.0600004       2.73850759E-07
  -11.0500002       2.74685789E-07
  -11.0400000       2.75005647E-07
  -11.0299997       2.74868484E-07
  -11.0200005       2.74341687E-07
  -11.0100002       2.73501740E-07
  -11.0000000       2.72424018E-07
  -10.9899998       2.71185741E-07
  -10.9799995       2.69857338E-07
  -10.9700003       2.68508188E-07
  -10.9600000       2.67198715E-07
  -10.9499998       2.65979281E-07
  -10.9399996       2.64891241E-07
  -10.9300003       2.63960715E-07
  -10.9200001       2.63197734E-07
  -10.9099998       2.62592522E-07
  -10.8999996       2.62115037E-07
  -10.8900003       2.61718156E-07
  -10.8800001       2.61333923E-07
  -10.8699999       2.60881905E-07
  -10.8599997       2.60276579E-07
  -10.8500004       2.59429811E-07
  -10.8400002       2.58257785E-07
  -10.8299999       2.56690811E-07
  -10.8199997       2.54673211E-07
  -10.8100004       2.52165336E-07
  -10.8000002       2.49150844E-07
  -10.7900000       2.45624989E-07
  -10.7799997       2.41599281E-07
  -10.7700005       2.37100735E-07
  -10.7600002       2.32162748E-07
  -10.7500000       2.26829940E-07
  -10.7399998       2.21150131E-07
  -10.7299995       2.15178758E-07
  -10.7200003       2.08974967E-07
  -10.7100000       2.02600020E-07
  -10.6999998       1.96119728E-07
  -10.6899996       1.89599888E-07
  -10.6800003       1.83097725E-07
  -10.6700001       1.76671477E-07
  -10.6599998       1.70369987E-07
  -10.6499996       1.64229391E-07
  -10.6400003       1.58276990E-07
  -10.6300001       1.52525914E-07
  -10.6199999       1.46984988E-07
  -10.6099997       1.41653672E-07
  -10.6000004       1.36529721E-07
  -10.5900002       1.31607891E-07
  -10.5799999       1.26888025E-07
  -10.5699997       1.22381920E-07
  -10.5600004       1.18103294E-07
  -10.5500002       1.14077437E-07
  -10.5400000       1.10336067E-07
  -10.5299997       1.06920233E-07
  -10.5200005       1.03873319E-07
  -10.5100002       1.01241646E-07
  -10.5000000       9.90691902E-08
  -10.4899998       9.73945191E-08
  -10.4799995       9.62481721E-08
  -10.4700003       9.56495043E-08
  -10.4600000       9.56048325E-08
  -10.4499998       9.61002016E-08
  -10.4399996       9.71065290E-08
  -10.4300003       9.85778357E-08
  -10.4200001       1.00442939E-07
  -10.4099998       1.02616930E-07
  -10.3999996       1.04996190E-07
  -10.3900003       1.07472999E-07
  -10.3800001       1.09928827E-07
  -10.3699999       1.12246845E-07
  -10.3599997       1.14319484E-07
  -10.3500004       1.16048447E-07
  -10.3400002       1.17346900E-07
  -10.3299999       1.18152734E-07
  -10.3199997       1.18415684E-07
  -10.3100004       1.18105213E-07
  -10.3000002       1.17217347E-07
  -10.2900000       1.15757750E-07
  -10.2799997       1.13750929E-07
  -10.2700005       1.11229703E-07
  -10.2600002       1.08243611E-07
  -10.2500000       1.04850656E-07
  -10.2399998       1.01113770E-07
  -10.2299995       9.71067848E-08
  -10.2200003       9.29092465E-08
  -10.2100000       8.86049278E-08
  -10.1999998       8.42778221E-08
  -10.1899996       8.00082489E-08
  -10.1800003       7.58826104E-08
  -10.1700001       7.19782847E-08
  -10.1599998       6.83611390E-08
  -10.1499996       6.50959322E-08
  -10.1400003       6.22310168E-08
  -10.1300001       5.98018630E-08
  -10.1199999       5.78307890E-08
  -10.1099997       5.63312028E-08
  -10.1000004       5.53035910E-08
  -10.0900002       5.47328369E-08
  -10.0799999       5.46064314E-08
  -10.0699997       5.48963115E-08
  -10.0600004       5.55808413E-08
  -10.0500002       5.66318228E-08
  -10.0400000       5.80241419E-08
  -10.0299997       5.97297074E-08
  -10.0200005       6.17250251E-08
  -10.0100002       6.39894111E-08
  -10.0000000       6.65048958E-08
  -9.98999977       6.92670739E-08
  -9.97999954       7.22592262E-08
  -9.97000027       7.54782548E-08
  -9.96000004       7.89327146E-08
  -9.94999981       8.26403266E-08
  -9.93999958       8.66234871E-08
  -9.93000031       9.09167994E-08
  -9.92000008       9.55639194E-08
  -9.90999985       1.00626032E-07
  -9.89999962       1.06158723E-07
  -9.89000034       1.12222516E-07
  -9.88000011       1.18878887E-07
  -9.86999989       1.26179103E-07
  -9.85999966       1.34174314E-07
  -9.85000038       1.42899054E-07
  -9.84000015       1.52380551E-07
  -9.82999992       1.62639012E-07
  -9.81999969       1.73682054E-07
  -9.81000042       1.85508270E-07
  -9.80000019       1.98112289E-07
  -9.78999996       2.11474074E-07
  -9.77999973       2.25571057E-07
  -9.77000046       2.40381127E-07
  -9.76000023       2.55867576E-07
  -9.75000000       2.71991070E-07
  -9.73999977       2.88713977E-07
  -9.72999954       3.05991279E-07
  -9.72000027       3.23792875E-07
  -9.71000004       3.42076163E-07
  -9.69999981       3.60810901E-07
  -9.68999958       3.79956674E-07
  -9.68000031       3.99460845E-07
  -9.67000008       4.19272709E-07
  -9.65999985       4.39318001E-07
  -9.64999962       4.59515320E-07
  -9.64000034       4.79738674E-07
  -9.63000011       4.99856526E-07
  -9.61999989       5.19722505E-07
  -9.60999966       5.39175517E-07
  -9.60000038       5.58046054E-07
  -9.59000015       5.76162449E-07
  -9.57999992       5.93352752E-07
  -9.56999969       6.09458709E-07
  -9.56000042       6.24322126E-07
  -9.55000019       6.37803112E-07
  -9.53999996       6.49761830E-07
  -9.52999973       6.60087380E-07
  -9.52000046       6.68664768E-07
  -9.51000023       6.75399576E-07
  -9.50000000       6.80207336E-07
  -9.48999977       6.83041321E-07
  -9.47999954       6.83854182E-07
  -9.47000027       6.82634948E-07
  -9.46000004       6.79388961E-07
  -9.44999981       6.74159082E-07
  -9.43999958       6.67019037E-07
  -9.43000031       6.58066824E-07
  -9.42000008       6.47427157E-07
  -9.40999985       6.35276024E-07
  -9.39999962       6.21784750E-07
  -9.39000034       6.07187076E-07
  -9.38000011       5.91697983E-07
  -9.36999989       5.75593788E-07
  -9.35999966       5.59159787E-07
  -9.35000038       5.42715611E-07
  -9.34000015       5.26570204E-07
  -9.32999992       5.11078156E-07
  -9.31999969       4.96582004E-07
  -9.31000042       4.83416159E-07
  -9.30000019       4.71913268E-07
  -9.28999996       4.62399584E-07
  -9.27999973       4.55162507E-07
  -9.27000046       4.50465677E-07
  -9.26000023       4.48529022E-07
  -9.25000000       4.49564908E-07
  -9.23999977       4.53745571E-07
  -9.22999954       4.61200699E-07
  -9.22000027       4.72050743E-07
  -9.21000004       4.86372414E-07
  -9.19999981       5.04200671E-07
  -9.18999958       5.25559244E-07
  -9.18000031       5.50400443E-07
  -9.17000008       5.78662423E-07
  -9.15999985       6.10223935E-07
  -9.14999962       6.44949637E-07
  -9.14000034       6.82625796E-07
  -9.13000011       7.23032144E-07
  -9.11999989       7.65899756E-07
  -9.10999966       8.10952542E-07
  -9.10000038       8.57854275E-07
  -9.09000015       9.06282992E-07
  -9.07999992       9.55874270E-07
  -9.06999969       1.00623697E-06
  -9.06000042       1.05697552E-06
  -9.05000019       1.10767087E-06
  -9.03999996       1.15787839E-06
  -9.02999973       1.20716732E-06
  -9.02000046       1.25511440E-06
  -9.01000023       1.30124545E-06
  -9.00000000       1.34516802E-06
  -8.98999977       1.38645703E-06
  -8.97999954       1.42468957E-06
  -8.97000027       1.45951412E-06
  -8.96000004       1.49055040E-06
  -8.94999981       1.51742609E-06
  -8.93999958       1.53984638E-06
  -8.93000031       1.55745045E-06
  -8.92000008       1.56995191E-06
  -8.90999985       1.57709417E-06
  -8.89999962       1.57864190E-06
  -8.89000034       1.57439604E-06
  -8.88000011       1.56420595E-06
  -8.86999989       1.54799602E-06
  -8.85999966       1.52569248E-06
  -8.85000038       1.49734342E-06
  -8.84000015       1.46301818E-06
  -8.82999992       1.42285307E-06
  -8.81999969       1.37704637E-06
  -8.81000042       1.32584512E-06
  -8.80000019       1.26958378E-06
  -8.78999996       1.20863228E-06
  -8.77999973       1.14339150E-06
  -8.77000046       1.07427843E-06
  -8.76000023       1.00178124E-06
  -8.75000000       9.26420284E-07
  -8.73999977       8.48663035E-07
  -8.72999954       7.69040412E-07
  -8.72000027       6.88022681E-07
  -8.71000004       6.06095000E-07
  -8.69999981       5.23707115E-07
  -8.68999958       4.41287483E-07
  -8.68000031       3.59240687E-07
  -8.67000008       2.77914154E-07
  -8.65999985       1.97673018E-07
  -8.64999962       1.18814590E-07
  -8.64000034       4.15666079E-08
  -8.63000011      -3.37774679E-08
  -8.61999989      -1.07054710E-07
  -8.60999966      -1.78050172E-07
  -8.60000038      -2.46622363E-07
  -8.59000015      -3.12671119E-07
  -8.57999992      -3.76087200E-07
  -8.56999969      -4.36790373E-07
  -8.56000042      -4.94792459E-07
  -8.55000019      -5.50055404E-07
  -8.53999996      -6.02598959E-07
  -8.52999973      -6.52411188E-07
  -8.52000046      -6.99553368E-07
  -8.51000023      -7.44087288E-07
  -8.50000000      -7.86061889E-07
  -8.48999977      -8.25524921E-07
  -8.47999954      -8.62602690E-07
  -8.47000027      -8.97380346E-07
  -8.46000004      -9.29928774E-07
  -8.44999981      -9.60404691E-07
  -8.43999958      -9.88866077E-07
  -8.43000031      -1.01542059E-06
  -8.42000008      -1.04020455E-06
  -8.40999985      -1.06329401E-06
  -8.39999962      -1.08472466E-06
  -8.39000034      -1.10455755E-06
  -8.38000011      -1.12291139E-06
  -8.36999989      -1.13976341E-06
  -8.35999966      -1.15519538E-06
  -8.35000038      -1.16921285E-06
  -8.34000015      -1.18183698E-06
  -8.32999992      -1.19307663E-06
  -8.31999969      -1.20294442E-06
  -8.31000042      -1.21142227E-06
  -8.30000019      -1.21849189E-06
  -8.28999996      -1.22410620E-06
  -8.27999973      -1.22821632E-06
  -8.27000046      -1.23073312E-06
  -8.26000023      -1.23162545E-06
  -8.25000000      -1.23080451E-06
  -8.23999977      -1.22816334E-06
  -8.22999954      -1.22374547E-06
  -8.22000027      -1.21738969E-06
  -8.21000004      -1.20900177E-06
  -8.19999981      -1.19844083E-06
  -8.18999958      -1.18567664E-06
  -8.18000031      -1.17052275E-06
  -8.17000008      -1.15291266E-06
  -8.15999985      -1.13271767E-06
  -8.14999962      -1.10986343E-06
  -8.14000034      -1.08422194E-06
  -8.13000011      -1.05572974E-06
  -8.11999989      -1.02435047E-06
  -8.10999966      -9.90014428E-07
  -8.10000038      -9.52699736E-07
  -8.09000015      -9.12372684E-07
  -8.07999992      -8.69134283E-07
  -8.06999969      -8.23085884E-07
  -8.06000042      -7.74278021E-07
  -8.05000019      -7.22826087E-07
  -8.03999996      -6.68929374E-07
  -8.02999973      -6.12762790E-07
  -8.02000046      -5.54551718E-07
  -8.01000023      -4.94618519E-07
  -8.00000000      -4.33146823E-07
  -7.98999977      -3.70526379E-07
  -7.98000002      -3.07026909E-07
  -7.96999979      -2.43026648E-07
  -7.96000004      -1.78886339E-07
  -7.94999981      -1.15062939E-07
  -7.94000006      -5.18862500E-08
  -7.92999983       1.02001900E-08
  -7.92000008       7.08715291E-08
  -7.90999985       1.29687237E-07
  -7.90000010       1.86292198E-07
  -7.88999987       2.40367598E-07
  -7.88000011       2.91558621E-07
  -7.86999989       3.39539298E-07
  -7.86000013       3.84030955E-07
  -7.84999990       4.24898758E-07
  -7.84000015       4.61818018E-07
  -7.82999992       4.94687526E-07
  -7.82000017       5.23355368E-07
  -7.80999994       5.47849709E-07
  -7.80000019       5.68067378E-07
  -7.78999996       5.84056295E-07
  -7.78000021       5.95725623E-07
  -7.76999998       6.03290175E-07
  -7.76000023       6.06672700E-07
  -7.75000000       6.05967386E-07
  -7.73999977       6.01282636E-07
  -7.73000002       5.92641527E-07
  -7.71999979       5.80303777E-07
  -7.71000004       5.64335892E-07
  -7.69999981       5.44831607E-07
  -7.69000006       5.22027335E-07
  -7.67999983       4.96145788E-07
  -7.67000008       4.67412235E-07
  -7.65999985       4.36118739E-07
  -7.65000010       4.02365771E-07
  -7.63999987       3.66444340E-07
  -7.63000011       3.28601544E-07
  -7.61999989       2.89214654E-07
  -7.61000013       2.48472617E-07
  -7.59999990       2.06611105E-07
  -7.59000015       1.64016825E-07
  -7.57999992       1.20925137E-07
  -7.57000017       7.75759119E-08
  -7.55999994       3.43487727E-08
  -7.55000019      -8.49798720E-09
  -7.53999996      -5.06573947E-08
  -7.53000021      -9.18580767E-08
  -7.51999998      -1.31875026E-07
  -7.51000023      -1.70406707E-07
  -7.50000000      -2.07243730E-07
  -7.48999977      -2.42099418E-07
  -7.48000002      -2.74765824E-07
  -7.46999979      -3.05037616E-07
  -7.46000004      -3.32691314E-07
  -7.44999981      -3.57556445E-07
  -7.44000006      -3.79471345E-07