  -16.0000000       0.00000000    
  -15.9899998       0.00000000    
  -15.9799995       0.00000000    
  -15.9700003       0.00000000    
  -15.9600000       0.00000000    
  -15.9499998       0.00000000    
  -15.9399996       0.00000000    
  -15.9300003       0.00000000    
  -15.9200001       0.00000000    
  -15.9099998       0.00000000    
  -15.8999996       0.00000000    
  -15.8900003       0.00000000    
  -15.8800001       0.00000000    
  -15.8699999       0.00000000    
  -15.8599997       0.00000000    
  -15.8500004      -0.00000000    
  -15.8400002       0.00000000    
  -15.8299999       4.20389539E-45
  -15.8199997       3.36311631E-44
  -15.8100004       2.08793471E-43
  -15.8000002       1.06358553E-42
  -15.7900000       4.64530441E-42
  -15.7799997       1.76969983E-41
  -15.7700005       5.95439743E-41
  -15.7600002       1.78264783E-40
  -15.7500000       4.76221474E-40
  -15.7399998       1.13241311E-39
  -15.7299995       2.37231142E-39
  -15.7200003       4.26695382E-39
  -15.7100000       6.15927988E-39
  -15.6999998       5.49872320E-39
  -15.6899996      -3.90507830E-39
  -15.6800003      -3.34778807E-38
  -15.6700001      -9.92571203E-38
  -15.6599998      -2.15388677E-37
  -15.6499996      -3.77506578E-37
  -15.6400003      -5.34412321E-37
  -15.6300001      -5.54642587E-37
  -15.6199999      -2.08449312E-37
  -15.6099997       7.98967113E-37
  -15.6000004       2.70062993E-36
  -15.5900002       5.42093777E-36
  -15.5799999       8.23163524E-36
  -15.5699997       9.41828975E-36
  -15.5600004       6.17761455E-36
  -15.5500002      -4.90869946E-36
  -15.5400000      -2.63757514E-35
  -15.5299997      -5.69368252E-35
  -15.5200005      -8.71333695E-35
  -15.5100002      -9.49325851E-35
  -15.5000000      -4.52281008E-35
  -15.4899998       9.94843139E-35
  -15.4799995       3.48713728E-34
  -15.4700003       6.31799928E-34
  -15.4600000       7.42786431E-34
  -15.4499998       3.37264597E-34
  -15.4399996      -9.29135806E-34
  -15.4300003      -3.04075942E-33
  -15.4200001      -5.07733810E-33
  -15.4099998      -4.78497355E-33
  -15.3999996       1.09113114E-33
  -15.3900003       1.48900340E-32
  -15.3800001       3.41522633E-32
  -15.3699999       4.68858617E-32
  -15.3599997       2.96168740E-32
  -15.3500004      -4.57287198E-32
  -15.3400002      -1.90343733E-31
  -15.3299999      -3.63059353E-31
  -15.3199997      -4.35877067E-31
  -15.3100004      -1.94782929E-31
  -15.3000002       5.77659412E-31
  -15.2900000       1.90647185E-30
  -15.2799997       3.34634578E-30
  -15.2700005       3.76526188E-30
  -15.2600002       1.45642791E-30
  -15.2500000      -5.11509163E-30
  -15.2399998      -1.57999426E-29
  -15.2299995      -2.68438553E-29
  -15.2200003      -2.96663929E-29
  -15.2100000      -1.21342343E-29
  -15.1999998       3.58737103E-29
  -15.1899996       1.12234338E-28
  -15.1800003       1.90544864E-28
  -15.1700001       2.13587557E-28
  -15.1599998       1.03080971E-28
  -15.1499996      -2.04569101E-28
  -15.1400003      -6.96176008E-28
  -15.1300001      -1.21192580E-27
  -15.1199999      -1.41035416E-27
  -15.1099997      -8.27361111E-28
  -15.1000004       9.20948981E-28
  -15.0900002       3.79495636E-27
  -15.0799999       6.95102938E-27
  -15.0699997       8.54775318E-27
  -15.0600004       6.04050863E-27
  -15.0500002      -2.78888253E-27
  -15.0400000      -1.80870444E-26
  -15.0299997      -3.59720727E-26
  -15.0200005      -4.74393215E-26
  -15.0100002      -3.95681229E-26
  -15.0000000      -2.20852790E-28
  -14.9899998       7.37718498E-26
  -14.9799995       1.67112331E-25
  -14.9700003       2.39958668E-25
  -14.9600000       2.31708268E-25
  -14.9499998       8.02246272E-26
  -14.9399996      -2.42764499E-25
  -14.9300003      -6.88360519E-25
  -14.9200001      -1.09844611E-24
  -14.9099998      -1.21193687E-24
  -14.8999996      -7.34436307E-25
  -14.8900003       5.21288259E-25
  -14.8800001       2.45114407E-24
  -14.8699999       4.50285946E-24
  -14.8599997       5.65247750E-24
  -14.8500004       4.62107264E-24
  -14.8400002       3.81596105E-25
  -14.8299999      -7.11686406E-24
  -14.8199997      -1.62454591E-23
  -14.8100004      -2.33982471E-23
  -14.8000002      -2.35270003E-23
  -14.7900000      -1.17767443E-23
  -14.7799997       1.39062388E-23
  -14.7700005       4.99030790E-23
  -14.7600002       8.50757646E-23
  -14.7500000       1.01516036E-22
  -14.7399998       7.91233799E-23
  -14.7299995       4.09079876E-24
  -14.7200003      -1.20502378E-22
  -14.7100000      -2.65888080E-22
  -14.6999998      -3.75906332E-22
  -14.6899996      -3.77362532E-22
  -14.6800003      -2.04478792E-22
  -14.6700001       1.66062099E-22
  -14.6599998       6.79916513E-22
  -14.6499996       1.18599070E-21
  -14.6400003       1.45112723E-21
  -14.6300001       1.22020692E-21
  -14.6199999       3.18775435E-22
  -14.6099997      -1.22549585E-21
  -14.6000004      -3.08695101E-21
  -14.5900002      -4.62753067E-21
  -14.5799999      -5.01180696E-21
  -14.5699997      -3.46662347E-21
  -14.5600004       3.55198847E-22
  -14.5500002       6.01248951E-21
  -14.5400000       1.20703940E-20
  -14.5299997       1.62148580E-20
  -14.5200005       1.57906049E-20
  -14.5100002       8.73614283E-21
  -14.5000000      -5.28888459E-21
  -14.4899998      -2.39611007E-20
  -14.4799995      -4.20051944E-20
  -14.4700003      -5.19690534E-20
  -14.4600000      -4.62171270E-20
  -14.4499998      -1.98715699E-20
  -14.4399996       2.60633480E-20
  -14.4300003       8.25514425E-20
  -14.4200001       1.32600167E-19
  -14.4099998       1.54447778E-19
  -14.3999996       1.27892204E-19
  -14.3900003       4.25866507E-20
  -14.3800001      -9.40870901E-20
  -14.3699999      -2.52717532E-19
  -14.3599997      -3.84124608E-19
  -14.3500004      -4.29820908E-19
  -14.3400002      -3.39849378E-19
  -14.3299999      -9.41300195E-20
  -14.3199997       2.79228542E-19
  -14.3100004       6.96396120E-19
  -14.3000002       1.02757690E-18
  -14.2900000       1.12653386E-18
  -14.2799997       8.76099454E-19
  -14.2700005       2.38931172E-19
  -14.2600002      -7.02601887E-19
  -14.2500000      -1.73485831E-18
  -14.2399998      -2.54274617E-18
  -14.2299995      -2.78366914E-18
  -14.2200003      -2.19391418E-18
  -14.2100000      -7.01189632E-19
  -14.1999998       1.49286817E-18
  -14.1899996       3.89669401E-18
  -14.1800003       5.80379986E-18
  -14.1700001       6.45971810E-18
  -14.1599998       5.29149464E-18
  -14.1499996       2.14178071E-18
  -14.1400003      -2.56725181E-18
  -14.1300001      -7.81146771E-18
  -14.1199999      -1.21274182E-17
  -14.1099997      -1.39548446E-17
  -14.1000004      -1.20950556E-17
  -14.0900002      -6.16895419E-18
  -14.0799999       3.06872054E-18
  -14.0699997       1.36898375E-17
  -14.0600004       2.29025252E-17
  -14.0500002       2.76922814E-17
  -14.0400000       2.56703145E-17
  -14.0299997       1.59151684E-17
  -14.0200005      -4.47871256E-19
  -14.0100002      -2.01566942E-17
  -14.0000000      -3.83346499E-17
  -13.9899998      -4.95869763E-17
  -13.9799995      -4.94541741E-17
  -13.9700003      -3.58582266E-17
  -13.9600000      -1.01173735E-17
  -13.9499998       2.28422270E-17
  -13.9399996       5.52730754E-17
  -13.9300003       7.83252227E-17
  -13.9200001       8.43484342E-17
  -13.9099998       6.92035910E-17
  -13.8999996       3.39212112E-17
  -13.8900003      -1.48615703E-17
  -13.8800001      -6.59819144E-17
  -13.8699999      -1.06246148E-16
  -13.8599997      -1.23813387E-16
  -13.8500004      -1.11617939E-16
  -13.8400002      -6.98594857E-17
  -13.8299999      -6.73964305E-18
  -13.8199997       6.29693624E-17
  -13.8100004       1.21362312E-16
  -13.8000002       1.52085044E-16
  -13.7900000       1.45055954E-16
  -13.7799997       9.98717688E-17
  -13.7700005       2.67742995E-17
  -13.7600002      -5.53552608E-17
  -13.7500000      -1.23700228E-16
  -13.7399998      -1.57817961E-16
  -13.7299995      -1.45870906E-16
  -13.7200003      -8.89372948E-17
  -13.7100000      -1.92365049E-18
  -13.6999998       8.95594008E-17
  -13.6899996       1.55875106E-16
  -13.6800003       1.72005326E-16
  -13.6700001       1.25816646E-16
  -13.6599998       2.34462343E-17
  -13.6499996      -1.10132501E-16
  -13.6400003      -2.36111890E-16
  -13.6300001      -3.11622760E-16
  -13.6199999      -3.01998348E-16
  -13.6099997      -1.92266513E-16
  -13.6000004       5.54122709E-18
  -13.5900002       2.51854950E-16
  -13.5799999       4.86749654E-16
  -13.5699997       6.43707665E-16
  -13.5600004       6.66847387E-16
  -13.5500002       5.27227982E-16
  -13.5400000       2.33687576E-16
  -13.5299997      -1.65236898E-16
  -13.5200005      -5.89588877E-16
  -13.5100002      -9.45071717E-16
  -13.5000000      -1.14502983E-15
  -13.4899998      -1.13184958E-15
  -13.4799995      -8.92138299E-16
  -13.4700003      -4.61457779E-16
  -13.4600000       8.29559783E-17
  -13.4499998       6.39815548E-16
  -13.4399996       1.10718133E-15
  -13.4300003       1.40536689E-15
  -13.4200001       1.49314174E-15
  -13.4099998       1.37291071E-15
  -13.3999996       1.08378331E-15
  -13.3900003       6.85155581E-16
  -13.3800001       2.36425319E-16
  -13.3699999      -2.20176024E-16
  -13.3599997      -6.67485785E-16
  -13.3500004      -1.10883304E-15
  -13.3400002      -1.55208210E-15
  -13.3299999      -1.98768754E-15
  -13.3199997      -2.36918271E-15
  -13.3100004      -2.60506825E-15
  -13.3000002      -2.56856050E-15
  -13.2900000      -2.12669327E-15
  -13.2799997      -1.18388853E-15
  -13.2700005       2.70766999E-16
  -13.2600002       2.12682625E-15
  -13.2500000       4.14034702E-15
  -13.2399998       5.95577198E-15
  -13.2299995       7.16322889E-15
  -13.2200003       7.38285775E-15
  -13.2100000       6.35901515E-15
  -13.1999998       4.04172825E-15
  -13.1899996       6.33013768E-16
  -13.1800003      -3.41827261E-15
  -13.1700001      -7.47829550E-15
  -13.1599998      -1.08381245E-14
  -13.1499996      -1.28504249E-14
  -13.1400003      -1.30631488E-14
  -13.1300001      -1.13190808E-14
  -13.1199999      -7.79665368E-15
  -13.1099997      -2.98067464E-15
  -13.1000004       2.43164270E-15
  -13.0900002       7.66747522E-15
  -13.0799999       1.20253013E-14
  -13.0699997       1.49961169E-14
  -13.0600004       1.63303446E-14
  -13.0500002       1.60360820E-14
  -13.0400000       1.43142453E-14
  -13.0299997       1.14538717E-14
  -13.0200005       7.72350052E-15
  -13.0100002       3.29608620E-15
  -13.0000000      -1.76417555E-15
  -12.9899998      -7.44390681E-15
  -12.9799995      -1.36653333E-14
  -12.9700003      -2.01499618E-14
  -12.9600000      -2.63099191E-14
  -12.9499998      -3.12158068E-14
  -12.9399996      -3.36751264E-14
  -12.9300003      -3.24284904E-14
  -12.9200001      -2.64376296E-14
  -12.9099998      -1.52088662E-14
  -12.8999996       9.23956668E-16
  -12.8900003       2.06360045E-14
  -12.8800001       4.16290334E-14
  -12.8699999       6.08574199E-14
  -12.8599997       7.49466746E-14
  -12.8500004       8.07430701E-14
  -12.8400002       7.59001355E-14
  -12.8299999       5.93916938E-14
  -12.8199997       3.18492079E-14
  -12.8100004      -4.34944219E-15
  -12.8000002      -4.52684765E-14
  -12.7900000      -8.58580785E-14
  -12.7799997      -1.20585996E-13
  -12.7700005      -1.44160522E-13
  -12.7600002      -1.52237611E-13
  -12.7500000      -1.42015333E-13
  -12.7399998      -1.12645008E-13
  -12.7299995      -6.54238423E-14
  -12.7200003      -3.76690205E-15
  -12.7100000       6.70206824E-14
  -12.6999998       1.40133944E-13
  -12.6899996       2.07788173E-13
  -12.6800003       2.61837237E-13
  -12.6700001       2.94472319E-13
  -12.6599998       2.98977152E-13
  -12.6499996       2.70512291E-13
  -12.6400003       2.06876996E-13
  -12.6300001       1.09173087E-13
  -12.6199999      -1.77282759E-14
  -12.6099997      -1.65027226E-13
  -12.6000004      -3.20243425E-13
  -12.5900002      -4.67934393E-13
  -12.5799999      -5.90892949E-13
  -12.5699997      -6.71756596E-13
  -12.5600004      -6.94889079E-13
  -12.5500002      -6.48331052E-13
  -12.5400000      -5.25583483E-13
  -12.5299997      -3.26988030E-13
  -12.5200005      -6.05057928E-14
  -12.5100002       2.58237035E-13
  -12.5000000       6.06674379E-13
  -12.4899998       9.56741088E-13
  -12.4799995       1.27689276E-12
  -12.4700003       1.53449887E-12
  -12.4600000       1.69837950E-12
  -12.4499998       1.74124484E-12
  -12.4399996       1.64182502E-12
  -12.4300003       1.38651861E-12
  -12.4200001       9.70430767E-13
  -12.4099998       3.97739431E-13
  -12.3999996      -3.18644118E-13
  -12.3900003      -1.15807993E-12
  -12.3800001      -2.09379606E-12
  -12.3699999      -3.09495767E-12
  -12.3599997      -4.12902742E-12
  -12.3500004      -5.16420283E-12
  -12.3400002      -6.17167298E-12
  -12.3299999      -7.12743102E-12
  -12.3199997      -8.01339984E-12
  -12.3100004      -8.81767836E-12
  -12.3000002      -9.53382165E-12
  -12.2900000      -1.01591695E-11
  -12.2799997      -1.06924339E-11
  -12.2700005      -1.11308029E-11
  -12.2600002      -1.14670278E-11
  -12.2500000      -1.16868962E-11
  -12.2399998      -1.17675166E-11
  -12.2299995      -1.16768756E-11
  -12.2200003      -1.13746842E-11
  -12.2100000      -1.08146990E-11
  -12.1999998      -9.94822367E-12
  -12.1899996      -8.72857602E-12
  -12.1800003      -7.11585565E-12
  -12.1700001      -5.08166426E-12
  -12.1599998      -2.61315904E-12
  -12.1499996       2.83933819E-13
  -12.1400003       3.58375829E-12
  -12.1300001       7.24029170E-12
  -12.1199999       1.11887982E-11
  -12.1099997       1.53488264E-11
  -12.1000004       1.96281966E-11
  -12.0900002       2.39278666E-11
  -12.0799999       2.81472051E-11
  -12.0699997       3.21892200E-11
  -12.0600004       3.59654112E-11
  -12.0500002       3.93998063E-11
  -12.0400000       4.24319330E-11
  -12.0299997       4.50183744E-11
  -12.0200005       4.71329573E-11
  -12.0100002       4.87653772E-11
  -12.0000000       4.99184825E-11
  -11.9899998       5.06046906E-11
  -11.9799995       5.08415705E-11
  -11.9700003       5.06473752E-11
  -11.9600000       5.00370266E-11
  -11.9499998       4.90188341E-11
  -11.9399996       4.75924959E-11
  -11.9300003       4.57484814E-11
  -11.9200001       4.34688466E-11
  -11.9099998       4.07292672E-11
  -11.8999996       3.75020084E-11
  -11.8900003       3.37593495E-11
  -11.8800001       2.94772678E-11
  -11.8699999       2.46385273E-11
  -11.8599997       1.92354084E-11
  -11.8500004       1.32711914E-11
  -11.8400002       6.76124391E-12
  -11.8299999      -2.67197099E-13
  -11.8199997      -7.77582252E-12
  -11.8100004      -1.57168688E-11
  -11.8000002      -2.40346111E-11
  -11.7900000      -3.26676221E-11
  -11.7799997      -4.15506379E-11
  -11.7700005      -5.06161293E-11
  -11.7600002      -5.97957447E-11
  -11.7500000      -6.90208168E-11
  -11.7399998      -7.82226575E-11
  -11.7299995      -8.73319889E-11
  -11.7200003      -9.62779231E-11
  -11.7100000      -1.04986735E-10
  -11.6999998      -1.13380541E-10
  -11.6899996      -1.21376353E-10
  -11.6800003      -1.28885430E-10
  -11.6700001      -1.35813721E-10
  -11.6599998      -1.42062972E-10
  -11.6499996      -1.47532708E-10
  -11.6400003      -1.52123092E-10
  -11.6300001      -1.55738034E-10
  -11.6199999      -1.58288646E-10
  -11.6099997      -1.59696284E-10
  -11.6000004      -1.59895402E-10
  -11.5900002      -1.58835445E-10
  -11.5799999      -1.56482091E-10
  -11.5699997      -1.52817883E-10
  -11.5600004      -1.47841461E-10
  -11.5500002      -1.41566633E-10
  -11.5400000      -1.34020336E-10
  -11.5299997      -1.25240068E-10
  -11.5200005      -1.15270675E-10
  -11.5100002      -1.04160902E-10
  -11.5000000      -9.19592388E-11
  -11.4899998      -7.87098511E-11
  -11.4799995      -6.44486062E-11
  -11.4700003      -4.91997623E-11
  -11.4600000      -3.29740991E-11
  -11.4499998      -1.57678072E-11
  -11.4399996       2.43668540E-12
  -11.4300003       2.16681655E-11
  -11.4200001       4.19625272E-11
  -11.4099998       6.33580549E-11
  -11.3999996       8.58886989E-11
  -11.3900003       1.09578402E-10
  -11.3800001       1.34435185E-10
  -11.3699999       1.60445851E-10
  -11.3599997       1.87573609E-10
  -11.3500004       2.15755122E-10
  -11.3400002       2.44900766E-10
  -11.3299999       2.74895384E-10
  -11.3199997       3.05601350E-10
  -11.3100004       3.36862177E-10
  -11.3000002       3.68506448E-10
  -11.2900000       4.00354083E-10
  -11.2799997       4.32220953E-10
  -11.2700005       4.63925592E-10
  -11.2600002       4.95294916E-10
  -11.2500000       5.26170663E-10
  -11.2399998       5.56414692E-10
  -11.2299995       5.85914206E-10
  -11.2200003       6.14585993E-10
  -11.2100000       6.42378317E-10
  -11.1999998       6.69272138E-10
  -11.1899996       6.95279445E-10
  -11.1800003       7.20439541E-10
  -11.1700001       7.44814321E-10
  -11.1599998       7.68481556E-10
  -11.1499996       7.91525789E-10
  -11.1400003       8.14032342E-10
  -11.1300001       8.36077374E-10
  -11.1199999       8.57723281E-10
  -11.1099997       8.79010364E-10
  -11.1000004       8.99953889E-10
  -11.0900002       9.20541254E-10
  -11.0799999       9.40729938E-10
  -11.0699997       9.60449387E-10
  -11.0600004       9.79600401E-10
  -11.0500002       9.98061633E-10
  -11.0400000       1.01569209E-09
  -11.0299997       1.03233766E-09
  -11.0200005       1.04784059E-09
  -11.0100002       1.06204234E-09
  -11.0000000       1.07479936E-09
  -10.9899998       1.08598686E-09
  -10.9799995       1.09550991E-09
  -10.9700003       1.10330411E-09
  -10.9600000       1.10934462E-09
  -10.9499998       1.11364384E-09
  -10.9399996       1.11625675E-09
  -10.9300003       1.11727005E-09
  -10.9200001       1.11679976E-09
  -10.9099998       1.11498388E-09
  -10.8999996       1.11197240E-09
  -10.8900003       1.10792542E-09
  -10.8800001       1.10299725E-09
  -10.8699999       1.09733067E-09
  -10.8599997       1.09105724E-09
  -10.8500004       1.08428766E-09
  -10.8400002       1.07710618E-09
  -10.8299999       1.06957232E-09
  -10.8199997       1.06171827E-09
  -10.8100004       1.05354359E-09
  -10.8000002       1.04502940E-09
  -10.7900000       1.03612707E-09
  -10.7799997       1.02676900E-09
  -10.7700005       1.01687603E-09
  -10.7600002       1.00636099E-09
  -10.7500000       9.95135196E-10
  -10.7399998       9.83117143E-10
  -10.7299995       9.70231895E-10
  -10.7200003       9.56432378E-10
  -10.7100000       9.41692946E-10
  -10.6999998       9.26014043E-10
  -10.6899996       9.09414599E-10
  -10.6800003       8.91948904E-10
  -10.6700001       8.73689954E-10
  -10.6599998       8.54736337E-10
  -10.6499996       8.35201186E-10
  -10.6400003       8.15220336E-10
  -10.6300001       7.94940669E-10
  -10.6199999       7.74524167E-10
  -10.6099997       7.54143470E-10
  -10.6000004       7.33982319E-10
  -10.5900002       7.14233506E-10
  -10.5799999       6.95089208E-10
  -10.5699997       6.76737277E-10
  -10.5600004       6.59357069E-10
  -10.5500002       6.43117282E-10
  -10.5400000       6.28169017E-10
  -10.5299997       6.14634510E-10
  -10.5200005       6.02612404E-10
  -10.5100002       5.92169924E-10
  -10.5000000       5.83341098E-10
  -10.4899998       5.76137416E-10
  -10.4799995       5.70535341E-10
  -10.4700003       5.66490299E-10
  -10.4600000       5.63938563E-10
  -10.4499998       5.62795477E-10
  -10.4399996       5.62965563E-10
  -10.4300003       5.64337521E-10
  -10.4200001       5.66797220E-10
  -10.4099998       5.70225034E-10
  -10.3999996       5.74492121E-10
  -10.3900003       5.79471415E-10
  -10.3800001       5.85040461E-10
  -10.3699999       5.91076632E-10
  -10.3599997       5.97462135E-10
  -10.3500004       6.04103489E-10
  -10.3400002       6.10913431E-10
  -10.3299999       6.17836948E-10
  -10.3199997       6.24842400E-10
  -10.3100004       6.31922292E-10
  -10.3000002       6.39095221E-10
  -10.2900000       6.46405485E-10
  -10.2799997       6.53911814E-10
  -10.2700005       6.61679656E-10
  -10.2600002       6.69789779E-10
  -10.2500000       6.78292700E-10
  -10.2399998       6.87228718E-10
  -10.2299995       6.96638691E-10
  -10.2200003       7.06517178E-10
  -10.2100000       7.16854631E-10
  -10.1999998       7.27628013E-10
  -10.1899996       7.38803019E-10
  -10.1800003       7.50345452E-10
  -10.1700001       7.62218233E-10
  -10.1599998       7.74413755E-10
  -10.1499996       7.86926135E-10
  -10.1400003       7.99773248E-10
  -10.1300001       8.12992729E-10
  -10.1199999       8.26637203E-10
  -10.1099997       8.40774728E-10
  -10.1000004       8.55484239E-10
  -10.0900002       8.70851335E-10
  -10.0799999       8.86957563E-10
  -10.0699997       9.03878139E-10
  -10.0600004       9.21672350E-10
  -10.0500002       9.40383549E-10
  -10.0400000       9.60032942E-10
  -10.0299997       9.80622694E-10
  -10.0200005       1.00212727E-09
  -10.0100002       1.02450215E-09
  -10.0000000       1.04767661E-09
  -9.98999977       1.07158149E-09
  -9.97999954       1.09613085E-09
  -9.97000027       1.12123255E-09
  -9.96000004       1.14680632E-09
  -9.94999981       1.17279197E-09
  -9.93999958       1.19912003E-09
  -9.93000031       1.22576704E-09
  -9.92000008       1.25273403E-09
  -9.90999985       1.28004851E-09
  -9.89999962       1.30776912E-09
  -9.89000034       1.33599654E-09
  -9.88000011       1.36485678E-09
  -9.86999989       1.39451306E-09
  -9.85999966       1.42513112E-09
  -9.85000038       1.45690249E-09
  -9.84000015       1.49002710E-09
  -9.82999992       1.52469726E-09
  -9.81999969       1.56110502E-09
  -9.81000042       1.59942370E-09
  -9.80000019       1.63983838E-09
  -9.78999996       1.68252334E-09
  -9.77999973       1.72762260E-09
  -9.77000046       1.77528192E-09
  -9.76000023       1.82562143E-09
  -9.75000000       1.87873939E-09
  -9.73999977       1.93470728E-09
  -9.72999954       1.99354355E-09
  -9.72000027       2.05525286E-09
  -9.71000004       2.11977036E-09
  -9.69999981       2.18700125E-09
  -9.68999958       2.25680208E-09
  -9.68000031       2.32900610E-09
  -9.67000008       2.40339304E-09
  -9.65999985       2.47972864E-09
  -9.64999962       2.55774468E-09
  -9.64000034       2.63715005E-09
  -9.63000011       2.71763145E-09
  -9.61999989       2.79885026E-09
  -9.60999966       2.88044566E-09
  -9.60000038       2.96206104E-09
  -9.59000015       3.04330694E-09
  -9.57999992       3.12379766E-09
  -9.56999969       3.20313553E-09
  -9.56000042       3.28093153E-09
  -9.55000019       3.35677242E-09
  -9.53999996       3.43029560E-09
  -9.52999973       3.50112406E-09
  -9.52000046       3.56889895E-09
  -9.51000023       3.63330122E-09
  -9.50000000       3.69403952E-09
  -9.48999977       3.75085385E-09
  -9.47999954       3.80353793E-09
  -9.47000027       3.85192722E-09
  -9.46000004       3.89594135E-09
  -9.44999981       3.93551547E-09
  -9.43999958       3.97066247E-09
  -9.43000031       4.00143385E-09
  -9.42000008       4.02793310E-09
  -9.40999985       4.05035161E-09
  -9.39999962       4.06892253E-09
  -9.39000034       4.08394962E-09
  -9.38000011       4.09579748E-09
  -9.36999989       4.10490442E-09
  -9.35999966       4.11178513E-09
  -9.35000038       4.11701251E-09
  -9.34000015       4.12122514E-09
  -9.32999992       4.12510426E-09
  -9.31999969       4.12934265E-09
  -9.31000042       4.13467838E-09
  -9.30000019       4.14185441E-09
  -9.28999996       4.15160972E-09
  -9.27999973       4.16471835E-09
  -9.27000046       4.18188506E-09
  -9.26000023       4.20383461E-09
  -9.25000000       4.23124247E-09
  -9.23999977       4.26477564E-09
  -9.22999954       4.30501190E-09
  -9.22000027       4.35248104E-09
  -9.21000004       4.40761605E-09
  -9.19999981       4.47080994E-09
  -9.18999958       4.54229765E-09
  -9.18000031       4.62226035E-09
  -9.17000008       4.71077621E-09
  -9.15999985       4.80782036E-09
  -9.14999962       4.91331553E-09
  -9.14000034       5.02707920E-09
  -9.13000011       5.14878540E-09
  -9.11999989       5.27815391E-09
  -9.10999966       5.41472422E-09
  -9.10000038       5.55798563E-09
  -9.09000015       5.70733683E-09
  -9.07999992       5.86210414E-09
  -9.06999969       6.02160055E-09
  -9.06000042       6.18502716E-09
  -9.05000019       6.35154906E-09
  -9.03999996       6.52035537E-09
  -9.02999973       6.69050415E-09
  -9.02000046       6.86112767E-09
  -9.01000023       7.03122272E-09
  -9.00000000       7.19989846E-09
  -8.98999977       7.36615968E-09
  -8.97999954       7.52906182E-09
  -8.97000027       7.68761410E-09
  -8.96000004       7.84084353E-09
  -8.94999981       7.98781485E-09
  -8.93999958       8.12758039E-09
  -8.93000031       8.25929369E-09
  -8.92000008       8.38207370E-09
  -8.90999985       8.49508996E-09
  -8.89999962       8.59761951E-09
  -8.89000034       8.68896688E-09
  -8.88000011       8.76849171E-09
  -8.86999989       8.83564955E-09
  -8.85999966       8.88993501E-09
  -8.85000038       8.93100349E-09
  -8.84000015       8.95856545E-09
  -8.82999992       8.97241748E-09
  -8.81999969       8.97249919E-09
  -8.81000042       8.95884789E-09
  -8.80000019       8.93159235E-09
  -8.78999996       8.89094753E-09
  -8.77999973       8.83722517E-09
  -8.77000046       8.77084805E-09
  -8.76000023       8.69237571E-09
  -8.75000000       8.60234550E-09
  -8.73999977       8.50144044E-09
  -8.72999954       8.39043501E-09
  -8.72000027       8.27008595E-09
  -8.71000004       8.14117662E-09
  -8.69999981       8.00457034E-09
  -8.68999958       7.86104248E-09
  -8.68000031       7.71141906E-09
  -8.67000008       7.55647012E-09
  -8.65999985       7.39701767E-09
  -8.64999962       7.23368920E-09
  -8.64000034       7.06728542E-09
  -8.63000011       6.89846980E-09
  -8.61999989       6.72792755E-09
  -8.60999966       6.55622401E-09
  -8.60000038       6.38395026E-09
  -8.59000015       6.21163654E-09
  -8.57999992       6.03979444E-09
  -8.56999969       5.86887206E-09
  -8.56000042       5.69930370E-09
  -8.55000019       5.53142021E-09
  -8.53999996       5.36566924E-09
  -8.52999973       5.20232479E-09
  -8.52000046       5.04178121E-09
  -8.51000023       4.88424234E-09
  -8.50000000       4.73006923E-09
  -8.48999977       4.57950922E-09
  -8.47999954       4.43277015E-09
  -8.47000027       4.29016245E-09
  -8.46000004       4.15189616E-09
  -8.44999981       4.01818756E-09
  -8.43999958       3.88925736E-09
  -8.43000031       3.76536802E-09
  -8.42000008       3.64673447E-09
  -8.40999985       3.53366780E-09
  -8.39999962       3.42635542E-09
  -8.39000034       3.32507688E-09
  -8.38000011       3.23010463E-09
  -8.36999989       3.14167692E-09
  -8.35999966       3.06014503E-09
  -8.35000038       2.98575231E-09
  -8.34000015       2.91883850E-09
  -8.32999992       2.85974244E-09
  -8.31999969       2.80879342E-09
  -8.31000042       2.76631829E-09
  -8.30000019       2.73259326E-09
  -8.28999996       2.70798961E-09
  -8.27999973       2.69279621E-09
  -8.27000046       2.68731659E-09
  -8.26000023       2.69187628E-09
  -8.25000000       2.70681322E-09
  -8.23999977       2.73238565E-09
  -8.22999954       2.76891954E-09
  -8.22000027       2.81678525E-09
  -8.21000004       2.87624924E-09
  -8.19999981       2.94772073E-09
  -8.18999958       3.03131320E-09
  -8.18000031       3.12749493E-09
  -8.17000008       3.23637428E-09
  -8.15999985       3.35822836E-09
  -8.14999962       3.49325391E-09
  -8.14000034       3.64164965E-09
  -8.13000011       3.80359433E-09
  -8.11999989       3.97922406E-09
  -8.10999966       4.16858903E-09
  -8.10000038       4.37175007E-09
  -8.09000015       4.58867211E-09
  -8.07999992       4.81918594E-09
  -8.06999969       5.06304954E-09
  -8.06000042       5.31996314E-09
  -8.05000019       5.58963409E-09
  -8.03999996       5.87153970E-09
  -8.02999973       6.16507689E-09
  -8.02000046       6.46961240E-09
  -8.01000023       6.78442369E-09
  -8.00000000       7.10871184E-09
  -7.98999977       7.44149631E-09
  -7.98000002       7.78197506E-09
  -7.96999979       8.12914625E-09
  -7.96000004       8.48200621E-09
  -7.94999981       8.83960283E-09
  -7.94000006       9.20085963E-09
  -7.92999983       9.56475699E-09
  -7.92000008       9.93039873E-09
  -7.90999985       1.02967510E-08
  -7.90000010       1.06629878E-08
  -7.88999987       1.10279847E-08
  -7.88000011       1.13909095E-08
  -7.86999989       1.17509886E-08
  -7.86000013       1.21073818E-08
  -7.84999990       1.24593997E-08
  -7.84000015       1.28061908E-08
  -7.82999992       1.31472451E-08
  -7.82000017       1.34819489E-08
  -7.80999994       1.38096601E-08
  -7.80000019       1.41299186E-08
  -7.78999996       1.44422732E-08
  -7.78000021       1.47464263E-08
  -7.76999998       1.50419783E-08
  -7.76000023       1.53284816E-08
  -7.75000000       1.56059308E-08
  -7.73999977       1.58738036E-08
  -7.73000002       1.61320610E-08
  -7.71999979       1.63806018E-08
  -7.71000004       1.66193228E-08
  -7.69999981       1.68481744E-08
  -7.69000006       1.70671228E-08
  -7.67999983       1.72761041E-08
  -7.67000008       1.74754380E-08
  -7.65999985       1.76651316E-08
  -7.65000010       1.78453536E-08
  -7.63999987       1.80163955E-08
  -7.63000011       1.81786408E-08
  -7.61999989       1.83323898E-08
  -7.61000013       1.84779640E-08
  -7.59999990       1.86159106E-08
  -7.59000015       1.87468565E-08
  -7.57999992       1.88712104E-08
  -7.57000017       1.89899332E-08
  -7.55999994       1.91036076E-08
  -7.55000019       1.92130187E-08
  -7.53999996       1.93190157E-08
  -7.53000021       1.94223837E-08
  -7.51999998       1.95241334E-08
  -7.51000023       1.96250127E-08
  -7.50000000       1.97260039E-08
  -7.48999977       1.98279668E-08
  -7.48000002       1.99318162E-08
  -7.46999979       2.00383425E-08
  -7.46000004       2.01484305E-08
  -7.44999981       2.02626804E-08
  -7.44000006       2.03819503E-08