  -16.0000000       0.00000000    
  -15.9899998       0.00000000    
  -15.9799995       0.00000000    
  -15.9700003       0.00000000    
  -15.9600000       0.00000000    
  -15.9499998       0.00000000    
  -15.9399996       0.00000000    
  -15.9300003       0.00000000    
  -15.9200001       0.00000000    
  -15.9099998       0.00000000    
  -15.8999996       0.00000000    
  -15.8900003       0.00000000    
  -15.8800001       0.00000000    
  -15.8699999       0.00000000    
  -15.8599997      -0.00000000    
  -15.8500004      -2.80259693E-45
  -15.8400002      -1.68155816E-44
  -15.8299999      -7.14662217E-44
  -15.8199997      -2.55036321E-43
  -15.8100004      -8.80015436E-43
  -15.8000002      -3.10387610E-42
  -15.7900000      -1.05027320E-41
  -15.7799997      -3.01867715E-41
  -15.7700005      -6.21854220E-41
  -15.7600002      -3.90738064E-41
  -15.7500000       3.64278746E-40
  -15.7399998       2.14010786E-39
  -15.7299995       7.50555776E-39
  -15.7200003       2.00140888E-38
  -15.7100000       4.27224961E-38
  -15.6999998       7.22988844E-38
  -15.6899996       8.84220732E-38
  -15.6800003       4.37220928E-38
  -15.6700001      -1.30053423E-37
  -15.6599998      -4.76217494E-37
  -15.6499996      -9.17057516E-37
  -15.6400003      -1.15169900E-36
  -15.6300001      -6.86893279E-37
  -15.6199999       7.93495367E-37
  -15.6099997       2.63224603E-36
  -15.6000004       2.36593762E-36
  -15.5900002      -3.94101916E-36
  -15.5799999      -1.84072184E-35
  -15.5699997      -3.42119280E-35
  -15.5600004      -2.76383776E-35
  -15.5500002       4.08489625E-35
  -15.5400000       2.00680051E-34
  -15.5299997       4.09083743E-34
  -15.5200005       4.68720888E-34
  -15.5100002      -4.51380001E-36
  -15.5000000      -1.43235557E-33
  -15.4899998      -3.80802754E-33
  -15.4799995      -5.92499111E-33
  -15.4700003      -4.68492869E-33
  -15.4600000       4.59763759E-33
  -15.4499998       2.56153003E-32
  -15.4399996       5.53796195E-32
  -15.4300003       7.65630445E-32
  -15.4200001       5.26994924E-32
  -15.4099998      -6.47417208E-32
  -15.3999996      -3.07060424E-31
  -15.3900003      -6.33054301E-31
  -15.3800001      -8.62942816E-31
  -15.3699999      -6.46703013E-31
  -15.3599997       4.59209407E-31
  -15.3500004       2.73200253E-30
  -15.3400002       5.82681792E-30
  -15.3299999       8.26044443E-30
  -15.3199997       7.18401661E-30
  -15.3100004      -1.02297734E-30
  -15.3000002      -1.88335079E-29
  -15.2900000      -4.42809301E-29
  -15.2799997      -6.72457278E-29
  -15.2700005      -6.76504499E-29
  -15.2600002      -1.90142339E-29
  -15.2500000       9.94027032E-29
  -15.2399998       2.81433976E-28
  -15.2299995       4.69368772E-28
  -15.2200003       5.39518892E-28
  -15.2100000       3.18395244E-28
  -15.1999998      -3.50801591E-28
  -15.1899996      -1.48635955E-27
  -15.1800003      -2.81797621E-27
  -15.1700001      -3.67984469E-27
  -15.1599998      -3.05709293E-27
  -15.1499996       1.01111960E-28
  -15.1400003       6.25477643E-27
  -15.1300001       1.44404301E-26
  -15.1199999       2.15634081E-26
  -15.1099997       2.23581238E-26
  -15.1000004       1.06205684E-26
  -15.0900002      -1.79328314E-26
  -15.0799999      -6.14950787E-26
  -15.0699997      -1.08032147E-25
  -15.0600004      -1.33601212E-25
  -15.0500002      -1.06077423E-25
  -15.0400000       3.48884752E-27
  -15.0299997       2.02223618E-25
  -15.0200005       4.54148259E-25
  -15.0100002       6.65926745E-25
  -15.0000000       6.92720602E-25
  -14.9899998       3.76060323E-25
  -14.9799995      -3.82781861E-25
  -14.9700003      -1.52673004E-24
  -14.9600000      -2.75800938E-24
  -14.9499998      -3.51623547E-24
  -14.9399996      -3.07488002E-24
  -14.9300003      -7.89018086E-25
  -14.9200001       3.52693991E-24
  -14.9099998       9.19198476E-24
  -14.8999996       1.44029341E-23
  -14.8900003       1.63549009E-23
  -14.8800001       1.19227396E-23
  -14.8699999      -1.06498825E-24
  -14.8599997      -2.21918784E-23
  -14.8500004      -4.70040846E-23
  -14.8400002      -6.65354633E-23
  -14.8299999      -6.86159735E-23
  -14.8199997      -4.14283936E-23
  -14.8100004       2.09759992E-23
  -14.8000002       1.12547984E-22
  -14.7900000       2.10875129E-22
  -14.7799997       2.77507963E-22
  -14.7700005       2.65447403E-22
  -14.7600002       1.34482685E-22
  -14.7500000      -1.27964182E-22
  -14.7399998      -4.86422236E-22
  -14.7299995      -8.46236412E-22
  -14.7200003      -1.06118771E-21
  -14.7100000      -9.66313361E-22
  -14.6999998      -4.35146480E-22
  -14.6899996       5.49790310E-22
  -14.6800003       1.83521308E-21
  -14.6700001       3.07292549E-21
  -14.6599998       3.76077221E-21
  -14.6499996       3.36308090E-21
  -14.6400003       1.50041799E-21
  -14.6300001      -1.83303466E-21
  -14.6199999      -6.09517243E-21
  -14.6099997      -1.01496313E-20
  -14.6000004      -1.24202930E-20
  -14.5900002      -1.12748070E-20
  -14.5799999      -5.59227893E-21
  -14.5699997       4.61570336E-21
  -14.5600004       1.77332288E-20
  -14.5500002       3.04452646E-20
  -14.5400000       3.82017178E-20
  -14.5299997       3.62933119E-20
  -14.5200005       2.13984354E-20
  -14.5100002      -6.75393374E-21
  -14.5000000      -4.41279951E-20
  -14.4899998      -8.20994594E-20
  -14.4799995      -1.08586778E-19
  -14.4700003      -1.10714080E-19
  -14.4600000      -7.86612509E-20
  -14.4499998      -9.86039680E-21
  -14.4399996       8.76826830E-20
  -14.4300003       1.94268795E-19
  -14.4200001       2.80634620E-19
  -14.4099998       3.13687956E-19
  -14.3999996       2.65211656E-19
  -14.3900003       1.21816834E-19
  -14.3800001      -1.06436360E-19
  -14.3699999      -3.81661936E-19
  -14.3599997      -6.40496340E-19
  -14.3500004      -8.04398973E-19
  -14.3400002      -7.97199658E-19
  -14.3299999      -5.66989348E-19
  -14.3199997      -1.07493717E-19
  -14.3100004       5.27033526E-19
  -14.3000002       1.21912381E-18
  -14.2900000       1.80153403E-18
  -14.2799997       2.08748147E-18
  -14.2700005       1.91413275E-18
  -14.2600002       1.19152193E-18
  -14.2500000      -5.42437839E-20
  -14.2399998      -1.65594424E-18
  -14.2299995      -3.30934780E-18
  -14.2200003      -4.61288270E-18
  -14.2100000      -5.14206819E-18
  -14.1999998      -4.54907606E-18
  -14.1899996      -2.66916522E-18
  -14.1800003       3.90503075E-19
  -14.1700001       4.20605501E-18
  -14.1599998       8.05818260E-18
  -14.1499996       1.10309357E-17
  -14.1400003       1.21831214E-17
  -14.1300001       1.07683638E-17
  -14.1199999       6.46201435E-18
  -14.1099997      -4.58588053E-19
  -14.1000004      -9.03533767E-18
  -14.0900002      -1.76946324E-17
  -14.0799999      -2.44735248E-17
  -14.0699997      -2.73882479E-17
  -14.0600004      -2.48876842E-17
  -14.0500002      -1.63019399E-17
  -14.0400000      -2.17915335E-18
  -14.0299997       1.55900285E-17
  -14.0200005       3.39290164E-17
  -14.0100002       4.90273853E-17
  -14.0000000       5.70360951E-17
  -13.9899998       5.48887210E-17
  -13.9799995       4.10856309E-17
  -13.9700003       1.62637737E-17
  -13.9600000      -1.65998010E-17
  -13.9499998      -5.24393896E-17
  -13.9399996      -8.48067585E-17
  -13.9300003      -1.06935593E-16
  -13.9200001      -1.12985937E-16
  -13.9099998      -9.92434822E-17
  -13.8999996      -6.50457644E-17
  -13.8900003      -1.32515277E-17
  -13.8800001       4.98515318E-17
  -13.8699999       1.15209451E-16
  -13.8599997       1.72153054E-16
  -13.8500004       2.09884719E-16
  -13.8400002       2.19109755E-16
  -13.8299999       1.93612263E-16
  -13.8199997       1.31585946E-16
  -13.8100004       3.65501764E-17
  -13.8000002      -8.22991108E-17
  -13.7900000      -2.10436720E-16
  -13.7799997      -3.29153933E-16
  -13.7700005      -4.17551218E-16
  -13.7600002      -4.55320284E-16
  -13.7500000      -4.26111783E-16
  -13.7399998      -3.21097220E-16
  -13.7299995      -1.42149744E-16
  -13.7200003       9.60521730E-17
  -13.7100000       3.65708778E-16
  -13.6999998       6.27905047E-16
  -13.6899996       8.37146485E-16
  -13.6800003       9.48124530E-16
  -13.6700001       9.23871223E-16
  -13.6599998       7.43961796E-16
  -13.6499996       4.11136902E-16
  -13.6400003      -4.52597894E-17
  -13.6300001      -5.70251432E-16
  -13.6199999      -1.08907854E-15
  -13.6099997      -1.51747054E-15
  -13.6000004      -1.77489698E-15
  -13.5900002      -1.79857303E-15
  -13.5799999      -1.55565976E-15
  -13.5699997      -1.05123237E-15
  -13.5600004      -3.30337185E-16
  -13.5500002       5.26463323E-16
  -13.5400000       1.41335251E-15
  -13.5299997       2.21349763E-15
  -13.5200005       2.81471547E-15
  -13.5100002       3.12389203E-15
  -13.5000000       3.07800232E-15
  -13.4899998       2.65056811E-15
  -13.4799995       1.85357808E-15
  -13.4700003       7.35904819E-16
  -13.4600000      -6.20215788E-16
  -13.4499998      -2.10324761E-15
  -13.4399996      -3.57631879E-15
  -13.4300003      -4.88169228E-15
  -13.4200001      -5.84738988E-15
  -13.4099998      -6.29831719E-15
  -13.3999996      -6.07382974E-15
  -13.3900003      -5.05234274E-15
  -13.3800001      -3.18120778E-15
  -13.3699999      -5.07451615E-16
  -13.3599997       2.79743346E-15
  -13.3500004       6.42663082E-15
  -13.3400002       9.94841975E-15
  -13.3299999       1.28424560E-14
  -13.3199997       1.45619905E-14
  -13.3100004       1.46163412E-14
  -13.3000002       1.26624819E-14
  -13.2900000       8.59042350E-15
  -13.2799997       2.58548104E-15
  -13.2700005      -4.84761445E-15
  -13.2600002      -1.29089202E-14
  -13.2500000      -2.05782233E-14
  -13.2399998      -2.67345790E-14
  -13.2299995      -3.03058258E-14
  -13.2200003      -3.04275546E-14
  -13.2100000      -2.65881846E-14
  -13.1999998      -1.87380781E-14
  -13.1899996      -7.34530116E-15
  -13.1800003       6.61188328E-15
  -13.1700001       2.17173742E-14
  -13.1599998       3.62477179E-14
  -13.1499996       4.83478071E-14
  -13.1400003       5.62341447E-14
  -13.1300001       5.84066216E-14
  -13.1199999       5.38486593E-14
  -13.1099997       4.21968911E-14
  -13.1000004       2.38619176E-14
  -13.0900002       8.36383493E-17
  -13.0799999      -2.70938972E-14
  -13.0699997      -5.49392346E-14
  -13.0600004      -8.02466343E-14
  -13.0500002      -9.96405378E-14
  -13.0400000      -1.09953374E-13
  -13.0299997      -1.08644220E-13
  -13.0200005      -9.42105755E-14
  -13.0100002      -6.65367352E-14
  -13.0000000      -2.71172939E-14
  -12.9899998       2.08969432E-14
  -12.9799995       7.28675068E-14
  -12.9700003       1.23059142E-13
  -12.9600000       1.65229457E-13
  -12.9499998       1.93358418E-13
  -12.9399996       2.02431415E-13
  -12.9300003       1.89172042E-13
  -12.9200001       1.52621093E-13
  -12.9099998       9.44700657E-14
  -12.8999996       1.90910638E-14
  -12.8900003      -6.67578921E-14
  -12.8800001      -1.54528856E-13
  -12.8699999      -2.34719823E-13
  -12.8599997      -2.97858580E-13
  -12.8500004      -3.35528480E-13
  -12.8400002      -3.41327118E-13
  -12.8299999      -3.11661612E-13
  -12.8199997      -2.46302409E-13
  -12.8100004      -1.48641611E-13
  -12.8000002      -2.56264177E-14
  -12.7900000       1.12640793E-13
  -12.7799997       2.53622562E-13
  -12.7700005       3.83352313E-13
  -12.7600002       4.87670668E-13
  -12.7500000       5.53608320E-13
  -12.7399998       5.70805935E-13
  -12.7299995       5.32833218E-13
  -12.7200003       4.38255470E-13
  -12.7100000       2.91288342E-13
  -12.6999998       1.01911819E-13
  -12.6899996      -1.14649392E-13
  -12.6800003      -3.39092822E-13
  -12.6700001      -5.49785965E-13
  -12.6599998      -7.24934815E-13
  -12.6499996      -8.44940003E-13
  -12.6400003      -8.94658100E-13
  -12.6300001      -8.65275408E-13
  -12.6199999      -7.55541625E-13
  -12.6099997      -5.72184227E-13
  -12.6000004      -3.29434803E-13
  -12.5900002      -4.77129797E-14
  -12.5799999       2.48375430E-13
  -12.5699997       5.32484159E-13
  -12.5600004       7.79134678E-13
  -12.5500002       9.66201403E-13
  -12.5400000       1.07702736E-12
  -12.5299997       1.10198536E-12
  -12.5200005       1.03937746E-12
  -12.5100002       8.95628190E-13
  -12.5000000       6.84790169E-13
  -12.4899998       4.27415238E-13
  -12.4799995       1.48855510E-13
  -12.4700003      -1.22911216E-13
  -12.4600000      -3.59837675E-13
  -12.4499998      -5.36607922E-13
  -12.4399996      -6.33523453E-13
  -12.4300003      -6.39243649E-13
  -12.4200001      -5.53129537E-13
  -12.4099998      -3.86901475E-13
  -12.3999996      -1.65339273E-13
  -12.3900003       7.41912025E-14
  -12.3800001       2.83486884E-13
  -12.3699999       4.06511657E-13
  -12.3599997       3.83449674E-13
  -12.3500004       1.55492210E-13
  -12.3400002      -3.30107686E-13
  -12.3299999      -1.11518336E-12
  -12.3199997      -2.22650674E-12
  -12.3100004      -3.67272402E-12
  -12.3000002      -5.44264590E-12
  -12.2900000      -7.50500443E-12
  -12.2799997      -9.80962273E-12
  -12.2700005      -1.22898159E-11
  -12.2600002      -1.48657944E-11
  -12.2500000      -1.74487161E-11
  -12.2399998      -1.99451688E-11
  -12.2299995      -2.22617098E-11
  -12.2200003      -2.43093306E-11
  -12.2100000      -2.60075208E-11
  -12.1999998      -2.72878439E-11
  -12.1899996      -2.80967506E-11
  -12.1800003      -2.83974563E-11
  -12.1700001      -2.81707244E-11
  -12.1599998      -2.74143937E-11
  -12.1499996      -2.61416409E-11
  -12.1400003      -2.43780465E-11
  -12.1300001      -2.21576542E-11
  -12.1199999      -1.95184788E-11
  -12.1099997      -1.64977962E-11
  -12.1000004      -1.31278816E-11
  -12.0900002      -9.43256671E-12
  -12.0799999      -5.42508660E-12
  -12.0699997      -1.10745419E-12
  -12.0600004       3.52865545E-12
  -12.0500002       8.49963589E-12
  -12.0400000       1.38265606E-11
  -12.0299997       1.95311180E-11
  -12.0200005       2.56312731E-11
  -12.0100002       3.21369667E-11
  -12.0000000       3.90462870E-11
  -11.9899998       4.63420170E-11
  -11.9799995       5.39889904E-11
  -11.9700003       6.19319873E-11
  -11.9600000       7.00944441E-11
  -11.9499998       7.83779361E-11
  -11.9399996       8.66626146E-11
  -11.9300003       9.48088275E-11
  -11.9200001       1.02659908E-10
  -11.9099998       1.10046208E-10
  -11.8999996       1.16790577E-10
  -11.8900003       1.22714533E-10
  -11.8800001       1.27645228E-10
  -11.8699999       1.31422401E-10
  -11.8599997       1.33904721E-10
  -11.8500004       1.34975073E-10
  -11.8400002       1.34544459E-10
  -11.8299999       1.32553982E-10
  -11.8199997       1.28975636E-10
  -11.8100004       1.23811086E-10
  -11.8000002       1.17089810E-10
  -11.7900000       1.08866124E-10
  -11.7799997       9.92160035E-11
  -11.7700005       8.82334344E-11
  -11.7600002       7.60267196E-11
  -11.7500000       6.27144586E-11
  -11.7399998       4.84213052E-11
  -11.7299995       3.32733806E-11
  -11.7200003       1.73935710E-11
  -11.7100000       8.96851007E-13
  -11.6999998      -1.61138342E-11
  -11.6899996      -3.35506796E-11
  -11.6800003      -5.13425968E-11
  -11.6700001      -6.94349370E-11
  -11.6599998      -8.77872011E-11
  -11.6499996      -1.06368782E-10
  -11.6400003      -1.25153221E-10
  -11.6300001      -1.44111736E-10
  -11.6199999      -1.63206573E-10
  -11.6099997      -1.82384982E-10
  -11.6000004      -2.01574327E-10
  -11.5900002      -2.20678947E-10
  -11.5799999      -2.39578690E-10
  -11.5699997      -2.58128657E-10
  -11.5600004      -2.76160761E-10
  -11.5500002      -2.93485791E-10
  -11.5400000      -3.09896275E-10
  -11.5299997      -3.25169836E-10
  -11.5200005      -3.39072742E-10
  -11.5100002      -3.51364188E-10
  -11.5000000      -3.61800756E-10
  -11.4899998      -3.70141640E-10
  -11.4799995      -3.76154413E-10
  -11.4700003      -3.79620918E-10
  -11.4600000      -3.80343562E-10
  -11.4499998      -3.78150705E-10
  -11.4399996      -3.72901043E-10
  -11.4300003      -3.64486580E-10
  -11.4200001      -3.52833845E-10
  -11.4099998      -3.37902956E-10
  -11.3999996      -3.19684612E-10
  -11.3900003      -2.98195746E-10
  -11.3800001      -2.73473716E-10
  -11.3699999      -2.45569953E-10
  -11.3599997      -2.14543147E-10
  -11.3500004      -1.80453069E-10
  -11.3400002      -1.43354384E-10
  -11.3299999      -1.03291660E-10
  -11.3199997      -6.02950884E-11
  -11.3100004      -1.43770655E-11
  -11.3000002       3.44698055E-11
  -11.2900000       8.62741475E-11
  -11.2799997       1.41085532E-10
  -11.2700005       1.98973671E-10
  -11.2600002       2.60025335E-10
  -11.2500000       3.24340832E-10
  -11.2399998       3.92029187E-10
  -11.2299995       4.63202254E-10
  -11.2200003       5.37968781E-10
  -11.2100000       6.16428131E-10
  -11.1999998       6.98665015E-10
  -11.1899996       7.84744658E-10
  -11.1800003       8.74709027E-10
  -11.1700001       9.68574998E-10
  -11.1599998       1.06633313E-09
  -11.1499996       1.16794829E-09
  -11.1400003       1.27335975E-09
  -11.1300001       1.38248490E-09
  -11.1199999       1.49522028E-09
  -11.1099997       1.61144620E-09
  -11.1000004       1.73103032E-09
  -11.0900002       1.85383131E-09
  -11.0799999       1.97970595E-09
  -11.0699997       2.10851159E-09
  -11.0600004       2.24011298E-09
  -11.0500002       2.37438691E-09
  -11.0400000       2.51122234E-09
  -11.0299997       2.65052713E-09
  -11.0200005       2.79222556E-09
  -11.0100002       2.93625591E-09
  -11.0000000       3.08256842E-09
  -10.9899998       3.23112292E-09
  -10.9799995       3.38188011E-09
  -10.9700003       3.53480289E-09
  -10.9600000       3.68984887E-09
  -10.9499998       3.84697163E-09
  -10.9399996       4.00611810E-09
  -10.9300003       4.16723012E-09
  -10.9200001       4.33024594E-09
  -10.9099998       4.49509940E-09
  -10.8999996       4.66172523E-09
  -10.8900003       4.83005280E-09
  -10.8800001       5.00001551E-09
  -10.8699999       5.17153742E-09
  -10.8599997       5.34454569E-09
  -10.8500004       5.51895951E-09
  -10.8400002       5.69469361E-09
  -10.8299999       5.87165871E-09
  -10.8199997       6.04976513E-09
  -10.8100004       6.22891738E-09
  -10.8000002       6.40902531E-09
  -10.7900000       6.59000055E-09
  -10.7799997       6.77176182E-09
  -10.7700005       6.95422608E-09
  -10.7600002       7.13732007E-09
  -10.7500000       7.32097938E-09
  -10.7399998       7.50513784E-09
  -10.7299995       7.68974040E-09
  -10.7200003       7.87474264E-09
  -10.7100000       8.06011258E-09
  -10.6999998       8.24583068E-09
  -10.6899996       8.43191472E-09
  -10.6800003       8.61840022E-09
  -10.6700001       8.80536710E-09
  -10.6599998       8.99293351E-09
  -10.6499996       9.18125664E-09
  -10.6400003       9.37053724E-09
  -10.6300001       9.56100532E-09
  -10.6199999       9.75293268E-09
  -10.6099997       9.94661331E-09
  -10.6000004       1.01423590E-08
  -10.5900002       1.03405009E-08
  -10.5799999       1.05413864E-08
  -10.5699997       1.07453646E-08
  -10.5600004       1.09527898E-08
  -10.5500002       1.11640226E-08
  -10.5400000       1.13794218E-08
  -10.5299997       1.15993268E-08
  -10.5200005       1.18240715E-08
  -10.5100002       1.20539463E-08
  -10.5000000       1.22892096E-08
  -10.4899998       1.25300659E-08
  -10.4799995       1.27766517E-08
  -10.4700003       1.30290374E-08
  -10.4600000       1.32872158E-08
  -10.4499998       1.35511078E-08
  -10.4399996       1.38205616E-08
  -10.4300003       1.40953560E-08
  -10.4200001       1.43752175E-08
  -10.4099998       1.46598182E-08
  -10.3999996       1.49487924E-08
  -10.3900003       1.52417510E-08
  -10.3800001       1.55382676E-08
  -10.3699999       1.58379052E-08
  -10.3599997       1.61402198E-08
  -10.3500004       1.64447549E-08
  -10.3400002       1.67510610E-08
  -10.3299999       1.70586940E-08
  -10.3199997       1.73672294E-08
  -10.3100004       1.76762569E-08
  -10.3000002       1.79854016E-08
  -10.2900000       1.82943261E-08
  -10.2799997       1.86027318E-08
  -10.2700005       1.89103631E-08
  -10.2600002       1.92170031E-08
  -10.2500000       1.95224867E-08
  -10.2399998       1.98266807E-08
  -10.2299995       2.01294803E-08
  -10.2200003       2.04308321E-08
  -10.2100000       2.07307078E-08
  -10.1999998       2.10291216E-08
  -10.1899996       2.13261035E-08
  -10.1800003       2.16217533E-08
  -10.1700001       2.19161969E-08
  -10.1599998       2.22096048E-08
  -10.1499996       2.25022063E-08
  -10.1400003       2.27942696E-08
  -10.1300001       2.30861019E-08
  -10.1199999       2.33780408E-08
  -10.1099997       2.36704416E-08
  -10.1000004       2.39636826E-08
  -10.0900002       2.42581368E-08
  -10.0799999       2.45541738E-08
  -10.0699997       2.48521328E-08
  -10.0600004       2.51523442E-08
  -10.0500002       2.54551225E-08
  -10.0400000       2.57607358E-08
  -10.0299997       2.60694435E-08
  -10.0200005       2.63814677E-08
  -10.0100002       2.66970197E-08
  -10.0000000       2.70162896E-08
  -9.98999977       2.73394356E-08
  -9.97999954       2.76666157E-08
  -9.97000027       2.79979631E-08
  -9.96000004       2.83336288E-08
  -9.94999981       2.86737620E-08
  -9.93999958       2.90185174E-08
  -9.93000031       2.93680991E-08
  -9.92000008       2.97227629E-08
  -9.90999985       3.00827985E-08
  -9.89999962       3.04485539E-08
  -9.89000034       3.08204733E-08
  -9.88000011       3.11990682E-08
  -9.86999989       3.15849178E-08
  -9.85999966       3.19786757E-08
  -9.85000038       3.23810667E-08
  -9.84000015       3.27928618E-08
  -9.82999992       3.32148851E-08
  -9.81999969       3.36479928E-08
  -9.81000042       3.40930555E-08
  -9.80000019       3.45509612E-08
  -9.78999996       3.50225591E-08
  -9.77999973       3.55087479E-08
  -9.77000046       3.60103485E-08
  -9.76000023       3.65281636E-08
  -9.75000000       3.70629643E-08
  -9.73999977       3.76154361E-08
  -9.72999954       3.81862080E-08
  -9.72000027       3.87758590E-08
  -9.71000004       3.93848296E-08
  -9.69999981       4.00134645E-08
  -9.68999958       4.06619947E-08
  -9.68000031       4.13305266E-08
  -9.67000008       4.20190176E-08
  -9.65999985       4.27272511E-08
  -9.64999962       4.34549001E-08
  -9.64000034       4.42014603E-08
  -9.63000011       4.49662636E-08
  -9.61999989       4.57485214E-08
  -9.60999966       4.65472709E-08
  -9.60000038       4.73614357E-08
  -9.59000015       4.81897686E-08
  -9.57999992       4.90309340E-08
  -9.56999969       4.98834467E-08
  -9.56000042       5.07457152E-08
  -9.55000019       5.16160839E-08
  -9.53999996       5.24927941E-08
  -9.52999973       5.33740554E-08
  -9.52000046       5.42580629E-08
  -9.51000023       5.51430048E-08
  -9.50000000       5.60270905E-08
  -9.48999977       5.69085827E-08
  -9.47999954       5.77858899E-08
  -9.47000027       5.86574487E-08
  -9.46000004       5.95218772E-08
  -9.44999981       6.03779569E-08
  -9.43999958       6.12246680E-08
  -9.43000031       6.20611900E-08
  -9.42000008       6.28869401E-08
  -9.40999985       6.37016342E-08
  -9.39999962       6.45052225E-08
  -9.39000034       6.52979679E-08
  -9.38000011       6.60804886E-08
  -9.36999989       6.68536515E-08
  -9.35999966       6.76186716E-08
  -9.35000038       6.83770836E-08
  -9.34000015       6.91307136E-08
  -9.32999992       6.98817573E-08
  -9.31999969       7.06326304E-08
  -9.31000042       7.13860615E-08
  -9.30000019       7.21450490E-08
  -9.28999996       7.29127834E-08
  -9.27999973       7.36927035E-08
  -9.27000046       7.44883977E-08
  -9.26000023       7.53036105E-08
  -9.25000000       7.61421362E-08
  -9.23999977       7.70078827E-08
  -9.22999954       7.79047653E-08
  -9.22000027       7.88366989E-08
  -9.21000004       7.98074709E-08
  -9.19999981       8.08208185E-08
  -9.18999958       8.18803301E-08
  -9.18000031       8.29894375E-08
  -9.17000008       8.41513241E-08
  -9.15999985       8.53688817E-08
  -9.14999962       8.66447678E-08
  -9.14000034       8.79812490E-08
  -9.13000011       8.93802721E-08
  -9.11999989       9.08434217E-08
  -9.10999966       9.23717920E-08
  -9.10000038       9.39660580E-08
  -9.09000015       9.56264898E-08
  -9.07999992       9.73528387E-08
  -9.06999969       9.91443940E-08
  -9.06000042       1.00999920E-07
  -9.05000019       1.02917781E-07
  -9.03999996       1.04895719E-07
  -9.02999973       1.06931189E-07
  -9.02000046       1.09020966E-07
  -9.01000023       1.11161590E-07
  -9.00000000       1.13349103E-07
  -8.98999977       1.15579169E-07
  -8.97999954       1.17847058E-07
  -8.97000027       1.20147746E-07
  -8.96000004       1.22475925E-07
  -8.94999981       1.24826002E-07
  -8.93999958       1.27192209E-07
  -8.93000031       1.29568591E-07
  -8.92000008       1.31949150E-07
  -8.90999985       1.34327763E-07
  -8.89999962       1.36698404E-07
  -8.89000034       1.39054990E-07
  -8.88000011       1.41391595E-07
  -8.86999989       1.43702451E-07
  -8.85999966       1.45981829E-07
  -8.85000038       1.48224515E-07
  -8.84000015       1.50425279E-07
  -8.82999992       1.52579318E-07
  -8.81999969       1.54682127E-07
  -8.81000042       1.56729683E-07
  -8.80000019       1.58718223E-07
  -8.78999996       1.60644490E-07
  -8.77999973       1.62505629E-07
  -8.77000046       1.64299209E-07
  -8.76000023       1.66023369E-07
  -8.75000000       1.67676518E-07
  -8.73999977       1.69257675E-07
  -8.72999954       1.70766185E-07
  -8.72000027       1.72201965E-07
  -8.71000004       1.73565155E-07
  -8.69999981       1.74856424E-07
  -8.68999958       1.76076753E-07
  -8.68000031       1.77227463E-07
  -8.67000008       1.78310202E-07
  -8.65999985       1.79326932E-07
  -8.64999962       1.80279812E-07
  -8.64000034       1.81171103E-07
  -8.63000011       1.82003475E-07
  -8.61999989       1.82779644E-07
  -8.60999966       1.83502365E-07
  -8.60000038       1.84174638E-07
  -8.59000015       1.84799461E-07
  -8.57999992       1.85379847E-07
  -8.56999969       1.85918850E-07
  -8.56000042       1.86419470E-07
  -8.55000019       1.86884876E-07
  -8.53999996       1.87317923E-07
  -8.52999973       1.87721582E-07
  -8.52000046       1.88098582E-07
  -8.51000023       1.88451821E-07
  -8.50000000       1.88783730E-07
  -8.48999977       1.89096781E-07
  -8.47999954       1.89393361E-07
  -8.47000027       1.89675703E-07
  -8.46000004       1.89945837E-07
  -8.44999981       1.90205725E-07
  -8.43999958       1.90457200E-07
  -8.43000031       1.90701925E-07
  -8.42000008       1.90941421E-07
  -8.40999985       1.91177236E-07
  -8.39999962       1.91410720E-07
  -8.39000034       1.91643025E-07
  -8.38000011       1.91875500E-07
  -8.36999989       1.92109255E-07
  -8.35999966       1.92345411E-07
  -8.35000038       1.92585190E-07
  -8.34000015       1.92829603E-07
  -8.32999992       1.93079927E-07
  -8.31999969       1.93337428E-07
  -8.31000042       1.93603469E-07
  -8.30000019       1.93879515E-07
  -8.28999996       1.94167200E-07
  -8.27999973       1.94468228E-07
  -8.27000046       1.94784604E-07
  -8.26000023       1.95118417E-07
  -8.25000000       1.95471983E-07
  -8.23999977       1.95847917E-07
  -8.22999954       1.96248990E-07
  -8.22000027       1.96678087E-07
  -8.21000004       1.97138505E-07
  -8.19999981       1.97633597E-07
  -8.18999958       1.98166973E-07
  -8.18000031       1.98742427E-07
  -8.17000008       1.99363953E-07
  -8.15999985       2.00035643E-07
  -8.14999962       2.00761718E-07
  -8.14000034       2.01546527E-07
  -8.13000011       2.02394432E-07
  -8.11999989       2.03310066E-07
  -8.10999966       2.04297791E-07
  -8.10000038       2.05362056E-07
  -8.09000015       2.06507337E-07
  -8.07999992       2.07737941E-07
  -8.06999969       2.09057944E-07
  -8.06000042       2.10471441E-07
  -8.05000019       2.11982112E-07
  -8.03999996       2.13593566E-07
  -8.02999973       2.15308916E-07
  -8.02000046       2.17131301E-07
  -8.01000023       2.19063196E-07
  -8.00000000       2.21107044E-07
  -7.98999977       2.23264607E-07
  -7.98000002       2.25537548E-07
  -7.96999979       2.27927032E-07
  -7.96000004       2.30433727E-07
  -7.94999981       2.33058273E-07
  -7.94000006       2.35800684E-07
  -7.92999983       2.38660448E-07
  -7.92000008       2.41637025E-07
  -7.90999985       2.44729307E-07
  -7.90000010       2.47935901E-07
  -7.88999987       2.51255244E-07
  -7.88000011       2.54685233E-07
  -7.86999989       2.58223508E-07
  -7.86000013       2.61867598E-07
  -7.84999990       2.65614631E-07
  -7.84000015       2.69461850E-07
  -7.82999992       2.73405874E-07
  -7.82000017       2.77443377E-07
  -7.80999994       2.81570891E-07
  -7.80000019       2.85785006E-07
  -7.78999996       2.90081999E-07
  -7.78000021       2.94458147E-07
  -7.76999998       2.98909896E-07
  -7.76000023       3.03433666E-07
  -7.75000000       3.08025818E-07
  -7.73999977       3.12682886E-07
  -7.73000002       3.17401344E-07
  -7.71999979       3.22177954E-07
  -7.71000004       3.27009587E-07
  -7.69999981       3.31893432E-07
  -7.69000006       3.36826560E-07
  -7.67999983       3.41806754E-07
  -7.67000008       3.46831456E-07
  -7.65999985       3.51898734E-07
  -7.65000010       3.57006826E-07
  -7.63999987       3.62154083E-07
  -7.63000011       3.67339339E-07
  -7.61999989       3.72561828E-07
  -7.61000013       3.77820783E-07
  -7.59999990       3.83115918E-07
  -7.59000015       3.88447262E-07
  -7.57999992       3.93814702E-07
  -7.57000017       3.99219147E-07
  -7.55999994       4.04661080E-07
  -7.55000019       4.10141553E-07
  -7.53999996       4.15661702E-07
  -7.53000021       4.21223064E-07
  -7.51999998       4.26826915E-07
  -7.51000023       4.32475304E-07
  -7.50000000       4.38170019E-07
  -7.48999977       4.43913166E-07
  -7.48000002       4.49707102E-07
  -7.46999979       4.55553987E-07
  -7.46000004       4.61456125E-07
  -7.44999981       4.67416356E-07
  -7.44000006       4.73436870E-07