  -16.0000000       0.00000000    
  -15.9899998       0.00000000    
  -15.9799995       0.00000000    
  -15.9700003       0.00000000    
  -15.9600000       0.00000000    
  -15.9499998       0.00000000    
  -15.9399996       0.00000000    
  -15.9300003       0.00000000    
  -15.9200001       0.00000000    
  -15.9099998       0.00000000    
  -15.8999996       0.00000000    
  -15.8900003       0.00000000    
  -15.8800001       0.00000000    
  -15.8699999      -0.00000000    
  -15.8599997      -0.00000000    
  -15.8500004      -5.60519386E-45
  -15.8400002      -8.40779079E-44
  -15.8299999      -8.85620629E-43
  -15.8199997      -7.29235721E-42
  -15.8100004      -4.87707918E-41
  -15.8000002      -2.73951047E-40
  -15.7900000      -1.32480298E-39
  -15.7799997      -5.61776911E-39
  -15.7700005      -2.11796678E-38
  -15.7600002      -7.17360221E-38
  -15.7500000      -2.19964331E-37
  -15.7399998      -6.13874195E-37
  -15.7299995      -1.56413248E-36
  -15.7200003      -3.64145033E-36
  -15.7100000      -7.72998384E-36
  -15.6999998      -1.48692932E-35
  -15.6899996      -2.55759590E-35
  -15.6800003      -3.82411300E-35
  -15.6700001      -4.63570059E-35
  -15.6599998      -3.50461472E-35
  -15.6499996       2.10811266E-35
  -15.6400003       1.54499849E-34
  -15.6300001       3.89782861E-34
  -15.6199999       7.12220777E-34
  -15.6099997       1.02249256E-33
  -15.6000004       1.09508484E-33
  -15.5900002       5.78267456E-34
  -15.5799999      -9.13166807E-34
  -15.5699997      -3.57377062E-33
  -15.5600004      -7.07016946E-33
  -15.5500002      -1.02095086E-32
  -15.5400000      -1.08391151E-32
  -15.5299997      -6.23852705E-33
  -15.5200005       5.85198042E-33
  -15.5100002       2.57089607E-32
  -15.5000000       5.00933332E-32
  -15.4899998       7.13538178E-32
  -15.4799995       7.76074771E-32
  -15.4700003       5.39986781E-32
  -15.4600000      -1.50175575E-32
  -15.4499998      -1.41301803E-31
  -15.4399996      -3.23266377E-31
  -15.4300003      -5.26331827E-31
  -15.4200001      -6.54063065E-31
  -15.4099998      -5.25933476E-31
  -15.3999996       9.81462257E-32
  -15.3900003       1.39015062E-30
  -15.3800001       3.19172934E-30
  -15.3699999       4.68735012E-30
  -15.3599997       4.25917188E-30
  -15.3500004      -6.49849424E-32
  -15.3400002      -9.20002290E-30
  -15.3299999      -2.07433293E-29
  -15.3199997      -2.70017966E-29
  -15.3100004      -1.56569092E-29
  -15.3000002       2.41460758E-29
  -15.2900000       8.92717821E-29
  -15.2799997       1.47627911E-28
  -15.2700005       1.32178630E-28
  -15.2600002      -3.89483822E-29
  -15.2500000      -4.02629546E-28
  -15.2399998      -8.57949212E-28
  -15.2299995      -1.08579895E-27
  -15.2200003      -5.69423625E-28
  -15.2100000       1.18089223E-27
  -15.1999998       4.15503092E-27
  -15.1899996       7.24289019E-27
  -15.1800003       7.87452434E-27
  -15.1700001       2.47966812E-27
  -15.1599998      -1.16912052E-26
  -15.1499996      -3.33617905E-26
  -15.1400003      -5.37086580E-26
  -15.1300001      -5.49791000E-26
  -15.1199999      -1.46059969E-26
  -15.1099997       8.25893487E-26
  -15.1000004       2.25024373E-25
  -15.0900002       3.55029513E-25
  -15.0799999       3.63901314E-25
  -15.0699997       1.19162592E-25
  -15.0600004      -4.64194304E-25
  -15.0500002      -1.31682628E-24
  -15.0400000      -2.11373248E-24
  -15.0299997      -2.25393594E-24
  -15.0200005      -1.00969877E-24
  -15.0100002       2.10158718E-24
  -15.0000000       6.77182419E-24
  -14.9899998       1.13900542E-23
  -14.9799995       1.29277768E-23
  -14.9700003       7.63845495E-24
  -14.9600000      -7.18381626E-24
  -14.9499998      -3.06106620E-23
  -14.9399996      -5.55836190E-23
  -14.9300003      -6.81446133E-23
  -14.9200001      -5.02607927E-23
  -14.9099998       1.26035999E-23
  -14.8999996       1.19983232E-22
  -14.8900003       2.44773265E-22
  -14.8800001       3.28228261E-22
  -14.8699999       2.89575263E-22
  -14.8599997       5.56510761E-23
  -14.8500004      -3.91593153E-22
  -14.8400002      -9.63658547E-22
  -14.8299999      -1.43632017E-21
  -14.8199997      -1.47499622E-21
  -14.8100004      -7.39269953E-22
  -14.8000002       9.35427677E-22
  -14.7900000       3.32456853E-21
  -14.7799997       5.66338456E-21
  -14.7700005       6.68095848E-21
  -14.7600002       4.92552491E-21
  -14.7500000      -5.97639053E-22
  -14.7399998      -9.60464289E-21
  -14.7299995      -1.98349542E-20
  -14.7200003      -2.69154539E-20
  -14.7100000      -2.52121096E-20
  -14.6999998      -9.85684170E-21
  -14.6899996       2.03406023E-20
  -14.6800003       6.00052843E-20
  -14.6700001       9.57773432E-20
  -14.6599998       1.07937525E-19
  -14.6499996       7.60919568E-20
  -14.6400003      -1.14504318E-20
  -14.6300001      -1.46963784E-19
  -14.6199999      -2.95587744E-19
  -14.6099997      -3.95954299E-19
  -14.6000004      -3.73548638E-19
  -14.5900002      -1.67657038E-19
  -14.5799999       2.33087141E-19
  -14.5699997       7.58183668E-19
  -14.5600004       1.24219925E-18
  -14.5500002       1.44738471E-18
  -14.5400000       1.13058136E-18
  -14.5299997       1.47635183E-19
  -14.5200005      -1.43153717E-18
  -14.5100002      -3.24229240E-18
  -14.5000000      -4.63140162E-18
  -14.4899998      -4.79042544E-18
  -14.4799995      -3.02155739E-18
  -14.4700003       9.13014560E-19
  -14.4600000       6.46586819E-18
  -14.4499998       1.21512303E-17
  -14.4399996       1.57084262E-17
  -14.4300003       1.46610220E-17
  -14.4200001       7.22314542E-18
  -14.4099998      -6.65947147E-18
  -14.3999996      -2.44949488E-17
  -14.3900003      -4.10848037E-17
  -14.3800001      -4.93673930E-17
  -14.3699999      -4.23641212E-17
  -14.3599997      -1.59330851E-17
  -14.3500004       2.84055080E-17
  -14.3400002       8.16381141E-17
  -14.3299999       1.27534654E-16
  -14.3199997       1.45783304E-16
  -14.3100004       1.17939293E-16
  -14.3000002       3.50590246E-17
  -14.2900000      -9.51784255E-17
  -14.2799997      -2.44706866E-16
  -14.2700005      -3.67334208E-16
  -14.2600002      -4.08468298E-16
  -14.2500000      -3.21540536E-16
  -14.2399998      -8.76488783E-17
  -14.2299995       2.67457906E-16
  -14.2200003       6.66056576E-16
  -14.2100000       9.86775066E-16
  -14.1999998       1.09108294E-15
  -14.1899996       8.64935094E-16
  -14.1800003       2.66272219E-16
  -14.1700001      -6.36000724E-16
  -14.1599998      -1.64766257E-15
  -14.1499996      -2.47230537E-15
  -14.1400003      -2.77612613E-15
  -14.1300001      -2.28585732E-15
  -14.1199999      -8.97597638E-16
  -14.1099997       1.23598539E-15
  -14.1000004       3.67515991E-15
  -14.0900002       5.74608771E-15
  -14.0799999       6.68454304E-15
  -14.0699997       5.85044894E-15
  -14.0600004       2.96498314E-15
  -14.0500002      -1.69844707E-15
  -14.0400000      -7.24203514E-15
  -14.0299997      -1.22448701E-14
  -14.0200005      -1.50524175E-14
  -14.0100002      -1.42143191E-14
  -14.0000000      -8.97472912E-15
  -13.9899998       3.20520602E-16
  -13.9799995       1.20435024E-14
  -13.9700003       2.34400817E-14
  -13.9600000       3.11562943E-14
  -13.9499998       3.20665769E-14
  -13.9399996       2.42298941E-14
  -13.9300003       7.72307023E-15
  -13.9200001      -1.49182085E-14
  -13.9099998      -3.88637453E-14
  -13.8999996      -5.78404918E-14
  -13.8900003      -6.55720392E-14
  -13.8800001      -5.75171624E-14
  -13.8699999      -3.24765070E-14
  -13.8599997       6.40988075E-15
  -13.8500004       5.16688776E-14
  -13.8400002       9.26891417E-14
  -13.8299999       1.17989480E-13
  -13.8199997       1.18125223E-13
  -13.8100004       8.85456801E-14
  -13.8000002       3.16149830E-14
  -13.7900000      -4.28871687E-14
  -13.7799997      -1.19156841E-13
  -13.7700005      -1.78558218E-13
  -13.7600002      -2.04019120E-13
  -13.7500000      -1.84618447E-13
  -13.7399998      -1.19164214E-13
  -13.7299995      -1.76783704E-14
  -13.7200003       9.98607189E-14
  -13.7100000       2.07497553E-13
  -13.6999998       2.79234562E-13
  -13.6899996       2.95536084E-13
  -13.6800003       2.48714650E-13
  -13.6700001       1.45650609E-13
  -13.6599998       6.89159431E-15
  -13.6499996      -1.37897709E-13
  -13.6400003      -2.57138251E-13
  -13.6300001      -3.25354544E-13
  -13.6199999      -3.29790123E-13
  -13.6099997      -2.73636880E-13
  -13.6000004      -1.74749063E-13
  -13.5900002      -5.99895703E-14
  -13.5799999       4.32803648E-14
  -13.5699997       1.16021328E-13
  -13.5600004       1.53751103E-13
  -13.5500002       1.67835350E-13
  -13.5400000       1.80838620E-13
  -13.5299997       2.16815877E-13
  -13.5200005       2.89286363E-13
  -13.5100002       3.90883289E-13
  -13.5000000       4.88821928E-13
  -13.4899998       5.29151267E-13
  -13.4799995       4.50398182E-13
  -13.4700003       2.04230228E-13
  -13.4600000      -2.22040404E-13
  -13.4499998      -7.88000904E-13
  -13.4399996      -1.39454084E-12
  -13.4300003      -1.89475345E-12
  -13.4200001      -2.12200960E-12
  -13.4099998      -1.93097578E-12
  -13.3999996      -1.24276392E-12
  -13.3900003      -8.25277008E-14
  -13.3800001       1.40226632E-12
  -13.3699999       2.95152509E-12
  -13.3599997       4.23276345E-12
  -13.3500004       4.90686138E-12
  -13.3400002       4.70686337E-12
  -13.3299999       3.51218382E-12
  -13.3199997       1.39929854E-12
  -13.3100004      -1.34653204E-12
  -13.3000002      -4.26614516E-12
  -13.2900000      -6.80497976E-12
  -13.2799997      -8.42126976E-12
  -13.2700005      -8.70150740E-12
  -13.2600002      -7.45716509E-12
  -13.2500000      -4.77924905E-12
  -13.2399998      -1.03586530E-12
  -13.2299995       3.18916009E-12
  -13.2200003       7.20460193E-12
  -13.2100000       1.03434527E-11
  -13.1999998       1.20881256E-11
  -13.1899996       1.21608661E-11
  -13.1800003       1.05597345E-11
  -13.1700001       7.53450427E-12
  -13.1599998       3.51258302E-12
  -13.1499996      -1.00189854E-12
  -13.1400003      -5.52606138E-12
  -13.1300001      -9.66560686E-12
  -13.1199999      -1.31343599E-11
  -13.1099997      -1.57252475E-11
  -13.1000004      -1.72494224E-11
  -13.0900002      -1.74736354E-11
  -13.0799999      -1.60902923E-11
  -13.0699997      -1.27478141E-11
  -13.0600004      -7.15140620E-12
  -13.0500002       7.79822116E-13
  -13.0400000       1.07376408E-11
  -13.0299997       2.18865603E-11
  -13.0200005       3.28213741E-11
  -13.0100002       4.16654107E-11
  -13.0000000       4.63251867E-11
  -12.9899998       4.48779035E-11
  -12.9799995       3.60275351E-11
  -12.9700003       1.95348893E-11
  -12.9600000      -3.48490919E-12
  -12.9499998      -3.04907870E-11
  -12.9399996      -5.77259560E-11
  -12.9300003      -8.07100567E-11
  -12.9200001      -9.49510817E-11
  -12.9099998      -9.67599126E-11
  -12.8999996      -8.40165923E-11
  -12.8900003      -5.67330558E-11
  -12.8800001      -1.72873625E-11
  -12.8699999       2.97390237E-11
  -12.8599997       7.81149728E-11
  -12.8500004       1.20823532E-10
  -12.8400002       1.51096524E-10
  -12.8299999       1.63448130E-10
  -12.8199997       1.54539978E-10
  -12.8100004       1.23743987E-10
  -12.8000002       7.33283156E-11
  -12.7900000       8.25714497E-12
  -12.7799997      -6.43444395E-11
  -12.7700005      -1.35968709E-10
  -12.7600002      -1.97638544E-10
  -12.7500000      -2.40855308E-10
  -12.7399998      -2.58503524E-10
  -12.7299995      -2.45660575E-10
  -12.7200003      -2.00277447E-10
  -12.7100000      -1.23698440E-10
  -12.6999998      -2.09741981E-11
  -12.6899996       9.91017685E-11
  -12.6800003       2.24318661E-10
  -12.6700001       3.39821976E-10
  -12.6599998       4.29385388E-10
  -12.6499996       4.77162254E-10
  -12.6400003       4.69798145E-10
  -12.6300001       3.98679117E-10
  -12.6199999       2.61994482E-10
  -12.6099997       6.62438854E-11
  -12.6000004      -1.73166231E-10
  -12.5900002      -4.32500924E-10
  -12.5799999      -6.81554146E-10
  -12.5699997      -8.86685725E-10
  -12.5600004      -1.01472464E-09
  -12.5500002      -1.03725140E-09
  -12.5400000      -9.34666788E-10
  -12.5299997      -6.99455549E-10
  -12.5200005      -3.38157558E-10
  -12.5100002       1.28254574E-10
  -12.5000000       6.65638988E-10
  -12.4899998       1.22939803E-09
  -12.4799995       1.76823511E-09
  -12.4700003       2.22843743E-09
  -12.4600000       2.55813837E-09
  -12.4499998       2.71108735E-09
  -12.4399996       2.64960787E-09
  -12.4300003       2.34659447E-09
  -12.4200001       1.78655357E-09
  -12.4099998       9.65836189E-10
  -12.3999996      -1.07784372E-10
  -12.3900003      -1.41602707E-09
  -12.3800001      -2.93140445E-09
  -12.3699999      -4.61887062E-09
  -12.3599997      -6.43784803E-09
  -12.3500004      -8.34456237E-09
  -12.3400002      -1.02946087E-08
  -12.3299999      -1.22455193E-08
  -12.3199997      -1.41590117E-08
  -12.3100004      -1.60024403E-08
  -12.3000002      -1.77490591E-08
  -12.2900000      -1.93768219E-08
  -12.2799997      -2.08656470E-08
  -12.2700005      -2.21934080E-08
  -12.2600002      -2.33312782E-08
  -12.2500000      -2.42391405E-08
  -12.2399998      -2.48622740E-08
  -12.2299995      -2.51299941E-08
  -12.2200003      -2.49571688E-08
  -12.2100000      -2.42486351E-08
  -12.1999998      -2.29064749E-08
  -12.1899996      -2.08392290E-08
  -12.1800003      -1.79720328E-08
  -12.1700001      -1.42560879E-08
  -12.1599998      -9.67630509E-09
  -12.1499996      -4.25587166E-09
  -12.1400003       1.94287586E-09
  -12.1300001       8.82130635E-09
  -12.1199999       1.62507998E-08
  -12.1099997       2.40813396E-08
  -12.1000004       3.21515117E-08
  -12.0900002       4.02983602E-08
  -12.0799999       4.83662745E-08
  -12.0699997       5.62138780E-08
  -12.0600004       6.37186943E-08
  -12.0500002       7.07794001E-08
  -12.0400000       7.73158035E-08
  -12.0299997       8.32673521E-08
  -12.0200005       8.85900349E-08
  -12.0100002       9.32526021E-08
  -12.0000000       9.72322098E-08
  -11.9899998       1.00510007E-07
  -11.9799995       1.03066384E-07
  -11.9700003       1.04876918E-07
  -11.9600000       1.05908427E-07
  -11.9499998       1.06116602E-07
  -11.9399996       1.05444265E-07
  -11.9300003       1.03821954E-07
  -11.9200001       1.01169952E-07
  -11.9099998       9.74025696E-08
  -11.8999996       9.24337655E-08
  -11.8900003       8.61840235E-08
  -11.8800001       7.85874832E-08
  -11.8699999       6.95986060E-08
  -11.8599997       5.91974612E-08
  -11.8500004       4.73936552E-08
  -11.8400002       3.42272131E-08
  -11.8299999       1.97684287E-08
  -11.8199997       4.11491463E-09
  -11.8100004      -1.26120066E-08
  -11.8000002      -3.02721475E-08
  -11.7900000      -4.87108451E-08
  -11.7799997      -6.77637075E-08
  -11.7700005      -8.72600125E-08
  -11.7600002      -1.07025613E-07
  -11.7500000      -1.26885112E-07
  -11.7399998      -1.46663282E-07
  -11.7299995      -1.66186098E-07
  -11.7200003      -1.85281053E-07
  -11.7100000      -2.03777972E-07
  -11.6999998      -2.21508870E-07
  -11.6899996      -2.38308488E-07
  -11.6800003      -2.54014225E-07
  -11.6700001      -2.68466891E-07
  -11.6599998      -2.81511291E-07
  -11.6499996      -2.92997669E-07
  -11.6400003      -3.02783178E-07
  -11.6300001      -3.10734691E-07
  -11.6199999      -3.16730791E-07
  -11.6099997      -3.20665038E-07
  -11.6000004      -3.22447676E-07
  -11.5900002      -3.22007082E-07
  -11.5799999      -3.19290194E-07
  -11.5699997      -3.14260575E-07
  -11.5600004      -3.06895743E-07
  -11.5500002      -2.97183902E-07
  -11.5400000      -2.85118972E-07
  -11.5299997      -2.70696376E-07
  -11.5200005      -2.53910002E-07
  -11.5100002      -2.34750246E-07
  -11.5000000      -2.13203606E-07
  -11.4899998      -1.89254820E-07
  -11.4799995      -1.62889549E-07
  -11.4700003      -1.34097917E-07
  -11.4600000      -1.02879355E-07
  -11.4499998      -6.92453099E-08
  -11.4399996      -3.32225234E-08
  -11.4300003       5.14627763E-09
  -11.4200001       4.58021638E-08
  -11.4099998       8.86707170E-08
  -11.3999996       1.33663505E-07
  -11.3900003       1.80678825E-07
  -11.3800001       2.29602819E-07
  -11.3699999       2.80310047E-07
  -11.3599997       3.32663205E-07
  -11.3500004       3.86513562E-07
  -11.3400002       4.41701616E-07
  -11.3299999       4.98058796E-07
  -11.3199997       5.55411305E-07
  -11.3100004       6.13583495E-07
  -11.3000002       6.72404553E-07
  -11.2900000       7.31712362E-07
  -11.2799997       7.91360208E-07
  -11.2700005       8.51218999E-07
  -11.2600002       9.11180166E-07
  -11.2500000       9.71154464E-07
  -11.2399998       1.03107016E-06
  -11.2299995       1.09086977E-06
  -11.2200003       1.15050511E-06
  -11.2100000       1.20993423E-06
  -11.1999998       1.26911607E-06
  -11.1899996       1.32801256E-06
  -11.1800003       1.38658277E-06
  -11.1700001       1.44478952E-06
  -11.1599998       1.50259541E-06
  -11.1499996       1.55996804E-06
  -11.1400003       1.61687831E-06
  -11.1300001       1.67330097E-06
  -11.1199999       1.72921636E-06
  -11.1099997       1.78460527E-06
  -11.1000004       1.83944906E-06
  -11.0900002       1.89372815E-06
  -11.0799999       1.94741619E-06
  -11.0699997       2.00048612E-06
  -11.0600004       2.05289984E-06
  -11.0500002       2.10461189E-06
  -11.0400000       2.15557043E-06
  -11.0299997       2.20571246E-06
  -11.0200005       2.25496228E-06
  -11.0100002       2.30323849E-06
  -11.0000000       2.35044718E-06
  -10.9899998       2.39648716E-06
  -10.9799995       2.44124999E-06
  -10.9700003       2.48462356E-06
  -10.9600000       2.52649443E-06
  -10.9499998       2.56675162E-06
  -10.9399996       2.60529578E-06
  -10.9300003       2.64203709E-06
  -10.9200001       2.67689984E-06
  -10.9099998       2.70982946E-06
  -10.8999996       2.74078775E-06
  -10.8900003       2.76976266E-06
  -10.8800001       2.79675714E-06
  -10.8699999       2.82179622E-06
  -10.8599997       2.84492103E-06
  -10.8500004       2.86618410E-06
  -10.8400002       2.88565252E-06
  -10.8299999       2.90339267E-06
  -10.8199997       2.91947890E-06
  -10.8100004       2.93398034E-06
  -10.8000002       2.94695428E-06
  -10.7900000       2.95844620E-06
  -10.7799997       2.96849294E-06
  -10.7700005       2.97710812E-06
  -10.7600002       2.98428836E-06
  -10.7500000       2.99001931E-06
  -10.7399998       2.99427393E-06
  -10.7299995       2.99702037E-06
  -10.7200003       2.99822227E-06
  -10.7100000       2.99785233E-06
  -10.6999998       2.99590329E-06
  -10.6899996       2.99238241E-06
  -10.6800003       2.98732357E-06
  -10.6700001       2.98079590E-06
  -10.6599998       2.97289535E-06
  -10.6499996       2.96376356E-06
  -10.6400003       2.95356426E-06
  -10.6300001       2.94250754E-06
  -10.6199999       2.93083212E-06
  -10.6099997       2.91880883E-06
  -10.6000004       2.90674143E-06
  -10.5900002       2.89495460E-06
  -10.5799999       2.88381034E-06
  -10.5699997       2.87367016E-06
  -10.5600004       2.86492264E-06
  -10.5500002       2.85794590E-06
  -10.5400000       2.85312240E-06
  -10.5299997       2.85081637E-06
  -10.5200005       2.85136775E-06
  -10.5100002       2.85508168E-06
  -10.5000000       2.86221689E-06
  -10.4899998       2.87298235E-06
  -10.4799995       2.88753927E-06
  -10.4700003       2.90598200E-06
  -10.4600000       2.92834898E-06
  -10.4499998       2.95463019E-06
  -10.4399996       2.98475334E-06
  -10.4300003       3.01860860E-06
  -10.4200001       3.05604772E-06
  -10.4099998       3.09688357E-06
  -10.3999996       3.14091358E-06
  -10.3900003       3.18791058E-06
  -10.3800001       3.23765539E-06
  -10.3699999       3.28991746E-06
  -10.3599997       3.34447395E-06
  -10.3500004       3.40112410E-06
  -10.3400002       3.45968306E-06
  -10.3299999       3.52000302E-06
  -10.3199997       3.58194711E-06
  -10.3100004       3.64543439E-06
  -10.3000002       3.71039641E-06
  -10.2900000       3.77680431E-06
  -10.2799997       3.84466375E-06
  -10.2700005       3.91399999E-06
  -10.2600002       3.98485190E-06
  -10.2500000       4.05728451E-06
  -10.2399998       4.13137150E-06
  -10.2299995       4.20718652E-06
  -10.2200003       4.28480234E-06
  -10.2100000       4.36430219E-06
  -10.1999998       4.44575790E-06
  -10.1899996       4.52923132E-06
  -10.1800003       4.61478248E-06
  -10.1700001       4.70247369E-06
  -10.1599998       4.79233813E-06
  -10.1499996       4.88441401E-06
  -10.1400003       4.97871861E-06
  -10.1300001       5.07523555E-06
  -10.1199999       5.17396074E-06
  -10.1099997       5.27484463E-06
  -10.1000004       5.37782489E-06
  -10.0900002       5.48280968E-06
  -10.0799999       5.58969668E-06
  -10.0699997       5.69837403E-06
  -10.0600004       5.80871210E-06
  -10.0500002       5.92058177E-06
  -10.0400000       6.03386707E-06
  -10.0299997       6.14845976E-06
  -10.0200005       6.26426481E-06
  -10.0100002       6.38121810E-06
  -10.0000000       6.49926642E-06
  -9.98999977       6.61839476E-06
  -9.97999954       6.73860950E-06
  -9.97000027       6.85991836E-06
  -9.96000004       6.98235681E-06
  -9.94999981       7.10600398E-06
  -9.93999958       7.23091125E-06
  -9.93000031       7.35716912E-06
  -9.92000008       7.48486445E-06
  -9.90999985       7.61410774E-06
  -9.89999962       7.74500222E-06
  -9.89000034       7.87767294E-06
  -9.88000011       8.01226633E-06
  -9.86999989       8.14891791E-06
  -9.85999966       8.28779503E-06
  -9.85000038       8.42906320E-06
  -9.84000015       8.57290161E-06
  -9.82999992       8.71949851E-06
  -9.81999969       8.86904672E-06
  -9.81000042       9.02175088E-06
  -9.80000019       9.17780926E-06
  -9.78999996       9.33741831E-06
  -9.77999973       9.50077447E-06
  -9.77000046       9.66806056E-06
  -9.76000023       9.83944301E-06
  -9.75000000       1.00150774E-05
  -9.73999977       1.01950836E-05
  -9.72999954       1.03795583E-05
  -9.72000027       1.05685513E-05
  -9.71000004       1.07620699E-05
  -9.69999981       1.09600524E-05
  -9.68999958       1.11623995E-05
  -9.68000031       1.13689503E-05
  -9.67000008       1.15794828E-05
  -9.65999985       1.17937125E-05
  -9.64999962       1.20112800E-05
  -9.64000034       1.22317751E-05
  -9.63000011       1.24547332E-05
  -9.61999989       1.26796040E-05
  -9.60999966       1.29058162E-05
  -9.60000038       1.31327124E-05
  -9.59000015       1.33596232E-05
  -9.57999992       1.35858409E-05
  -9.56999969       1.38106261E-05
  -9.56000042       1.40332631E-05
  -9.55000019       1.42530171E-05
  -9.53999996       1.44691976E-05
  -9.52999973       1.46811399E-05
  -9.52000046       1.48882264E-05
  -9.51000023       1.50898504E-05
  -9.50000000       1.52854900E-05
  -9.48999977       1.54746867E-05
  -9.47999954       1.56570095E-05
  -9.47000027       1.58321436E-05
  -9.46000004       1.59998235E-05
  -9.44999981       1.61598855E-05
  -9.43999958       1.63122731E-05
  -9.43000031       1.64570374E-05
  -9.42000008       1.65943693E-05
  -9.40999985       1.67245526E-05
  -9.39999962       1.68480383E-05
  -9.39000034       1.69653886E-05
  -9.38000011       1.70773710E-05
  -9.36999989       1.71848351E-05
  -9.35999966       1.72887721E-05
  -9.35000038       1.73903736E-05
  -9.34000015       1.74908710E-05
  -9.32999992       1.75917066E-05
  -9.31999969       1.76943995E-05
  -9.31000042       1.78005466E-05
  -9.30000019       1.79118397E-05
  -9.28999996       1.80300340E-05
  -9.27999973       1.81569249E-05
  -9.27000046       1.82942949E-05
  -9.26000023       1.84439705E-05
  -9.25000000       1.86076504E-05
  -9.23999977       1.87870428E-05
  -9.22999954       1.89837647E-05
  -9.22000027       1.91992567E-05
  -9.21000004       1.94348904E-05
  -9.19999981       1.96918227E-05
  -9.18999958       1.99710703E-05
  -9.18000031       2.02734427E-05
  -9.17000008       2.05995675E-05
  -9.15999985       2.09498212E-05
  -9.14999962       2.13244002E-05
  -9.14000034       2.17232664E-05
  -9.13000011       2.21461542E-05
  -9.11999989       2.25926378E-05
  -9.10999966       2.30619917E-05
  -9.10000038       2.35533244E-05
  -9.09000015       2.40655627E-05
  -9.07999992       2.45973861E-05
  -9.06999969       2.51473011E-05
  -9.06000042       2.57136689E-05
  -9.05000019       2.62946269E-05
  -9.03999996       2.68882068E-05
  -9.02999973       2.74922841E-05
  -9.02000046       2.81046359E-05
  -9.01000023       2.87229104E-05
  -9.00000000       2.93447065E-05
  -8.98999977       2.99675794E-05
  -8.97999954       3.05890135E-05
  -8.97000027       3.12065131E-05
  -8.96000004       3.18176280E-05
  -8.94999981       3.24198299E-05
  -8.93999958       3.30107468E-05
  -8.93000031       3.35881159E-05
  -8.92000008       3.41496379E-05
  -8.90999985       3.46932029E-05
  -8.89999962       3.52167772E-05
  -8.89000034       3.57185745E-05
  -8.88000011       3.61968414E-05
  -8.86999989       3.66500317E-05
  -8.85999966       3.70767921E-05
  -8.85000038       3.74759547E-05
  -8.84000015       3.78465193E-05
  -8.82999992       3.81877653E-05
  -8.81999969       3.84991690E-05
  -8.81000042       3.87804575E-05
  -8.80000019       3.90314490E-05
  -8.78999996       3.92523143E-05
  -8.77999973       3.94434355E-05
  -8.77000046       3.96053438E-05
  -8.76000023       3.97388394E-05
  -8.75000000       3.98448792E-05
  -8.73999977       3.99246419E-05
  -8.72999954       3.99794044E-05
  -8.72000027       4.00106946E-05
  -8.71000004       4.00201461E-05
  -8.69999981       4.00095123E-05
  -8.68999958       3.99807141E-05
  -8.68000031       3.99356686E-05
  -8.67000008       3.98763586E-05
  -8.65999985       3.98047778E-05
  -8.64999962       3.97229596E-05
  -8.64000034       3.96327850E-05
  -8.63000011       3.95363168E-05
  -8.61999989       3.94353810E-05
  -8.60999966       3.93317714E-05
  -8.60000038       3.92271322E-05
  -8.59000015       3.91231333E-05
  -8.57999992       3.90211644E-05
  -8.56999969       3.89225715E-05
  -8.56000042       3.88284607E-05
  -8.55000019       3.87398613E-05
  -8.53999996       3.86576539E-05
  -8.52999973       3.85825333E-05
  -8.52000046       3.85151543E-05
  -8.51000023       3.84559607E-05
  -8.50000000       3.84053019E-05
  -8.48999977       3.83633815E-05
  -8.47999954       3.83303122E-05
  -8.47000027       3.83061597E-05
  -8.46000004       3.82908911E-05
  -8.44999981       3.82844082E-05
  -8.43999958       3.82866165E-05
  -8.43000031       3.82973158E-05
  -8.42000008       3.83163970E-05
  -8.40999985       3.83437728E-05
  -8.39999962       3.83793922E-05
  -8.39000034       3.84231898E-05
  -8.38000011       3.84752166E-05
  -8.36999989       3.85355088E-05
  -8.35999966       3.86042557E-05
  -8.35000038       3.86816682E-05
  -8.34000015       3.87681612E-05
  -8.32999992       3.88641347E-05
  -8.31999969       3.89701090E-05
  -8.31000042       3.90866371E-05
  -8.30000019       3.92144429E-05
  -8.28999996       3.93544324E-05
  -8.27999973       3.95074530E-05
  -8.27000046       3.96745054E-05
  -8.26000023       3.98566153E-05
  -8.25000000       4.00549288E-05
  -8.23999977       4.02706828E-05
  -8.22999954       4.05050487E-05
  -8.22000027       4.07592743E-05
  -8.21000004       4.10347347E-05
  -8.19999981       4.13326452E-05
  -8.18999958       4.16544244E-05
  -8.18000031       4.20012802E-05
  -8.17000008       4.23745732E-05
  -8.15999985       4.27754057E-05
  -8.14999962       4.32049019E-05
  -8.14000034       4.36641130E-05
  -8.13000011       4.41540469E-05
  -8.11999989       4.46754093E-05
  -8.10999966       4.52290406E-05
  -8.10000038       4.58152681E-05
  -8.09000015       4.64346667E-05
  -8.07999992       4.70873601E-05
  -8.06999969       4.77735739E-05
  -8.06000042       4.84931406E-05
  -8.05000019       4.92458530E-05
  -8.03999996       5.00314454E-05
  -8.02999973       5.08493140E-05
  -8.02000046       5.16987493E-05
  -8.01000023       5.25791293E-05
  -8.00000000       5.34892533E-05
  -7.98999977       5.44281284E-05
  -7.98000002       5.53946629E-05
  -7.96999979       5.63872600E-05
  -7.96000004       5.74047226E-05
  -7.94999981       5.84454829E-05
  -7.94000006       5.95079800E-05
  -7.92999983       6.05906826E-05
  -7.92000008       6.16918915E-05
  -7.90999985       6.28101698E-05
  -7.90000010       6.39435166E-05
  -7.88999987       6.50905276E-05
  -7.88000011       6.62492603E-05
  -7.86999989       6.74182666E-05
  -7.86000013       6.85958148E-05
  -7.84999990       6.97803625E-05
  -7.84000015       7.09703236E-05
  -7.82999992       7.21640390E-05
  -7.82000017       7.33600755E-05
  -7.80999994       7.45568759E-05
  -7.80000019       7.57531016E-05
  -7.78999996       7.69473336E-05
  -7.78000021       7.81383496E-05
  -7.76999998       7.93249419E-05
  -7.76000023       8.05060845E-05
  -7.75000000       8.16808606E-05
  -7.73999977       8.28482807E-05
  -7.73000002       8.40077701E-05
  -7.71999979       8.51583391E-05
  -7.71000004       8.62997622E-05
  -7.69999981       8.74315156E-05
  -7.69000006       8.85534464E-05
  -7.67999983       8.96652346E-05
  -7.67000008       9.07671783E-05
  -7.65999985       9.18593942E-05
  -7.65000010       9.29422240E-05
  -7.63999987       9.40163009E-05
  -7.63000011       9.50821704E-05
  -7.61999989       9.61405240E-05
  -7.61000013       9.71923509E-05
  -7.59999990       9.82387137E-05
  -7.59000015       9.92806526E-05
  -7.57999992       1.00319354E-04
  -7.57000017       1.01356003E-04
  -7.55999994       1.02392063E-04
  -7.55000019       1.03429251E-04
  -7.53999996       1.04468636E-04
  -7.53000021       1.05511965E-04
  -7.51999998       1.06560808E-04
  -7.51000023       1.07616514E-04
  -7.50000000       1.08681066E-04
  -7.48999977       1.09755681E-04
  -7.48000002       1.10841967E-04
  -7.46999979       1.11941386E-04
  -7.46000004       1.13055721E-04
  -7.44999981       1.14186107E-04
  -7.44000006       1.15333998E-04