  -16.0000000       0.00000000    
  -15.9899998       0.00000000    
  -15.9799995       0.00000000    
  -15.9700003       0.00000000    
  -15.9600000       0.00000000    
  -15.9499998       0.00000000    
  -15.9399996       0.00000000    
  -15.9300003       0.00000000    
  -15.9200001       0.00000000    
  -15.9099998       0.00000000    
  -15.8999996       0.00000000    
  -15.8900003       0.00000000    
  -15.8800001       0.00000000    
  -15.8699999       0.00000000    
  -15.8599997       0.00000000    
  -15.8500004       1.12103877E-44
  -15.8400002       1.58346726E-43
  -15.8299999       1.59047376E-42
  -15.8199997       1.24687537E-41
  -15.8100004       7.96357917E-41
  -15.8000002       4.27817822E-40
  -15.7900000       1.98084468E-39
  -15.7799997       8.05066287E-39
  -15.7700005       2.91224713E-38
  -15.7600002       9.47484369E-38
  -15.7500000       2.79369992E-37
  -15.7399998       7.50437568E-37
  -15.7299995       1.84176662E-36
  -15.7200003       4.13158678E-36
  -15.7100000       8.44866619E-36
  -15.6999998       1.56340863E-35
  -15.6899996       2.57768434E-35
  -15.6800003       3.66149759E-35
  -15.6700001       4.10442449E-35
  -15.6599998       2.44569205E-35
  -15.6499996      -3.59244447E-35
  -15.6400003      -1.65780910E-34
  -15.6300001      -3.77700340E-34
  -15.6199999      -6.41959506E-34
  -15.6099997      -8.49622338E-34
  -15.6000004      -7.87926700E-34
  -15.5900002      -1.64273992E-34
  -15.5799999       1.27893776E-33
  -15.5699997       3.53948990E-33
  -15.5600004       6.06858840E-33
  -15.5500002       7.57463948E-33
  -15.5400000       6.16305884E-33
  -15.5299997       4.58617370E-35
  -15.5200005      -1.11642267E-32
  -15.5100002      -2.50129564E-32
  -15.5000000      -3.55851351E-32
  -15.4899998      -3.48935212E-32
  -15.4799995      -1.68659797E-32
  -15.4700003       1.71641997E-32
  -15.4600000       5.48708949E-32
  -15.4499998       7.60717819E-32
  -15.4399996       6.56847553E-32
  -15.4300003       3.31356958E-32
  -15.4200001       2.49127514E-32
  -15.4099998       1.09458743E-31
  -15.3999996       3.18394000E-31
  -15.3900003       5.53882453E-31
  -15.3800001       5.17010298E-31
  -15.3699999      -2.45167614E-31
  -15.3599997      -2.07782883E-30
  -15.3500004      -4.73751871E-30
  -15.3400002      -6.88253334E-30
  -15.3299999      -5.95777476E-30
  -15.3199997       9.93989277E-31
  -15.3100004       1.52952586E-29
  -15.3000002       3.37881629E-29
  -15.2900000       4.66749935E-29
  -15.2799997       3.84486605E-29
  -15.2700005      -5.82874234E-30
  -15.2600002      -8.86959652E-29
  -15.2500000      -1.86791504E-28
  -15.2399998      -2.44329371E-28
  -15.2299995      -1.84608342E-28
  -15.2200003       5.31839475E-29
  -15.2100000       4.57025294E-28
  -15.1999998       8.89156981E-28
  -15.1899996       1.07850787E-27
  -15.1800003       7.00862181E-28
  -15.1700001      -4.39289983E-28
  -15.1599998      -2.17230338E-27
  -15.1499996      -3.79490898E-27
  -15.1400003      -4.13981877E-27
  -15.1300001      -2.01796783E-27
  -15.1199999       2.98875034E-27
  -15.1099997       9.66619540E-27
  -15.1000004       1.47789562E-26
  -15.0900002       1.37723281E-26
  -15.0799999       2.89378331E-27
  -15.0699997      -1.76678234E-26
  -15.0600004      -4.10172388E-26
  -15.0500002      -5.33205692E-26
  -15.0400000      -3.81229204E-26
  -15.0299997       1.43739809E-26
  -15.0200005       9.57101147E-26
  -15.0100002       1.71358128E-25
  -15.0000000       1.84731502E-25
  -14.9899998       7.89946205E-26
  -14.9799995      -1.64785105E-25
  -14.9700003      -4.86403647E-25
  -14.9600000      -7.27028459E-25
  -14.9499998      -6.60004963E-25
  -14.9399996      -8.85943921E-26
  -14.9300003       1.00358411E-24
  -14.9200001       2.30705291E-24
  -14.9099998       3.14103606E-24
  -14.8999996       2.60767971E-24
  -14.8900003      -8.02732762E-27
  -14.8800001      -4.66448168E-24
  -14.8699999      -1.00415832E-23
  -14.8599997      -1.34188711E-23
  -14.8500004      -1.12994188E-23
  -14.8400002      -9.19639154E-25
  -14.8299999       1.76354241E-23
  -14.8199997       3.95223605E-23
  -14.8100004       5.46547258E-23
  -14.8000002       4.98438860E-23
  -14.7900000       1.40663287E-23
  -14.7799997      -5.40499535E-23
  -14.7700005      -1.39204150E-22
  -14.7600002      -2.06950123E-22
  -14.7500000      -2.09904641E-22
  -14.7399998      -1.04652194E-22
  -14.7299995       1.23064927E-22
  -14.7200003       4.33025466E-22
  -14.7100000       7.18060778E-22
  -14.6999998       8.18340473E-22
  -14.6899996       5.70686415E-22
  -14.6800003      -1.11769246E-22
  -14.6700001      -1.15203187E-21
  -14.6599998      -2.25260325E-21
  -14.6499996      -2.91467530E-21
  -14.6400003      -2.56558367E-21
  -14.6300001      -7.92081427E-22
  -14.6199999       2.37493591E-21
  -14.6099997       6.23172792E-21
  -14.6000004       9.36609822E-21
  -14.5900002       9.93242533E-21
  -14.5799999       6.27085703E-21
  -14.5699997      -2.23720549E-21
  -14.5600004      -1.43469986E-20
  -14.5500002      -2.65497156E-20
  -14.5400000      -3.34820417E-20
  -14.5299997      -2.93619197E-20
  -14.5200005      -1.03159471E-20
  -14.5100002       2.29913203E-20
  -14.5000000       6.34250428E-20
  -14.4899998       9.73060958E-20
  -14.4799995       1.07093019E-19
  -14.4700003       7.69519338E-20
  -14.4600000       1.84197873E-22
  -14.4499998      -1.13756838E-19
  -14.4399996      -2.35757926E-19
  -14.4300003      -3.20038790E-19
  -14.4200001      -3.15260607E-19
  -14.4099998      -1.82740043E-19
  -14.3999996       8.25424082E-20
  -14.3900003       4.35365216E-19
  -14.3800001       7.76554574E-19
  -14.3699999       9.68902294E-19
  -14.3599997       8.74462773E-19
  -14.3500004       4.07342068E-19
  -14.3400002      -4.12250842E-19
  -14.3299999      -1.42288683E-18
  -14.3199997      -2.32642748E-18
  -14.3100004      -2.74560353E-18
  -14.3000002      -2.33311172E-18
  -14.2900000      -9.10816017E-19
  -14.2799997       1.40130507E-18
  -14.2700005       4.11743295E-18
  -14.2600002       6.42594308E-18
  -14.2500000       7.36063194E-18
  -14.2399998       6.08725728E-18
  -14.2299995       2.24285391E-18
  -14.2200003      -3.77423075E-18
  -14.2100000      -1.06814883E-17
  -14.1999998      -1.64536812E-17
  -14.1899996      -1.87644516E-17
  -14.1800003      -1.56715819E-17
  -14.1700001      -6.38879398E-18
  -14.1599998       8.08901410E-18
  -14.1499996       2.47592975E-17
  -14.1400003       3.89753376E-17
  -14.1300001       4.54495380E-17
  -14.1199999       3.97508757E-17
  -14.1099997       1.99509942E-17
  -14.1000004      -1.20642770E-17
  -14.0900002      -5.01181652E-17
  -14.0799999      -8.44630815E-17
  -14.0699997      -1.03774811E-16
  -14.0600004      -9.81246906E-17
  -14.0500002      -6.22690051E-17
  -14.0400000       1.64554658E-18
  -14.0299997       8.28819026E-17
  -14.0200005       1.63090702E-16
  -14.0100002       2.19648230E-16
  -14.0000000       2.30906899E-16
  -13.9899998       1.82299066E-16
  -13.9799995       7.18188979E-17
  -13.9700003      -8.66775631E-17
  -13.9600000      -2.63600862E-16
  -13.9499998      -4.17760488E-16
  -13.9399996      -5.04182439E-16
  -13.9300003      -4.84373726E-16
  -13.9200001      -3.37057677E-16
  -13.9099998      -6.70211775E-17
  -13.8999996       2.90220725E-16
  -13.8900003       6.69728305E-16
  -13.8800001       9.85287782E-16
  -13.8699999       1.14412647E-15
  -13.8599997       1.06658420E-15
  -13.8500004       7.07817683E-16
  -13.8400002       7.74567823E-17
  -13.8299999      -7.47617378E-16
  -13.8199997      -1.62226884E-15
  -13.8100004      -2.34778898E-15
  -13.8000002      -2.70390154E-15
  -13.7900000      -2.49609450E-15
  -13.7799997      -1.61168368E-15
  -13.7700005      -7.32712616E-17
  -13.7600002       1.92520234E-15
  -13.7500000       4.01529489E-15
  -13.7399998       5.69571720E-15
  -13.7299995       6.42238677E-15
  -13.7200003       5.73809172E-15
  -13.7100000       3.41874843E-15
  -13.6999998      -3.98980708E-16
  -13.6899996      -5.14986842E-15
  -13.6800003      -9.86889861E-15
  -13.6700001      -1.33370360E-14
  -13.6599998      -1.43368153E-14
  -13.6499996      -1.19773186E-14
  -13.6400003      -6.01693200E-15
  -13.6300001       2.90647434E-15
  -13.6199999       1.32259290E-14
  -13.6099997       2.26357375E-14
  -13.6000004       2.85282594E-14
  -13.5900002       2.86155580E-14
  -13.5799999       2.16074632E-14
  -13.5699997       7.77208125E-15
  -13.5600004      -1.08017555E-14
  -13.5500002      -3.03766649E-14
  -13.5400000      -4.62178513E-14
  -13.5299997      -5.36428845E-14
  -13.5200005      -4.92620539E-14
  -13.5100002      -3.21067263E-14
  -13.5000000      -4.31556934E-15
  -13.4899998       2.88902576E-14
  -13.4799995       6.00631673E-14
  -13.4700003       8.11263152E-14
  -13.4600000       8.53988511E-14
  -13.4499998       6.95634210E-14
  -13.4399996       3.50253375E-14
  -13.4300003      -1.18055209E-14
  -13.4200001      -6.05504281E-14
  -13.4099998      -9.91210355E-14
  -13.3999996      -1.16747717E-13
  -13.3900003      -1.07037473E-13
  -13.3800001      -7.02061903E-14
  -13.3699999      -1.37448782E-14
  -13.3599997       4.88737333E-14
  -13.3500004       1.01329928E-13
  -13.3400002       1.28764783E-13
  -13.3299999       1.22160298E-13
  -13.3199997       8.15240616E-14
  -13.3100004       1.67943171E-14
  -13.3000002      -5.40860962E-14
  -13.2900000      -1.09708161E-13
  -13.2799997      -1.31318648E-13
  -13.2700005      -1.08883849E-13
  -13.2600002      -4.52519288E-14
  -13.2500000       4.31032129E-14
  -13.2399998       1.29441637E-13
  -13.2299995       1.83753769E-13
  -13.2200003       1.81756208E-13
  -13.2100000       1.13413172E-13
  -13.1999998      -1.16895011E-14
  -13.1899996      -1.64211703E-13
  -13.1800003      -3.00966771E-13
  -13.1700001      -3.75953094E-13
  -13.1599998      -3.53921916E-13
  -13.1499996      -2.22766711E-13
  -13.1400003      -8.48876462E-16
  -13.1300001       2.63650267E-13
  -13.1199999       5.02307234E-13
  -13.1099997       6.43406769E-13
  -13.1000004       6.32332782E-13
  -13.0900002       4.49924332E-13
  -13.0799999       1.23181034E-13
  -13.0699997      -2.75839979E-13
  -13.0600004      -6.44249573E-13
  -13.0500002      -8.73404756E-13
  -13.0400000      -8.79210821E-13
  -13.0299997      -6.29796833E-13
  -13.0200005      -1.62450294E-13
  -13.0100002       4.16384321E-13
  -13.0000000       9.50376063E-13
  -12.9899998       1.26924838E-12
  -12.9799995       1.23400270E-12
  -12.9700003       7.80641719E-13
  -12.9600000      -4.93073837E-14
  -12.9499998      -1.10119845E-12
  -12.9399996      -2.12767564E-12
  -12.9300003      -2.83574596E-12
  -12.9200001      -2.95248179E-12
  -12.9099998      -2.29590847E-12
  -12.8999996      -8.34910700E-13
  -12.8900003       1.27715080E-12
  -12.8800001       3.70598430E-12
  -12.8699999       5.98065044E-12
  -12.8599997       7.57345835E-12
  -12.8500004       8.00207643E-12
  -12.8400002       6.93452327E-12
  -12.8299999       4.27542160E-12
  -12.8199997       2.14182581E-13
  -12.8100004      -4.77769647E-12
  -12.8000002      -1.00033853E-11
  -12.7900000      -1.46436023E-11
  -12.7799997      -1.78877850E-11
  -12.7700005      -1.90689166E-11
  -12.7600002      -1.77755987E-11
  -12.7500000      -1.39191315E-11
  -12.7399998      -7.74250022E-12
  -12.7299995       2.28764571E-13
  -12.7200003       9.28041151E-12
  -12.7100000       1.86235177E-11
  -12.6999998       2.74988695E-11
  -12.6899996       3.52443214E-11
  -12.6800003       4.13077038E-11
  -12.6700001       4.52044409E-11
  -12.6599998       4.64373748E-11
  -12.6499996       4.44123766E-11
  -12.6400003       3.83919285E-11
  -12.6300001       2.75260596E-11
  -12.6199999       1.09853602E-11
  -12.6099997      -1.18038860E-11
  -12.6000004      -4.08517907E-11
  -12.5900002      -7.52810800E-11
  -12.5799999      -1.13061810E-10
  -12.5699997      -1.50880905E-10
  -12.5600004      -1.84207788E-10
  -12.5500002      -2.07586587E-10
  -12.5400000      -2.15144777E-10
  -12.5299997      -2.01267780E-10
  -12.5200005      -1.61357802E-10
  -12.5100002      -9.25790417E-11
  -12.5000000       5.50474510E-12
  -12.4899998       1.30473118E-10
  -12.4799995       2.76810908E-10
  -12.4700003       4.35896541E-10
  -12.4600000       5.96192429E-10
  -12.4499998       7.43596851E-10
  -12.4399996       8.61921534E-10
  -12.4300003       9.33465305E-10
  -12.4200001       9.39667233E-10
  -12.4099998       8.61853977E-10
  -12.3999996       6.82071788E-10
  -12.3900003       3.84019594E-10
  -12.3800001      -4.59417851E-11
  -12.3699999      -6.17748075E-10
  -12.3599997      -1.33660083E-09
  -12.3500004      -2.20203744E-09
  -12.3400002      -3.20715254E-09
  -12.3299999      -4.33806191E-09
  -12.3199997      -5.57362512E-09
  -12.3100004      -6.88547308E-09
  -12.3000002      -8.23840018E-09
  -12.2900000      -9.59107727E-09
  -12.2799997      -1.08971365E-08
  -12.2700005      -1.21066801E-08
  -12.2600002      -1.31680657E-08
  -12.2500000      -1.40300811E-08
  -12.2399998      -1.46442076E-08
  -12.2299995      -1.49669148E-08
  -12.2200003      -1.49617048E-08
  -12.2100000      -1.46006807E-08
  -12.1999998      -1.38654315E-08
  -12.1899996      -1.27471651E-08
  -12.1800003      -1.12460743E-08
  -12.1700001      -9.37015265E-09
  -12.1599998      -7.13371184E-09
  -12.1499996      -4.55596227E-09
  -12.1400003      -1.65997316E-09
  -12.1300001       1.52783086E-09
  -12.1199999       4.97750774E-09
  -12.1099997       8.65501715E-09
  -12.1000004       1.25214914E-08
  -12.0900002       1.65327236E-08
  -12.0799999       2.06392379E-08
  -12.0699997       2.47870737E-08
  -12.0600004       2.89194197E-08
  -12.0500002       3.29786829E-08
  -12.0400000       3.69087161E-08
  -12.0299997       4.06566798E-08
  -12.0200005       4.41740902E-08
  -12.0100002       4.74169433E-08
  -12.0000000       5.03448376E-08
  -11.9899998       5.29193400E-08
  -11.9799995       5.51021841E-08
  -11.9700003       5.68538674E-08
  -11.9600000       5.81328834E-08
  -11.9499998       5.88961839E-08
  -11.9399996       5.91005076E-08
  -11.9300003       5.87046181E-08
  -11.9200001       5.76716808E-08
  -11.9099998       5.59715190E-08
  -11.8999996       5.35821556E-08
  -11.8900003       5.04903461E-08
  -11.8800001       4.66913370E-08
  -11.8699999       4.21877324E-08
  -11.8599997       3.69883395E-08
  -11.8500004       3.11071311E-08
  -11.8400002       2.45626524E-08
  -11.8299999       1.73784809E-08
  -11.8199997       9.58413882E-09
  -11.8100004       1.21656274E-09
  -11.8000002      -7.67808306E-09
  -11.7900000      -1.70432486E-08
  -11.7799997      -2.68111595E-08
  -11.7700005      -3.69030957E-08
  -11.7600002      -4.72305857E-08
  -11.7500000      -5.76973669E-08
  -11.7399998      -6.82022829E-08
  -11.7299995      -7.86423939E-08
  -11.7200003      -8.89160532E-08
  -11.7100000      -9.89259661E-08
  -11.6999998      -1.08581204E-07
  -11.6899996      -1.17798649E-07
  -11.6800003      -1.26503025E-07
  -11.6700001      -1.34626063E-07
  -11.6599998      -1.42104724E-07
  -11.6499996      -1.48878684E-07
  -11.6400003      -1.54888085E-07
  -11.6300001      -1.60071565E-07
  -11.6199999      -1.64365446E-07
  -11.6099997      -1.67704343E-07
  -11.6000004      -1.70023000E-07
  -11.5900002      -1.71259572E-07
  -11.5799999      -1.71358764E-07
  -11.5699997      -1.70275086E-07
  -11.5600004      -1.67974363E-07
  -11.5500002      -1.64433970E-07
  -11.5400000      -1.59640777E-07
  -11.5299997      -1.53586925E-07
  -11.5200005      -1.46265776E-07
  -11.5100002      -1.37666945E-07
  -11.5000000      -1.27773262E-07
  -11.4899998      -1.16560031E-07
  -11.4799995      -1.03996840E-07
  -11.4700003      -9.00516639E-08
  -11.4600000      -7.46975317E-08
  -11.4499998      -5.79187649E-08
  -11.4399996      -3.97176549E-08
  -11.4300003      -2.01186925E-08
  -11.4200001       8.30071845E-10
  -11.4099998       2.30579911E-08
  -11.3999996       4.64759751E-08
  -11.3900003       7.09832619E-08
  -11.3800001       9.64740039E-08
  -11.3699999       1.22844583E-07
  -11.3599997       1.50000076E-07
  -11.3500004       1.77858070E-07
  -11.3400002       2.06351459E-07
  -11.3299999       2.35427635E-07
  -11.3199997       2.65047447E-07
  -11.3100004       2.95180513E-07
  -11.3000002       3.25801039E-07
  -11.2900000       3.56882140E-07
  -11.2799997       3.88390646E-07
  -11.2700005       4.20282817E-07
  -11.2600002       4.52502547E-07
  -11.2500000       4.84980148E-07
  -11.2399998       5.17634533E-07
  -11.2299995       5.50377706E-07
  -11.2200003       5.83118833E-07
  -11.2100000       6.15771910E-07
  -11.1999998       6.48261164E-07
  -11.1899996       6.80523613E-07
  -11.1800003       7.12513440E-07
  -11.1700001       7.44199326E-07
  -11.1599998       7.75564502E-07
  -11.1499996       8.06600383E-07
  -11.1400003       8.37302423E-07
  -11.1300001       8.67666927E-07
  -11.1199999       8.97686732E-07
  -11.1099997       9.27351095E-07
  -11.1000004       9.56644840E-07
  -11.0900002       9.85547672E-07
  -11.0799999       1.01403782E-06
  -11.0699997       1.04209096E-06
  -11.0600004       1.06967991E-06
  -11.0500002       1.09677705E-06
  -11.0400000       1.12335238E-06
  -11.0299997       1.14937336E-06
  -11.0200005       1.17480988E-06
  -11.0100002       1.19963352E-06
  -11.0000000       1.22382369E-06
  -10.9899998       1.24736971E-06
  -10.9799995       1.27027715E-06
  -10.9700003       1.29256330E-06
  -10.9600000       1.31425986E-06
  -10.9499998       1.33540607E-06
  -10.9399996       1.35604080E-06
  -10.9300003       1.37619884E-06
  -10.9200001       1.39589713E-06
  -10.9099998       1.41512919E-06
  -10.8999996       1.43386387E-06
  -10.8900003       1.45204478E-06
  -10.8800001       1.46959985E-06
  -10.8699999       1.48644108E-06
  -10.8599997       1.50248673E-06
  -10.8500004       1.51766335E-06
  -10.8400002       1.53191979E-06
  -10.8299999       1.54523605E-06
  -10.8199997       1.55762302E-06
  -10.8100004       1.56911824E-06
  -10.8000002       1.57979150E-06
  -10.7900000       1.58972034E-06
  -10.7799997       1.59899332E-06
  -10.7700005       1.60768798E-06
  -10.7600002       1.61587116E-06
  -10.7500000       1.62358424E-06
  -10.7399998       1.63084849E-06
  -10.7299995       1.63766219E-06
  -10.7200003       1.64400876E-06
  -10.7100000       1.64986830E-06
  -10.6999998       1.65522044E-06
  -10.6899996       1.66006589E-06
  -10.6800003       1.66442953E-06
  -10.6700001       1.66835935E-06
  -10.6599998       1.67194128E-06
  -10.6499996       1.67529288E-06
  -10.6400003       1.67855251E-06
  -10.6300001       1.68187808E-06
  -10.6199999       1.68543727E-06
  -10.6099997       1.68939653E-06
  -10.6000004       1.69391637E-06
  -10.5900002       1.69915006E-06
  -10.5799999       1.70520912E-06
  -10.5699997       1.71219892E-06
  -10.5600004       1.72018656E-06
  -10.5500002       1.72922535E-06
  -10.5400000       1.73934188E-06
  -10.5299997       1.75056039E-06
  -10.5200005       1.76288972E-06
  -10.5100002       1.77634888E-06
  -10.5000000       1.79096969E-06
  -10.4899998       1.80679399E-06
  -10.4799995       1.82386884E-06
  -10.4700003       1.84226451E-06
  -10.4600000       1.86203772E-06
  -10.4499998       1.88324236E-06
  -10.4399996       1.90591322E-06
  -10.4300003       1.93006576E-06
  -10.4200001       1.95567281E-06
  -10.4099998       1.98269322E-06
  -10.3999996       2.01104854E-06
  -10.3900003       2.04065714E-06
  -10.3800001       2.07141147E-06
  -10.3699999       2.10320263E-06
  -10.3599997       2.13592693E-06
  -10.3500004       2.16947637E-06
  -10.3400002       2.20375841E-06
  -10.3299999       2.23869370E-06
  -10.3199997       2.27421765E-06
  -10.3100004       2.31026411E-06
  -10.3000002       2.34677964E-06
  -10.2900000       2.38372377E-06
  -10.2799997       2.42104784E-06
  -10.2700005       2.45870365E-06
  -10.2600002       2.49664140E-06
  -10.2500000       2.53479811E-06
  -10.2399998       2.57309853E-06
  -10.2299995       2.61145942E-06
  -10.2200003       2.64979417E-06
  -10.2100000       2.68802592E-06
  -10.1999998       2.72608031E-06
  -10.1899996       2.76390642E-06
  -10.1800003       2.80149948E-06
  -10.1700001       2.83887744E-06
  -10.1599998       2.87610192E-06
  -10.1499996       2.91325819E-06
  -10.1400003       2.95047971E-06
  -10.1300001       2.98790701E-06
  -10.1199999       3.02569174E-06
  -10.1099997       3.06398738E-06
  -10.1000004       3.10294945E-06
  -10.0900002       3.14271756E-06
  -10.0799999       3.18339880E-06
  -10.0699997       3.22510914E-06
  -10.0600004       3.26795089E-06
  -10.0500002       3.31199021E-06
  -10.0400000       3.35729464E-06
  -10.0299997       3.40394809E-06
  -10.0200005       3.45202079E-06
  -10.0100002       3.50160963E-06
  -10.0000000       3.55280440E-06
  -9.98999977       3.60571880E-06
  -9.97999954       3.66047448E-06
  -9.97000027       3.71717647E-06
  -9.96000004       3.77593847E-06
  -9.94999981       3.83681481E-06
  -9.93999958       3.89987099E-06
  -9.93000031       3.96510904E-06
  -9.92000008       4.03250806E-06
  -9.90999985       4.10202756E-06
  -9.89999962       4.17357705E-06
  -9.89000034       4.24708378E-06
  -9.88000011       4.32247907E-06
  -9.86999989       4.39967744E-06
  -9.85999966       4.47864113E-06
  -9.85000038       4.55931740E-06
  -9.84000015       4.64171853E-06
  -9.82999992       4.72583952E-06
  -9.81999969       4.81174948E-06
  -9.81000042       4.89953618E-06
  -9.80000019       4.98933468E-06
  -9.78999996       5.08131961E-06
  -9.77999973       5.17571016E-06
  -9.77000046       5.27275142E-06
  -9.76000023       5.37272945E-06
  -9.75000000       5.47590571E-06
  -9.73999977       5.58257670E-06
  -9.72999954       5.69300073E-06
  -9.72000027       5.80739970E-06
  -9.71000004       5.92597553E-06
  -9.69999981       6.04886873E-06
  -9.68999958       6.17619526E-06
  -9.68000031       6.30801333E-06
  -9.67000008       6.44437614E-06
  -9.65999985       6.58529234E-06
  -9.64999962       6.73073691E-06
  -9.64000034       6.88063346E-06
  -9.63000011       7.03487603E-06
  -9.61999989       7.19327454E-06
  -9.60999966       7.35556978E-06
  -9.60000038       7.52142159E-06
  -9.59000015       7.69040253E-06
  -9.57999992       7.86200872E-06
  -9.56999969       8.03560033E-06
  -9.56000042       8.21051253E-06
  -9.55000019       8.38599044E-06
  -9.53999996       8.56121005E-06
  -9.52999973       8.73533372E-06
  -9.52000046       8.90745378E-06
  -9.51000023       9.07670710E-06
  -9.50000000       9.24217784E-06
  -9.48999977       9.40303926E-06
  -9.47999954       9.55842097E-06
  -9.47000027       9.70759902E-06
  -9.46000004       9.84989401E-06
  -9.44999981       9.98475662E-06
  -9.43999958       1.01117184E-05
  -9.43000031       1.02304584E-05
  -9.42000008       1.03408156E-05
  -9.40999985       1.04427445E-05
  -9.39999962       1.05363879E-05
  -9.39000034       1.06220441E-05
  -9.38000011       1.07001761E-05
  -9.36999989       1.07713995E-05
  -9.35999966       1.08365166E-05
  -9.35000038       1.08964978E-05
  -9.34000015       1.09524672E-05
  -9.32999992       1.10056590E-05
  -9.31999969       1.10574038E-05
  -9.31000042       1.11091786E-05
  -9.30000019       1.11624986E-05
  -9.28999996       1.12189591E-05
  -9.27999973       1.12801708E-05
  -9.27000046       1.13477981E-05
  -9.26000023       1.14234908E-05
  -9.25000000       1.15088924E-05
  -9.23999977       1.16055953E-05
  -9.22999954       1.17151712E-05
  -9.22000027       1.18390535E-05
  -9.21000004       1.19785900E-05
  -9.19999981       1.21350176E-05
  -9.18999958       1.23094424E-05
  -9.18000031       1.25027927E-05
  -9.17000008       1.27158510E-05
  -9.15999985       1.29492737E-05
  -9.14999962       1.32035075E-05
  -9.14000034       1.34787915E-05
  -9.13000011       1.37752077E-05
  -9.11999989       1.40925695E-05
  -9.10999966       1.44305286E-05
  -9.10000038       1.47884339E-05
  -9.09000015       1.51654667E-05
  -9.07999992       1.55606376E-05
  -9.06999969       1.59727551E-05
  -9.06000042       1.64005105E-05
  -9.05000019       1.68424685E-05
  -9.03999996       1.72970995E-05
  -9.02999973       1.77627553E-05
  -9.02000046       1.82377717E-05
  -9.01000023       1.87203132E-05
  -9.00000000       1.92085445E-05
  -8.98999977       1.97005484E-05
  -8.97999954       2.01942912E-05
  -8.97000027       2.06877467E-05
  -8.96000004       2.11788392E-05
  -8.94999981       2.16654571E-05
  -8.93999958       2.21455357E-05
  -8.93000031       2.26169632E-05
  -8.92000008       2.30775859E-05
  -8.90999985       2.35253956E-05
  -8.89999962       2.39584260E-05
  -8.89000034       2.43747036E-05
  -8.88000011       2.47723237E-05
  -8.86999989       2.51495385E-05
  -8.85999966       2.55046289E-05
  -8.85000038       2.58360105E-05
  -8.84000015       2.61422829E-05
  -8.82999992       2.64221871E-05
  -8.81999969       2.66745410E-05
  -8.81000042       2.68983622E-05
  -8.80000019       2.70929486E-05
  -8.78999996       2.72576908E-05
  -8.77999973       2.73922251E-05
  -8.77000046       2.74963695E-05
  -8.76000023       2.75701823E-05
  -8.75000000       2.76138871E-05
  -8.73999977       2.76279989E-05
  -8.72999954       2.76129977E-05
  -8.72000027       2.75698312E-05
  -8.71000004       2.74994400E-05
  -8.69999981       2.74030281E-05
  -8.68999958       2.72818124E-05
  -8.68000031       2.71374174E-05
  -8.67000008       2.69713873E-05
  -8.65999985       2.67853266E-05
  -8.64999962       2.65809631E-05
  -8.64000034       2.63601032E-05
  -8.63000011       2.61245059E-05
  -8.61999989       2.58758719E-05
  -8.60999966       2.56159092E-05
  -8.60000038       2.53461967E-05
  -8.59000015       2.50682151E-05
  -8.57999992       2.47834469E-05
  -8.56999969       2.44931853E-05
  -8.56000042       2.41986036E-05
  -8.55000019       2.39007331E-05
  -8.53999996       2.36005089E-05
  -8.52999973       2.32986022E-05
  -8.52000046       2.29958368E-05
  -8.51000023       2.26928460E-05
  -8.50000000       2.23900315E-05
  -8.48999977       2.20878992E-05
  -8.47999954       2.17870111E-05
  -8.47000027       2.14877200E-05
  -8.46000004       2.11903880E-05
  -8.44999981       2.08955244E-05
  -8.43999958       2.06034856E-05
  -8.43000031       2.03147738E-05
  -8.42000008       2.00297709E-05
  -8.40999985       1.97490517E-05
  -8.39999962       1.94731892E-05
  -8.39000034       1.92028074E-05
  -8.38000011       1.89386374E-05
  -8.36999989       1.86813941E-05
  -8.35999966       1.84317523E-05
  -8.35000038       1.81905543E-05
  -8.34000015       1.79586386E-05
  -8.32999992       1.77367947E-05
  -8.31999969       1.75258065E-05
  -8.31000042       1.73264652E-05
  -8.30000019       1.71396059E-05
  -8.28999996       1.69658470E-05
  -8.27999973       1.68059196E-05
  -8.27000046       1.66605241E-05
  -8.26000023       1.65303081E-05
  -8.25000000       1.64158810E-05
  -8.23999977       1.63179266E-05
  -8.22999954       1.62369270E-05
  -8.22000027       1.61735570E-05
  -8.21000004       1.61283406E-05
  -8.19999981       1.61017979E-05
  -8.18999958       1.60946402E-05
  -8.18000031       1.61075750E-05
  -8.17000008       1.61411190E-05
  -8.15999985       1.61961016E-05
  -8.14999962       1.62730466E-05
  -8.14000034       1.63730274E-05
  -8.13000011       1.64966186E-05
  -8.11999989       1.66447353E-05
  -8.10999966       1.68182360E-05
  -8.10000038       1.70180010E-05
  -8.09000015       1.72448963E-05
  -8.07999992       1.74997858E-05
  -8.06999969       1.77834590E-05
  -8.06000042       1.80966181E-05
  -8.05000019       1.84399014E-05
  -8.03999996       1.88138656E-05
  -8.02999973       1.92190728E-05
  -8.02000046       1.96556939E-05
  -8.01000023       2.01240309E-05
  -8.00000000       2.06241075E-05
  -7.98999977       2.11559363E-05
  -7.98000002       2.17192573E-05
  -7.96999979       2.23137631E-05
  -7.96000004       2.29389734E-05
  -7.94999981       2.35941588E-05
  -7.94000006       2.42786136E-05
  -7.92999983       2.49913883E-05
  -7.92000008       2.57312113E-05
  -7.90999985       2.64969294E-05
  -7.90000010       2.72871021E-05
  -7.88999987       2.81003377E-05
  -7.88000011       2.89350246E-05
  -7.86999989       2.97895549E-05
  -7.86000013       3.06623551E-05
  -7.84999990       3.15515572E-05
  -7.84000015       3.24554167E-05
  -7.82999992       3.33722201E-05
  -7.82000017       3.43001375E-05
  -7.80999994       3.52372954E-05
  -7.80000019       3.61819402E-05
  -7.78999996       3.71322785E-05
  -7.78000021       3.80865931E-05
  -7.76999998       3.90432360E-05
  -7.76000023       4.00004137E-05
  -7.75000000       4.09565837E-05
  -7.73999977       4.19104181E-05
  -7.73000002       4.28603962E-05
  -7.71999979       4.38051466E-05
  -7.71000004       4.47434250E-05
  -7.69999981       4.56741618E-05
  -7.69000006       4.65963240E-05
  -7.67999983       4.75087036E-05
  -7.67000008       4.84107768E-05
  -7.65999985       4.93017105E-05
  -7.65000010       5.01811483E-05
  -7.63999987       5.10484861E-05
  -7.63000011       5.19036221E-05
  -7.61999989       5.27462107E-05
  -7.61000013       5.35763065E-05
  -7.59999990       5.43939823E-05
  -7.59000015       5.51995399E-05
  -7.57999992       5.59935179E-05
  -7.57000017       5.67762800E-05
  -7.55999994       5.75487938E-05
  -7.55000019       5.83115034E-05
  -7.53999996       5.90656382E-05
  -7.53000021       5.98121296E-05
  -7.51999998       6.05519635E-05
  -7.51000023       6.12861477E-05
  -7.50000000       6.20157734E-05
  -7.48999977       6.27421759E-05
  -7.48000002       6.34661701E-05
  -7.46999979       6.41889346E-05
  -7.46000004       6.49116482E-05
  -7.44999981       6.56355041E-05
  -7.44000006       6.63615356E-05