  -16.0000000       0.00000000    
  -15.9899998       0.00000000    
  -15.9799995       0.00000000    
  -15.9700003       0.00000000    
  -15.9600000       0.00000000    
  -15.9499998       0.00000000    
  -15.9399996       0.00000000    
  -15.9300003       0.00000000    
  -15.9200001       0.00000000    
  -15.9099998       0.00000000    
  -15.8999996       0.00000000    
  -15.8900003       0.00000000    
  -15.8800001       1.35533587E-41
  -15.8699999       3.12118213E-40
  -15.8599997       3.54243627E-39
  -15.8500004       2.68967469E-38
  -15.8400002       1.56642837E-37
  -15.8299999       7.58894550E-37
  -15.8199997       3.20847251E-36
  -15.8100004       1.20738222E-35
  -15.8000002       4.03397691E-35
  -15.7900000       1.17635979E-34
  -15.7799997       2.90831881E-34
  -15.7700005       5.77972664E-34
  -15.7600002       7.98718657E-34
  -15.7500000       2.23744926E-34
  -15.7399998      -2.79393536E-33
  -15.7299995      -1.05324955E-32
  -15.7200003      -2.38778491E-32
  -15.7100000      -3.85645049E-32
  -15.6999998      -4.42232171E-32
  -15.6899996      -3.81835360E-32
  -15.6800003      -6.67898023E-32
  -15.6700001      -2.78745610E-31
  -15.6599998      -8.94900276E-31
  -15.6499996      -1.89033541E-30
  -15.6400003      -2.19023242E-30
  -15.6300001       1.41173392E-30
  -15.6199999       1.43378984E-29
  -15.6099997       4.06037792E-29
  -15.6000004       7.25253277E-29
  -15.5900002       7.47301684E-29
  -15.5799999      -2.56525503E-29
  -15.5699997      -3.14955557E-28
  -15.5600004      -7.99938276E-28
  -15.5500002      -1.23784785E-27
  -15.5400000      -9.70919063E-28
  -15.5299997       1.00894087E-27
  -15.5200005       5.43054582E-27
  -15.5100002       1.13395450E-26
  -15.5000000       1.43074377E-26
  -15.4899998       5.75512742E-27
  -15.4799995      -2.39709484E-26
  -15.4700003      -7.62625179E-26
  -15.4600000      -1.29337086E-25
  -15.4499998      -1.25715154E-25
  -15.4399996       2.05478544E-26
  -15.4300003       3.75069144E-25
  -15.4200001       8.83245845E-25
  -15.4099998       1.24922632E-24
  -15.3999996       8.87362121E-25
  -15.3900003      -9.03932341E-25
  -15.3800001      -4.41237751E-24
  -15.3699999      -8.66025622E-24
  -15.3599997      -1.06174012E-23
  -15.3500004      -5.30232502E-24
  -15.3400002       1.21820429E-23
  -15.3299999       4.20871524E-23
  -15.3199997       7.38787612E-23
  -15.3100004       8.20006333E-23
  -15.3000002       2.95097466E-23
  -15.2900000      -1.14204289E-22
  -15.2799997      -3.40123779E-22
  -15.2700005      -5.60492161E-22
  -15.2600002      -5.89312165E-22
  -15.2500000      -1.80004579E-22
  -15.2399998       8.47066269E-22
  -15.2299995       2.39018321E-21
  -15.2200003       3.83844399E-21
  -15.2100000       3.99036128E-21
  -15.1999998       1.33145887E-21
  -15.1899996      -5.17006906E-21
  -15.1800003      -1.48139081E-20
  -15.1700001      -2.39211747E-20
  -15.1599998      -2.54862085E-20
  -15.1499996      -1.08366654E-20
  -15.1400003       2.59534606E-20
  -15.1300001       8.13695888E-20
  -15.1199999       1.35943786E-19
  -15.1099997       1.52480329E-19
  -15.1000004       8.44558579E-20
  -15.0900002      -1.01932045E-19
  -15.0799999      -3.94512988E-19
  -15.0699997      -7.02462611E-19
  -15.0600004      -8.45516157E-19
  -15.0500002      -5.90264194E-19
  -15.0400000       2.50103952E-19
  -15.0299997       1.66230278E-18
  -15.0200005       3.27610858E-18
  -15.0100002       4.29636948E-18
  -15.0000000       3.63447610E-18
  -14.9899998       3.16294091E-19
  -14.9799995      -5.86085092E-18
  -14.9700003      -1.36153251E-17
  -14.9600000      -1.97809110E-17
  -14.9499998      -1.96778740E-17
  -14.9399996      -8.60806497E-18
  -14.9300003       1.55531313E-17
  -14.9200001       4.93242174E-17
  -14.9099998       8.14994389E-17
  -14.8999996       9.37303168E-17
  -14.8900003       6.53406377E-17
  -14.8800001      -1.73355484E-17
  -14.8699999      -1.49016455E-16
  -14.8599997      -2.95483632E-16
  -14.8500004      -3.92002507E-16
  -14.8400002      -3.56370054E-16
  -14.8299999      -1.19205501E-16
  -14.8199997       3.33053831E-16
  -14.8100004       9.16182388E-16
  -14.8000002       1.42875008E-15
  -14.7900000       1.57845553E-15
  -14.7799997       1.06857420E-15
  -14.7700005      -2.62095473E-16
  -14.7600002      -2.28212360E-15
  -14.7500000      -4.45839053E-15
  -14.7399998      -5.87398714E-15
  -14.7299995      -5.43563319E-15
  -14.7200003      -2.27850317E-15
  -14.7100000       3.71127274E-15
  -14.6999998       1.14329949E-14
  -14.6899996       1.84090685E-14
  -14.6800003       2.11552747E-14
  -14.6700001       1.61930677E-14
  -14.6599998       1.58124799E-15
  -14.6499996      -2.14477484E-14
  -14.6400003      -4.74119984E-14
  -14.6300001      -6.68075485E-14
  -14.6199999      -6.81716782E-14
  -14.6099997      -4.19745517E-14
  -14.6000004       1.44548764E-14
  -14.5900002       9.25675958E-14
  -14.5799999       1.70884221E-13
  -14.5699997       2.17844433E-13
  -14.5600004       2.00070741E-13
  -14.5500002       9.50359854E-14
  -14.5400000      -9.51152812E-14
  -14.5299997      -3.33684144E-13
  -14.5200005      -5.49095166E-13
  -14.5100002      -6.48223229E-13
  -14.5000000      -5.43668138E-13
  -14.4899998      -1.89871082E-13
  -14.4799995       3.82514848E-13
  -14.4700003       1.04799318E-12
  -14.4600000       1.59653931E-12
  -14.4499998       1.77985762E-12
  -14.4399996       1.38939327E-12
  -14.4300003       3.48312958E-13
  -14.4200001      -1.21194060E-12
  -14.4099998      -2.92443934E-12
  -14.3999996      -4.23612534E-12
  -14.3900003      -4.54180226E-12
  -14.3800001      -3.38239224E-12
  -14.3699999      -6.56896412E-13
  -14.3599997       3.22370234E-12
  -14.3500004       7.31408944E-12
  -14.3400002       1.02928473E-11
  -14.3299999       1.08008229E-11
  -14.3199997       7.89524088E-12
  -14.3100004       1.49551248E-12
  -14.3000002      -7.33594262E-12
  -14.2900000      -1.64211821E-11
  -14.2799997      -2.28786660E-11
  -14.2700005      -2.38840232E-11
  -14.2600002      -1.76153484E-11
  -14.2500000      -4.11355758E-12
  -14.2399998       1.42510344E-11
  -14.2299995       3.29586150E-11
  -14.2200003       4.62635243E-11
  -14.2100000       4.87345268E-11
  -14.1999998       3.70509422E-11
  -14.1899996       1.15287935E-11
  -14.1800003      -2.31756107E-11
  -14.1700001      -5.85867466E-11
  -14.1599998      -8.42434941E-11
  -14.1499996      -9.05265030E-11
  -14.1400003      -7.17775978E-11
  -14.1300001      -2.87813662E-11
  -14.1199999       3.02908601E-11
  -14.1099997       9.10475861E-11
  -14.1000004       1.36158806E-10
  -14.0900002       1.50088372E-10
  -14.0799999       1.24044469E-10
  -14.0699997       5.96474259E-11
  -14.0600004      -3.00186334E-11
  -14.0500002      -1.22688068E-10
  -14.0400000      -1.92309960E-10
  -14.0299997      -2.16333063E-10
  -14.0200005      -1.82891341E-10
  -14.0100002      -9.56593346E-11
  -14.0000000       2.54268846E-11
  -13.9899998       1.48333720E-10
  -13.9799995       2.37302344E-10
  -13.9700003       2.63351063E-10
  -13.9600000       2.13901674E-10
  -13.9499998       9.84239495E-11
  -13.9399996      -5.21491288E-11
  -13.9300003      -1.92807464E-10
  -13.9200001      -2.77165707E-10
  -13.9099998      -2.72143724E-10
  -13.8999996      -1.70252076E-10
  -13.8900003       4.69573642E-12
  -13.8800001       2.01101968E-10
  -13.8699999       3.52458757E-10
  -13.8599997       3.96810751E-10
  -13.8500004       2.97632891E-10
  -13.8400002       5.98205444E-11
  -13.8299999      -2.64865740E-10
  -13.8199997      -5.86114657E-10
  -13.8100004      -7.96628374E-10
  -13.8000002      -8.02369338E-10
  -13.7900000      -5.53699864E-10
  -13.7799997      -6.82826573E-11
  -13.7700005       5.62226987E-10
  -13.7600002       1.18603349E-09
  -13.7500000       1.62458058E-09
  -13.7399998       1.71869563E-09
  -13.7299995       1.37620615E-09
  -13.7200003       6.07836892E-10
  -13.7100000      -4.60194716E-10
  -13.6999998      -1.60342073E-09
  -13.6899996      -2.54523536E-09
  -13.6800003      -3.02282177E-09
  -13.6700001      -2.85730173E-09
  -13.6599998      -2.00961225E-09
  -13.6499996      -6.05485329E-10
  -13.6400003       1.08036735E-09
  -13.6300001       2.68060996E-09
  -13.6199999       3.82076770E-09
  -13.6099997       4.21336033E-09
  -13.6000004       3.73594400E-09
  -13.5900002       2.47063725E-09
  -13.5799999       6.91547208E-10
  -13.5699997      -1.19996102E-09
  -13.5600004      -2.77744405E-09
  -13.5500002      -3.70248299E-09
  -13.5400000      -3.81696941E-09
  -13.5299997      -3.18653992E-09
  -13.5200005      -2.07936179E-09
  -13.5100002      -8.82639406E-10
  -13.5000000       2.17274983E-11
  -13.4899998       3.86428473E-10
  -13.4799995       1.92178107E-10
  -13.4700003      -3.28366306E-10
  -13.4600000      -7.51586460E-10
  -13.4499998      -5.99020333E-10
  -13.4399996       4.86174545E-10
  -13.4300003       2.57446597E-09
  -13.4200001       5.35230216E-09
  -13.4099998       8.13368128E-09
  -13.3999996       9.99518690E-09
  -13.3900003       1.00129736E-08
  -13.3800001       7.54627738E-09
  -13.3699999       2.49028043E-09
  -13.3599997      -4.58049998E-09
  -13.3500004      -1.24360398E-08
  -13.3400002      -1.93992058E-08
  -13.3299999      -2.37060771E-08
  -13.3199997      -2.39392275E-08
  -13.3100004      -1.94260092E-08
  -13.3000002      -1.04920677E-08
  -13.2900000       1.51120483E-09
  -13.2799997       1.44329144E-08
  -13.2700005       2.57646331E-08
  -13.2600002       3.31994414E-08
  -13.2500000       3.51712828E-08
  -13.2399998       3.12343431E-08
  -13.2299995       2.21771845E-08
  -13.2200003       9.83207116E-09
  -13.2100000      -3.37905792E-09
  -13.1999998      -1.50468722E-08
  -13.1899996      -2.33640840E-08
  -13.1800003      -2.75381371E-08
  -13.1700001      -2.79070758E-08
  -13.1599998      -2.57187356E-08
  -13.1499996      -2.26310419E-08
  -13.1400003      -2.00773016E-08
  -13.1300001      -1.86910309E-08
  -13.1199999      -1.79808310E-08
  -13.1099997      -1.63855542E-08
  -13.1000004      -1.17346302E-08
  -13.0900002      -2.01646011E-09
  -13.0799999       1.37486555E-08
  -13.0699997       3.47914479E-08
  -13.0600004       5.82803672E-08
  -13.0500002       7.95737236E-08
  -13.0400000       9.30577144E-08
  -13.0299997       9.34267632E-08
  -13.0200005       7.71217614E-08
  -13.0100002       4.35636416E-08
  -13.0000000      -4.16817736E-09
  -12.9899998      -5.94556155E-08
  -12.9799995      -1.13121807E-07
  -12.9700003      -1.55119608E-07
  -12.9600000      -1.76587079E-07
  -12.9499998      -1.71810868E-07
  -12.9399996      -1.39630984E-07
  -12.9300003      -8.39301677E-08
  -12.9200001      -1.30548230E-08
  -12.9099998       6.17346672E-08
  -12.8999996       1.28451390E-07
  -12.8900003       1.76716881E-07
  -12.8800001       1.99714336E-07
  -12.8699999       1.95324475E-07
  -12.8599997       1.66209631E-07
  -12.8500004       1.18872457E-07
  -12.8400002       6.19666380E-08
  -12.8299999       4.31214442E-09
  -12.8199997      -4.68775916E-08
  -12.8100004      -8.71308146E-08
  -12.8000002      -1.14981042E-07
  -12.7900000      -1.31378712E-07
  -12.7799997      -1.38509321E-07
  -12.7700005      -1.38441024E-07
  -12.7600002      -1.32060748E-07
  -12.7500000      -1.18661333E-07
  -12.7399998      -9.63348299E-08
  -12.7299995      -6.30687680E-08
  -12.7200003      -1.82069417E-08
  -12.7100000       3.62078723E-08
  -12.6999998       9.46985210E-08
  -12.6899996       1.48577726E-07
  -12.6800003       1.87232331E-07
  -12.6700001       2.00271529E-07
  -12.6599998       1.80077450E-07
  -12.6499996       1.24140442E-07
  -12.6400003       3.65599355E-08
  -12.6300001      -7.17448856E-08
  -12.6199999      -1.84280523E-07
  -12.6099997      -2.81501855E-07
  -12.6000004      -3.44119400E-07
  -12.5900002      -3.56502994E-07
  -12.5799999      -3.09461882E-07
  -12.5699997      -2.01835107E-07
  -12.5600004      -4.06151308E-08
  -12.5500002       1.60316105E-07
  -12.5400000       3.82426123E-07
  -12.5299997       6.05128719E-07
  -12.5200005       8.08076493E-07
  -12.5100002       9.72636371E-07
  -12.5000000       1.08232700E-06
  -12.4899998       1.12233863E-06
  -12.4799995       1.07857772E-06
  -12.4700003       9.36846561E-07
  -12.4600000       6.82759719E-07
  -12.4499998       3.02788465E-07
  -12.4399996      -2.13521190E-07
  -12.4300003      -8.70524957E-07
  -12.4200001      -1.66333359E-06
  -12.4099998      -2.57540773E-06
  -12.3999996      -3.57767794E-06
  -12.3900003      -4.62968865E-06
  -12.3800001      -5.68279756E-06
  -12.3699999      -6.68498114E-06
  -12.3599997      -7.58632223E-06
  -12.3500004      -8.34412185E-06
  -12.3400002      -8.92654134E-06
  -12.3299999      -9.31408886E-06
  -12.3199997      -9.49872901E-06
  -12.3100004      -9.48098750E-06
  -12.3000002      -9.26593930E-06
  -12.2900000      -8.85920053E-06
  -12.2799997      -8.26404357E-06
  -12.2700005      -7.48041521E-06
  -12.2600002      -6.50609627E-06
  -12.2500000      -5.33966931E-06
  -12.2399998      -3.98437442E-06
  -12.2299995      -2.45173419E-06
  -12.2200003      -7.63806781E-07
  -12.2100000       1.04671119E-06
  -12.1999998       2.93874996E-06
  -12.1899996       4.86706404E-06
  -12.1800003       6.78745937E-06
  -12.1700001       8.66175287E-06
  -12.1599998       1.04613373E-05
  -12.1499996       1.21684516E-05
  -12.1400003       1.37749394E-05
  -12.1300001       1.52788325E-05
  -12.1199999       1.66797035E-05
  -12.1099997       1.79739491E-05
  -12.1000004       1.91512136E-05
  -12.0900002       2.01927687E-05
  -12.0799999       2.10721646E-05
  -12.0699997       2.17578945E-05
  -12.0600004       2.22172857E-05
  -12.0500002       2.24206487E-05
  -12.0400000       2.23447259E-05
  -12.0299997       2.19747653E-05
  -12.0200005       2.13050189E-05
  -12.0100002       2.03379259E-05
  -12.0000000       1.90825449E-05
  -11.9899998       1.75529512E-05
  -11.9799995       1.57671839E-05
  -11.9700003       1.37469742E-05
  -11.9600000       1.15181492E-05
  -11.9499998       9.11126699E-06
  -11.9399996       6.56186648E-06
  -11.9300003       3.90978539E-06
  -11.9200001       1.19733556E-06
  -11.9099998      -1.53357485E-06
  -11.8999996      -4.24480868E-06
  -11.8900003      -6.90507204E-06
  -11.8800001      -9.49191781E-06
  -11.8699999      -1.19920405E-05
  -11.8599997      -1.43997049E-05
  -11.8500004      -1.67135895E-05
  -11.8400002      -1.89328221E-05
  -11.8299999      -2.10530561E-05
  -11.8199997      -2.30636415E-05
  -11.8100004      -2.49465247E-05
  -11.8000002      -2.66771058E-05
  -11.7900000      -2.82268302E-05
  -11.7799997      -2.95667869E-05
  -11.7700005      -3.06714828E-05
  -11.7600002      -3.15217876E-05
  -11.7500000      -3.21064945E-05
  -11.7399998      -3.24221655E-05
  -11.7299995      -3.24714747E-05
  -11.7200003      -3.22605374E-05
  -11.7100000      -3.17960512E-05
  -11.6999998      -3.10829710E-05
  -11.6899996      -3.01232722E-05
  -11.6800003      -2.89161017E-05
  -11.6700001      -2.74591657E-05
  -11.6599998      -2.57509382E-05
  -11.6499996      -2.37930944E-05
  -11.6400003      -2.15924865E-05
  -11.6300001      -1.91621239E-05
  -11.6199999      -1.65209403E-05
  -11.6099997      -1.36923027E-05
  -11.6000004      -1.07016940E-05
  -11.5900002      -7.57403541E-06
  -11.5799999      -4.33140303E-06
  -11.5699997      -9.91668685E-07
  -11.5600004       2.43150066E-06
  -11.5500002       5.92717151E-06
  -11.5400000       9.48445540E-06
  -11.5299997       1.30891112E-05
  -11.5200005       1.67201852E-05
  -11.5100002       2.03474247E-05
  -11.5000000       2.39301735E-05
  -11.4899998       2.74180347E-05
  -11.4799995       3.07533592E-05
  -11.4700003       3.38751342E-05
  -11.4600000       3.67236389E-05
  -11.4499998       3.92450202E-05
  -11.4399996       4.13950947E-05
  -11.4300003       4.31417066E-05
  -11.4200001       4.44655925E-05
  -11.4099998       4.53598041E-05
  -11.3999996       4.58281902E-05
  -11.3900003       4.58835930E-05
  -11.3800001       4.55462578E-05
  -11.3699999       4.48428982E-05
  -11.3599997       4.38063835E-05
  -11.3500004       4.24759237E-05
  -11.3400002       4.08969390E-05
  -11.3299999       3.91204558E-05
  -11.3199997       3.72011491E-05
  -11.3100004       3.51942617E-05
  -11.3000002       3.31513947E-05
  -11.2900000       3.11160002E-05
  -11.2799997       2.91192973E-05
  -11.2700005       2.71776644E-05
  -11.2600002       2.52920545E-05
  -11.2500000       2.34498038E-05
  -11.2399998       2.16285462E-05
  -11.2299995       1.98014950E-05
  -11.2200003       1.79431136E-05
  -11.2100000       1.60339332E-05
  -11.1999998       1.40637349E-05
  -11.1899996       1.20324994E-05
  -11.1800003       9.94927450E-06
  -11.1700001       7.82946154E-06
  -11.1599998       5.69151052E-06
  -11.1499996       3.55401721E-06
  -11.1400003       1.43406362E-06
  -11.1300001      -6.52710071E-07
  -11.1199999      -2.69050065E-06
  -11.1099997      -4.66062875E-06
  -11.1000004      -6.53874577E-06
  -11.0900002      -8.29280270E-06
  -11.0799999      -9.88257489E-06
  -11.0699997      -1.12611215E-05
  -11.0600004      -1.23780846E-05
  -11.0500002      -1.31842980E-05
  -11.0400000      -1.36369608E-05
  -11.0299997      -1.37045472E-05
  -11.0200005      -1.33707099E-05
  -11.0100002      -1.26367668E-05
  -11.0000000      -1.15225421E-05
  -10.9899998      -1.00656353E-05
  -10.9799995      -8.31928264E-06
  -10.9700003      -6.34905609E-06
  -10.9600000      -4.22864468E-06
  -10.9499998      -2.03501190E-06
  -10.9399996       1.56683853E-07
  -10.9300003       2.27794294E-06
  -10.9200001       4.27088071E-06
  -10.9099998       6.09066728E-06
  -10.8999996       7.70591851E-06
  -10.8900003       9.09684240E-06
  -10.8800001       1.02514514E-05
  -10.8699999       1.11606714E-05
  -10.8599997       1.18135385E-05
  -10.8500004       1.21938829E-05
  -10.8400002       1.22795882E-05
  -10.8299999       1.20449822E-05
  -10.8199997       1.14660415E-05
  -10.8100004       1.05273057E-05
  -10.8000002       9.22876461E-06
  -10.7900000       7.59083878E-06
  -10.7799997       5.65592973E-06
  -10.7700005       3.48579965E-06
  -10.7600002       1.15512057E-06
  -10.7500000      -1.25744043E-06
  -10.7399998      -3.67859934E-06
  -10.7299995      -6.04804200E-06
  -10.7200003      -8.32250407E-06
  -10.7100000      -1.04754617E-05
  -10.6999998      -1.24927192E-05
  -10.6899996      -1.43652396E-05
  -10.6800003      -1.60811287E-05
  -10.6700001      -1.76190133E-05
  -10.6599998      -1.89443927E-05
  -10.6499996      -2.00098912E-05
  -10.6400003      -2.07591675E-05
  -10.6300001      -2.11334682E-05
  -10.6199999      -2.10791750E-05
  -10.6099997      -2.05546185E-05
  -10.6000004      -1.95348202E-05
  -10.5900002      -1.80134975E-05
  -10.5799999      -1.60023210E-05
  -10.5699997      -1.35281925E-05
  -10.5600004      -1.06295729E-05
  -10.5500002      -7.35292997E-06
  -10.5400000      -3.75008699E-06
  -10.5299997       1.23130292E-07
  -10.5200005       4.20717424E-06
  -10.5100002       8.43841281E-06
  -10.5000000       1.27487710E-05
  -10.4899998       1.70659732E-05
  -10.4799995       2.13146541E-05
  -10.4700003       2.54183506E-05
  -10.4600000       2.93020603E-05
  -10.4499998       3.28949391E-05
  -10.4399996       3.61326493E-05
  -10.4300003       3.89591696E-05
  -10.4200001       4.13278685E-05
  -10.4099998       4.32022025E-05
  -10.3999996       4.45562000E-05
  -10.3900003       4.53750908E-05
  -10.3800001       4.56561065E-05
  -10.3699999       4.54094297E-05
  -10.3599997       4.46585836E-05
  -10.3500004       4.34400790E-05
  -10.3400002       4.18014679E-05
  -10.3299999       3.97978074E-05
  -10.3199997       3.74867450E-05
  -10.3100004       3.49229449E-05
  -10.3000002       3.21529114E-05
  -10.2900000       2.92115037E-05
  -10.2799997       2.61209771E-05
  -10.2700005       2.28929457E-05
  -10.2600002       1.95329339E-05
  -10.2500000       1.60462969E-05
  -10.2399998       1.24440376E-05
  -10.2299995       8.74687339E-06
  -10.2200003       4.98628151E-06
  -10.2100000       1.20221353E-06
  -10.1999998      -2.56204589E-06
  -10.1899996      -6.26647488E-06
  -10.1800003      -9.88046395E-06
  -10.1700001      -1.33866379E-05
  -10.1599998      -1.67810958E-05
  -10.1499996      -2.00695958E-05
  -10.1400003      -2.32603306E-05
  -10.1300001      -2.63549009E-05
  -10.1199999      -2.93394114E-05
  -10.1099997      -3.21779262E-05
  -10.1000004      -3.48098292E-05
  -10.0900002      -3.71520619E-05
  -10.0799999      -3.91061149E-05
  -10.0699997      -4.05690007E-05
  -10.0600004      -4.14463684E-05
  -10.0500002      -4.16660005E-05
  -10.0400000      -4.11892725E-05
  -10.0299997      -4.00187964E-05
  -10.0200005      -3.82006219E-05
  -10.0100002      -3.58202924E-05
  -10.0000000      -3.29928298E-05
  -9.98999977      -2.98479281E-05
  -9.97999954      -2.65124727E-05
  -9.97000027      -2.30933092E-05
  -9.96000004      -1.96633573E-05
  -9.94999981      -1.62537799E-05
  -9.93999958      -1.28537886E-05
  -9.93000031      -9.41818143E-06
  -9.92000008      -5.88097055E-06
  -9.90999985      -2.17200090E-06
  -9.89999962       1.76697586E-06
  -9.89000034       5.97042435E-06
  -9.88000011       1.04435067E-05
  -9.86999989       1.51635122E-05
  -9.85999966       2.00869090E-05
  -9.85000038       2.51593028E-05
  -9.84000015       3.03250672E-05
  -9.82999992       3.55337870E-05
  -9.81999969       4.07421139E-05
  -9.81000042       4.59113617E-05
  -9.80000019       5.10021127E-05
  -9.78999996       5.59689215E-05
  -9.77999973       6.07570983E-05
  -9.77000046       6.53030511E-05
  -9.76000023       6.95382842E-05
  -9.75000000       7.33956622E-05
  -9.73999977       7.68156533E-05
  -9.72999954       7.97507164E-05
  -9.72000027       8.21660215E-05
  -9.71000004       8.40372086E-05
  -9.69999981       8.53455713E-05
  -9.68999958       8.60734217E-05
  -9.68000031       8.62011802E-05
  -9.67000008       8.57077175E-05
  -9.65999985       8.45738468E-05
  -9.64999962       8.27883487E-05
  -9.64000034       8.03545772E-05
  -9.63000011       7.72960193E-05
  -9.61999989       7.36593356E-05
  -9.60999966       6.95149211E-05
  -9.60000038       6.49549766E-05
  -9.59000015       6.00899002E-05
  -9.57999992       5.50438817E-05
  -9.56999969       4.99496018E-05
  -9.56000042       4.49417057E-05
  -9.55000019       4.01487232E-05
  -9.53999996       3.56830824E-05
  -9.52999973       3.16301375E-05
  -9.52000046       2.80378408E-05
  -9.51000023       2.49099558E-05
  -9.50000000       2.22054550E-05
  -9.48999977       1.98456819E-05
  -9.47999954       1.77293678E-05
  -9.47000027       1.57531413E-05
  -9.46000004       1.38331334E-05
  -9.44999981       1.19225715E-05
  -9.43999958       1.00207935E-05
  -9.43000031       8.17098226E-06
  -9.42000008       6.44698775E-06
  -9.40999985       4.93258403E-06
  -9.39999962       3.69857298E-06
  -9.39000034       2.78390257E-06
  -9.38000011       2.18562263E-06
  -9.36999989       1.86024215E-06
  -9.35999966       1.73534659E-06
  -9.35000038       1.72797559E-06
  -9.34000015       1.76418439E-06
  -9.32999992       1.79438632E-06
  -9.31999969       1.80059078E-06
  -9.31000042       1.79459209E-06
  -9.30000019       1.80827419E-06
  -9.28999996       1.88020272E-06
  -9.27999973       2.04283901E-06
  -9.27000046       2.31409467E-06
  -9.26000023       2.69561292E-06
  -9.25000000       3.17716899E-06
  -9.23999977       3.74526735E-06
  -9.22999954       4.39227870E-06
  -9.22000027       5.12293445E-06
  -9.21000004       5.95579104E-06
  -9.19999981       6.91913692E-06
  -9.18999958       8.04268802E-06
  -9.18000031       9.34754280E-06
  -9.17000008       1.08373197E-05
  -9.15999985       1.24931039E-05
  -9.14999962       1.42732360E-05
  -9.14000034       1.61180233E-05
  -9.13000011       1.79575545E-05
  -9.11999989       1.97205809E-05
  -9.10999966       2.13418607E-05
  -9.10000038       2.27664568E-05
  -9.09000015       2.39502424E-05
  -9.07999992       2.48573124E-05
  -9.06999969       2.54556089E-05
  -9.06000042       2.57127595E-05
  -9.05000019       2.55939394E-05
  -9.03999996       2.50626981E-05
  -9.02999973       2.40845711E-05
  -9.02000046       2.26324937E-05
  -9.01000023       2.06925379E-05
  -9.00000000       1.82679833E-05
  -8.98999977       1.53809651E-05
  -8.97999954       1.20711657E-05
  -8.97000027       8.39248878E-06
  -8.96000004       4.40965596E-06
  -8.94999981       1.95464722E-07
  -8.93999958      -4.16943294E-06
  -8.93000031      -8.59473130E-06
  -8.92000008      -1.29776508E-05
  -8.90999985      -1.72011078E-05
  -8.89999962      -2.11348270E-05
  -8.89000034      -2.46404343E-05
  -8.88000011      -2.75805687E-05
  -8.86999989      -2.98298946E-05
  -8.85999966      -3.12852608E-05
  -8.85000038      -3.18723214E-05
  -8.84000015      -3.15461875E-05
  -8.82999992      -3.02862973E-05
  -8.81999969      -2.80872282E-05
  -8.81000042      -2.49489312E-05
  -8.80000019      -2.08699894E-05
  -8.78999996      -1.58466828E-05
  -8.77999973      -9.87839576E-06
  -8.77000046      -2.97748556E-06
  -8.76000023       4.82015048E-06
  -8.75000000       1.34478878E-05
  -8.73999977       2.28080225E-05
  -8.72999954       3.27788839E-05
  -8.72000027       4.32274865E-05
  -8.71000004       5.40237525E-05
  -8.69999981       6.50510483E-05
  -8.68999958       7.62097043E-05
  -8.68000031       8.74116959E-05
  -8.67000008       9.85693332E-05
  -8.65999985       1.09581466E-04
  -8.64999962       1.20323748E-04
  -8.64000034       1.30646586E-04
  -8.63000011       1.40383039E-04
  -8.61999989       1.49364874E-04
  -8.60999966       1.57442235E-04
  -8.60000038       1.64501093E-04
  -8.59000015       1.70473431E-04
  -8.57999992       1.75337453E-04
  -8.56999969       1.79108814E-04
  -8.56000042       1.81826646E-04
  -8.55000019       1.83539320E-04
  -8.53999996       1.84294782E-04
  -8.52999973       1.84138218E-04
  -8.52000046       1.83116470E-04
  -8.51000023       1.81286028E-04
  -8.50000000       1.78720715E-04
  -8.48999977       1.75515248E-04
  -8.47999954       1.71782551E-04
  -8.47000027       1.67645616E-04
  -8.46000004       1.63226927E-04
  -8.44999981       1.58639101E-04
  -8.43999958       1.53979403E-04
  -8.43000031       1.49329760E-04
  -8.42000008       1.44760998E-04
  -8.40999985       1.40338932E-04
  -8.39999962       1.36128670E-04
  -8.39000034       1.32195521E-04
  -8.38000011       1.28601096E-04
  -8.36999989       1.25397302E-04
  -8.35999966       1.22619647E-04
  -8.35000038       1.20283621E-04
  -8.34000015       1.18385513E-04
  -8.32999992       1.16908115E-04
  -8.31999969       1.15829425E-04
  -8.31000042       1.15131814E-04
  -8.30000019       1.14808412E-04
  -8.28999996       1.14865616E-04
  -8.27999973       1.15320785E-04
  -8.27000046       1.16196308E-04
  -8.26000023       1.17512056E-04
  -8.25000000       1.19278309E-04
  -8.23999977       1.21490521E-04
  -8.22999954       1.24127313E-04
  -8.22000027       1.27151070E-04
  -8.21000004       1.30510438E-04
  -8.19999981       1.34144604E-04
  -8.18999958       1.37987314E-04
  -8.18000031       1.41971002E-04
  -8.17000008       1.46029342E-04
  -8.15999985       1.50097636E-04
  -8.14999962       1.54111098E-04
  -8.14000034       1.58000563E-04
  -8.13000011       1.61686548E-04
  -8.11999989       1.65074278E-04
  -8.10999966       1.68050858E-04
  -8.10000038       1.70488027E-04
  -8.09000015       1.72250395E-04
  -8.07999992       1.73208406E-04
  -8.06999969       1.73252978E-04
  -8.06000042       1.72307846E-04
  -8.05000019       1.70334606E-04
  -8.03999996       1.67329243E-04
  -8.02999973       1.63310440E-04
  -8.02000046       1.58303650E-04
  -8.01000023       1.52327004E-04
  -8.00000000       1.45384765E-04
  -7.98999977       1.37472525E-04
  -7.98000002       1.28592874E-04
  -7.96999979       1.18776981E-04
  -7.96000004       1.08103901E-04
  -7.94999981       9.67096857E-05
  -7.94000006       8.47807532E-05
  -7.92999983       7.25315040E-05
  -7.92000008       6.01713728E-05
  -7.90999985       4.78721777E-05
  -7.90000010       3.57457138E-05
  -7.88999987       2.38393914E-05
  -7.88000011       1.21525136E-05
  -7.86999989       6.67750157E-07
  -7.86000013      -1.06127100E-05
  -7.84999990      -2.16382196E-05
  -7.84000015      -3.22983651E-05
  -7.82999992      -4.24330501E-05
  -7.82000017      -5.18607085E-05
  -7.80999994      -6.04147099E-05
  -7.80000019      -6.79757213E-05
  -7.78999996      -7.44887948E-05
  -7.78000021      -7.99598056E-05
  -7.76999998      -8.44327078E-05
  -7.76000023      -8.79569416E-05
  -7.75000000      -9.05560228E-05
  -7.73999977      -9.22082327E-05
  -7.73000002      -9.28465524E-05
  -7.71999979      -9.23760381E-05
  -7.71000004      -9.07028807E-05
  -7.69999981      -8.77629209E-05
  -7.69000006      -8.35414612E-05
  -7.67999983      -7.80759656E-05
  -7.67000008      -7.14428243E-05
  -7.65999985      -6.37335979E-05
  -7.65000010      -5.50290861E-05
  -7.63999987      -4.53816065E-05
  -7.63000011      -3.48105132E-05
  -7.61999989      -2.33120318E-05
  -7.61000013      -1.08792929E-05
  -7.59999990       2.47558023E-06
  -7.59000015       1.67051166E-05
  -7.57999992       3.17208542E-05
  -7.57000017       4.74000517E-05
  -7.55999994       6.36014811E-05
  -7.55000019       8.01835922E-05
  -7.53999996       9.70194524E-05
  -7.53000021       1.14003196E-04
  -7.51999998       1.31046647E-04
  -7.51000023       1.48068561E-04
  -7.50000000       1.64981378E-04
  -7.48999977       1.81680240E-04
  -7.48000002       1.98039590E-04
  -7.46999979       2.13916428E-04
  -7.46000004       2.29162979E-04
  -7.44999981       2.43640679E-04
  -7.44000006       2.57235428E-04