  -16.0000000       0.00000000    
  -15.9899998       0.00000000    
  -15.9799995       0.00000000    
  -15.9700003       0.00000000    
  -15.9600000       0.00000000    
  -15.9499998       0.00000000    
  -15.9399996       0.00000000    
  -15.9300003       0.00000000    
  -15.9200001       0.00000000    
  -15.9099998       0.00000000    
  -15.8999996       0.00000000    
  -15.8900003       0.00000000    
  -15.8800001       0.00000000    
  -15.8699999      -4.20389539E-45
  -15.8599997      -2.17201262E-43
  -15.8500004      -7.16063515E-42
  -15.8400002      -9.84580327E-41
  -15.8299999      -1.03957008E-39
  -15.8199997      -8.31365156E-39
  -15.8100004      -5.29678824E-38
  -15.8000002      -2.80081919E-37
  -15.7900000      -1.26181434E-36
  -15.7799997      -4.93397431E-36
  -15.7700005      -1.69735458E-35
  -15.7600002      -5.18281314E-35
  -15.7500000      -1.41236381E-34
  -15.7399998      -3.43995450E-34
  -15.7299995      -7.46292160E-34
  -15.7200003      -1.42611838E-33
  -15.7100000      -2.33647061E-33
  -15.6999998      -3.05763089E-33
  -15.6899996      -2.41551746E-33
  -15.6800003       1.89142643E-33
  -15.6700001       1.32547303E-32
  -15.6599998       3.50115556E-32
  -15.6499996       6.74284248E-32
  -15.6400003       1.02638501E-31
  -15.6300001       1.19021789E-31
  -15.6199999       7.91799065E-32
  -15.6099997      -6.19103546E-32
  -15.6000004      -3.32247131E-31
  -15.5900002      -7.01902206E-31
  -15.5799999      -1.04006922E-30
  -15.5699997      -1.10302484E-30
  -15.5600004      -5.95864199E-31
  -15.5500002       6.63883992E-31
  -15.5400000       2.50973216E-30
  -15.5299997       4.23726668E-30
  -15.5200005       4.66395759E-30
  -15.5100002       2.62636922E-30
  -15.5000000      -2.08973762E-30
  -15.4899998      -7.77567132E-30
  -15.4799995      -1.05938041E-29
  -15.4700003      -6.05716327E-30
  -15.4600000       7.50330645E-30
  -15.4499998       2.47006760E-29
  -15.4399996       3.12182982E-29
  -15.4300003       8.41210615E-30
  -15.4200001      -5.33707748E-29
  -15.4099998      -1.36296558E-28
  -15.3999996      -1.83349975E-28
  -15.3900003      -1.11106297E-28
  -15.3800001       1.40053120E-28
  -15.3699999       5.27132033E-28
  -15.3599997       8.41187940E-28
  -15.3500004       7.34002957E-28
  -15.3400002      -9.94560996E-29
  -15.3299999      -1.59558481E-27
  -15.3199997      -3.01443127E-27
  -15.3100004      -2.95940148E-27
  -15.3000002      -4.67001208E-29
  -15.2900000       5.73264565E-27
  -15.2799997       1.15321272E-26
  -15.2700005       1.13579846E-26
  -15.2600002      -1.43642962E-27
  -15.2500000      -2.81853777E-26
  -15.2399998      -5.73319454E-26
  -15.2299995      -6.07172002E-26
  -15.2200003      -1.74166448E-27
  -15.2100000       1.38657243E-25
  -15.1999998       3.22035184E-25
  -15.1899996       4.19414318E-25
  -15.1800003       2.23465436E-25
  -15.1700001      -4.53349340E-25
  -15.1599998      -1.58400390E-24
  -15.1499996      -2.69679240E-24
  -15.1400003      -2.76839809E-24
  -15.1300001      -4.66841819E-25
  -15.1199999       5.07502895E-24
  -15.1099997       1.30168305E-23
  -15.1000004       1.95993786E-23
  -15.0900002       1.79612915E-23
  -15.0799999       1.93333883E-25
  -15.0699997      -3.76582064E-23
  -15.0600004      -8.84544937E-23
  -15.0500002      -1.27907712E-22
  -15.0400000      -1.15131939E-22
  -15.0299997      -5.80324066E-24
  -15.0200005       2.19484252E-22
  -15.0100002       5.17450042E-22
  -15.0000000       7.52651660E-22
  -14.9899998       7.04265229E-22
  -14.9799995       1.37213797E-22
  -14.9700003      -1.05308574E-21
  -14.9600000      -2.65440805E-21
  -14.9499998      -3.99691693E-21
  -14.9399996      -3.98878447E-21
  -14.9300003      -1.45413727E-21
  -14.9200001       4.19148976E-21
  -14.9099998       1.20791787E-20
  -14.8999996       1.92282075E-20
  -14.8900003       2.06645065E-20
  -14.8800001       1.08576899E-20
  -14.8699999      -1.33707421E-20
  -14.8599997      -4.90934731E-20
  -14.8500004      -8.42894007E-20
  -14.8400002      -9.79769328E-20
  -14.8299999      -6.57258392E-20
  -14.8199997       2.87318439E-20
  -14.8100004       1.78082124E-19
  -14.8000002       3.38367742E-19
  -14.7900000       4.27440257E-19
  -14.7799997       3.43918719E-19
  -14.7700005       1.02961408E-20
  -14.7600002      -5.67327407E-19
  -14.7500000      -1.24465815E-18
  -14.7399998      -1.72339824E-18
  -14.7299995      -1.60876403E-18
  -14.7200003      -5.57609534E-19
  -14.7100000       1.50349775E-18
  -14.6999998       4.16169290E-18
  -14.6899996       6.41890915E-18
  -14.6800003       6.83743896E-18
  -14.6700001       4.00749651E-18
  -14.6599998      -2.70695042E-18
  -14.6499996      -1.23574960E-17
  -14.6400003      -2.19126547E-17
  -14.6300001      -2.65130345E-17
  -14.6199999      -2.08008528E-17
  -14.6099997      -1.29052573E-18
  -14.6000004       3.07928637E-17
  -14.5900002       6.73413031E-17
  -14.5799999       9.33053974E-17
  -14.5699997       8.99753271E-17
  -14.5600004       4.18796614E-17
  -14.5500002      -5.40047296E-17
  -14.5400000      -1.79863979E-16
  -14.5299997      -2.93895816E-16
  -14.5200005      -3.36680694E-16
  -14.5100002      -2.49160697E-16
  -14.5000000       2.83149901E-20
  -14.4899998       3.85582500E-16
  -14.4799995       8.07310490E-16
  -14.4700003       1.09635890E-15
  -14.4600000       1.05535657E-15
  -14.4499998       5.31336621E-16
  -14.4399996      -4.94838712E-16
  -14.4300003      -1.83391040E-15
  -14.4200001      -3.06814731E-15
  -14.4099998      -3.62028743E-15
  -14.3999996      -2.92334279E-15
  -14.3900003      -6.65217749E-16
  -14.3800001       2.96134767E-15
  -14.3699999       7.10641669E-15
  -14.3599997       1.03149733E-14
  -14.3500004       1.08517228E-14
  -14.3400002       7.28291464E-15
  -14.3299999      -8.12297397E-16
  -14.3199997      -1.22344253E-14
  -14.3100004      -2.39480880E-14
  -14.3000002      -3.15051194E-14
  -14.2900000      -3.01976428E-14
  -14.2799997      -1.67805951E-14
  -14.2700005       8.68421884E-15
  -14.2600002       4.15276740E-14
  -14.2500000       7.24260672E-14
  -14.2399998       8.90973493E-14
  -14.2299995       7.97506185E-14
  -14.2200003       3.76407076E-14
  -14.2100000      -3.45693153E-14
  -14.1999998      -1.22313441E-13
  -14.1899996      -2.00067935E-13
  -14.1800003      -2.36581669E-13
  -14.1700001      -2.03970697E-13
  -14.1599998      -8.87205009E-14
  -14.1499996       9.86685709E-14
  -14.1400003       3.19228612E-13
  -14.1300001       5.09468823E-13
  -14.1199999       5.95004352E-13
  -14.1099997       5.12189141E-13
  -14.1000004       2.32849764E-13
  -14.0900002      -2.15292519E-13
  -14.0799999      -7.40586303E-13
  -14.0699997      -1.19804416E-12
  -14.0600004      -1.42037597E-12
  -14.0500002      -1.26510423E-12
  -14.0400000      -6.66942087E-13
  -14.0299997       3.19786840E-13
  -14.0200005       1.50480594E-12
  -14.0100002       2.58346513E-12
  -14.0000000       3.19921693E-12
  -13.9899998       3.03802751E-12
  -13.9799995       1.93379080E-12
  -13.9700003      -4.43815550E-14
  -13.9600000      -2.55340540E-12
  -13.9499998      -5.00860681E-12
  -13.9399996      -6.69415391E-12
  -13.9300003      -6.93672203E-12
  -13.9200001      -5.30644886E-12
  -13.9099998      -1.79382952E-12
  -13.8999996       3.09240459E-12
  -13.8900003       8.34999604E-12
  -13.8800001       1.26486321E-11
  -13.8699999       1.46186778E-11
  -13.8599997       1.32090745E-11
  -13.8500004       8.03135509E-12
  -13.8400002      -4.03991836E-13
  -13.8299999      -1.06410150E-11
  -13.8199997      -2.04673327E-11
  -13.8100004      -2.73312033E-11
  -13.8000002      -2.89192299E-11
  -13.7900000      -2.37744442E-11
  -13.7799997      -1.18079210E-11
  -13.7700005       5.44041591E-12
  -13.7600002       2.48930217E-11
  -13.7500000       4.24079383E-11
  -13.7399998       5.35745337E-11
  -13.7299995       5.46886668E-11
  -13.7200003       4.37038045E-11
  -13.7100000       2.09371080E-11
  -13.6999998      -1.06563976E-11
  -13.6899996      -4.57509135E-11
  -13.6800003      -7.74574016E-11
  -13.6700001      -9.85525481E-11
  -13.6599998      -1.02915773E-10
  -13.6499996      -8.69023950E-11
  -13.6400003      -5.03780420E-11
  -13.6300001       2.80237248E-12
  -13.6199999       6.50052512E-11
  -13.6099997       1.25728761E-10
  -13.6000004       1.73119033E-10
  -13.5900002       1.95893607E-10
  -13.5799999       1.85418375E-10
  -13.5699997       1.37635944E-10
  -13.5600004       5.45341758E-11
  -13.5500002      -5.51291165E-11
  -13.5400000      -1.76107406E-10
  -13.5299997      -2.88107510E-10
  -13.5200005      -3.68423764E-10
  -13.5100002      -3.95590810E-10
  -13.5000000      -3.53648444E-10
  -13.4899998      -2.36346803E-10
  -13.4799995      -5.04596642E-11
  -13.4700003       1.82713678E-10
  -13.4600000       4.28413055E-10
  -13.4499998       6.42438491E-10
  -13.4399996       7.77951203E-10
  -13.4300003       7.94206867E-10
  -13.4200001       6.65739075E-10
  -13.4099998       3.90132149E-10
  -13.3999996      -7.50520566E-12
  -13.3900003      -4.74853268E-10
  -13.3800001      -9.38123357E-10
  -13.3699999      -1.31279398E-09
  -13.3599997      -1.51782453E-09
  -13.3500004      -1.49090129E-09
  -13.3400002      -1.20196375E-09
  -13.3299999      -6.62300548E-10
  -13.3199997       7.27046409E-11
  -13.3100004       9.08043196E-10
  -13.3000002       1.72044234E-09
  -13.2900000       2.37512809E-09
  -13.2799997       2.74570255E-09
  -13.2700005       2.73447087E-09
  -13.2600002       2.29038633E-09
  -13.2500000       1.42217782E-09
  -13.2399998       2.04370548E-10
  -13.2299995      -1.22523669E-09
  -13.2200003      -2.67763944E-09
  -13.2100000      -3.93396959E-09
  -13.1999998      -4.77483120E-09
  -13.1899996      -5.01435027E-09
  -13.1800003      -4.53449589E-09
  -13.1700001      -3.31362382E-09
  -13.1599998      -1.44311707E-09
  -13.1499996       8.73186301E-10
  -13.1400003       3.33938965E-09
  -13.1300001       5.60687274E-09
  -13.1199999       7.32724015E-09
  -13.1099997       8.20990032E-09
  -13.1000004       8.07323808E-09
  -13.0900002       6.87845070E-09
  -13.0799999       4.73836481E-09
  -13.0699997       1.89869076E-09
  -13.0600004      -1.30475253E-09
  -13.0500002      -4.50355309E-09
  -13.0400000      -7.35614547E-09
  -13.0299997      -9.59645696E-09
  -13.0200005      -1.10613820E-08
  -13.0100002      -1.16930536E-08
  -13.0000000      -1.15173329E-08
  -12.9899998      -1.06063807E-08
  -12.9799995      -9.03586983E-09
  -12.9700003      -6.84783874E-09
  -12.9600000      -4.02819778E-09
  -12.9499998      -5.03759645E-10
  -12.9399996       3.83931509E-09
  -12.9300003       9.11678200E-09
  -12.9200001       1.53886681E-08
  -12.9099998       2.25856169E-08
  -12.8999996       3.04224947E-08
  -12.8900003       3.83076930E-08
  -12.8800001       4.52632030E-08
  -12.8699999       4.98800361E-08
  -12.8599997       5.03416331E-08
  -12.8500004       4.45510828E-08
  -12.8400002       3.03902112E-08
  -12.8299999       6.11878015E-09
  -12.8199997      -2.91080422E-08
  -12.8100004      -7.46667439E-08
  -12.8000002      -1.27936374E-07
  -12.7900000      -1.83938070E-07
  -12.7799997      -2.35274484E-07
  -12.7700005      -2.72475120E-07
  -12.7600002      -2.84808635E-07
  -12.7500000      -2.61543761E-07
  -12.7399998      -1.93571225E-07
  -12.7299995      -7.52156453E-08
  -12.7200003       9.39769507E-08
  -12.7100000       3.07729579E-07
  -12.6999998       5.52024915E-07
  -12.6899996       8.04810952E-07
  -12.6800003       1.03656339E-06
  -12.6700001       1.21180926E-06
  -12.6599998       1.29162731E-06
  -12.6499996       1.23712960E-06
  -12.6400003       1.01382511E-06
  -12.6300001       5.96680934E-07
  -12.6199999      -2.43573801E-08
  -12.6099997      -8.38857204E-07
  -12.6000004      -1.81094879E-06
  -12.5900002      -2.87568901E-06
  -12.5799999      -3.93757455E-06
  -12.5699997      -4.87208399E-06
  -12.5600004      -5.53094969E-06
  -12.5500002      -5.75168406E-06
  -12.5400000      -5.37140977E-06
  -12.5299997      -4.24448990E-06
  -12.5200005      -2.26312022E-06
  -12.5100002       6.20839103E-07
  -12.5000000       4.37457220E-06
  -12.4899998       8.86577163E-06
  -12.4799995       1.38489722E-05
  -12.4700003       1.89587445E-05
  -12.4600000       2.37113545E-05
  -12.4499998       2.75155635E-05
  -12.4399996       2.96934159E-05
  -12.4300003       2.95101981E-05
  -12.4200001       2.62124995E-05
  -12.4099998       1.90729297E-05
  -12.3999996       7.43888677E-06
  -12.3900003      -9.21746232E-06
  -12.3800001      -3.12510165E-05
  -12.3699999      -5.88005787E-05
  -12.3599997      -9.17542857E-05
  -12.3500004      -1.29725522E-04
  -12.3400002      -1.72042259E-04
  -12.3299999      -2.17750887E-04
  -12.3199997      -2.65632669E-04
  -12.3100004      -3.14237608E-04
  -12.3000002      -3.61925835E-04
  -12.2900000      -4.06923296E-04
  -12.2799997      -4.47381346E-04
  -12.2700005      -4.81443974E-04
  -12.2600002      -5.07313991E-04
  -12.2500000      -5.23319235E-04
  -12.2399998      -5.27976023E-04
  -12.2299995      -5.20042435E-04
  -12.2200003      -4.98569221E-04
  -12.2100000      -4.62926517E-04
  -12.1999998      -4.12832829E-04
  -12.1899996      -3.48353060E-04
  -12.1800003      -2.69888609E-04
  -12.1700001      -1.78156042E-04
  -12.1599998      -7.41444892E-05
  -12.1499996       4.09260392E-05
  -12.1400003       1.65655641E-04
  -12.1300001       2.98509083E-04
  -12.1199999       4.37862531E-04
  -12.1099997       5.82034001E-04
  -12.1000004       7.29311199E-04
  -12.0900002       8.77964834E-04
  -12.0799999       1.02625764E-03
  -12.0699997       1.17244548E-03
  -12.0600004       1.31477963E-03
  -12.0500002       1.45149976E-03
  -12.0400000       1.58083090E-03
  -12.0299997       1.70099200E-03
  -12.0200005       1.81017467E-03
  -12.0100002       1.90656795E-03
  -12.0000000       1.98834343E-03
  -11.9899998       2.05368060E-03
  -11.9799995       2.10077316E-03
  -11.9700003       2.12786160E-03
  -11.9600000       2.13327399E-03
  -11.9499998       2.11546803E-03
  -11.9399996       2.07308610E-03
  -11.9300003       2.00501177E-03
  -11.9200001       1.91042456E-03
  -11.9099998       1.78884191E-03
  -11.8999996       1.64014928E-03
  -11.8900003       1.46461290E-03
  -11.8800001       1.26286619E-03
  -11.8699999       1.03589962E-03
  -11.8599997       7.85019016E-04
  -11.8500004       5.11804130E-04
  -11.8400002       2.18072935E-04
  -11.8299999      -9.41657199E-05
  -11.8199997      -4.22726793E-04
  -11.8100004      -7.65292149E-04
  -11.8000002      -1.11941970E-03
  -11.7900000      -1.48255983E-03
  -11.7799997      -1.85205368E-03
  -11.7700005      -2.22516526E-03
  -11.7600002      -2.59905867E-03
  -11.7500000      -2.97083450E-03
  -11.7399998      -3.33752367E-03
  -11.7299995      -3.69610148E-03
  -11.7200003      -4.04351437E-03
  -11.7100000      -4.37667733E-03
  -11.6999998      -4.69250511E-03
  -11.6899996      -4.98793647E-03
  -11.6800003      -5.25994226E-03
  -11.6700001      -5.50555997E-03
  -11.6599998      -5.72191598E-03
  -11.6499996      -5.90623403E-03
  -11.6400003      -6.05587475E-03
  -11.6300001      -6.16831658E-03
  -11.6199999      -6.24120189E-03
  -11.6099997      -6.27233088E-03
  -11.6000004      -6.25967933E-03
  -11.5900002      -6.20141067E-03
  -11.5799999      -6.09591138E-03
  -11.5699997      -5.94177656E-03
  -11.5600004      -5.73786441E-03
  -11.5500002      -5.48329204E-03
  -11.5400000      -5.17745363E-03
  -11.5299997      -4.82002879E-03
  -11.5200005      -4.41098213E-03
  -11.5100002      -3.95054370E-03
  -11.5000000      -3.43921431E-03
  -11.4899998      -2.87774531E-03
  -11.4799995      -2.26712716E-03
  -11.4700003      -1.60857057E-03
  -11.4600000      -9.03513574E-04
  -11.4499998      -1.53608053E-04
  -11.4399996       6.39275706E-04
  -11.4300003       1.47304346E-03
  -11.4200001       2.34538526E-03
  -11.4099998       3.25377844E-03
  -11.3999996       4.19547595E-03
  -11.3900003       5.16752992E-03
  -11.3800001       6.16680225E-03
  -11.3699999       7.19000446E-03
  -11.3599997       8.23372044E-03
  -11.3500004       9.29446518E-03
  -11.3400002       1.03687430E-02
  -11.3299999       1.14531061E-02
  -11.3199997       1.25442455E-02
  -11.3100004       1.36390189E-02
  -11.3000002       1.47345169E-02
  -11.2900000       1.58281196E-02
  -11.2799997       1.69174690E-02
  -11.2700005       1.80004798E-02
  -11.2600002       1.90753173E-02
  -11.2500000       2.01403182E-02
  -11.2399998       2.11939532E-02
  -11.2299995       2.22347714E-02
  -11.2200003       2.32613124E-02
  -11.2100000       2.42720805E-02
  -11.1999998       2.52655298E-02
  -11.1899996       2.62400210E-02
  -11.1800003       2.71938983E-02
  -11.1700001       2.81254612E-02
  -11.1599998       2.90330164E-02
  -11.1499996       2.99149845E-02
  -11.1400003       3.07699014E-02
  -11.1300001       3.15965265E-02
  -11.1199999       3.23938280E-02
  -11.1099997       3.31611075E-02
  -11.1000004       3.38979885E-02
  -11.0900002       3.46043669E-02
  -11.0799999       3.52804996E-02
  -11.0699997       3.59268114E-02
  -11.0600004       3.65439840E-02
  -11.0500002       3.71327251E-02
  -11.0400000       3.76937538E-02
  -11.0299997       3.82276475E-02
  -11.0200005       3.87348048E-02
  -11.0100002       3.92153561E-02
  -11.0000000       3.96691784E-02
  -10.9899998       4.00958881E-02
  -10.9799995       4.04949300E-02
  -10.9700003       4.08656336E-02
  -10.9600000       4.12073694E-02
  -10.9499998       4.15195115E-02
  -10.9399996       4.18016687E-02
  -10.9300003       4.20535654E-02
  -10.9200001       4.22750935E-02
  -10.9099998       4.24663201E-02
  -10.8999996       4.26273234E-02
  -10.8900003       4.27582674E-02
  -10.8800001       4.28591631E-02
  -10.8699999       4.29300182E-02
  -10.8599997       4.29706126E-02
  -10.8500004       4.29806039E-02
  -10.8400002       4.29595970E-02
  -10.8299999       4.29069772E-02
  -10.8199997       4.28221636E-02
  -10.8100004       4.27044667E-02
  -10.8000002       4.25532311E-02
  -10.7900000       4.23678383E-02
  -10.7799997       4.21477333E-02
  -10.7700005       4.18925583E-02
  -10.7600002       4.16021198E-02
  -10.7500000       4.12764661E-02
  -10.7399998       4.09159176E-02
  -10.7299995       4.05210927E-02
  -10.7200003       4.00928594E-02
  -10.7100000       3.96323912E-02
  -10.6999998       3.91410738E-02
  -10.6899996       3.86205278E-02
  -10.6800003       3.80726010E-02
  -10.6700001       3.74993049E-02
  -10.6599998       3.69028822E-02
  -10.6499996       3.62857990E-02
  -10.6400003       3.56506817E-02
  -10.6300001       3.50004286E-02
  -10.6199999       3.43380272E-02
  -10.6099997       3.36666666E-02
  -10.6000004       3.29895914E-02
  -10.5900002       3.23100276E-02
  -10.5799999       3.16312350E-02
  -10.5699997       3.09562869E-02
  -10.5600004       3.02882064E-02
  -10.5500002       2.96298694E-02
  -10.5400000       2.89839432E-02
  -10.5299997       2.83529516E-02
  -10.5200005       2.77391803E-02
  -10.5100002       2.71447655E-02
  -10.5000000       2.65715364E-02
  -10.4899998       2.60211229E-02
  -10.4799995       2.54948698E-02
  -10.4700003       2.49939188E-02
  -10.4600000       2.45192461E-02
  -10.4499998       2.40715500E-02
  -10.4399996       2.36514062E-02
  -10.4300003       2.32592188E-02
  -10.4200001       2.28953231E-02
  -10.4099998       2.25598235E-02
  -10.3999996       2.22526845E-02
  -10.3900003       2.19736975E-02
  -10.3800001       2.17225030E-02
  -10.3699999       2.14986708E-02
  -10.3599997       2.13015769E-02
  -10.3500004       2.11305059E-02
  -10.3400002       2.09847614E-02
  -10.3299999       2.08635852E-02
  -10.3199997       2.07661912E-02
  -10.3100004       2.06918735E-02
  -10.3000002       2.06399094E-02
  -10.2900000       2.06097011E-02
  -10.2799997       2.06004884E-02
  -10.2700005       2.06118189E-02
  -10.2600002       2.06431802E-02
  -10.2500000       2.06941869E-02
  -10.2399998       2.07644068E-02
  -10.2299995       2.08534840E-02
  -10.2200003       2.09609512E-02
  -10.2100000       2.10862663E-02
  -10.1999998       2.12286450E-02
  -10.1899996       2.13872977E-02
  -10.1800003       2.15614755E-02
  -10.1700001       2.17501707E-02
  -10.1599998       2.19526812E-02
  -10.1499996       2.21684314E-02
  -10.1400003       2.23971419E-02
  -10.1300001       2.26388928E-02
  -10.1199999       2.28939205E-02
  -10.1099997       2.31628437E-02
  -10.1000004       2.34465525E-02
  -10.0900002       2.37461515E-02
  -10.0799999       2.40627080E-02
  -10.0699997       2.43977718E-02
  -10.0600004       2.47528702E-02
  -10.0500002       2.51297336E-02
  -10.0400000       2.55302545E-02
  -10.0299997       2.59564538E-02
  -10.0200005       2.64103990E-02
  -10.0100002       2.68941019E-02
  -10.0000000       2.74094418E-02
  -9.98999977       2.79580895E-02
  -9.97999954       2.85415091E-02
  -9.97000027       2.91609149E-02
  -9.96000004       2.98171546E-02
  -9.94999981       3.05110160E-02
  -9.93999958       3.12431362E-02
  -9.93000031       3.20139937E-02
  -9.92000008       3.28238644E-02
  -9.90999985       3.36731076E-02
  -9.89999962       3.45619135E-02
  -9.89000034       3.54902484E-02
  -9.88000011       3.64581086E-02
  -9.86999989       3.74651365E-02
  -9.85999966       3.85109335E-02
  -9.85000038       3.95949557E-02
  -9.84000015       4.07165624E-02
  -9.82999992       4.18750793E-02
  -9.81999969       4.30697016E-02
  -9.81000042       4.42997888E-02
  -9.80000019       4.55646142E-02
  -9.78999996       4.68635000E-02
  -9.77999973       4.81957830E-02
  -9.77000046       4.95609976E-02
  -9.76000023       5.09586819E-02
  -9.75000000       5.23883551E-02
  -9.73999977       5.38496971E-02
  -9.72999954       5.53423949E-02
  -9.72000027       5.68659380E-02
  -9.71000004       5.84198497E-02
  -9.69999981       6.00035191E-02
  -9.68999958       6.16161041E-02
  -9.68000031       6.32566512E-02
  -9.67000008       6.49237111E-02
  -9.65999985       6.66159689E-02
  -9.64999962       6.83317184E-02
  -9.64000034       7.00690523E-02
  -9.63000011       7.18258470E-02
  -9.61999989       7.35998526E-02
  -9.60999966       7.53883943E-02
  -9.60000038       7.71886930E-02
  -9.59000015       7.89976567E-02
  -9.57999992       8.08117390E-02
  -9.56999969       8.26274827E-02
  -9.56000042       8.44409242E-02
  -9.55000019       8.62481520E-02
  -9.53999996       8.80445763E-02
  -9.52999973       8.98258537E-02
  -9.52000046       9.15871933E-02
  -9.51000023       9.33239162E-02
  -9.50000000       9.50312912E-02
  -9.48999977       9.67045650E-02
  -9.47999954       9.83396098E-02
  -9.47000027       9.99323130E-02
  -9.46000004      0.101479836    
  -9.44999981      0.102979407    
  -9.43999958      0.104429714    
  -9.43000031      0.105830058    
  -9.42000008      0.107180700    
  -9.40999985      0.108482987    
  -9.39999962      0.109739102    
  -9.39000034      0.110951938    
  -9.38000011      0.112125292    
  -9.36999989      0.113263875    
  -9.35999966      0.114372902    
  -9.35000038      0.115458474    
  -9.34000015      0.116527557    
  -9.32999992      0.117587142    
  -9.31999969      0.118645102    
  -9.31000042      0.119709358    
  -9.30000019      0.120787993    
  -9.28999996      0.121889070    
  -9.27999973      0.123020567    
  -9.27000046      0.124189645    
  -9.26000023      0.125403985    
  -9.25000000      0.126670256    
  -9.23999977      0.127994686    
  -9.22999954      0.129383713    
  -9.22000027      0.130842298    
  -9.21000004      0.132375345    
  -9.19999981      0.133986786    
  -9.18999958      0.135680169    
  -9.18000031      0.137457848    
  -9.17000008      0.139321446    
  -9.15999985      0.141271546    
  -9.14999962      0.143307731    
  -9.14000034      0.145428836    
  -9.13000011      0.147632852    
  -9.11999989      0.149916738    
  -9.10999966      0.152277291    
  -9.10000038      0.154709890    
  -9.09000015      0.157209650    
  -9.07999992      0.159771621    
  -9.06999969      0.162389264    
  -9.06000042      0.165056527    
  -9.05000019      0.167766526    
  -9.03999996      0.170512259    
  -9.02999973      0.173286095    
  -9.02000046      0.176080525    
  -9.01000023      0.178887665    
  -9.00000000      0.181699663    
  -8.98999977      0.184508324    
  -8.97999954      0.187305614    
  -8.97000027      0.190083787    
  -8.96000004      0.192834660    
  -8.94999981      0.195551395    
  -8.93999958      0.198226303    
  -8.93000031      0.200852871    
  -8.92000008      0.203424662    
  -8.90999985      0.205936059    
  -8.89999962      0.208381757    
  -8.89000034      0.210756451    
  -8.88000011      0.213056594    
  -8.86999989      0.215278044    
  -8.85999966      0.217418149    
  -8.85000038      0.219474271    
  -8.84000015      0.221445024    
  -8.82999992      0.223329440    
  -8.81999969      0.225127161    
  -8.81000042      0.226838633    
  -8.80000019      0.228464663    
  -8.78999996      0.230007112    
  -8.77999973      0.231468141    
  -8.77000046      0.232850775    
  -8.76000023      0.234158367    
  -8.75000000      0.235395655    
  -8.73999977      0.236567944    
  -8.72999954      0.237681285    
  -8.72000027      0.238741949    
  -8.71000004      0.239758298    
  -8.69999981      0.240737543    
  -8.68999958      0.241688386    
  -8.68000031      0.242619440    
  -8.67000008      0.243539676    
  -8.65999985      0.244457439    
  -8.64999962      0.245382264    
  -8.64000034      0.246322885    
  -8.63000011      0.247287631    
  -8.61999989      0.248285398    
  -8.60999966      0.249322459    
  -8.60000038      0.250406802    
  -8.59000015      0.251543969    
  -8.57999992      0.252739042    
  -8.56999969      0.253996402    
  -8.56000042      0.255318999    
  -8.55000019      0.256709993    
  -8.53999996      0.258170277    
  -8.52999973      0.259701967    
  -8.52000046      0.261305094    
  -8.51000023      0.262979656    
  -8.50000000      0.264725059    
  -8.48999977      0.266540527    
  -8.47999954      0.268424004    
  -8.47000027      0.270374388    
  -8.46000004      0.272389174    
  -8.44999981      0.274466246    
  -8.43999958      0.276604563    
  -8.43000031      0.278801948    
  -8.42000008      0.281057239    
  -8.40999985      0.283369571    
  -8.39999962      0.285737991    
  -8.39000034      0.288163185    
  -8.38000011      0.290645629    
  -8.36999989      0.293186396    
  -8.35999966      0.295786351    
  -8.35000038      0.298449159    
  -8.34000015      0.301177412    
  -8.32999992      0.303974599    
  -8.31999969      0.306843758    
  -8.31000042      0.309789807    
  -8.30000019      0.312814802    
  -8.28999996      0.315923154    
  -8.27999973      0.319117635    
  -8.27000046      0.322400570    
  -8.26000023      0.325774819    
  -8.25000000      0.329241872    
  -8.23999977      0.332804143    
  -8.22999954      0.336462379    
  -8.22000027      0.340217322    
  -8.21000004      0.344070256    
  -8.19999981      0.348020822    
  -8.18999958      0.352068692    
  -8.18000031      0.356213212    
  -8.17000008      0.360453457    
  -8.15999985      0.364788055    
  -8.14999962      0.369216591    
  -8.14000034      0.373737723    
  -8.13000011      0.378349721    
  -8.11999989      0.383052409    
  -8.10999966      0.387843549    
  -8.10000038      0.392722249    
  -8.09000015      0.397686273    
  -8.07999992      0.402734011    
  -8.06999969      0.407863349    
  -8.06000042      0.413072705    
  -8.05000019      0.418358803    
  -8.03999996      0.423720121    
  -8.02999973      0.429152817    
  -8.02000046      0.434654206    
  -8.01000023      0.440220088    
  -8.00000000      0.445846200    
  -7.98999977      0.451527834    
  -7.98000002      0.457258791    
  -7.96999979      0.463032454    
  -7.96000004      0.468842864    
  -7.94999981      0.474682629    
  -7.94000006      0.480545014    
  -7.92999983      0.486421257    
  -7.92000008      0.492303759    
  -7.90999985      0.498185486    
  -7.90000010      0.504056871    
  -7.88999987      0.509910047    
  -7.88000011      0.515736699    
  -7.86999989      0.521528482    
  -7.86000013      0.527278006    
  -7.84999990      0.532977164    
  -7.84000015      0.538621128    
  -7.82999992      0.544203162    
  -7.82000017      0.549719393    
  -7.80999994      0.555164039    
  -7.80000019      0.560534656    
  -7.78999996      0.565828800    
  -7.78000021      0.571043134    
  -7.76999998      0.576177955    
  -7.76000023      0.581232369    
  -7.75000000      0.586207688    
  -7.73999977      0.591105878    
  -7.73000002      0.595929742    
  -7.71999979      0.600681543    
  -7.71000004      0.605367482    
  -7.69999981      0.609991193    
  -7.69000006      0.614558160    
  -7.67999983      0.619074702    
  -7.67000008      0.623546124    
  -7.65999985      0.627979577    
  -7.65000010      0.632383466    
  -7.63999987      0.636764467    
  -7.63000011      0.641132414    
  -7.61999989      0.645496547    
  -7.61000013      0.649866879    
  -7.59999990      0.654251873    
  -7.59000015      0.658661723    
  -7.57999992      0.663107038    
  -7.57000017      0.667596281    
  -7.55999994      0.672138870    
  -7.55000019      0.676745296    
  -7.53999996      0.681424916    
  -7.53000021      0.686188817    
  -7.51999998      0.691046059    
  -7.51000023      0.696007252    
  -7.50000000      0.701083541    
  -7.48999977      0.706282139    
  -7.48000002      0.711614728    
  -7.46999979      0.717088401    
  -7.46000004      0.722714663    
  -7.44999981      0.728500366    
  -7.44000006      0.734455168    