  -16.0000000       0.00000000    
  -15.9899998       0.00000000    
  -15.9799995       0.00000000    
  -15.9700003       0.00000000    
  -15.9600000       0.00000000    
  -15.9499998       0.00000000    
  -15.9399996       0.00000000    
  -15.9300003       0.00000000    
  -15.9200001       0.00000000    
  -15.9099998       0.00000000    
  -15.8999996       0.00000000    
  -15.8900003       0.00000000    
  -15.8800001       0.00000000    
  -15.8699999      -1.40129846E-45
  -15.8599997      -1.56945428E-43
  -15.8500004       1.28919459E-42
  -15.8400002       2.10965484E-41
  -15.8299999       1.79474103E-40
  -15.8199997       7.61807502E-40
  -15.8100004      -3.85487398E-40
  -15.8000002      -3.27574564E-38
  -15.7900000      -2.93005679E-37
  -15.7799997      -1.74975193E-36
  -15.7700005      -8.26050674E-36
  -15.7600002      -3.28118872E-35
  -15.7500000      -1.13163785E-34
  -15.7399998      -3.45092127E-34
  -15.7299995      -9.40384093E-34
  -15.7200003      -2.30188445E-33
  -15.7100000      -5.06266425E-33
  -15.6999998      -9.94578130E-33
  -15.6899996      -1.71762794E-32
  -15.6800003      -2.50971805E-32
  -15.6700001      -2.78079028E-32
  -15.6599998      -1.23683135E-32
  -15.6499996       4.23251934E-32
  -15.6400003       1.60625590E-31
  -15.6300001       3.53054979E-31
  -15.6199999       5.82405541E-31
  -15.6099997       7.17201594E-31
  -15.6000004       4.96119601E-31
  -15.5900002      -4.45157407E-31
  -15.5799999      -2.41091390E-30
  -15.5699997      -5.28671230E-30
  -15.5600004      -8.01834225E-30
  -15.5500002      -8.16376727E-30
  -15.5400000      -2.03369231E-30
  -15.5299997       1.38542613E-29
  -15.5200005       3.94489886E-29
  -15.5100002       6.63341912E-29
  -15.5000000       7.36563963E-29
  -15.4899998       2.95478098E-29
  -15.4799995      -9.57187122E-29
  -15.4700003      -3.00775392E-28
  -15.4600000      -5.13236593E-28
  -15.4499998      -5.60070924E-28
  -15.4399996      -1.88353469E-28
  -15.4300003       8.16365785E-28
  -15.4200001       2.39338165E-27
  -15.4099998       3.91024368E-27
  -15.3999996       3.99198362E-27
  -15.3900003       7.82652911E-28
  -15.3800001      -7.05477999E-27
  -15.3699999      -1.85649385E-26
  -15.3599997      -2.85440660E-26
  -15.3500004      -2.68520764E-26
  -15.3400002      -1.06378567E-27
  -15.3299999       5.58950722E-26
  -15.3199997       1.33777189E-25
  -15.3100004       1.93691804E-25
  -15.3000002       1.67420394E-25
  -15.2900000      -2.03650174E-26
  -15.2799997      -3.99986104E-25
  -15.2700005      -8.84226892E-25
  -15.2600002      -1.21110078E-24
  -15.2500000      -9.62720129E-25
  -15.2399998       2.75920199E-25
  -15.2299995       2.59798836E-24
  -15.2200003       5.37786161E-24
  -15.2100000       7.01876684E-24
  -15.1999998       5.17541703E-24
  -15.1899996      -2.25401404E-24
  -15.1800003      -1.53616083E-23
  -15.1700001      -3.02461704E-23
  -15.1599998      -3.80428392E-23
  -15.1499996      -2.65915797E-23
  -15.1400003       1.40428916E-23
  -15.1300001       8.26284214E-23
  -15.1199999       1.57604109E-22
  -15.1099997       1.93837324E-22
  -15.1000004       1.32635829E-22
  -15.0900002      -7.04764168E-23
  -15.0799999      -4.03961735E-22
  -15.0699997      -7.60682036E-22
  -15.0600004      -9.28573649E-22
  -15.0500002      -6.42300445E-22
  -15.0400000       2.88800942E-22
  -15.0299997       1.79872646E-21
  -15.0200005       3.40303518E-21
  -15.0100002       4.17611785E-21
  -15.0000000       2.98833355E-21
  -14.9899998      -9.48765459E-22
  -14.9799995      -7.33791921E-21
  -14.9700003      -1.41647281E-20
  -14.9600000      -1.76500794E-20
  -14.9499998      -1.32386549E-20
  -14.9399996       2.23202107E-21
  -14.9300003       2.76478399E-20
  -14.9200001       5.52400907E-20
  -14.9099998       7.04760014E-20
  -14.8999996       5.58434026E-20
  -14.8900003      -1.03298531E-21
  -14.8800001      -9.67436388E-20
  -14.8699999      -2.03373146E-19
  -14.8599997      -2.67992043E-19
  -14.8500004      -2.26034728E-19
  -14.8400002      -2.99861115E-20
  -14.8299999       3.12930439E-19
  -14.8199997       7.09415271E-19
  -14.8100004       9.76523523E-19
  -14.8000002       8.85185929E-19
  -14.7900000       2.56096772E-19
  -14.7799997      -9.12234115E-19
  -14.7700005      -2.33291444E-18
  -14.7600002      -3.40765263E-18
  -14.7500000      -3.35565358E-18
  -14.7399998      -1.51541484E-18
  -14.7299995       2.23816566E-18
  -14.7200003       7.11328095E-18
  -14.7100000       1.12754917E-17
  -14.6999998       1.21857460E-17
  -14.6899996       7.48892848E-18
  -14.6800003      -3.69376096E-18
  -14.6700001      -1.94999227E-17
  -14.6599998      -3.47362653E-17
  -14.6499996      -4.16199796E-17
  -14.6400003      -3.21909114E-17
  -14.6300001      -2.08558061E-18
  -14.6199999       4.54558080E-17
  -14.6099997       9.71726586E-17
  -14.6000004       1.30913759E-16
  -14.5900002       1.21555673E-16
  -14.5799999       5.12737697E-17
  -14.5699997      -7.85488195E-17
  -14.5600004      -2.38527522E-16
  -14.5500002      -3.71156391E-16
  -14.5400000      -4.03505135E-16
  -14.5299997      -2.72862850E-16
  -14.5200005       4.04201509E-17
  -14.5100002       4.84365732E-16
  -14.5000000       9.25877633E-16
  -14.4899998       1.17286153E-15
  -14.4799995       1.03192902E-15
  -14.4700003       3.91528645E-16
  -14.4600000      -6.94977510E-16
  -14.4499998      -1.96248217E-15
  -14.4399996      -2.95844870E-15
  -14.4300003      -3.15677046E-15
  -14.4200001      -2.14855773E-15
  -14.4099998       1.40922790E-16
  -14.3999996       3.29025014E-15
  -14.3900003       6.36345953E-15
  -14.3800001       8.09704798E-15
  -14.3699999       7.29133669E-15
  -14.3599997       3.31958311E-15
  -14.3500004      -3.41198953E-15
  -14.3400002      -1.12561810E-14
  -14.3299999      -1.75442394E-14
  -14.3199997      -1.92891544E-14
  -14.3100004      -1.42556170E-14
  -14.3000002      -2.09207334E-15
  -14.2900000       1.49066296E-14
  -14.2799997       3.18278051E-14
  -14.2700005       4.22060966E-14
  -14.2600002       4.00300385E-14
  -14.2500000       2.22035169E-14
  -14.2399998      -9.36116588E-15
  -14.2299995      -4.69483088E-14
  -14.2200003      -7.82378516E-14
  -14.2100000      -8.96301330E-14
  -14.1999998      -7.10436213E-14
  -14.1899996      -2.07737998E-14
  -14.1800003       5.14434652E-14
  -14.1700001       1.24828587E-13
  -14.1599998       1.72258272E-13
  -14.1499996       1.68697914E-13
  -14.1400003       1.01204689E-13
  -14.1300001      -2.28173447E-14
  -14.1199999      -1.72708541E-13
  -14.1099997      -2.99560344E-13
  -14.1000004      -3.49381602E-13
  -14.0900002      -2.81814502E-13
  -14.0799999      -8.88769716E-14
  -14.0699997       1.93016190E-13
  -14.0600004       4.84252558E-13
  -14.0500002       6.79179640E-13
  -14.0400000       6.77557674E-13
  -14.0299997       4.22575766E-13
  -14.0200005      -6.65154780E-14
  -14.0100002      -6.80104356E-13
  -14.0000000      -1.23227979E-12
  -13.9899998      -1.50586195E-12
  -13.9799995      -1.32017964E-12
  -13.9700003      -6.04769490E-13
  -13.9600000       5.45852805E-13
  -13.9499998       1.85931522E-12
  -13.9399996       2.93012446E-12
  -13.9300003       3.32101881E-12
  -13.9200001       2.70192983E-12
  -13.9099998       9.88912619E-13
  -13.8999996      -1.56214408E-12
  -13.8900003      -4.34991583E-12
  -13.8800001      -6.53291267E-12
  -13.8699999      -7.23985455E-12
  -13.8599997      -5.84130530E-12
  -13.8500004      -2.21176463E-12
  -13.8400002       3.10432539E-12
  -13.8299999       8.89679042E-12
  -13.8199997       1.35047702E-11
  -13.8100004       1.52218359E-11
  -13.8000002       1.28085103E-11
  -13.7900000       5.98102470E-12
  -13.7799997      -4.28442915E-12
  -13.7700005      -1.57617669E-11
  -13.7600002      -2.53651457E-11
  -13.7500000      -2.98820760E-11
  -13.7399998      -2.68989518E-11
  -13.7299995      -1.56745675E-11
  -13.7200003       2.30325372E-12
  -13.7100000       2.33162326E-11
  -13.6999998       4.20652055E-11
  -13.6899996       5.29089099E-11
  -13.6800003       5.14216204E-11
  -13.6700001       3.58683951E-11
  -13.6599998       8.14610272E-12
  -13.6499996      -2.61769217E-11
  -13.6400003      -5.88737600E-11
  -13.6300001      -8.09949816E-11
  -13.6199999      -8.52818094E-11
  -13.6099997      -6.84181184E-11
  -13.6000004      -3.24362620E-11
  -13.5900002       1.52547384E-11
  -13.5799999       6.33956707E-11
  -13.5699997       9.96766975E-11
  -13.5600004       1.14118631E-10
  -13.5500002       1.02070435E-10
  -13.5400000       6.58689769E-11
  -13.5299997       1.45184784E-11
  -13.5200005      -3.86923306E-11
  -13.5100002      -8.00673416E-11
  -13.5000000      -9.97521857E-11
  -13.4899998      -9.49847631E-11
  -13.4799995      -7.11437645E-11
  -13.4700003      -3.99952502E-11
  -13.4600000      -1.54279471E-11
  -13.4499998      -7.88322359E-12
  -13.4399996      -1.93459831E-11
  -13.4300003      -4.08720835E-11
  -13.4200001      -5.40824642E-11
  -13.4099998      -3.69044482E-11
  -13.3999996       2.76111668E-11
  -13.3900003       1.41935352E-10
  -13.3800001       2.87431356E-10
  -13.3699999       4.23610563E-10
  -13.3599997       4.95049612E-10
  -13.3500004       4.45809917E-10
  -13.3400002       2.38423503E-10
  -13.3299999      -1.27392680E-10
  -13.3199997      -6.02472627E-10
  -13.3100004      -1.08770914E-09
  -13.3000002      -1.44882661E-09
  -13.2900000      -1.54528346E-09
  -13.2799997      -1.26876532E-09
  -13.2700005      -5.82064230E-10
  -13.2600002       4.52428844E-10
  -13.2500000       1.66496128E-09
  -13.2399998       2.79772228E-09
  -13.2299995       3.55183816E-09
  -13.2200003       3.65448694E-09
  -13.2100000       2.93282887E-09
  -13.1999998       1.37601330E-09
  -13.1899996      -8.31971270E-10
  -13.1800003      -3.32228534E-09
  -13.1700001      -5.59757884E-09
  -13.1599998      -7.12727477E-09
  -13.1499996      -7.46338902E-09
  -13.1400003      -6.35106190E-09
  -13.1300001      -3.80617671E-09
  -13.1199999      -1.38774214E-10
  -13.1099997       4.08769818E-09
  -13.1000004       8.15560508E-09
  -13.0900002       1.13297087E-08
  -13.0799999       1.30000348E-08
  -13.0699997       1.27967059E-08
  -13.0600004       1.06500542E-08
  -13.0500002       6.78327217E-09
  -13.0400000       1.64469627E-09
  -13.0299997      -4.19671320E-09
  -13.0200005      -1.01574642E-08
  -13.0100002      -1.57129421E-08
  -13.0000000      -2.04159534E-08
  -12.9899998      -2.38587763E-08
  -12.9799995      -2.56015156E-08
  -12.9700003      -2.51076422E-08
  -12.9600000      -2.17353655E-08
  -12.9499998      -1.48217829E-08
  -12.9399996      -3.87258980E-09
  -12.9300003       1.11680309E-08
  -12.9200001       2.96287208E-08
  -12.9099998       4.98909429E-08
  -12.8999996       6.93306959E-08
  -12.8900003       8.44917452E-08
  -12.8800001       9.15145648E-08
  -12.8699999       8.67836789E-08
  -12.8599997       6.76916798E-08
  -12.8500004       3.33722987E-08
  -12.8400002      -1.47589905E-08
  -12.8299999      -7.28015479E-08
  -12.8199997      -1.34582635E-07
  -12.8100004      -1.92289477E-07
  -12.8000002      -2.37428054E-07
  -12.7900000      -2.61950731E-07
  -12.7799997      -2.59352475E-07
  -12.7700005      -2.25551943E-07
  -12.7600002      -1.59424644E-07
  -12.7500000      -6.29432293E-08
  -12.7399998       5.90203690E-08
  -12.7299995       1.99108158E-07
  -12.7200003       3.47940443E-07
  -12.7100000       4.94490848E-07
  -12.6999998       6.26306701E-07
  -12.6899996       7.29605858E-07
  -12.6800003       7.89412979E-07
  -12.6700001       7.89950036E-07
  -12.6599998       7.15531144E-07
  -12.6499996       5.52143263E-07
  -12.6400003       2.89746623E-07
  -12.6300001      -7.48561675E-08
  -12.6199999      -5.34944888E-07
  -12.6099997      -1.07112737E-06
  -12.6000004      -1.64950052E-06
  -12.5900002      -2.22132826E-06
  -12.5799999      -2.72461580E-06
  -12.5699997      -3.08777408E-06
  -12.5600004      -3.23520112E-06
  -12.5500002      -3.09438974E-06
  -12.5400000      -2.60388288E-06
  -12.5299997      -1.72126818E-06
  -12.5200005      -4.30570509E-07
  -12.5100002       1.25165150E-06
  -12.5000000       3.27187149E-06
  -12.4899998       5.53698101E-06
  -12.4799995       7.91360799E-06
  -12.4700003       1.02291688E-05
  -12.4600000       1.22748215E-05
  -12.4499998       1.38103132E-05
  -12.4399996       1.45709055E-05
  -12.4300003       1.42768431E-05
  -12.4200001       1.26455197E-05
  -12.4099998       9.40635800E-06
  -12.3999996       4.31810804E-06
  -12.3900003      -2.81213352E-06
  -12.3800001      -1.21097901E-05
  -12.3699999      -2.36147916E-05
  -12.3599997      -3.72668110E-05
  -12.3500004      -5.28958954E-05
  -12.3400002      -7.02185062E-05
  -12.3299999      -8.88413924E-05
  -12.3199997      -1.08271117E-04
  -12.3100004      -1.27930194E-04
  -12.3000002      -1.47176848E-04
  -12.2900000      -1.65326564E-04
  -12.2799997      -1.81674186E-04
  -12.2700005      -1.95516390E-04
  -12.2600002      -2.06168377E-04
  -12.2500000      -2.12983636E-04
  -12.2399998      -2.15368098E-04
  -12.2299995      -2.12796789E-04
  -12.2200003      -2.04827564E-04
  -12.2100000      -1.91117244E-04
  -12.1999998      -1.71438354E-04
  -12.1899996      -1.45691854E-04
  -12.1800003      -1.13917573E-04
  -12.1700001      -7.63018543E-05
  -12.1599998      -3.31749070E-05
  -12.1499996       1.49974339E-05
  -12.1400003       6.76282070E-05
  -12.1300001       1.24030979E-04
  -12.1199999       1.83445678E-04
  -12.1099997       2.45058734E-04
  -12.1000004       3.08031042E-04
  -12.0900002       3.71508562E-04
  -12.0799999       4.34638379E-04
  -12.0699997       4.96573688E-04
  -12.0600004       5.56477928E-04
  -12.0500002       6.13527023E-04
  -12.0400000       6.66913693E-04
  -12.0299997       7.15851318E-04
  -12.0200005       7.59580696E-04
  -12.0100002       7.97382556E-04
  -12.0000000       8.28581629E-04
  -11.9899998       8.52554746E-04
  -11.9799995       8.68732634E-04
  -11.9700003       8.76595965E-04
  -11.9600000       8.75672791E-04
  -11.9499998       8.65527370E-04
  -11.9399996       8.45755741E-04
  -11.9300003       8.15988344E-04
  -11.9200001       7.75892462E-04
  -11.9099998       7.25187478E-04
  -11.8999996       6.63667917E-04
  -11.8900003       5.91225922E-04
  -11.8800001       5.07874298E-04
  -11.8699999       4.13773232E-04
  -11.8599997       3.09238763E-04
  -11.8500004       1.94749169E-04
  -11.8400002       7.09411470E-05
  -11.8299999      -6.14054370E-05
  -11.8199997      -2.01380943E-04
  -11.8100004      -3.47971421E-04
  -11.8000002      -5.00072143E-04
  -11.7900000      -6.56505872E-04
  -11.7799997      -8.16033455E-04
  -11.7700005      -9.77358548E-04
  -11.7600002      -1.13913685E-03
  -11.7500000      -1.29998033E-03
  -11.7399998      -1.45846501E-03
  -11.7299995      -1.61314046E-03
  -11.7200003      -1.76254706E-03
  -11.7100000      -1.90523127E-03
  -11.6999998      -2.03976338E-03
  -11.6899996      -2.16475688E-03
  -11.6800003      -2.27887626E-03
  -11.6700001      -2.38085049E-03
  -11.6599998      -2.46947212E-03
  -11.6499996      -2.54359283E-03
  -11.6400003      -2.60212761E-03
  -11.6300001      -2.64403992E-03
  -11.6199999      -2.66834022E-03
  -11.6099997      -2.67409277E-03
  -11.6000004      -2.66041397E-03
  -11.5900002      -2.62649008E-03
  -11.5799999      -2.57159048E-03
  -11.5699997      -2.49508396E-03
  -11.5600004      -2.39645550E-03
  -11.5500002      -2.27532629E-03
  -11.5400000      -2.13145139E-03
  -11.5299997      -1.96472974E-03
  -11.5200005      -1.77520385E-03
  -11.5100002      -1.56305369E-03
  -11.5000000      -1.32859999E-03
  -11.4899998      -1.07229245E-03
  -11.4799995      -7.94718624E-04
  -11.4700003      -4.96604654E-04
  -11.4600000      -1.78822942E-04
  -11.4499998       1.57614224E-04
  -11.4399996       5.11546619E-04
  -11.4300003       8.81692104E-04
  -11.4200001       1.26664457E-03
  -11.4099998       1.66491210E-03
  -11.3999996       2.07494223E-03
  -11.3900003       2.49514962E-03
  -11.3800001       2.92393845E-03
  -11.3699999       3.35973571E-03
  -11.3599997       3.80099169E-03
  -11.3500004       4.24619764E-03
  -11.3400002       4.69388580E-03
  -11.3299999       5.14263380E-03
  -11.3199997       5.59106283E-03
  -11.3100004       6.03784854E-03
  -11.3000002       6.48171548E-03
  -11.2900000       6.92145759E-03
  -11.2799997       7.35591864E-03
  -11.2700005       7.78400758E-03
  -11.2600002       8.20469111E-03
  -11.2500000       8.61697830E-03
  -11.2399998       9.01990756E-03
  -11.2299995       9.41254478E-03
  -11.2200003       9.79398470E-03
  -11.2100000       1.01633370E-02
  -11.1999998       1.05197616E-02
  -11.1899996       1.08624659E-02
  -11.1800003       1.11907348E-02
  -11.1700001       1.15039414E-02
  -11.1599998       1.18015576E-02
  -11.1499996       1.20831551E-02
  -11.1400003       1.23483893E-02
  -11.1300001       1.25970114E-02
  -11.1199999       1.28288316E-02
  -11.1099997       1.30437305E-02
  -11.1000004       1.32416654E-02
  -11.0900002       1.34226587E-02
  -11.0799999       1.35868313E-02
  -11.0699997       1.37344198E-02
  -11.0600004       1.38657680E-02
  -11.0500002       1.39813488E-02
  -11.0400000       1.40817352E-02
  -11.0299997       1.41676078E-02
  -11.0200005       1.42396735E-02
  -11.0100002       1.42986840E-02
  -11.0000000       1.43453525E-02
  -10.9899998       1.43803433E-02
  -10.9799995       1.44042457E-02
  -10.9700003       1.44175524E-02
  -10.9600000       1.44206416E-02
  -10.9499998       1.44138141E-02
  -10.9399996       1.43972579E-02
  -10.9300003       1.43710803E-02
  -10.9200001       1.43353026E-02
  -10.9099998       1.42898709E-02
  -10.8999996       1.42346416E-02
  -10.8900003       1.41693875E-02
  -10.8800001       1.40938163E-02
  -10.8699999       1.40075283E-02
  -10.8599997       1.39100868E-02
  -10.8500004       1.38009954E-02
  -10.8400002       1.36797614E-02
  -10.8299999       1.35459127E-02
  -10.8199997       1.33990720E-02
  -10.8100004       1.32389627E-02
  -10.8000002       1.30654648E-02
  -10.7900000       1.28786042E-02
  -10.7799997       1.26785282E-02
  -10.7700005       1.24654891E-02
  -10.7600002       1.22397803E-02
  -10.7500000       1.20016923E-02
  -10.7399998       1.17514692E-02
  -10.7299995       1.14892935E-02
  -10.7200003       1.12152938E-02
  -10.7100000       1.09295612E-02
  -10.6999998       1.06322197E-02
  -10.6899996       1.03234472E-02
  -10.6800003       1.00035174E-02
  -10.6700001       9.67285223E-03
  -10.6599998       9.33196303E-03
  -10.6499996       8.98148119E-03
  -10.6400003       8.62209965E-03
  -10.6300001       8.25456250E-03
  -10.6199999       7.87963159E-03
  -10.6099997       7.49810971E-03
  -10.6000004       7.11085787E-03
  -10.5900002       6.71883253E-03
  -10.5799999       6.32312149E-03
  -10.5699997       5.92497550E-03
  -10.5600004       5.52578736E-03
  -10.5500002       5.12708817E-03
  -10.5400000       4.73050494E-03
  -10.5299997       4.33766004E-03
  -10.5200005       3.95011669E-03
  -10.5100002       3.56931472E-03
  -10.5000000       3.19648557E-03
  -10.4899998       2.83265789E-03
  -10.4799995       2.47858232E-03
  -10.4700003       2.13481532E-03
  -10.4600000       1.80167111E-03
  -10.4499998       1.47927704E-03
  -10.4399996       1.16762391E-03
  -10.4300003       8.66552815E-04
  -10.4200001       5.75805141E-04
  -10.4099998       2.95047503E-04
  -10.3999996       2.38352568E-05
  -10.3900003      -2.38352950E-04
  -10.3800001      -4.92171384E-04
  -10.3699999      -7.38377101E-04
  -10.3599997      -9.77880438E-04
  -10.3500004      -1.21174671E-03
  -10.3400002      -1.44114392E-03
  -10.3299999      -1.66738487E-03
  -10.3199997      -1.89179834E-03
  -10.3100004      -2.11574091E-03
  -10.3000002      -2.34046369E-03
  -10.2900000      -2.56710406E-03
  -10.2799997      -2.79660267E-03
  -10.2700005      -3.02964868E-03
  -10.2600002      -3.26671381E-03
  -10.2500000      -3.50797619E-03
  -10.2399998      -3.75339994E-03
  -10.2299995      -4.00270848E-03
  -10.2200003      -4.25544474E-03
  -10.2100000      -4.51097637E-03
  -10.1999998      -4.76856390E-03
  -10.1899996      -5.02739009E-03
  -10.1800003      -5.28660603E-03
  -10.1700001      -5.54540753E-03
  -10.1599998      -5.80305699E-03
  -10.1499996      -6.05890341E-03
  -10.1400003      -6.31241314E-03
  -10.1300001      -6.56316150E-03
  -10.1199999      -6.81077223E-03
  -10.1099997      -7.05491193E-03
  -10.1000004      -7.29517685E-03
  -10.0900002      -7.53109483E-03
  -10.0799999      -7.76206469E-03
  -10.0699997      -7.98735674E-03
  -10.0600004      -8.20610579E-03
  -10.0500002      -8.41735210E-03
  -10.0400000      -8.62008147E-03
  -10.0299997      -8.81325640E-03
  -10.0200005      -8.99586547E-03
  -10.0100002      -9.16694757E-03
  -10.0000000      -9.32562258E-03
  -9.98999977      -9.47104767E-03
  -9.97999954      -9.60243866E-03
  -9.97000027      -9.71904863E-03
  -9.96000004      -9.82016325E-03
  -9.94999981      -9.90506541E-03
  -9.93999958      -9.97302774E-03
  -9.93000031      -1.00233285E-02
  -9.92000008      -1.00552524E-02
  -9.90999985      -1.00680422E-02
  -9.89999962      -1.00609912E-02
  -9.89000034      -1.00333625E-02
  -9.88000011      -9.98450350E-03
  -9.86999989      -9.91381239E-03
  -9.85999966      -9.82081797E-03
  -9.85000038      -9.70516820E-03
  -9.84000015      -9.56677087E-03
  -9.82999992      -9.40570142E-03
  -9.81999969      -9.22230259E-03
  -9.81000042      -9.01711825E-03
  -9.80000019      -8.79088510E-03
  -9.78999996      -8.54444690E-03
  -9.77999973      -8.27868655E-03
  -9.77000046      -7.99452607E-03
  -9.76000023      -7.69284414E-03
  -9.75000000      -7.37449108E-03
  -9.73999977      -7.04035023E-03
  -9.72999954      -6.69134455E-03
  -9.72000027      -6.32853201E-03
  -9.71000004      -5.95316524E-03
  -9.69999981      -5.56669757E-03
  -9.68999958      -5.17075090E-03
  -9.68000031      -4.76707518E-03
  -9.67000008      -4.35747625E-03
  -9.65999985      -3.94367566E-03
  -9.64999962      -3.52731370E-03
  -9.64000034      -3.10981506E-03
  -9.63000011      -2.69241375E-03
  -9.61999989      -2.27621896E-03
  -9.60999966      -1.86219357E-03
  -9.60000038      -1.45122956E-03
  -9.59000015      -1.04416441E-03
  -9.57999992      -6.41781779E-04
  -9.56999969      -2.44761846E-04
  -9.56000042       1.46400620E-04
  -9.55000019       5.31392812E-04
  -9.53999996       9.10235627E-04
  -9.52999973       1.28323864E-03
  -9.52000046       1.65098044E-03
  -9.51000023       2.01429147E-03
  -9.50000000       2.37413589E-03
  -9.48999977       2.73155933E-03
  -9.47999954       3.08753992E-03
  -9.47000027       3.44295334E-03
  -9.46000004       3.79849179E-03
  -9.44999981       4.15464584E-03
  -9.43999958       4.51163761E-03
  -9.43000031       4.86946851E-03
  -9.42000008       5.22788055E-03
  -9.40999985       5.58640435E-03
  -9.39999962       5.94432559E-03
  -9.39000034       6.30071014E-03
  -9.38000011       6.65440783E-03
  -9.36999989       7.00400397E-03
  -9.35999966       7.34781707E-03
  -9.35000038       7.68378610E-03
  -9.34000015       8.00952502E-03
  -9.32999992       8.32222402E-03
  -9.31999969       8.61868542E-03
  -9.31000042       8.89534131E-03
  -9.30000019       9.14836023E-03
  -9.28999996       9.37371328E-03
  -9.27999973       9.56736039E-03
  -9.27000046       9.72531457E-03
  -9.26000023       9.84375831E-03
  -9.25000000       9.91915818E-03
  -9.23999977       9.94820986E-03
  -9.22999954       9.92797967E-03
  -9.22000027       9.85584222E-03
  -9.21000004       9.72954277E-03
  -9.19999981       9.54723638E-03
  -9.18999958       9.30753816E-03
  -9.18000031       9.00948700E-03
  -9.17000008       8.65267497E-03
  -9.15999985       8.23718589E-03
  -9.14999962       7.76349334E-03
  -9.14000034       7.23252352E-03
  -9.13000011       6.64549833E-03
  -9.11999989       6.00393210E-03
  -9.10999966       5.30962273E-03
  -9.10000038       4.56463359E-03
  -9.09000015       3.77142383E-03
  -9.07999992       2.93282187E-03
  -9.06999969       2.05207430E-03
  -9.06000042       1.13294355E-03
  -9.05000019       1.79557755E-04
  -9.03999996      -8.03528936E-04
  -9.02999973      -1.81142858E-03
  -9.02000046      -2.83893826E-03
  -9.01000023      -3.88065353E-03
  -9.00000000      -4.93080262E-03
  -8.98999977      -5.98343369E-03
  -8.97999954      -7.03226728E-03
  -8.97000027      -8.07074737E-03
  -8.96000004      -9.09206923E-03
  -8.94999981      -1.00892363E-02
  -8.93999958      -1.10550420E-02
  -8.93000031      -1.19822789E-02
  -8.92000008      -1.28635857E-02
  -8.90999985      -1.36916386E-02
  -8.89999962      -1.44590875E-02
  -8.89000034      -1.51586812E-02
  -8.88000011      -1.57832336E-02
  -8.86999989      -1.63257662E-02
  -8.85999966      -1.67796053E-02
  -8.85000038      -1.71385091E-02
  -8.84000015      -1.73967220E-02
  -8.82999992      -1.75490957E-02
  -8.81999969      -1.75911151E-02
  -8.81000042      -1.75187699E-02
  -8.80000019      -1.73286758E-02
  -8.78999996      -1.70179140E-02
  -8.77999973      -1.65840387E-02
  -8.77000046      -1.60251670E-02
  -8.76000023      -1.53399548E-02
  -8.75000000      -1.45276012E-02
  -8.73999977      -1.35879219E-02
  -8.72999954      -1.25213014E-02
  -8.72000027      -1.13285743E-02
  -8.71000004      -1.00109521E-02
  -8.69999981      -8.56992882E-03
  -8.68999958      -7.00720726E-03
  -8.68000031      -5.32478932E-03
  -8.67000008      -3.52496398E-03
  -8.65999985      -1.61051576E-03
  -8.64999962       4.15163202E-04
  -8.64000034       2.54794513E-03
  -8.63000011       4.78296727E-03
  -8.61999989       7.11475452E-03
  -8.60999966       9.53741930E-03
  -8.60000038       1.20447520E-02
  -8.59000015       1.46306176E-02
  -8.57999992       1.72889791E-02
  -8.56999969       2.00139806E-02
  -8.56000042       2.27999333E-02
  -8.55000019       2.56411619E-02
  -8.53999996       2.85318848E-02
  -8.52999973       3.14661339E-02
  -8.52000046       3.44377980E-02
  -8.51000023       3.74405123E-02
  -8.50000000       4.04679105E-02
  -8.48999977       4.35136333E-02
  -8.47999954       4.65715863E-02
  -8.47000027       4.96359468E-02
  -8.46000004       5.27011566E-02
  -8.44999981       5.57619482E-02
  -8.43999958       5.88133782E-02
  -8.43000031       6.18506595E-02
  -8.42000008       6.48692027E-02
  -8.40999985       6.78647682E-02
  -8.39999962       7.08333924E-02
  -8.39000034       7.37714395E-02
  -8.38000011       7.66758025E-02
  -8.36999989       7.95437768E-02
  -8.35999966       8.23729858E-02
  -8.35000038       8.51615593E-02
  -8.34000015       8.79075900E-02
  -8.32999992       9.06094089E-02
  -8.31999969       9.32653695E-02
  -8.31000042       9.58735645E-02
  -8.30000019       9.84322280E-02
  -8.28999996      0.100939229    
  -8.27999973      0.103392251    
  -8.27000046      0.105788931    
  -8.26000023      0.108126268    
  -8.25000000      0.110401221    
  -8.23999977      0.112610132    
  -8.22999954      0.114749014    
  -8.22000027      0.116813436    
  -8.21000004      0.118798546    
  -8.19999981      0.120699517    
  -8.18999958      0.122511223    
  -8.18000031      0.124228708    
  -8.17000008      0.125847280    
  -8.15999985      0.127362326    
  -8.14999962      0.128769562    
  -8.14000034      0.130064830    
  -8.13000011      0.131244123    
  -8.11999989      0.132303372    
  -8.10999966      0.133238554    
  -8.10000038      0.134045541    
  -8.09000015      0.134720311    
  -8.07999992      0.135258913    
  -8.06999969      0.135657534    
  -8.06000042      0.135912791    
  -8.05000019      0.136021599    
  -8.03999996      0.135981292    
  -8.02999973      0.135789216    
  -8.02000046      0.135443211    
  -8.01000023      0.134941071    
  -8.00000000      0.134280607    
  -7.98999977      0.133459777    
  -7.98000002      0.132476851    
  -7.96999979      0.131330222    
  -7.96000004      0.130018756    
  -7.94999981      0.128541827    
  -7.94000006      0.126899451    
  -7.92999983      0.125092268    
  -7.92000008      0.123121500    
  -7.90999985      0.120988831    
  -7.90000010      0.118696898    
  -7.88999987      0.116248772    
  -7.88000011      0.113648407    
  -7.86999989      0.110900588    
  -7.86000013      0.108011052    
  -7.84999990      0.104986556    
  -7.84000015      0.101834424    
  -7.82999992       9.85630453E-02
  -7.82000017       9.51812118E-02
  -7.80999994       9.16979015E-02
  -7.80000019       8.81226584E-02
  -7.78999996       8.44650716E-02
  -7.78000021       8.07351694E-02
  -7.76999998       7.69433081E-02
  -7.76000023       7.31001571E-02
  -7.75000000       6.92167580E-02
  -7.73999977       6.53045326E-02
  -7.73000002       6.13750741E-02
  -7.71999979       5.74396402E-02
  -7.71000004       5.35094105E-02
  -7.69999981       4.95951027E-02
  -7.69000006       4.57066968E-02
  -7.67999983       4.18540724E-02
  -7.67000008       3.80465947E-02
  -7.65999985       3.42933536E-02
  -7.65000010       3.06034032E-02
  -7.63999987       2.69854385E-02
  -7.63000011       2.34478023E-02
  -7.61999989       1.99984368E-02
  -7.61000013       1.66443940E-02
  -7.59999990       1.33920768E-02
  -7.59000015       1.02467192E-02
  -7.57999992       7.21309986E-03
  -7.57000017       4.29491093E-03
  -7.55999994       1.49538286E-03
  -7.55000019      -1.18246512E-03
  -7.53999996      -3.73618095E-03
  -7.53000021      -6.16346486E-03
  -7.51999998      -8.46233871E-03
  -7.51000023      -1.06314234E-02
  -7.50000000      -1.26698259E-02
  -7.48999977      -1.45772435E-02
  -7.48000002      -1.63537636E-02
  -7.46999979      -1.79999080E-02
  -7.46000004      -1.95167288E-02
  -7.44999981      -2.09052414E-02
  -7.44000006      -2.21667718E-02