  -16.0000000       0.00000000    
  -15.9899998       0.00000000    
  -15.9799995       0.00000000    
  -15.9700003       0.00000000    
  -15.9600000       0.00000000    
  -15.9499998       0.00000000    
  -15.9399996       0.00000000    
  -15.9300003       0.00000000    
  -15.9200001       0.00000000    
  -15.9099998       0.00000000    
  -15.8999996       0.00000000    
  -15.8900003       0.00000000    
  -15.8800001       0.00000000    
  -15.8699999       7.60905066E-43
  -15.8599997       2.96388638E-41
  -15.8500004       5.76672153E-40
  -15.8400002       6.95787707E-39
  -15.8299999       6.06534216E-38
  -15.8199997       4.12125286E-37
  -15.8100004       2.28296999E-36
  -15.8000002       1.05855153E-35
  -15.7900000       4.17875930E-35
  -15.7799997       1.41866223E-34
  -15.7700005       4.15093550E-34
  -15.7600002       1.03796812E-33
  -15.7500000       2.15281229E-33
  -15.7399998       3.36991639E-33
  -15.7299995       2.37376354E-33
  -15.7200003      -7.98293642E-33
  -15.7100000      -4.41877819E-32
  -15.6999998      -1.36190436E-31
  -15.6899996      -3.24530951E-31
  -15.6800003      -6.36919092E-31
  -15.6700001      -1.02521558E-30
  -15.6599998      -1.25012931E-30
  -15.6499996      -7.37014975E-31
  -15.6400003       1.49065153E-30
  -15.6300001       6.56908900E-30
  -15.6199999       1.49160130E-29
  -15.6099997       2.44921459E-29
  -15.6000004       2.85331607E-29
  -15.5900002       1.42600683E-29
  -15.5799999      -3.43799771E-29
  -15.5699997      -1.26139913E-28
  -15.5600004      -2.42477084E-28
  -15.5500002      -3.14111350E-28
  -15.5400000      -2.13140308E-28
  -15.5299997       2.07670041E-28
  -15.5200005       9.99022714E-28
  -15.5100002       1.93006164E-27
  -15.5000000       2.32425193E-27
  -15.4899998       1.11221982E-27
  -15.4799995      -2.65152001E-27
  -15.4700003      -8.69554211E-27
  -15.4600000      -1.41823293E-26
  -15.4499998      -1.31099099E-26
  -15.4399996       1.95176167E-27
  -15.4300003       3.44622453E-26
  -15.4200001       7.54263623E-26
  -15.4099998       9.61539784E-26
  -15.3999996       5.08246996E-26
  -15.3900003      -1.01378019E-25
  -15.3800001      -3.51453113E-25
  -15.3699999      -5.87595470E-25
  -15.3599997      -5.73496948E-25
  -15.3500004      -1.51261968E-26
  -15.3400002       1.24102404E-24
  -15.3299999       2.90456574E-24
  -15.3199997       3.98313936E-24
  -15.3100004       2.84882404E-24
  -15.3000002      -2.06629197E-24
  -15.2900000      -1.08526940E-23
  -15.2799997      -2.04103134E-23
  -15.2700005      -2.35735083E-23
  -15.2600002      -1.07005211E-23
  -15.2500000       2.49974969E-23
  -15.2399998       7.88801583E-23
  -15.2299995       1.26696804E-22
  -15.2200003       1.23803995E-22
  -15.2100000       1.98531946E-23
  -15.1999998      -2.07267725E-22
  -15.1899996      -5.05863152E-22
  -15.1800003      -7.17263183E-22
  -15.1700001      -5.92510119E-22
  -15.1599998       1.06234522E-22
  -15.1499996       1.41599477E-21
  -15.1400003       2.95413157E-21
  -15.1300001       3.80509342E-21
  -15.1199999       2.69234506E-21
  -15.1099997      -1.43111334E-21
  -15.1000004      -8.42257999E-21
  -15.0900002      -1.59744490E-20
  -15.0799999      -1.92970170E-20
  -15.0699997      -1.22500360E-20
  -15.0600004       9.61460380E-21
  -15.0500002       4.45566782E-20
  -15.0400000       8.05175476E-20
  -15.0299997       9.44234036E-20
  -15.0200005       5.81971644E-20
  -15.0100002      -4.70281647E-20
  -15.0000000      -2.11159953E-19
  -14.9899998      -3.78172449E-19
  -14.9799995      -4.44899041E-19
  -14.9700003      -2.88540011E-19
  -14.9600000       1.72342124E-19
  -14.9499998       8.95781389E-19
  -14.9399996       1.64786083E-18
  -14.9300003       1.99926866E-18
  -14.9200001       1.43642777E-18
  -14.9099998      -3.96419536E-19
  -14.8999996      -3.37394647E-18
  -14.8900003      -6.61718434E-18
  -14.8800001      -8.46501236E-18
  -14.8699999      -6.87357476E-18
  -14.8599997      -3.06315165E-19
  -14.8500004       1.10587786E-17
  -14.8400002       2.42702236E-17
  -14.8299999       3.33765988E-17
  -14.8199997       3.06950943E-17
  -14.8100004       9.83715527E-18
  -14.8000002      -3.00361589E-17
  -14.7900000      -8.02452015E-17
  -14.7799997      -1.21193792E-16
  -14.7700005      -1.25843328E-16
  -14.7600002      -6.91615769E-17
  -14.7500000       5.78084634E-17
  -14.7399998       2.33797478E-16
  -14.7299995       4.00245832E-16
  -14.7200003       4.68946556E-16
  -14.7100000       3.48845225E-16
  -14.6999998      -1.07084527E-17
  -14.6899996      -5.72583473E-16
  -14.6800003      -1.18136331E-15
  -14.6700001      -1.57358838E-15
  -14.6599998      -1.44527315E-15
  -14.6499996      -5.74237199E-16
  -14.6400003       1.03272883E-15
  -14.6300001       3.02465725E-15
  -14.6199999       4.69301823E-15
  -14.6099997       5.11654826E-15
  -14.6000004       3.47459585E-15
  -14.5900002      -5.33687614E-16
  -14.5799999      -6.30422101E-15
  -14.5699997      -1.21663188E-14
  -14.5600004      -1.56190961E-14
  -14.5500002      -1.40409458E-14
  -14.5400000      -5.77049496E-15
  -14.5299997       8.75047291E-15
  -14.5200005       2.62402032E-14
  -14.5100002       4.07357931E-14
  -14.5000000       4.49530448E-14
  -14.4899998       3.27638510E-14
  -14.4799995       2.20027735E-15
  -14.4700003      -4.20585909E-14
  -14.4600000      -8.79487320E-14
  -14.4499998      -1.18001827E-13
  -14.4399996      -1.14254607E-13
  -14.4300003      -6.51752076E-14
  -14.4200001       2.74487667E-14
  -14.4099998       1.44421435E-13
  -14.3999996       2.50426877E-13
  -14.3900003       3.02003160E-13
  -14.3800001       2.61293916E-13
  -14.3699999       1.12117096E-13
  -14.3599997      -1.27094353E-13
  -14.3500004      -3.99349336E-13
  -14.3400002      -6.18318602E-13
  -14.3299999      -6.91037776E-13
  -14.3199997      -5.49399935E-13
  -14.3100004      -1.81175347E-13
  -14.3000002       3.50956758E-13
  -14.2900000       9.12260610E-13
  -14.2799997       1.32492422E-12
  -14.2700005       1.41873861E-12
  -14.2600002       1.09014794E-12
  -14.2500000       3.50493506E-13
  -14.2399998      -6.55630335E-13
  -14.2299995      -1.67370729E-12
  -14.2200003      -2.40314084E-12
  -14.2100000      -2.58564719E-12
  -14.1999998      -2.09078523E-12
  -14.1899996      -9.68929039E-13
  -14.1800003       5.50112039E-13
  -14.1700001       2.11638042E-12
  -14.1599998       3.35930350E-12
  -14.1499996       3.99249861E-12
  -14.1400003       3.88491626E-12
  -14.1300001       3.07070406E-12
  -14.1199999       1.69600987E-12
  -14.1099997      -6.86851089E-14
  -14.1000004      -2.10134991E-12
  -14.0900002      -4.33587064E-12
  -14.0799999      -6.68094703E-12
  -14.0699997      -8.87282088E-12
  -14.0600004      -1.03362223E-11
  -14.0500002      -1.01567704E-11
  -14.0400000      -7.25650746E-12
  -14.0299997      -8.00806470E-13
  -14.0200005       9.23963597E-12
  -14.0100002       2.15585483E-11
  -14.0000000       3.32733840E-11
  -13.9899998       4.02185611E-11
  -13.9799995       3.78927376E-11
  -13.9700003       2.29607132E-11
  -13.9600000      -5.04713979E-12
  -13.9499998      -4.24045833E-11
  -13.9399996      -8.08543718E-11
  -13.9300003      -1.08741592E-10
  -13.9200001      -1.13708550E-10
  -13.9099998      -8.65212207E-11
  -13.8999996      -2.50711691E-11
  -13.8900003       6.27457322E-11
  -13.8800001       1.58549465E-10
  -13.8699999       2.36223374E-10
  -13.8599997       2.67863454E-10
  -13.8500004       2.31853592E-10
  -13.8400002       1.21045673E-10
  -13.8299999      -5.14939445E-11
  -13.8199997      -2.51527382E-10
  -13.8100004      -4.28853481E-10
  -13.8000002      -5.28461885E-10
  -13.7900000      -5.05523234E-10
  -13.7799997      -3.40523526E-10
  -13.7700005      -5.00637205E-11
  -13.7600002       3.10721698E-10
  -13.7500000       6.56443844E-10
  -13.7399998       8.90006568E-10
  -13.7299995       9.27917743E-10
  -13.7200003       7.26209037E-10
  -13.7100000       2.99642089E-10
  -13.6999998      -2.72514566E-10
  -13.6899996      -8.58037197E-10
  -13.6800003      -1.30020072E-09
  -13.6700001      -1.45780343E-09
  -13.6599998      -1.24718957E-09
  -13.6499996      -6.74632961E-10
  -13.6400003       1.51701096E-10
  -13.6300001       1.03687792E-09
  -13.6199999       1.74135517E-09
  -13.6099997       2.04244555E-09
  -13.6000004       1.80050219E-09
  -13.5900002       1.01161790E-09
  -13.5799999      -1.70413531E-10
  -13.5699997      -1.45415580E-09
  -13.5600004      -2.47356247E-09
  -13.5500002      -2.88276669E-09
  -13.5400000      -2.46045384E-09
  -13.5299997      -1.19527088E-09
  -13.5200005       6.75508594E-10
  -13.5100002       2.69288414E-09
  -13.5000000       4.27176472E-09
  -13.4899998       4.84916907E-09
  -13.4799995       4.05133349E-09
  -13.4700003       1.83511628E-09
  -13.4600000      -1.44079682E-09
  -13.4499998      -5.04630426E-09
  -13.4399996      -8.01992783E-09
  -13.4300003      -9.39662481E-09
  -13.4200001      -8.47387049E-09
  -13.4099998      -5.04836395E-09
  -13.3999996       4.45943588E-10
  -13.3900003       6.95072799E-09
  -13.3800001       1.29650859E-08
  -13.3699999       1.68711090E-08
  -13.3599997       1.73357773E-08
  -13.3500004       1.36929765E-08
  -13.3400002       6.20265217E-09
  -13.3299999      -3.89492394E-09
  -13.3199997      -1.45675294E-08
  -13.3100004      -2.33999504E-08
  -13.3000002      -2.81422547E-08
  -13.2900000      -2.72708114E-08
  -13.2799997      -2.04224140E-08
  -13.2700005      -8.58014637E-09
  -13.2600002       6.05500672E-09
  -13.2500000       2.04988329E-08
  -13.2399998       3.16367661E-08
  -13.2299995       3.69464281E-08
  -13.2200003       3.51122083E-08
  -13.2100000       2.63738968E-08
  -13.1999998       1.25080781E-08
  -13.1899996      -3.56734287E-09
  -13.1800003      -1.84784703E-08
  -13.1700001      -2.92041218E-08
  -13.1599998      -3.38018395E-08
  -13.1499996      -3.18584874E-08
  -13.1400003      -2.45395437E-08
  -13.1300001      -1.42159067E-08
  -13.1199999      -3.76261777E-09
  -13.1099997       4.27992752E-09
  -13.1000004       8.44401526E-09
  -13.0900002       8.75183570E-09
  -13.0799999       6.67283606E-09
  -13.0699997       4.61085126E-09
  -13.0600004       5.05123365E-09
  -13.0500002       9.61021662E-09
  -13.0400000       1.82801756E-08
  -13.0299997       2.91310052E-08
  -13.0200005       3.86146439E-08
  -13.0100002       4.24529922E-08
  -13.0000000       3.69103077E-08
  -12.9899998       2.01154435E-08
  -12.9799995      -6.95562896E-09
  -12.9700003      -4.01680786E-08
  -12.9600000      -7.27662552E-08
  -12.9499998      -9.67163345E-08
  -12.9399996      -1.04581240E-07
  -12.9300003      -9.14846296E-08
  -12.9200001      -5.66567593E-08
  -12.9099998      -4.13047063E-09
  -12.8999996       5.76571644E-08
  -12.8900003       1.17321051E-07
  -12.8800001       1.62750950E-07
  -12.8699999       1.83586849E-07
  -12.8599997       1.73378908E-07
  -12.8500004       1.30925756E-07
  -12.8400002       6.05106010E-08
  -12.8299999      -2.89724937E-08
  -12.8199997      -1.25718742E-07
  -12.8100004      -2.17065946E-07
  -12.8000002      -2.91371293E-07
  -12.7900000      -3.39280035E-07
  -12.7799997      -3.54188273E-07
  -12.7700005      -3.31976622E-07
  -12.7600002      -2.70356935E-07
  -12.7500000      -1.68307125E-07
  -12.7399998      -2.60500919E-08
  -12.7299995       1.54146335E-07
  -12.7200003       3.66382125E-07
  -12.7100000       5.99139923E-07
  -12.6999998       8.33532567E-07
  -12.6899996       1.04257992E-06
  -12.6800003       1.19217589E-06
  -12.6700001       1.24416840E-06
  -12.6599998       1.16145372E-06
  -12.6499996       9.14520854E-07
  -12.6400003       4.88441003E-07
  -12.6300001      -1.11024832E-07
  -12.6199999      -8.53463746E-07
  -12.6099997      -1.68306963E-06
  -12.6000004      -2.52165842E-06
  -12.5900002      -3.27526914E-06
  -12.5799999      -3.84367240E-06
  -12.5699997      -4.13143516E-06
  -12.5600004      -4.05895526E-06
  -12.5500002      -3.57193994E-06
  -12.5400000      -2.64811024E-06
  -12.5299997      -1.30044839E-06
  -12.5200005       4.22980122E-07
  -12.5100002       2.44198168E-06
  -12.5000000       4.64889536E-06
  -12.4899998       6.91387095E-06
  -12.4799995       9.08947823E-06
  -12.4700003       1.10144765E-05
  -12.4600000       1.25163679E-05
  -12.4499998       1.34136808E-05
  -12.4399996       1.35187347E-05
  -12.4300003       1.26420045E-05
  -12.4200001       1.05988383E-05
  -12.4099998       7.21874130E-06
  -12.3999996       2.35633593E-06
  -12.3900003      -4.09674249E-06
  -12.3800001      -1.22011315E-05
  -12.3699999      -2.19616777E-05
  -12.3599997      -3.33231001E-05
  -12.3500004      -4.61699965E-05
  -12.3400002      -6.03305125E-05
  -12.3299999      -7.55823057E-05
  -12.3199997      -9.16586068E-05
  -12.3100004      -1.08252818E-04
  -12.3000002      -1.25020568E-04
  -12.2900000      -1.41578654E-04
  -12.2799997      -1.57501985E-04
  -12.2700005      -1.72320288E-04
  -12.2600002      -1.85519297E-04
  -12.2500000      -1.96544104E-04
  -12.2399998      -2.04812197E-04
  -12.2299995      -2.09732258E-04
  -12.2200003      -2.10727783E-04
  -12.2100000      -2.07264864E-04
  -12.1999998      -1.98879177E-04
  -12.1899996      -1.85199751E-04
  -12.1800003      -1.65966529E-04
  -12.1700001      -1.41041543E-04
  -12.1599998      -1.10413443E-04
  -12.1499996      -7.41971162E-05
  -12.1400003      -3.26301779E-05
  -12.1300001       1.39302247E-05
  -12.1199999       6.50132424E-05
  -12.1099997       1.20041739E-04
  -12.1000004       1.78338698E-04
  -12.0900002       2.39141664E-04
  -12.0799999       3.01618566E-04
  -12.0699997       3.64892127E-04
  -12.0600004       4.28065076E-04
  -12.0500002       4.90244653E-04
  -12.0400000       5.50566998E-04
  -12.0299997       6.08210335E-04
  -12.0200005       6.62400911E-04
  -12.0100002       7.12412118E-04
  -12.0000000       7.57551170E-04
  -11.9899998       7.97150075E-04
  -11.9799995       8.30555626E-04
  -11.9700003       8.57128063E-04
  -11.9600000       8.76248057E-04
  -11.9499998       8.87333765E-04
  -11.9399996       8.89860501E-04
  -11.9300003       8.83386296E-04
  -11.9200001       8.67566152E-04
  -11.9099998       8.42159498E-04
  -11.8999996       8.07027798E-04
  -11.8900003       7.62118550E-04
  -11.8800001       7.07439671E-04
  -11.8699999       6.43049309E-04
  -11.8599997       5.69026859E-04
  -11.8500004       4.85477387E-04
  -11.8400002       3.92536924E-04
  -11.8299999       2.90391879E-04
  -11.8199997       1.79314084E-04
  -11.8100004       5.96866630E-05
  -11.8000002      -6.79687219E-05
  -11.7900000      -2.02968018E-04
  -11.7799997      -3.44464119E-04
  -11.7700005      -4.91454790E-04
  -11.7600002      -6.42800238E-04
  -11.7500000      -7.97247398E-04
  -11.7399998      -9.53463430E-04
  -11.7299995      -1.11005781E-03
  -11.7200003      -1.26560580E-03
  -11.7100000      -1.41866878E-03
  -11.6999998      -1.56779832E-03
  -11.6899996      -1.71155506E-03
  -11.6800003      -1.84851314E-03
  -11.6700001      -1.97727489E-03
  -11.6599998      -2.09648651E-03
  -11.6499996      -2.20485916E-03
  -11.6400003      -2.30118935E-03
  -11.6300001      -2.38438440E-03
  -11.6199999      -2.45347782E-03
  -11.6099997      -2.50764028E-03
  -11.6000004      -2.54618283E-03
  -11.5900002      -2.56854319E-03
  -11.5799999      -2.57426873E-03
  -11.5699997      -2.56297924E-03
  -11.5600004      -2.53434782E-03
  -11.5500002      -2.48806435E-03
  -11.5400000      -2.42380868E-03
  -11.5299997      -2.34125182E-03
  -11.5200005      -2.24005594E-03
  -11.5100002      -2.11989181E-03
  -11.5000000      -1.98047236E-03
  -11.4899998      -1.82158453E-03
  -11.4799995      -1.64311484E-03
  -11.4700003      -1.44507166E-03
  -11.4600000      -1.22758700E-03
  -11.4499998      -9.90894623E-04
  -11.4399996      -7.35313050E-04
  -11.4300003      -4.61205898E-04
  -11.4200001      -1.68934974E-04
  -11.4099998       1.41149882E-04
  -11.3999996       4.68734623E-04
  -11.3900003       8.13529361E-04
  -11.3800001       1.17524609E-03
  -11.3699999       1.55355060E-03
  -11.3599997       1.94802845E-03
  -11.3500004       2.35814368E-03
  -11.3400002       2.78320024E-03
  -11.3299999       3.22234095E-03
  -11.3199997       3.67454020E-03
  -11.3100004       4.13864292E-03
  -11.3000002       4.61338554E-03
  -11.2900000       5.09745860E-03
  -11.2799997       5.58953825E-03
  -11.2700005       6.08833693E-03
  -11.2600002       6.59265369E-03
  -11.2500000       7.10138073E-03
  -11.2399998       7.61353318E-03
  -11.2299995       8.12827889E-03
  -11.2200003       8.64490494E-03
  -11.2100000       9.16285627E-03
  -11.1999998       9.68169700E-03
  -11.1899996       1.02011319E-02
  -11.1800003       1.07209785E-02
  -11.1700001       1.12411696E-02
  -11.1599998       1.17617426E-02
  -11.1499996       1.22828241E-02
  -11.1400003       1.28046311E-02
  -11.1300001       1.33274244E-02
  -11.1199999       1.38514796E-02
  -11.1099997       1.43770343E-02
  -11.1000004       1.49042243E-02
  -11.0900002       1.54330283E-02
  -11.0799999       1.59631781E-02
  -11.0699997       1.64941438E-02
  -11.0600004       1.70250945E-02
  -11.0500002       1.75549295E-02
  -11.0400000       1.80823281E-02
  -11.0299997       1.86058171E-02
  -11.0200005       1.91238672E-02
  -11.0100002       1.96350235E-02
  -11.0000000       2.01379508E-02
  -10.9899998       2.06314977E-02
  -10.9799995       2.11147200E-02
  -10.9700003       2.15868559E-02
  -10.9600000       2.20472664E-02
  -10.9499998       2.24953722E-02
  -10.9399996       2.29306053E-02
  -10.9300003       2.33523436E-02
  -10.9200001       2.37599239E-02
  -10.9099998       2.41526421E-02
  -10.8999996       2.45298389E-02
  -10.8900003       2.48909276E-02
  -10.8800001       2.52355207E-02
  -10.8699999       2.55634524E-02
  -10.8599997       2.58748494E-02
  -10.8500004       2.61700619E-02
  -10.8400002       2.64496673E-02
  -10.8299999       2.67143659E-02
  -10.8199997       2.69648489E-02
  -10.8100004       2.72016935E-02
  -10.8000002       2.74252798E-02
  -10.7900000       2.76356470E-02
  -10.7799997       2.78325845E-02
  -10.7700005       2.80155446E-02
  -10.7600002       2.81837881E-02
  -10.7500000       2.83364393E-02
  -10.7399998       2.84726918E-02
  -10.7299995       2.85918172E-02
  -10.7200003       2.86933258E-02
  -10.7100000       2.87770089E-02
  -10.6999998       2.88429614E-02
  -10.6899996       2.88914982E-02
  -10.6800003       2.89231911E-02
  -10.6700001       2.89388224E-02
  -10.6599998       2.89393403E-02
  -10.6499996       2.89258622E-02
  -10.6400003       2.88997479E-02
  -10.6300001       2.88626365E-02
  -10.6199999       2.88165025E-02
  -10.6099997       2.87636910E-02
  -10.6000004       2.87068915E-02
  -10.5900002       2.86490396E-02
  -10.5799999       2.85932384E-02
  -10.5699997       2.85425205E-02
  -10.5600004       2.84996927E-02
  -10.5500002       2.84671709E-02
  -10.5400000       2.84467842E-02
  -10.5299997       2.84397844E-02
  -10.5200005       2.84468718E-02
  -10.5100002       2.84682568E-02
  -10.5000000       2.85038445E-02
  -10.4899998       2.85534430E-02
  -10.4799995       2.86168382E-02
  -10.4700003       2.86940187E-02
  -10.4600000       2.87851393E-02
  -10.4499998       2.88904756E-02
  -10.4399996       2.90103126E-02
  -10.4300003       2.91447416E-02
  -10.4200001       2.92934515E-02
  -10.4099998       2.94555333E-02
  -10.3999996       2.96294130E-02
  -10.3900003       2.98127923E-02
  -10.3800001       3.00027784E-02
  -10.3699999       3.01961340E-02
  -10.3599997       3.03895567E-02
  -10.3500004       3.05800270E-02
  -10.3400002       3.07651255E-02
  -10.3299999       3.09431963E-02
  -10.3199997       3.11135240E-02
  -10.3100004       3.12761925E-02
  -10.3000002       3.14319879E-02
  -10.2900000       3.15820798E-02
  -10.2799997       3.17277536E-02
  -10.2700005       3.18701640E-02
  -10.2600002       3.20101008E-02
  -10.2500000       3.21479812E-02
  -10.2399998       3.22839245E-02
  -10.2299995       3.24178226E-02
  -10.2200003       3.25496420E-02
  -10.2100000       3.26795578E-02
  -10.1999998       3.28081325E-02
  -10.1899996       3.29363607E-02
  -10.1800003       3.30656394E-02
  -10.1700001       3.31977420E-02
  -10.1599998       3.33345756E-02
  -10.1499996       3.34781557E-02
  -10.1400003       3.36304009E-02
  -10.1300001       3.37931290E-02
  -10.1199999       3.39679755E-02
  -10.1099997       3.41565274E-02
  -10.1000004       3.43602858E-02
  -10.0900002       3.45807076E-02
  -10.0799999       3.48193236E-02
  -10.0699997       3.50776277E-02
  -10.0600004       3.53571400E-02
  -10.0500002       3.56593058E-02
  -10.0400000       3.59854996E-02
  -10.0299997       3.63368951E-02
  -10.0200005       3.67144421E-02
  -10.0100002       3.71189080E-02
  -10.0000000       3.75508219E-02
  -9.98999977       3.80104929E-02
  -9.97999954       3.84981930E-02
  -9.97000027       3.90140750E-02
  -9.96000004       3.95584926E-02
  -9.94999981       4.01318669E-02
  -9.93999958       4.07349728E-02
  -9.93000031       4.13688011E-02
  -9.92000008       4.20346186E-02
  -9.90999985       4.27339524E-02
  -9.89999962       4.34681810E-02
  -9.89000034       4.42386754E-02
  -9.88000011       4.50464152E-02
  -9.86999989       4.58920635E-02
  -9.85999966       4.67757285E-02
  -9.85000038       4.76974212E-02
  -9.84000015       4.86568883E-02
  -9.82999992       4.96538505E-02
  -9.81999969       5.06886952E-02
  -9.81000042       5.17619364E-02
  -9.80000019       5.28748371E-02
  -9.78999996       5.40289879E-02
  -9.77999973       5.52262440E-02
  -9.77000046       5.64683452E-02
  -9.76000023       5.77567853E-02
  -9.75000000       5.90923987E-02
  -9.73999977       6.04755133E-02
  -9.72999954       6.19057454E-02
  -9.72000027       6.33821487E-02
  -9.71000004       6.49035946E-02
  -9.69999981       6.64687380E-02
  -9.68999958       6.80762976E-02
  -9.68000031       6.97248653E-02
  -9.67000008       7.14129880E-02
  -9.65999985       7.31389448E-02
  -9.64999962       7.49003217E-02
  -9.64000034       7.66939595E-02
  -9.63000011       7.85160288E-02
  -9.61999989       8.03614929E-02
  -9.60999966       8.22247714E-02
  -9.60000038       8.40997696E-02
  -9.59000015       8.59797448E-02
  -9.57999992       8.78581330E-02
  -9.56999969       8.97281840E-02
  -9.56000042       9.15832967E-02
  -9.55000019       9.34170261E-02
  -9.53999996       9.52231139E-02
  -9.52999973       9.69952643E-02
  -9.52000046       9.87274796E-02
  -9.51000023      0.100413978    
  -9.50000000      0.102048986    
  -9.48999977      0.103627533    
  -9.47999954      0.105144575    
  -9.47000027      0.106596090    
  -9.46000004      0.107978471    
  -9.44999981      0.109288879    
  -9.43999958      0.110525720    
  -9.43000031      0.111688383    
  -9.42000008      0.112777419    
  -9.40999985      0.113795154    
  -9.39999962      0.114745356    
  -9.39000034      0.115633532    
  -9.38000011      0.116466634    
  -9.36999989      0.117252842    
  -9.35999966      0.118001781    
  -9.35000038      0.118723594    
  -9.34000015      0.119429663    
  -9.32999992      0.120131753    
  -9.31999969      0.120842405    
  -9.31000042      0.121575110    
  -9.30000019      0.122344084    
  -9.28999996      0.123164557    
  -9.27999973      0.124052368    
  -9.27000046      0.125024140    
  -9.26000023      0.126096621    
  -9.25000000      0.127286434    
  -9.23999977      0.128609702    
  -9.22999954      0.130081311    
  -9.22000027      0.131715059    
  -9.21000004      0.133523434    
  -9.19999981      0.135517225    
  -9.18999958      0.137705788    
  -9.18000031      0.140096679    
  -9.17000008      0.142695993    
  -9.15999985      0.145507455    
  -9.14999962      0.148533136    
  -9.14000034      0.151772201    
  -9.13000011      0.155221730    
  -9.11999989      0.158876121    
  -9.10999966      0.162727252    
  -9.10000038      0.166764483    
  -9.09000015      0.170975417    
  -9.07999992      0.175345376    
  -9.06999969      0.179858059    
  -9.06000042      0.184495732    
  -9.05000019      0.189239398    
  -9.03999996      0.194069058    
  -9.02999973      0.198963523    
  -9.02000046      0.203901038    
  -9.01000023      0.208859831    
  -9.00000000      0.213817433    
  -8.98999977      0.218751475    
  -8.97999954      0.223639756    
  -8.97000027      0.228460252    
  -8.96000004      0.233191028    
  -8.94999981      0.237810686    
  -8.93999958      0.242297783    
  -8.93000031      0.246631175    
  -8.92000008      0.250790536    
  -8.90999985      0.254755467    
  -8.89999962      0.258507490    
  -8.89000034      0.262028098    
  -8.88000011      0.265301198    
  -8.86999989      0.268311083    
  -8.85999966      0.271044225    
  -8.85000038      0.273488522    
  -8.84000015      0.275633603    
  -8.82999992      0.277470827    
  -8.81999969      0.278993219    
  -8.81000042      0.280196398    
  -8.80000019      0.281077206    
  -8.78999996      0.281636089    
  -8.77999973      0.281874537    
  -8.77000046      0.281796932    
  -8.76000023      0.281409055    
  -8.75000000      0.280718833    
  -8.73999977      0.279735565    
  -8.72999954      0.278469801    
  -8.72000027      0.276933640    
  -8.71000004      0.275139987    
  -8.69999981      0.273103625    
  -8.68999958      0.270840168    
  -8.68000031      0.268367171    
  -8.67000008      0.265702844    
  -8.65999985      0.262867212    
  -8.64999962      0.259880304    
  -8.64000034      0.256762713    
  -8.63000011      0.253534973    
  -8.61999989      0.250217080    
  -8.60999966      0.246828675    
  -8.60000038      0.243388385    
  -8.59000015      0.239913449    
  -8.57999992      0.236420855    
  -8.56999969      0.232926562    
  -8.56000042      0.229444981    
  -8.55000019      0.225990698    
  -8.53999996      0.222576961    
  -8.52999973      0.219216317    
  -8.52000046      0.215920135    
  -8.51000023      0.212698743    
  -8.50000000      0.209561303    
  -8.48999977      0.206515431    
  -8.47999954      0.203567937    
  -8.47000027      0.200724348    
  -8.46000004      0.197988451    
  -8.44999981      0.195364103    
  -8.43999958      0.192854300    
  -8.43000031      0.190460175    
  -8.42000008      0.188183889    
  -8.40999985      0.186026573    
  -8.39999962      0.183988616    
  -8.39000034      0.182071567    
  -8.38000011      0.180276111    
  -8.36999989      0.178602904    
  -8.35999966      0.177053049    
  -8.35000038      0.175627470    
  -8.34000015      0.174327657    
  -8.32999992      0.173155591    
  -8.31999969      0.172113553    
  -8.31000042      0.171204597    
  -8.30000019      0.170432925    
  -8.28999996      0.169802949    
  -8.27999973      0.169320643    
  -8.27000046      0.168992952    
  -8.26000023      0.168827280    
  -8.25000000      0.168833166    
  -8.23999977      0.169019744    
  -8.22999954      0.169398084    
  -8.22000027      0.169979617    
  -8.21000004      0.170776144    
  -8.19999981      0.171800539    
  -8.18999958      0.173065007    
  -8.18000031      0.174582705    
  -8.17000008      0.176365882    
  -8.15999985      0.178426921    
  -8.14999962      0.180778489    
  -8.14000034      0.183431372    
  -8.13000011      0.186396882    
  -8.11999989      0.189684898    
  -8.10999966      0.193305612    
  -8.10000038      0.197266862    
  -8.09000015      0.201576442    
  -8.07999992      0.206240550    
  -8.06999969      0.211264014    
  -8.06000042      0.216650411    
  -8.05000019      0.222402066    
  -8.03999996      0.228518501    
  -8.02999973      0.234998122    
  -8.02000046      0.241839558    
  -8.01000023      0.249038711    
  -8.00000000      0.256590724    
  -7.98999977      0.264489233    
  -7.98000002      0.272727162    
  -7.96999979      0.281297654    
  -7.96000004      0.290189803    
  -7.94999981      0.299393773    
  -7.94000006      0.308896869    
  -7.92999983      0.318686157    
  -7.92000008      0.328745902    
  -7.90999985      0.339060009    
  -7.90000010      0.349610656    
  -7.88999987      0.360380143    
  -7.88000011      0.371348768    
  -7.86999989      0.382497698    
  -7.86000013      0.393805981    
  -7.84999990      0.405253947    
  -7.84000015      0.416820556    
  -7.82999992      0.428486466    
  -7.82000017      0.440229714    
  -7.80999994      0.452030957    
  -7.80000019      0.463869423    
  -7.78999996      0.475725919    
  -7.78000021      0.487581432    
  -7.76999998      0.499418110    
  -7.76000023      0.511217773    
  -7.75000000      0.522964537    
  -7.73999977      0.534643888    
  -7.73000002      0.546240747    
  -7.71999979      0.557742417    
  -7.71000004      0.569136798    
  -7.69999981      0.580414176    
  -7.69000006      0.591565251    
  -7.67999983      0.602582812    
  -7.67000008      0.613459587    
  -7.65999985      0.624191403    
  -7.65000010      0.634774208    
  -7.63999987      0.645204961    
  -7.63000011      0.655480921    
  -7.61999989      0.665601909    
  -7.61000013      0.675569415    
  -7.59999990      0.685385227    
  -7.59000015      0.695052803    
  -7.57999992      0.704577327    
  -7.57000017      0.713964760    
  -7.55999994      0.723222852    
  -7.55000019      0.732359529    
  -7.53999996      0.741384268    
  -7.53000021      0.750306368    
  -7.51999998      0.759134650    
  -7.51000023      0.767879844    
  -7.50000000      0.776552975    
  -7.48999977      0.785164773    
  -7.48000002      0.793728054    
  -7.46999979      0.802254915    
  -7.46000004      0.810757816    
  -7.44999981      0.819249451    
  -7.44000006      0.827742279    