  -16.0000000       0.00000000    
  -15.9899998       0.00000000    
  -15.9799995       0.00000000    
  -15.9700003       0.00000000    
  -15.9600000       0.00000000    
  -15.9499998       0.00000000    
  -15.9399996       0.00000000    
  -15.9300003       0.00000000    
  -15.9200001       0.00000000    
  -15.9099998       0.00000000    
  -15.8999996       0.00000000    
  -15.8900003       0.00000000    
  -15.8800001       0.00000000    
  -15.8699999       0.00000000    
  -15.8599997      -4.25994733E-43
  -15.8500004      -1.26817511E-41
  -15.8400002      -3.16008218E-40
  -15.8299999      -4.65146312E-39
  -15.8199997      -4.87365833E-38
  -15.8100004      -3.94719545E-37
  -15.8000002      -2.60301275E-36
  -15.7900000      -1.44734507E-35
  -15.7799997      -6.95540122E-35
  -15.7700005      -2.94163421E-34
  -15.7600002      -1.10979303E-33
  -15.7500000      -3.77369245E-33
  -15.7399998      -1.16561476E-32
  -15.7299995      -3.28934352E-32
  -15.7200003      -8.51418728E-32
  -15.7100000      -2.02586789E-31
  -15.6999998      -4.43241163E-31
  -15.6899996      -8.89862389E-31
  -15.6800003      -1.63028277E-30
  -15.6700001      -2.69495659E-30
  -15.6599998      -3.92858412E-30
  -15.6499996      -4.79238928E-30
  -15.6400003      -4.15026468E-30
  -15.6300001      -1.92899834E-31
  -15.6199999       9.22701827E-30
  -15.6099997       2.55174493E-29
  -15.6000004       4.73427465E-29
  -15.5900002       6.80115859E-29
  -15.5799999       7.34797825E-29
  -15.5699997       4.32386048E-29
  -15.5600004      -4.31657144E-29
  -15.5500002      -1.92401497E-28
  -15.5400000      -3.78586116E-28
  -15.5299997      -5.27802835E-28
  -15.5200005      -5.20297678E-28
  -15.5100002      -2.25743882E-28
  -15.5000000       4.23138798E-28
  -15.4899998       1.33716738E-27
  -15.4799995       2.20732006E-27
  -15.4700003       2.54090403E-27
  -15.4600000       1.84733833E-27
  -15.4499998      -5.41255527E-29
  -15.4399996      -2.75451296E-27
  -15.4300003      -5.25018094E-27
  -15.4200001      -6.41900856E-27
  -15.4099998      -5.90812868E-27
  -15.3999996      -4.88367763E-27
  -15.3900003      -5.67287750E-27
  -15.3800001      -9.45586382E-27
  -15.3699999      -1.23190275E-26
  -15.3599997      -2.15936363E-27
  -15.3500004       3.88765045E-26
  -15.3400002       1.21680574E-25
  -15.3299999       2.27050020E-25
  -15.3199997       2.82138913E-25
  -15.3100004       1.58973567E-25
  -15.3000002      -2.76543572E-25
  -15.2900000      -1.04986895E-24
  -15.2799997      -1.92319201E-24
  -15.2700005      -2.29013736E-24
  -15.2600002      -1.26352768E-24
  -15.2500000       1.90914436E-24
  -15.2399998       7.09669683E-24
  -15.2299995       1.24589244E-23
  -15.2200003       1.41188337E-23
  -15.2100000       7.07819647E-24
  -15.1999998      -1.21213495E-23
  -15.1899996      -4.13440864E-23
  -15.1800003      -6.91395563E-23
  -15.1700001      -7.44063577E-23
  -15.1599998      -3.27362287E-23
  -15.1499996       6.92139616E-23
  -15.1400003       2.14585085E-22
  -15.1300001       3.41859727E-22
  -15.1199999       3.49191186E-22
  -15.1099997       1.30188530E-22
  -15.1000004      -3.57618972E-22
  -15.0900002      -1.01191159E-21
  -15.0799999      -1.53723348E-21
  -15.0699997      -1.48746774E-21
  -15.0600004      -4.41656690E-22
  -15.0500002       1.70065466E-21
  -15.0400000       4.40822562E-21
  -15.0299997       6.38314316E-21
  -15.0200005       5.82141685E-21
  -15.0100002       1.19250899E-21
  -15.0000000      -7.58496510E-21
  -14.9899998      -1.80374600E-20
  -14.9799995      -2.48550116E-20
  -14.9700003      -2.11981042E-20
  -14.9600000      -1.88776348E-21
  -14.9499998       3.22045291E-20
  -14.9399996       7.04750256E-20
  -14.9300003       9.23840738E-20
  -14.9200001       7.32288004E-20
  -14.9099998      -3.60317290E-21
  -14.8999996      -1.31032014E-19
  -14.8900003      -2.66575987E-19
  -14.8800001      -3.34196787E-19
  -14.8699999      -2.47509577E-19
  -14.8599997       4.55394431E-20
  -14.8500004       5.09138094E-19
  -14.8400002       9.83140864E-19
  -14.8299999       1.19600680E-18
  -14.8199997       8.51032521E-19
  -14.8100004      -2.17839436E-19
  -14.8000002      -1.86680002E-18
  -14.7900000      -3.52756508E-18
  -14.7799997      -4.26246790E-18
  -14.7700005      -3.06224351E-18
  -14.7600002       6.32917142E-19
  -14.7500000       6.34439051E-18
  -14.7399998       1.21832910E-17
  -14.7299995       1.50289089E-17
  -14.7200003       1.14836624E-17
  -14.7100000      -4.58312808E-19
  -14.6999998      -1.95126910E-17
  -14.6899996      -3.98562552E-17
  -14.6800003      -5.15572213E-17
  -14.6700001      -4.34030502E-17
  -14.6599998      -7.98749340E-18
  -14.6499996       5.23261353E-17
  -14.6400003       1.21146517E-16
  -14.6300001       1.68590195E-16
  -14.6199999       1.58906266E-16
  -14.6099997       6.51203496E-17
  -14.6000004      -1.12910855E-16
  -14.5900002      -3.34179512E-16
  -14.5799999      -5.14875277E-16
  -14.5699997      -5.46633824E-16
  -14.5600004      -3.35862143E-16
  -14.5500002       1.44235298E-16
  -14.5400000       8.07430292E-16
  -14.5299997       1.43867170E-15
  -14.5200005       1.73070632E-15
  -14.5100002       1.38099098E-15
  -14.5000000       2.32370678E-16
  -14.4899998      -1.58648731E-15
  -14.4799995      -3.58496954E-15
  -14.4700003      -4.96209053E-15
  -14.4600000      -4.81971488E-15
  -14.4499998      -2.51427310E-15
  -14.4399996       1.94803199E-15
  -14.4300003       7.62658555E-15
  -14.4200001       1.26432051E-14
  -14.4099998       1.45802695E-14
  -14.3999996       1.12759889E-14
  -14.3900003       1.84204488E-15
  -14.3800001      -1.24359658E-14
  -14.3699999      -2.77390110E-14
  -14.3599997      -3.82587096E-14
  -14.3500004      -3.77719977E-14
  -14.3400002      -2.19982317E-14
  -14.3299999       8.92280939E-15
  -14.3199997       4.87851777E-14
  -14.3100004       8.54685721E-14
  -14.3000002       1.03479982E-13
  -14.2900000       8.87418733E-14
  -14.2799997       3.45492101E-14
  -14.2700005      -5.32064051E-14
  -14.2600002      -1.53804256E-13
  -14.2500000      -2.34320348E-13
  -14.2399998      -2.57731689E-13
  -14.2299995      -1.95263293E-13
  -14.2200003      -3.97491556E-14
  -14.2100000       1.84599460E-13
  -14.1999998       4.20716847E-13
  -14.1899996       5.88600078E-13
  -14.1800003       6.06506273E-13
  -14.1700001       4.19258541E-13
  -14.1599998       2.57267945E-14
  -14.1499996      -5.04361093E-13
  -14.1400003      -1.03319144E-12
  -14.1300001      -1.38174249E-12
  -14.1199999      -1.37826697E-12
  -14.1099997      -9.17887728E-13
  -14.1000004      -1.62785435E-14
  -14.0900002       1.16189068E-12
  -14.0799999       2.31569928E-12
  -14.0699997       3.06823208E-12
  -14.0600004       3.06695945E-12
  -14.0500002       2.10198178E-12
  -14.0400000       2.09162657E-13
  -14.0299997      -2.27786366E-12
  -14.0200005      -4.75523006E-12
  -14.0100002      -6.46602303E-12
  -14.0000000      -6.69220191E-12
  -13.9899998      -4.98036855E-12
  -13.9799995      -1.34104533E-12
  -13.9700003       3.64320596E-12
  -13.9600000       8.85364872E-12
  -13.9499998       1.28358730E-11
  -13.9399996       1.41427018E-11
  -13.9300003       1.17514635E-11
  -13.9200001       5.45186552E-12
  -13.9099998      -3.91241553E-12
  -13.8999996      -1.44470156E-11
  -13.8900003      -2.35054164E-11
  -13.8800001      -2.82604981E-11
  -13.8699999      -2.64448047E-11
  -13.8599997      -1.70897897E-11
  -13.8500004      -1.05858692E-12
  -13.8400002       1.88128211E-11
  -13.8299999       3.80816524E-11
  -13.8199997       5.15669660E-11
  -13.8100004       5.45807288E-11
  -13.8000002       4.42531914E-11
  -13.7900000       2.06158111E-11
  -13.7799997      -1.28896191E-11
  -13.7700005      -4.97060934E-11
  -13.7600002      -8.13099796E-11
  -13.7500000      -9.90452165E-11
  -13.7399998      -9.62597363E-11
  -13.7299995      -7.02407091E-11
  -13.7200003      -2.34213170E-11
  -13.7100000       3.65318158E-11
  -13.6999998       9.78924025E-11
  -13.6899996       1.47142479E-10
  -13.6800003       1.71868353E-10
  -13.6700001       1.63627972E-10
  -13.6599998       1.20104135E-10
  -13.6499996       4.60137033E-11
  -13.6400003      -4.74571250E-11
  -13.6300001      -1.44562404E-10
  -13.6199999      -2.27782626E-10
  -13.6099997      -2.80866080E-10
  -13.6000004      -2.91466962E-10
  -13.5900002      -2.52959043E-10
  -13.5799999      -1.65288561E-10
  -13.5699997      -3.50226514E-11
  -13.5600004       1.25055494E-10
  -13.5500002       2.96495911E-10
  -13.5400000       4.55805504E-10
  -13.5299997       5.75420045E-10
  -13.5200005       6.25618668E-10
  -13.5100002       5.78072257E-10
  -13.5000000       4.11437884E-10
  -13.4899998       1.18736049E-10
  -13.4799995      -2.84679391E-10
  -13.4700003      -7.54735163E-10
  -13.4600000      -1.21661792E-09
  -13.4499998      -1.56989288E-09
  -13.4399996      -1.70245340E-09
  -13.4300003      -1.51316581E-09
  -13.4200001      -9.40394762E-10
  -13.4099998       9.16332635E-12
  -13.3999996       1.23889865E-09
  -13.3900003       2.55617372E-09
  -13.3800001       3.68845710E-09
  -13.3699999       4.32455227E-09
  -13.3599997       4.17818180E-09
  -13.3500004       3.06429837E-09
  -13.3400002       9.72324221E-10
  -13.3299999      -1.88296512E-09
  -13.3199997      -5.05210229E-09
  -13.3100004      -7.89665311E-09
  -13.3000002      -9.69298952E-09
  -13.2900000      -9.78278880E-09
  -13.2799997      -7.74459341E-09
  -13.2700005      -3.54855212E-09
  -13.2600002       2.34786324E-09
  -13.2500000       9.00003627E-09
  -13.2399998       1.50934820E-08
  -13.2299995       1.91734468E-08
  -13.2200003       1.99541024E-08
  -13.2100000       1.66463217E-08
  -13.1999998       9.22867027E-09
  -13.1899996      -1.41502421E-09
  -13.1800003      -1.35465736E-08
  -13.1700001      -2.48316372E-08
  -13.1599998      -3.27740679E-08
  -13.1499996      -3.52483944E-08
  -13.1400003      -3.10172261E-08
  -13.1300001      -2.01093844E-08
  -13.1199999      -3.95404109E-09
  -13.1099997       1.47853987E-08
  -13.1000004       3.26676677E-08
  -13.0900002       4.61388616E-08
  -13.0799999       5.22690051E-08
  -13.0699997       4.93964301E-08
  -13.0600004       3.75294640E-08
  -13.0500002       1.84060909E-08
  -13.0400000      -4.81052265E-09
  -13.0299997      -2.81381443E-08
  -13.0200005      -4.75504365E-08
  -13.0100002      -5.97498939E-08
  -13.0000000      -6.27744043E-08
  -12.9899998      -5.63138869E-08
  -12.9799995      -4.16888604E-08
  -12.9700003      -2.15190923E-08
  -12.9600000       8.27142632E-10
  -12.9499998       2.18745697E-08
  -12.9399996       3.86459611E-08
  -12.9300003       4.91320939E-08
  -12.9200001       5.25650456E-08
  -12.9099998       4.94819687E-08
  -12.8999996       4.15841086E-08
  -12.8900003       3.14148529E-08
  -12.8800001       2.18800000E-08
  -12.8699999       1.56386939E-08
  -12.8599997       1.44223851E-08
  -12.8500004       1.83747186E-08
  -12.8400002       2.55652370E-08
  -12.8299999       3.18612940E-08
  -12.8199997       3.13414219E-08
  -12.8100004       1.73569248E-08
  -12.8000002      -1.57962514E-08
  -12.7900000      -7.08323071E-08
  -12.7799997      -1.45490489E-07
  -12.7700005      -2.31178063E-07
  -12.7600002      -3.12809675E-07
  -12.7500000      -3.70246056E-07
  -12.7399998      -3.81405357E-07
  -12.7299995      -3.26689815E-07
  -12.7200003      -1.93951664E-07
  -12.7100000       1.70789587E-08
  -12.6999998       2.92033405E-07
  -12.6899996       6.01698844E-07
  -12.6800003       9.04757655E-07
  -12.6700001       1.15319483E-06
  -12.6599998       1.29944715E-06
  -12.6499996       1.30392209E-06
  -12.6400003       1.14136287E-06
  -12.6300001       8.04874162E-07
  -12.6199999       3.06955144E-07
  -12.6099997      -3.22262593E-07
  -12.6000004      -1.03872708E-06
  -12.5900002      -1.78878292E-06
  -12.5799999      -2.51283564E-06
  -12.5699997      -3.14744716E-06
  -12.5600004      -3.62584001E-06
  -12.5500002      -3.87758246E-06
  -12.5400000      -3.82887356E-06
  -12.5299997      -3.40513247E-06
  -12.5200005      -2.53724829E-06
  -12.5100002      -1.17195998E-06
  -12.5000000       7.14293037E-07
  -12.4899998       3.09974712E-06
  -12.4799995       5.90255104E-06
  -12.4700003       8.96955589E-06
  -12.4600000       1.20711520E-05
  -12.4499998       1.49034713E-05
  -12.4399996       1.70981948E-05
  -12.4300003       1.82393524E-05
  -12.4200001       1.78851533E-05
  -12.4099998       1.55928919E-05
  -12.3999996       1.09455468E-05
  -12.3900003       3.57779413E-06
  -12.3800001      -6.79886944E-06
  -12.3699999      -2.03730688E-05
  -12.3599997      -3.72133509E-05
  -12.3500004      -5.72519020E-05
  -12.3400002      -8.02727664E-05
  -12.3299999      -1.05906693E-04
  -12.3199997      -1.33632479E-04
  -12.3100004      -1.62784301E-04
  -12.3000002      -1.92567037E-04
  -12.2900000      -2.22071219E-04
  -12.2799997      -2.50295911E-04
  -12.2700005      -2.76168197E-04
  -12.2600002      -2.98567291E-04
  -12.2500000      -3.16351739E-04
  -12.2399998      -3.28392227E-04
  -12.2299995      -3.33613309E-04
  -12.2200003      -3.31049436E-04
  -12.2100000      -3.19899817E-04
  -12.1999998      -2.99595296E-04
  -12.1899996      -2.69849785E-04
  -12.1800003      -2.30696925E-04
  -12.1700001      -1.82494245E-04
  -12.1599998      -1.25897321E-04
  -12.1499996      -6.17920232E-05
  -12.1400003       8.79018990E-06
  -12.1300001       8.47754272E-05
  -12.1199999       1.65132471E-04
  -12.1099997       2.48937838E-04
  -12.1000004       3.35392222E-04
  -12.0900002       4.23796475E-04
  -12.0799999       5.13487612E-04
  -12.0699997       6.03759254E-04
  -12.0600004       6.93776121E-04
  -12.0500002       7.82524759E-04
  -12.0400000       8.68798234E-04
  -12.0299997       9.51231574E-04
  -12.0200005       1.02837826E-03
  -12.0100002       1.09880487E-03
  -12.0000000       1.16118381E-03
  -11.9899998       1.21436059E-03
  -11.9799995       1.25737849E-03
  -11.9700003       1.28945778E-03
  -11.9600000       1.30993861E-03
  -11.9499998       1.31819898E-03
  -11.9399996       1.31359696E-03
  -11.9300003       1.29542453E-03
  -11.9200001       1.26291602E-03
  -11.9099998       1.21529715E-03
  -11.8999996       1.15187070E-03
  -11.8900003       1.07211515E-03
  -11.8800001       9.75770701E-04
  -11.8699999       8.62902089E-04
  -11.8599997       7.33916590E-04
  -11.8500004       5.89534233E-04
  -11.8400002       4.30735789E-04
  -11.8299999       2.58683023E-04
  -11.8199997       7.46457372E-05
  -11.8100004      -1.20059063E-04
  -11.8000002      -3.24100081E-04
  -11.7900000      -5.36142383E-04
  -11.7799997      -7.54832348E-04
  -11.7700005      -9.78776719E-04
  -11.7600002      -1.20650209E-03
  -11.7500000      -1.43642724E-03
  -11.7399998      -1.66683516E-03
  -11.7299995      -1.89586193E-03
  -11.7200003      -2.12148693E-03
  -11.7100000      -2.34155264E-03
  -11.6999998      -2.55380129E-03
  -11.6899996      -2.75593461E-03
  -11.6800003      -2.94571184E-03
  -11.6700001      -3.12102376E-03
  -11.6599998      -3.28002777E-03
  -11.6499996      -3.42119765E-03
  -11.6400003      -3.54335899E-03
  -11.6300001      -3.64566687E-03
  -11.6199999      -3.72750033E-03
  -11.6099997      -3.78831336E-03
  -11.6000004      -3.82747059E-03
  -11.5900002      -3.84408305E-03
  -11.5799999      -3.83691560E-03
  -11.5699997      -3.80437728E-03
  -11.5600004      -3.74461384E-03
  -11.5500002      -3.65568837E-03
  -11.5400000      -3.53581109E-03
  -11.5299997      -3.38357268E-03
  -11.5200005      -3.19812703E-03
  -11.5100002      -2.97926203E-03
  -11.5000000      -2.72737327E-03
  -11.4899998      -2.44330429E-03
  -11.4799995      -2.12815520E-03
  -11.4700003      -1.78302557E-03
  -11.4600000      -1.40884472E-03
  -11.4499998      -1.00625679E-03
  -11.4399996      -5.75647107E-04
  -11.4300003      -1.17234296E-04
  -11.4200001       3.68728186E-04
  -11.4099998       8.81757587E-04
  -11.3999996       1.42096821E-03
  -11.3900003       1.98498135E-03
  -11.3800001       2.57191318E-03
  -11.3699999       3.17949755E-03
  -11.3599997       3.80523386E-03
  -11.3500004       4.44659358E-03
  -11.3400002       5.10122674E-03
  -11.3299999       5.76709257E-03
  -11.3199997       6.44253148E-03
  -11.3100004       7.12629315E-03
  -11.3000002       7.81744812E-03
  -11.2900000       8.51531234E-03
  -11.2799997       9.21928231E-03
  -11.2700005       9.92872473E-03
  -11.2600002       1.06428256E-02
  -11.2500000       1.13605419E-02
  -11.2399998       1.20805269E-02
  -11.2299995       1.28011461E-02
  -11.2200003       1.35205518E-02
  -11.2100000       1.42368171E-02
  -11.1999998       1.49480691E-02
  -11.1899996       1.56526975E-02
  -11.1800003       1.63494721E-02
  -11.1700001       1.70376487E-02
  -11.1599998       1.77169777E-02
  -11.1499996       1.83875635E-02
  -11.1400003       1.90497041E-02
  -11.1300001       1.97036024E-02
  -11.1199999       2.03491375E-02
  -11.1099997       2.09856872E-02
  -11.1000004       2.16120221E-02
  -11.0900002       2.22264510E-02
  -11.0799999       2.28269808E-02
  -11.0699997       2.34117061E-02
  -11.0600004       2.39791144E-02
  -11.0500002       2.45283749E-02
  -11.0400000       2.50595137E-02
  -11.0299997       2.55733337E-02
  -11.0200005       2.60712914E-02
  -11.0100002       2.65550241E-02
  -11.0000000       2.70260721E-02
  -10.9899998       2.74853893E-02
  -10.9799995       2.79331524E-02
  -10.9700003       2.83686277E-02
  -10.9600000       2.87902895E-02
  -10.9499998       2.91960761E-02
  -10.9399996       2.95837242E-02
  -10.9300003       2.99511701E-02
  -10.9200001       3.02968584E-02
  -10.9099998       3.06199007E-02
  -10.8999996       3.09201796E-02
  -10.8900003       3.11982147E-02
  -10.8800001       3.14549468E-02
  -10.8699999       3.16914953E-02
  -10.8599997       3.19089182E-02
  -10.8500004       3.21079381E-02
  -10.8400002       3.22888978E-02
  -10.8299999       3.24516185E-02
  -10.8199997       3.25956121E-02
  -10.8100004       3.27200554E-02
  -10.8000002       3.28241065E-02
  -10.7900000       3.29069607E-02
  -10.7799997       3.29681188E-02
  -10.7700005       3.30074057E-02
  -10.7600002       3.30250710E-02
  -10.7500000       3.30216661E-02
  -10.7399998       3.29980738E-02
  -10.7299995       3.29552516E-02
  -10.7200003       3.28941941E-02
  -10.7100000       3.28158289E-02
  -10.6999998       3.27209271E-02
  -10.6899996       3.26101407E-02
  -10.6800003       3.24842334E-02
  -10.6700001       3.23440619E-02
  -10.6599998       3.21907960E-02
  -10.6499996       3.20260301E-02
  -10.6400003       3.18518467E-02
  -10.6300001       3.16707231E-02
  -10.6199999       3.14854570E-02
  -10.6099997       3.12989727E-02
  -10.6000004       3.11140493E-02
  -10.5900002       3.09332218E-02
  -10.5799999       3.07584945E-02
  -10.5699997       3.05914097E-02
  -10.5600004       3.04330047E-02
  -10.5500002       3.02838646E-02
  -10.5400000       3.01443636E-02
  -10.5299997       3.00148614E-02
  -10.5200005       2.98958495E-02
  -10.5100002       2.97881719E-02
  -10.5000000       2.96931379E-02
  -10.4899998       2.96125263E-02
  -10.4799995       2.95484923E-02
  -10.4700003       2.95034461E-02
  -10.4600000       2.94796713E-02
  -10.4499998       2.94791758E-02
  -10.4399996       2.95032021E-02
  -10.4300003       2.95520760E-02
  -10.4200001       2.96250898E-02
  -10.4099998       2.97204312E-02
  -10.3999996       2.98354588E-02
  -10.3900003       2.99669299E-02
  -10.3800001       3.01116053E-02
  -10.3699999       3.02664023E-02
  -10.3599997       3.04288361E-02
  -10.3500004       3.05972397E-02
  -10.3400002       3.07706464E-02
  -10.3299999       3.09486948E-02
  -10.3199997       3.11313998E-02
  -10.3100004       3.13189067E-02
  -10.3000002       3.15111987E-02
  -10.2900000       3.17082256E-02
  -10.2799997       3.19096260E-02
  -10.2700005       3.21150199E-02
  -10.2600002       3.23239863E-02
  -10.2500000       3.25362757E-02
  -10.2399998       3.27516235E-02
  -10.2299995       3.29697505E-02
  -10.2200003       3.31902057E-02
  -10.2100000       3.34124006E-02
  -10.1999998       3.36352773E-02
  -10.1899996       3.38577405E-02
  -10.1800003       3.40787619E-02
  -10.1700001       3.42976972E-02
  -10.1599998       3.45145352E-02
  -10.1499996       3.47301215E-02
  -10.1400003       3.49461176E-02
  -10.1300001       3.51648554E-02
  -10.1199999       3.53890322E-02
  -10.1099997       3.56214680E-02
  -10.1000004       3.58645096E-02
  -10.0900002       3.61202322E-02
  -10.0799999       3.63901034E-02
  -10.0699997       3.66753936E-02
  -10.0600004       3.69774625E-02
  -10.0500002       3.72977294E-02
  -10.0400000       3.76381688E-02
  -10.0299997       3.80010866E-02
  -10.0200005       3.83889489E-02
  -10.0100002       3.88041064E-02
  -10.0000000       3.92485335E-02
  -9.98999977       3.97233367E-02
  -9.97999954       4.02290709E-02
  -9.97000027       4.07655425E-02
  -9.96000004       4.13322262E-02
  -9.94999981       4.19285484E-02
  -9.93999958       4.25544046E-02
  -9.93000031       4.32102606E-02
  -9.92000008       4.38971072E-02
  -9.90999985       4.46167812E-02
  -9.89999962       4.53713126E-02
  -9.89000034       4.61629443E-02
  -9.88000011       4.69935909E-02
  -9.86999989       4.78650965E-02
  -9.85999966       4.87785600E-02
  -9.85000038       4.97347824E-02
  -9.84000015       5.07340580E-02
  -9.82999992       5.17762303E-02
  -9.81999969       5.28608412E-02
  -9.81000042       5.39869815E-02
  -9.80000019       5.51534891E-02
  -9.78999996       5.63590229E-02
  -9.77999973       5.76020963E-02
  -9.77000046       5.88814095E-02
  -9.76000023       6.01959452E-02
  -9.75000000       6.15453310E-02
  -9.73999977       6.29300848E-02
  -9.72999954       6.43512681E-02
  -9.72000027       6.58108294E-02
  -9.71000004       6.73112646E-02
  -9.69999981       6.88553303E-02
  -9.68999958       7.04455897E-02
  -9.68000031       7.20840991E-02
  -9.67000008       7.37724602E-02
  -9.65999985       7.55113661E-02
  -9.64999962       7.73004889E-02
  -9.64000034       7.91385099E-02
  -9.63000011       8.10234323E-02
  -9.61999989       8.29521343E-02
  -9.60999966       8.49205479E-02
  -9.60000038       8.69238377E-02
  -9.59000015       8.89563560E-02
  -9.57999992       9.10113826E-02
  -9.56999969       9.30817500E-02
  -9.56000042       9.51594263E-02
  -9.55000019       9.72359478E-02
  -9.53999996       9.93025899E-02
  -9.52999973      0.101350524    
  -9.52000046      0.103371039    
  -9.51000023      0.105355911    
  -9.50000000      0.107297219    
  -9.48999977      0.109187759    
  -9.47999954      0.111020580    
  -9.47000027      0.112789787    
  -9.46000004      0.114489496    
  -9.44999981      0.116114773    
  -9.43999958      0.117661335    
  -9.43000031      0.119125590    
  -9.42000008      0.120504767    
  -9.40999985      0.121797845    
  -9.39999962      0.123004772    
  -9.39000034      0.124127217    
  -9.38000011      0.125168860    
  -9.36999989      0.126135483    
  -9.35999966      0.127034932    
  -9.35000038      0.127877250    
  -9.34000015      0.128674790    
  -9.32999992      0.129441828    
  -9.31999969      0.130194262    
  -9.31000042      0.130949497    
  -9.30000019      0.131725669    
  -9.28999996      0.132541224    
  -9.27999973      0.133414224    
  -9.27000046      0.134362206    
  -9.26000023      0.135401130    
  -9.25000000      0.136545926    
  -9.23999977      0.137810320    
  -9.22999954      0.139206722    
  -9.22000027      0.140746579    
  -9.21000004      0.142440394    
  -9.19999981      0.144297794    
  -9.18999958      0.146327198    
  -9.18000031      0.148535416    
  -9.17000008      0.150927678    
  -9.15999985      0.153507307    
  -9.14999962      0.156274989    
  -9.14000034      0.159229487    
  -9.13000011      0.162367150    
  -9.11999989      0.165682510    
  -9.10999966      0.169168666    
  -9.10000038      0.172817156    
  -9.09000015      0.176618293    
  -9.07999992      0.180561423    
  -9.06999969      0.184634551    
  -9.06000042      0.188824117    
  -9.05000019      0.193115622    
  -9.03999996      0.197492793    
  -9.02999973      0.201938525    
  -9.02000046      0.206434533    
  -9.01000023      0.210961446    
  -9.00000000      0.215499595    
  -8.98999977      0.220029056    
  -8.97999954      0.224529445    
  -8.97000027      0.228981152    
  -8.96000004      0.233364552    
  -8.94999981      0.237661004    
  -8.93999958      0.241852701    
  -8.93000031      0.245922476    
  -8.92000008      0.249854818    
  -8.90999985      0.253634661    
  -8.89999962      0.257248849    
  -8.89000034      0.260684490    
  -8.88000011      0.263929546    
  -8.86999989      0.266973406    
  -8.85999966      0.269806385    
  -8.85000038      0.272420228    
  -8.84000015      0.274808139    
  -8.82999992      0.276965559    
  -8.81999969      0.278889060    
  -8.81000042      0.280577838    
  -8.80000019      0.282031506    
  -8.78999996      0.283252150    
  -8.77999973      0.284241825    
  -8.77000046      0.285004199    
  -8.76000023      0.285543442    
  -8.75000000      0.285864800    
  -8.73999977      0.285974324    
  -8.72999954      0.285879165    
  -8.72000027      0.285588413    
  -8.71000004      0.285111278    
  -8.69999981      0.284458488    
  -8.68999958      0.283641040    
  -8.68000031      0.282670289    
  -8.67000008      0.281557918    
  -8.65999985      0.280315101    
  -8.64999962      0.278953522    
  -8.64000034      0.277484894    
  -8.63000011      0.275921583    
  -8.61999989      0.274276137    
  -8.60999966      0.272562385    
  -8.60000038      0.270794183    
  -8.59000015      0.268985689    
  -8.57999992      0.267150879    
  -8.56999969      0.265303344    
  -8.56000042      0.263456702    
  -8.55000019      0.261623234    
  -8.53999996      0.259814173    
  -8.52999973      0.258040547    
  -8.52000046      0.256312281    
  -8.51000023      0.254638582    
  -8.50000000      0.253027797    
  -8.48999977      0.251487672    
  -8.47999954      0.250024676    
  -8.47000027      0.248645395    
  -8.46000004      0.247354597    
  -8.44999981      0.246156335    
  -8.43999958      0.245054379    
  -8.43000031      0.244051889    
  -8.42000008      0.243150935    
  -8.40999985      0.242353752    
  -8.39999962      0.241662696    
  -8.39000034      0.241079286    
  -8.38000011      0.240605369    
  -8.36999989      0.240243658    
  -8.35999966      0.239996135    
  -8.35000038      0.239866316    
  -8.34000015      0.239857391    
  -8.32999992      0.239972651    
  -8.31999969      0.240216523    
  -8.31000042      0.240593165    
  -8.30000019      0.241106421    
  -8.28999996      0.241761640    
  -8.27999973      0.242563441    
  -8.27000046      0.243517950    
  -8.26000023      0.244629517    
  -8.25000000      0.245905340    
  -8.23999977      0.247351617    
  -8.22999954      0.248975933    
  -8.22000027      0.250785828    
  -8.21000004      0.252788901    
  -8.19999981      0.254992604    
  -8.18999958      0.257404983    
  -8.18000031      0.260032892    
  -8.17000008      0.262884706    
  -8.15999985      0.265965164    
  -8.14999962      0.269280583    
  -8.14000034      0.272837967    
  -8.13000011      0.276641428    
  -8.11999989      0.280697435    
  -8.10999966      0.285011321    
  -8.10000038      0.289587766    
  -8.09000015      0.294432908    
  -8.07999992      0.299549907    
  -8.06999969      0.304942966    
  -8.06000042      0.310613453    
  -8.05000019      0.316562831    
  -8.03999996      0.322790086    
  -8.02999973      0.329293042    
  -8.02000046      0.336068213    
  -8.01000023      0.343111157    
  -8.00000000      0.350416452    
  -7.98999977      0.357977301    
  -7.98000002      0.365786552    
  -7.96999979      0.373835593    
  -7.96000004      0.382114619    
  -7.94999981      0.390612096    
  -7.94000006      0.399316519    
  -7.92999983      0.408214182    
  -7.92000008      0.417291433    
  -7.90999985      0.426533043    
  -7.90000010      0.435923517    
  -7.88999987      0.445447624    
  -7.88000011      0.455088109    
  -7.86999989      0.464827776    
  -7.86000013      0.474649251    
  -7.84999990      0.484534442    
  -7.84000015      0.494465083    
  -7.82999992      0.504424334    
  -7.82000017      0.514395237    
  -7.80999994      0.524363279    
  -7.80000019      0.534313023    
  -7.78999996      0.544232249    
  -7.78000021      0.554108977    
  -7.76999998      0.563932240    
  -7.76000023      0.573690176    
  -7.75000000      0.583373189    
  -7.73999977      0.592971683    
  -7.73000002      0.602475941    
  -7.71999979      0.611878753    
  -7.71000004      0.621171713    
  -7.69999981      0.630351424    
  -7.69000006      0.639412940    
  -7.67999983      0.648353577    
  -7.67000008      0.657172978    
  -7.65999985      0.665869832    
  -7.65000010      0.674444556    
  -7.63999987      0.682901561    
  -7.63000011      0.691241682    
  -7.61999989      0.699470043    
  -7.61000013      0.707592607    
  -7.59999990      0.715616584    
  -7.59000015      0.723548234    
  -7.57999992      0.731397033    
  -7.57000017      0.739170969    
  -7.55999994      0.746880591    
  -7.55000019      0.754535735    
  -7.53999996      0.762146473    
  -7.53000021      0.769724607    
  -7.51999998      0.777281642    
  -7.51000023      0.784829795    
  -7.50000000      0.792381585    
  -7.48999977      0.799951017    
  -7.48000002      0.807549298    
  -7.46999979      0.815189242    
  -7.46000004      0.822883129    
  -7.44999981      0.830642343    
  -7.44000006      0.838477910    