  -16.0000000       0.00000000    
  -15.9899998       0.00000000    
  -15.9799995       0.00000000    
  -15.9700003       0.00000000    
  -15.9600000       0.00000000    
  -15.9499998       0.00000000    
  -15.9399996       0.00000000    
  -15.9300003       0.00000000    
  -15.9200001       0.00000000    
  -15.9099998       0.00000000    
  -15.8999996       0.00000000    
  -15.8900003       0.00000000    
  -15.8800001       7.00649232E-44
  -15.8699999       5.94430809E-42
  -15.8599997       1.62092397E-40
  -15.8500004       2.41935441E-39
  -15.8400002       2.43821028E-38
  -15.8299999       1.84568675E-37
  -15.8199997       1.11694572E-36
  -15.8100004       5.62195635E-36
  -15.8000002       2.41630440E-35
  -15.7900000       9.02666589E-35
  -15.7799997       2.96523432E-34
  -15.7700005       8.62262116E-34
  -15.7600002       2.22372160E-33
  -15.7500000       5.06575250E-33
  -15.7399998       1.00576068E-32
  -15.7299995       1.68286916E-32
  -15.7200003       2.15834869E-32
  -15.7100000       1.31204991E-32
  -15.6999998      -3.14708667E-32
  -15.6899996      -1.47018220E-31
  -15.6800003      -3.67752303E-31
  -15.6700001      -6.91045011E-31
  -15.6599998      -1.01166787E-30
  -15.6499996      -1.04123042E-30
  -15.6400003      -2.66513087E-31
  -15.6300001       1.95154162E-30
  -15.6199999       6.01229964E-30
  -15.6099997       1.13757061E-29
  -15.6000004       1.56671241E-29
  -15.5900002       1.41029771E-29
  -15.5799999       1.98548543E-31
  -15.5699997      -3.10866459E-29
  -15.5600004      -7.72175972E-29
  -15.5500002      -1.20419504E-28
  -15.5400000      -1.23427975E-28
  -15.5299997      -3.73156059E-29
  -15.5200005       1.69473481E-28
  -15.5100002       4.59888767E-28
  -15.5000000       6.74962227E-28
  -15.4899998       5.29616338E-28
  -15.4799995      -2.68722092E-28
  -15.4700003      -1.72828273E-27
  -15.4600000      -3.16923289E-27
  -15.4499998      -2.97885896E-27
  -15.4399996       9.80614098E-28
  -15.4300003       9.80280007E-27
  -15.4200001       2.08063296E-26
  -15.4099998       2.48786022E-26
  -15.3999996       6.81390702E-27
  -15.3900003      -4.74406496E-26
  -15.3800001      -1.34389949E-25
  -15.3699999      -2.11450123E-25
  -15.3599997      -1.84905582E-25
  -15.3500004       6.77487735E-26
  -15.3400002       6.16915112E-25
  -15.3299999       1.34230984E-24
  -15.3199997       1.79364645E-24
  -15.3100004       1.18047956E-24
  -15.3000002      -1.33626214E-24
  -15.2900000      -5.94184509E-24
  -15.2799997      -1.11832298E-23
  -15.2700005      -1.32363539E-23
  -15.2600002      -6.36732117E-24
  -15.2500000       1.44101569E-23
  -15.2399998       4.82090601E-23
  -15.2299995       8.21803737E-23
  -15.2200003       8.84470910E-23
  -15.2100000       2.99374197E-23
  -15.1999998      -1.19874786E-22
  -15.1899996      -3.44135054E-22
  -15.1800003      -5.48748761E-22
  -15.1700001      -5.52947722E-22
  -15.1599998      -1.36960995E-22
  -15.1499996       8.31134055E-22
  -15.1400003       2.20518940E-21
  -15.1300001       3.38632799E-21
  -15.1199999       3.30838802E-21
  -15.1099997       7.50196270E-22
  -15.1000004      -4.93653029E-21
  -15.0900002      -1.28091277E-20
  -15.0799999      -1.94736023E-20
  -15.0699997      -1.91305033E-20
  -15.0600004      -5.32590739E-21
  -15.0500002       2.52481647E-20
  -15.0400000       6.76473087E-20
  -15.0299997       1.04534220E-19
  -15.0200005       1.06597628E-19
  -15.0100002       4.11902599E-20
  -15.0000000      -1.09425423E-19
  -14.9899998      -3.23879881E-19
  -14.9799995      -5.22024224E-19
  -14.9700003      -5.65930764E-19
  -14.9600000      -2.97759611E-19
  -14.9499998       3.79320446E-19
  -14.9399996       1.39257604E-18
  -14.9300003       2.40776973E-18
  -14.9200001       2.82207555E-18
  -14.9099998       1.91119770E-18
  -14.8999996      -8.39225086E-19
  -14.8900003      -5.27370530E-18
  -14.8800001      -1.01499660E-17
  -14.8699999      -1.30361398E-17
  -14.8599997      -1.08082761E-17
  -14.8500004      -8.97284169E-19
  -14.8400002       1.68818365E-17
  -14.8299999       3.85256392E-17
  -14.8199997       5.50723849E-17
  -14.8100004       5.39944858E-17
  -14.8000002       2.34636315E-17
  -14.7900000      -4.08762549E-17
  -14.7799997      -1.28569887E-16
  -14.7700005      -2.09944342E-16
  -14.7600002      -2.38835789E-16
  -14.7500000      -1.65595894E-16
  -14.7399998       3.98142179E-17
  -14.7299995       3.60120637E-16
  -14.7200003       7.09596875E-16
  -14.7100000       9.34112275E-16
  -14.6999998       8.45143799E-16
  -14.6899996       2.91227768E-16
  -14.6800003      -7.46078690E-16
  -14.6700001      -2.06410770E-15
  -14.6599998      -3.20593479E-15
  -14.6499996      -3.52941350E-15
  -14.6400003      -2.40321225E-15
  -14.6300001       4.91823593E-16
  -14.6199999       4.83903739E-15
  -14.6099997       9.47834527E-15
  -14.6000004       1.24729210E-14
  -14.5900002       1.15657275E-14
  -14.5799999       5.02359020E-15
  -14.5699997      -7.31040425E-15
  -14.5600004      -2.31204080E-14
  -14.5500002      -3.73551152E-14
  -14.5400000      -4.30330650E-14
  -14.5299997      -3.32932026E-14
  -14.5200005      -4.40919570E-15
  -14.5100002       4.10675996E-14
  -14.5000000       9.23229388E-14
  -14.4899998       1.30845448E-13
  -14.4799995       1.34496242E-13
  -14.4700003       8.49913130E-14
  -14.4600000      -2.27667548E-14
  -14.4499998      -1.72538375E-13
  -14.4399996      -3.23654515E-13
  -14.4300003      -4.16466503E-13
  -14.4200001      -3.87834296E-13
  -14.4099998      -1.94715392E-13
  -14.3999996       1.60153168E-13
  -14.3900003       6.09807398E-13
  -14.3800001       1.02209983E-12
  -14.3699999       1.22372219E-12
  -14.3599997       1.04988446E-12
  -14.3500004       4.10606119E-13
  -14.3400002      -6.45333233E-13
  -14.3299999      -1.89407626E-12
  -14.3199997      -2.95225953E-12
  -14.3100004      -3.35806838E-12
  -14.3000002      -2.71169784E-12
  -14.2900000      -8.44724627E-13
  -14.2799997       2.03367141E-12
  -14.2700005       5.27540988E-12
  -14.2600002       7.86907085E-12
  -14.2500000       8.67206394E-12
  -14.2399998       6.76907749E-12
  -14.2299995       1.87104325E-12
  -14.2200003      -5.37350156E-12
  -14.2100000      -1.32926465E-11
  -14.1999998      -1.94327887E-11
  -14.1899996      -2.11463503E-11
  -14.1800003      -1.64292017E-11
  -14.1700001      -4.79616000E-12
  -14.1599998       1.20927443E-11
  -14.1499996       3.03405148E-11
  -14.1400003       4.44409544E-11
  -14.1300001       4.86197020E-11
  -14.1199999       3.86411042E-11
  -14.1099997       1.36109249E-11
  -14.1000004      -2.28182750E-11
  -14.0900002      -6.23900584E-11
  -14.0799999      -9.36506150E-11
  -14.0699997      -1.04736136E-10
  -14.0600004      -8.69903385E-11
  -14.0500002      -3.84612030E-11
  -14.0400000       3.38603000E-11
  -14.0299997       1.14059109E-10
  -14.0200005       1.80083295E-10
  -14.0100002       2.09050513E-10
  -14.0000000       1.83980942E-10
  -13.9899998       1.00185631E-10
  -13.9799995      -3.07206240E-11
  -13.9700003      -1.80892551E-10
  -13.9600000      -3.11206144E-10
  -13.9499998      -3.80541126E-10
  -13.9399996      -3.57423785E-10
  -13.9300003      -2.30978223E-10
  -13.9200001      -1.77947188E-11
  -13.9099998       2.38041115E-10
  -13.8999996       4.72934747E-10
  -13.8900003       6.18757934E-10
  -13.8800001       6.21534824E-10
  -13.8699999       4.58939386E-10
  -13.8599997       1.51301957E-10
  -13.8500004      -2.38048137E-10
  -13.8400002      -6.14736873E-10
  -13.8299999      -8.75825468E-10
  -13.8199997      -9.37698363E-10
  -13.8100004      -7.61951224E-10
  -13.8000002      -3.71482928E-10
  -13.7900000       1.49117940E-10
  -13.7799997       6.70914657E-10
  -13.7700005       1.05271947E-09
  -13.7600002       1.18024091E-09
  -13.7500000       1.00155961E-09
  -13.7399998       5.48026013E-10
  -13.7299995      -6.72567904E-11
  -13.7200003      -6.75415501E-10
  -13.7100000      -1.09719667E-09
  -13.6999998      -1.19626409E-09
  -13.6899996      -9.25153398E-10
  -13.6800003      -3.49029528E-10
  -13.6700001       3.62661734E-10
  -13.6599998       9.78007231E-10
  -13.6499996       1.26923361E-09
  -13.6400003       1.08676823E-09
  -13.6300001       4.18889173E-10
  -13.6199999      -5.83399384E-10
  -13.6099997      -1.62880121E-09
  -13.6000004      -2.35538367E-09
  -13.5900002      -2.43311771E-09
  -13.5799999      -1.67311864E-09
  -13.5699997      -1.11776408E-10
  -13.5600004       1.95901229E-09
  -13.5500002       4.03242906E-09
  -13.5400000       5.49670487E-09
  -13.5299997       5.79279336E-09
  -13.5200005       4.58151383E-09
  -13.5100002       1.87428717E-09
  -13.5000000      -1.91390770E-09
  -13.4899998      -6.01404571E-09
  -13.4799995      -9.45420719E-09
  -13.4700003      -1.12835199E-08
  -13.4600000      -1.08170815E-08
  -13.4499998      -7.83914977E-09
  -13.4399996      -2.70715206E-09
  -13.4300003       3.67944608E-09
  -13.4200001       1.00483213E-08
  -13.4099998       1.50280179E-08
  -13.3999996       1.74627584E-08
  -13.3900003       1.66902669E-08
  -13.3800001       1.27102995E-08
  -13.3699999       6.19734397E-09
  -13.3599997      -1.64919567E-09
  -13.3500004      -9.38060740E-09
  -13.3400002      -1.56287587E-08
  -13.3299999      -1.94029344E-08
  -13.3199997      -2.02748982E-08
  -13.3100004      -1.84051920E-08
  -13.3000002      -1.44102241E-08
  -13.2900000      -9.11777942E-09
  -13.2799997      -3.29357475E-09
  -13.2700005       2.56802402E-09
  -13.2600002       8.31510594E-09
  -13.2500000       1.40417376E-08
  -13.2399998       1.98525676E-08
  -13.2299995       2.55710404E-08
  -13.2200003       3.05059729E-08
  -13.2100000       3.33881118E-08
  -13.1999998       3.25479590E-08
  -13.1899996       2.63348188E-08
  -13.1800003       1.36952831E-08
  -13.1700001      -5.24062971E-09
  -13.1599998      -2.87512556E-08
  -13.1499996      -5.34611537E-08
  -13.1400003      -7.47231113E-08
  -13.1300001      -8.74321344E-08
  -13.1199999      -8.71362644E-08
  -13.1099997      -7.12059389E-08
  -13.1000004      -3.97721429E-08
  -13.0900002       3.83626242E-09
  -13.0799999       5.33318705E-08
  -13.0699997       1.00409615E-07
  -13.0600004       1.36243287E-07
  -13.0500002       1.53241231E-07
  -13.0400000       1.46678914E-07
  -13.0299997       1.15829785E-07
  -13.0200005       6.43140368E-08
  -13.0100002      -4.40720932E-10
  -13.0000000      -6.85267878E-08
  -12.9899998      -1.29383167E-07
  -12.9799995      -1.73714142E-07
  -12.9700003      -1.95074691E-07
  -12.9600000      -1.90789009E-07
  -12.9499998      -1.62044643E-07
  -12.9399996      -1.13221944E-07
  -12.9300003      -5.07121882E-08
  -12.9200001       1.84034192E-08
  -12.9099998       8.74340955E-08
  -12.8999996       1.50648859E-07
  -12.8900003       2.03258168E-07
  -12.8800001       2.40953426E-07
  -12.8699999       2.59331301E-07
  -12.8599997       2.53605748E-07
  -12.8500004       2.18952678E-07
  -12.8400002       1.51636470E-07
  -12.8299999       5.07892004E-08
  -12.8199997      -7.95784487E-08
  -12.8100004      -2.28962122E-07
  -12.8000002      -3.79825366E-07
  -12.7900000      -5.08673281E-07
  -12.7799997      -5.88941703E-07
  -12.7700005      -5.95459937E-07
  -12.7600002      -5.09780875E-07
  -12.7500000      -3.25325402E-07
  -12.7399998      -5.11513534E-08
  -12.7299995       2.86699873E-07
  -12.7200003       6.46920853E-07
  -12.7100000       9.77758532E-07
  -12.6999998       1.22431834E-06
  -12.6899996       1.33716435E-06
  -12.6800003       1.28069348E-06
  -12.6700001       1.03974446E-06
  -12.6599998       6.23224764E-07
  -12.6499996       6.41110915E-08
  -12.6400003      -5.84106772E-07
  -12.6300001      -1.25380302E-06
  -12.6199999      -1.87120622E-06
  -12.6099997      -2.36461415E-06
  -12.6000004      -2.67160863E-06
  -12.5900002      -2.74443801E-06
  -12.5799999      -2.55331111E-06
  -12.5699997      -2.08784718E-06
  -12.5600004      -1.35729408E-06
  -12.5500002      -3.90194572E-07
  -12.5400000       7.65997356E-07
  -12.5299997       2.04526123E-06
  -12.5200005       3.36367043E-06
  -12.5100002       4.62108846E-06
  -12.5000000       5.70470775E-06
  -12.4899998       6.49505228E-06
  -12.4799995       6.87453667E-06
  -12.4700003       6.73799968E-06
  -12.4600000       6.00393469E-06
  -12.4499998       4.62466460E-06
  -12.4399996       2.59358717E-06
  -12.4300003      -5.20658361E-08
  -12.4200001      -3.23377321E-06
  -12.4099998      -6.83939970E-06
  -12.3999996      -1.07348123E-05
  -12.3900003      -1.47774099E-05
  -12.3800001      -1.88291397E-05
  -12.3699999      -2.27667060E-05
  -12.3599997      -2.64872779E-05
  -12.3500004      -2.99090589E-05
  -12.3400002      -3.29671420E-05
  -12.3299999      -3.56061610E-05
  -12.3199997      -3.77718316E-05
  -12.3100004      -3.94036761E-05
  -12.3000002      -4.04307175E-05
  -12.2900000      -4.07713196E-05
  -12.2799997      -4.03371014E-05
  -12.2700005      -3.90401729E-05
  -12.2600002      -3.68021392E-05
  -12.2500000      -3.35631266E-05
  -12.2399998      -2.92893346E-05
  -12.2299995      -2.39782657E-05
  -12.2200003      -1.76613521E-05
  -12.2100000      -1.04045175E-05
  -12.1999998      -2.30747060E-06
  -12.1899996       6.49739513E-06
  -12.1800003       1.58461407E-05
  -12.1700001       2.55445739E-05
  -12.1599998       3.53704272E-05
  -12.1499996       4.50777079E-05
  -12.1400003       5.44042741E-05
  -12.1300001       6.30834547E-05
  -12.1199999       7.08592124E-05
  -12.1099997       7.75040098E-05
  -12.1000004       8.28366392E-05
  -12.0900002       8.67376220E-05
  -12.0799999       8.91589807E-05
  -12.0699997       9.01266030E-05
  -12.0600004       8.97339050E-05
  -12.0500002       8.81277520E-05
  -12.0400000       8.54887330E-05
  -12.0299997       8.20088317E-05
  -12.0200005       7.78704198E-05
  -12.0100002       7.32297704E-05
  -12.0000000       6.82071550E-05
  -11.9899998       6.28845446E-05
  -11.9799995       5.73096877E-05
  -11.9700003       5.15046413E-05
  -11.9600000       4.54757828E-05
  -11.9499998       3.92226102E-05
  -11.9399996       3.27433918E-05
  -11.9300003       2.60370070E-05
  -11.9200001       1.91015060E-05
  -11.9099998       1.19312554E-05
  -11.8999996       4.51472215E-06
  -11.8900003      -3.16507203E-06
  -11.8800001      -1.11262352E-05
  -11.8699999      -1.93800952E-05
  -11.8599997      -2.79208598E-05
  -11.8500004      -3.67153480E-05
  -11.8400002      -4.56952584E-05
  -11.8299999      -5.47543859E-05
  -11.8199997      -6.37519552E-05
  -11.8100004      -7.25218197E-05
  -11.8000002      -8.08863842E-05
  -11.7900000      -8.86721100E-05
  -11.7799997      -9.57240627E-05
  -11.7700005      -1.01916696E-04
  -11.7600002      -1.07158849E-04
  -11.7500000      -1.11392910E-04
  -11.7399998      -1.14588824E-04
  -11.7299995      -1.16734955E-04
  -11.7200003      -1.17828931E-04
  -11.7100000      -1.17870077E-04
  -11.6999998      -1.16856230E-04
  -11.6899996      -1.14784743E-04
  -11.6800003      -1.11657573E-04
  -11.6700001      -1.07488631E-04
  -11.6599998      -1.02311315E-04
  -11.6499996      -9.61838305E-05
  -11.6400003      -8.91909076E-05
  -11.6300001      -8.14409359E-05
  -11.6199999      -7.30588945E-05
  -11.6099997      -6.41765801E-05
  -11.6000004      -5.49217002E-05
  -11.5900002      -4.54082729E-05
  -11.5799999      -3.57296703E-05
  -11.5699997      -2.59557346E-05
  -11.5600004      -1.61339285E-05
  -11.5500002      -6.29397709E-06
  -11.5400000       3.54524605E-06
  -11.5299997       1.33681333E-05
  -11.5200005       2.31554332E-05
  -11.5100002       3.28793685E-05
  -11.5000000       4.25009675E-05
  -11.4899998       5.19700261E-05
  -11.4799995       6.12271397E-05
  -11.4700003       7.02070392E-05
  -11.4600000       7.88428224E-05
  -11.4499998       8.70701479E-05
  -11.4399996       9.48311063E-05
  -11.4300003       1.02077458E-04
  -11.4200001       1.08773034E-04
  -11.4099998       1.14895032E-04
  -11.3999996       1.20434270E-04
  -11.3900003       1.25393984E-04
  -11.3800001       1.29787542E-04
  -11.3699999       1.33634356E-04
  -11.3599997       1.36955408E-04
  -11.3500004       1.39768235E-04
  -11.3400002       1.42082630E-04
  -11.3299999       1.43897618E-04
  -11.3199997       1.45200494E-04
  -11.3100004       1.45968472E-04
  -11.3000002       1.46172359E-04
  -11.2900000       1.45781669E-04
  -11.2799997       1.44770587E-04
  -11.2700005       1.43123121E-04
  -11.2600002       1.40837161E-04
  -11.2500000       1.37926443E-04
  -11.2399998       1.34420916E-04
  -11.2299995       1.30365705E-04
  -11.2200003       1.25819657E-04
  -11.2100000       1.20853940E-04
  -11.1999998       1.15551491E-04
  -11.1899996       1.10006884E-04
  -11.1800003       1.04326406E-04
  -11.1700001       9.86272062E-05
  -11.1599998       9.30344104E-05
  -11.1499996       8.76759441E-05
  -11.1400003       8.26744799E-05
  -11.1300001       7.81374983E-05
  -11.1199999       7.41465046E-05
  -11.1099997       7.07475920E-05
  -11.1000004       6.79450677E-05
  -11.0900002       6.56995908E-05
  -11.0799999       6.39321152E-05
  -11.0699997       6.25327593E-05
  -11.0600004       6.13741577E-05
  -11.0500002       6.03267508E-05
  -11.0400000       5.92739598E-05
  -11.0299997       5.81246495E-05
  -11.0200005       5.68211181E-05
  -11.0100002       5.53417267E-05
  -11.0000000       5.36979060E-05
  -10.9899998       5.19269015E-05
  -10.9799995       5.00818714E-05
  -10.9700003       4.82214600E-05
  -10.9600000       4.64006262E-05
  -10.9499998       4.46646554E-05
  -10.9399996       4.30465479E-05
  -10.9300003       4.15677168E-05
  -10.9200001       4.02408587E-05
  -10.9099998       3.90734858E-05
  -10.8999996       3.80702259E-05
  -10.8900003       3.72327158E-05
  -10.8800001       3.65564993E-05
  -10.8699999       3.60249833E-05
  -10.8599997       3.56020828E-05
  -10.8500004       3.52252791E-05
  -10.8400002       3.48012181E-05
  -10.8299999       3.42059648E-05
  -10.8199997       3.32908385E-05
  -10.8100004       3.18937236E-05
  -10.8000002       2.98548348E-05
  -10.7900000       2.70341243E-05
  -10.7799997       2.33279934E-05
  -10.7700005       1.86820780E-05
  -10.7600002       1.30980225E-05
  -10.7500000       6.63330820E-06
  -10.7399998      -6.05276000E-07
  -10.7299995      -8.47306910E-06
  -10.7200003      -1.68010465E-05
  -10.7100000      -2.54087427E-05
  -10.6999998      -3.41141786E-05
  -10.6899996      -4.27397063E-05
  -10.6800003      -5.11135950E-05
  -10.6700001      -5.90688214E-05
  -10.6599998      -6.64413164E-05
  -10.6499996      -7.30694956E-05
  -10.6400003      -7.87971367E-05
  -10.6300001      -8.34801031E-05
  -10.6199999      -8.69959258E-05
  -10.6099997      -8.92547541E-05
  -10.6000004      -9.02084576E-05
  -10.5900002      -8.98560320E-05
  -10.5799999      -8.82429376E-05
  -10.5699997      -8.54540049E-05
  -10.5600004      -8.16013999E-05
  -10.5500002      -7.68092141E-05
  -10.5400000      -7.11985631E-05
  -10.5299997      -6.48755959E-05
  -10.5200005      -5.79253574E-05
  -10.5100002      -5.04120180E-05
  -10.5000000      -4.23851816E-05
  -10.4899998      -3.38903701E-05
  -10.4799995      -2.49807836E-05
  -10.4700003      -1.57272843E-05
  -10.4600000      -6.22424250E-06
  -10.4499998       3.41034092E-06
  -10.4399996       1.30401768E-05
  -10.4300003       2.25208987E-05
  -10.4200001       3.17124395E-05
  -10.4099998       4.04912716E-05
  -10.3999996       4.87602665E-05
  -10.3900003       5.64539259E-05
  -10.3800001       6.35387842E-05
  -10.3699999       7.00090022E-05
  -10.3599997       7.58784154E-05
  -10.3500004       8.11712089E-05
  -10.3400002       8.59133070E-05
  -10.3299999       9.01264211E-05
  -10.3199997       9.38259327E-05
  -10.3100004       9.70228211E-05
  -10.3000002       9.97294046E-05
  -10.2900000       1.01966580E-04
  -10.2799997       1.03770697E-04
  -10.2700005       1.05197607E-04
  -10.2600002       1.06322565E-04
  -10.2500000       1.07234373E-04
  -10.2399998       1.08024607E-04
  -10.2299995       1.08773798E-04
  -10.2200003       1.09536981E-04
  -10.2100000       1.10331726E-04
  -10.1999998       1.11131660E-04
  -10.1899996       1.11867637E-04
  -10.1800003       1.12436559E-04
  -10.1700001       1.12717098E-04
  -10.1599998       1.12590184E-04
  -10.1499996       1.11959933E-04
  -10.1400003       1.10772242E-04
  -10.1300001       1.09027373E-04
  -10.1199999       1.06784952E-04
  -10.1099997       1.04160390E-04
  -10.1000004       1.01314188E-04
  -10.0900002       9.84355574E-05
  -10.0799999       9.57234151E-05
  -10.0699997       9.33671618E-05
  -10.0600004       9.15293422E-05
  -10.0500002       9.03320688E-05
  -10.0400000       8.98474609E-05
  -10.0299997       9.00924933E-05
  -10.0200005       9.10281888E-05
  -10.0100002       9.25627246E-05
  -10.0000000       9.45583306E-05
  -9.98999977       9.68417808E-05
  -9.97999954       9.92185524E-05
  -9.97000027       1.01489670E-04
  -9.96000004       1.03470455E-04
  -9.94999981       1.05009225E-04
  -9.93999958       1.06003703E-04
  -9.93000031       1.06413157E-04
  -9.92000008       1.06263840E-04
  -9.90999985       1.05646075E-04
  -9.89999962       1.04704086E-04
  -9.89000034       1.03618724E-04
  -9.88000011       1.02586353E-04
  -9.86999989       1.01796992E-04
  -9.85999966       1.01415360E-04
  -9.85000038       1.01566984E-04
  -9.84000015       1.02331622E-04
  -9.82999992       1.03743347E-04
  -9.81999969       1.05796971E-04
  -9.81000042       1.08457607E-04
  -9.80000019       1.11671223E-04
  -9.78999996       1.15374241E-04
  -9.77999973       1.19500481E-04
  -9.77000046       1.23985345E-04
  -9.76000023       1.28768399E-04
  -9.75000000       1.33793888E-04
  -9.73999977       1.39011187E-04
  -9.72999954       1.44375299E-04
  -9.72000027       1.49847081E-04
  -9.71000004       1.55391841E-04
  -9.69999981       1.60977273E-04
  -9.68999958       1.66568949E-04
  -9.68000031       1.72125612E-04
  -9.67000008       1.77594819E-04
  -9.65999985       1.82911230E-04
  -9.64999962       1.87999278E-04
  -9.64000034       1.92780004E-04
  -9.63000011       1.97182162E-04
  -9.61999989       2.01154180E-04
  -9.60999966       2.04674216E-04
  -9.60000038       2.07755176E-04
  -9.59000015       2.10442173E-04
  -9.57999992       2.12802101E-04
  -9.56999969       2.14907457E-04
  -9.56000042       2.16818211E-04
  -9.55000019       2.18564615E-04
  -9.53999996       2.20137052E-04
  -9.52999973       2.21483540E-04
  -9.52000046       2.22515882E-04
  -9.51000023       2.23123221E-04
  -9.50000000       2.23188399E-04
  -9.48999977       2.22605420E-04
  -9.47999954       2.21293201E-04
  -9.47000027       2.19204187E-04
  -9.46000004       2.16328728E-04
  -9.44999981       2.12694693E-04
  -9.43999958       2.08364247E-04
  -9.43000031       2.03429096E-04
  -9.42000008       1.98005553E-04
  -9.40999985       1.92227992E-04
  -9.39999962       1.86242571E-04
  -9.39000034       1.80199670E-04
  -9.38000011       1.74245972E-04
  -9.36999989       1.68517145E-04
  -9.35999966       1.63132179E-04
  -9.35000038       1.58190465E-04
  -9.34000015       1.53773028E-04
  -9.32999992       1.49945859E-04
  -9.31999969       1.46765378E-04
  -9.31000042       1.44284437E-04
  -9.30000019       1.42556324E-04
  -9.28999996       1.41636192E-04
  -9.27999973       1.41581346E-04
  -9.27000046       1.42448989E-04
  -9.26000023       1.44295031E-04
  -9.25000000       1.47170897E-04
  -9.23999977       1.51123037E-04
  -9.22999954       1.56190828E-04
  -9.22000027       1.62401964E-04
  -9.21000004       1.69766688E-04
  -9.19999981       1.78269052E-04
  -9.18999958       1.87856567E-04
  -9.18000031       1.98431328E-04
  -9.17000008       2.09844744E-04
  -9.15999985       2.21900656E-04
  -9.14999962       2.34363048E-04
  -9.14000034       2.46973126E-04
  -9.13000011       2.59468565E-04
  -9.11999989       2.71604426E-04
  -9.10999966       2.83168803E-04
  -9.10000038       2.93994119E-04
  -9.09000015       3.03960871E-04
  -9.07999992       3.12994787E-04
  -9.06999969       3.21059604E-04
  -9.06000042       3.28148832E-04
  -9.05000019       3.34277749E-04
  -9.03999996       3.39476333E-04
  -9.02999973       3.43784573E-04
  -9.02000046       3.47248977E-04
  -9.01000023       3.49918701E-04
  -9.00000000       3.51841969E-04
  -8.98999977       3.53063049E-04
  -8.97999954       3.53618845E-04
  -8.97000027       3.53535492E-04
  -8.96000004       3.52826813E-04
  -8.94999981       3.51493683E-04
  -8.93999958       3.49523471E-04
  -8.93000031       3.46890563E-04
  -8.92000008       3.43558524E-04
  -8.90999985       3.39485210E-04
  -8.89999962       3.34629382E-04
  -8.89000034       3.28961032E-04
  -8.88000011       3.22474487E-04
  -8.86999989       3.15199664E-04
  -8.85999966       3.07210605E-04
  -8.85000038       2.98628263E-04
  -8.84000015       2.89613876E-04
  -8.82999992       2.80355656E-04
  -8.81999969       2.71053257E-04
  -8.81000042       2.61901849E-04
  -8.80000019       2.53084174E-04
  -8.78999996       2.44773284E-04
  -8.77999973       2.37144515E-04
  -8.77000046       2.30392296E-04
  -8.76000023       2.24746880E-04
  -8.75000000       2.20479720E-04
  -8.73999977       2.17896435E-04
  -8.72999954       2.17309993E-04
  -8.72000027       2.19004360E-04
  -8.71000004       2.23193827E-04
  -8.69999981       2.29990081E-04
  -8.68999958       2.39384841E-04
  -8.68000031       2.51253572E-04
  -8.67000008       2.65377341E-04
  -8.65999985       2.81477289E-04
  -8.64999962       2.99248408E-04
  -8.64000034       3.18387960E-04
  -8.63000011       3.38605867E-04
  -8.61999989       3.59624770E-04
  -8.60999966       3.81168298E-04
  -8.60000038       4.02950711E-04
  -8.59000015       4.24673577E-04
  -8.57999992       4.46035119E-04
  -8.56999969       4.66747617E-04
  -8.56000042       4.86563891E-04
  -8.55000019       5.05293952E-04
  -8.53999996       5.22813352E-04
  -8.52999973       5.39055211E-04
  -8.52000046       5.53988037E-04
  -8.51000023       5.67590061E-04
  -8.50000000       5.79827407E-04
  -8.48999977       5.90645883E-04
  -8.47999954       5.99981810E-04
  -8.47000027       6.07784954E-04
  -8.46000004       6.14049262E-04
  -8.44999981       6.18837308E-04
  -8.43999958       6.22291060E-04
  -8.43000031       6.24621112E-04
  -8.42000008       6.26080087E-04
  -8.40999985       6.26928406E-04
  -8.39999962       6.27400703E-04
  -8.39000034       6.27689413E-04
  -8.38000011       6.27944246E-04
  -8.36999989       6.28291338E-04
  -8.35999966       6.28860842E-04
  -8.35000038       6.29809743E-04
  -8.34000015       6.31331990E-04
  -8.32999992       6.33647025E-04
  -8.31999969       6.36970333E-04
  -8.31000042       6.41476014E-04
  -8.30000019       6.47261273E-04
  -8.28999996       6.54328091E-04
  -8.27999973       6.62589795E-04
  -8.27000046       6.71901857E-04
  -8.26000023       6.82106125E-04
  -8.25000000       6.93076348E-04
  -8.23999977       7.04752689E-04
  -8.22999954       7.17148476E-04
  -8.22000027       7.30333093E-04
  -8.21000004       7.44392572E-04
  -8.19999981       7.59385293E-04
  -8.18999958       7.75305147E-04
  -8.18000031       7.92066741E-04
  -8.17000008       8.09514080E-04
  -8.15999985       8.27455020E-04
  -8.14999962       8.45703587E-04
  -8.14000034       8.64116766E-04
  -8.13000011       8.82613880E-04
  -8.11999989       9.01171647E-04
  -8.10999966       9.19789833E-04
  -8.10000038       9.38447774E-04
  -8.09000015       9.57057811E-04
  -8.07999992       9.75440722E-04
  -8.06999969       9.93322814E-04
  -8.06000042       1.01036543E-03
  -8.05000019       1.02621189E-03
  -8.03999996       1.04054180E-03
  -8.02999973       1.05311431E-03
  -8.02000046       1.06378493E-03
  -8.01000023       1.07249746E-03
  -8.00000000       1.07924780E-03
  -7.98999977       1.08404306E-03
  -7.98000002       1.08686148E-03
  -7.96999979       1.08763366E-03
  -7.96000004       1.08625216E-03
  -7.94999981       1.08260335E-03
  -7.94000006       1.07661088E-03
  -7.92999983       1.06827519E-03
  -7.92000008       1.05769513E-03
  -7.90999985       1.04506232E-03
  -7.90000010       1.03062904E-03
  -7.88999987       1.01466069E-03
  -7.88000011       9.97395604E-04
  -7.86999989       9.79017932E-04
  -7.86000013       9.59660683E-04
  -7.84999990       9.39438411E-04
  -7.84000015       9.18494014E-04
  -7.82999992       8.97048623E-04
  -7.82000017       8.75429309E-04
  -7.80999994       8.54062440E-04
  -7.80000019       8.33439524E-04
  -7.78999996       8.14051251E-04
  -7.78000021       7.96321838E-04
  -7.76999998       7.80550239E-04
  -7.76000023       7.66888377E-04
  -7.75000000       7.55357614E-04
  -7.73999977       7.45894911E-04
  -7.73000002       7.38413539E-04
  -7.71999979       7.32862565E-04
  -7.71000004       7.29255727E-04
  -7.69999981       7.27669336E-04
  -7.69000006       7.28208805E-04
  -7.67999983       7.30950735E-04
  -7.67000008       7.35895184E-04
  -7.65999985       7.42934993E-04
  -7.65000010       7.51861720E-04
  -7.63999987       7.62407319E-04
  -7.63000011       7.74307526E-04
  -7.61999989       7.87367171E-04
  -7.61000013       8.01509654E-04
  -7.59999990       8.16788524E-04
  -7.59000015       8.33356578E-04
  -7.57999992       8.51409568E-04
  -7.57000017       8.71114666E-04
  -7.55999994       8.92549811E-04
  -7.55000019       9.15673154E-04
  -7.53999996       9.40336438E-04
  -7.53000021       9.66330175E-04
  -7.51999998       9.93452268E-04
  -7.51000023       1.02157018E-03
  -7.50000000       1.05066458E-03
  -7.48999977       1.08082546E-03
  -7.48000002       1.11221534E-03
  -7.46999979       1.14500266E-03
  -7.46000004       1.17928383E-03
  -7.44999981       1.21503440E-03
  -7.44000006       1.25208497E-03