  -16.0000000       0.00000000    
  -15.9899998       0.00000000    
  -15.9799995       0.00000000    
  -15.9700003       0.00000000    
  -15.9600000       0.00000000    
  -15.9499998       0.00000000    
  -15.9399996       0.00000000    
  -15.9300003       0.00000000    
  -15.9200001       0.00000000    
  -15.9099998       0.00000000    
  -15.8999996       0.00000000    
  -15.8900003       0.00000000    
  -15.8800001       0.00000000    
  -15.8699999      -0.00000000    
  -15.8599997       0.00000000    
  -15.8500004       0.00000000    
  -15.8400002       5.60519386E-45
  -15.8299999      -1.82168800E-44
  -15.8199997      -7.53898574E-43
  -15.8100004      -8.60537387E-42
  -15.8000002      -6.64958160E-41
  -15.7900000      -4.03289494E-40
  -15.7799997      -2.03981272E-39
  -15.7700005      -8.89678650E-39
  -15.7600002      -3.41810299E-38
  -15.7500000      -1.17369744E-37
  -15.7399998      -3.63901674E-37
  -15.7299995      -1.02605127E-36
  -15.7200003      -2.64326198E-36
  -15.7100000      -6.23668414E-36
  -15.6999998      -1.34784777E-35
  -15.6899996      -2.66043013E-35
  -15.6800003      -4.76140014E-35
  -15.6700001      -7.61110953E-35
  -15.6599998      -1.05227545E-34
  -15.6499996      -1.15895294E-34
  -15.6400003      -7.16900714E-35
  -15.6300001       8.04164238E-35
  -15.6199999       3.94947276E-34
  -15.6099997       8.89743705E-34
  -15.6000004       1.48302388E-33
  -15.5900002       1.92214522E-33
  -15.5799999       1.74903549E-33
  -15.5699997       3.74744867E-34
  -15.5600004      -2.66292174E-33
  -15.5500002      -7.24282167E-33
  -15.5400000      -1.21295625E-32
  -15.5299997      -1.46932812E-32
  -15.5200005      -1.13634488E-32
  -15.5100002       7.71264619E-34
  -15.5000000       2.13102256E-32
  -15.4899998       4.39227843E-32
  -15.4799995       5.60079506E-32
  -15.4700003       4.33186243E-32
  -15.4600000       7.02081174E-34
  -15.4499998      -5.43527135E-32
  -15.4399996      -7.53704996E-32
  -15.4300003      -2.98916403E-33
  -15.4200001       1.84470916E-31
  -15.4099998       3.93265561E-31
  -15.3999996       3.53801700E-31
  -15.3900003      -3.36199613E-31
  -15.3800001      -1.96710234E-30
  -15.3699999      -4.24228689E-30
  -15.3599997      -5.73023742E-30
  -15.3500004      -3.67928867E-30
  -15.3400002       5.14547017E-30
  -15.3299999       2.20490511E-29
  -15.3199997       4.26095058E-29
  -15.3100004       5.31867161E-29
  -15.3000002       3.12440004E-29
  -15.2900000      -4.60970610E-29
  -15.2799997      -1.82703934E-28
  -15.2700005      -3.36962629E-28
  -15.2600002      -4.02214556E-28
  -15.2500000      -2.18494224E-28
  -15.2399998       3.58280146E-28
  -15.2299995       1.32130215E-27
  -15.2200003       2.34782917E-27
  -15.2100000       2.70300069E-27
  -15.1999998       1.36333942E-27
  -15.1899996      -2.50136449E-27
  -15.1800003      -8.68202363E-27
  -15.1700001      -1.49885036E-26
  -15.1599998      -1.68284939E-26
  -15.1499996      -8.15449447E-27
  -15.1400003       1.55476211E-26
  -15.1300001       5.23993707E-26
  -15.1199999       8.91066833E-26
  -15.1099997       9.92468493E-26
  -15.1000004       4.92749854E-26
  -15.0900002      -8.46725886E-26
  -15.0799999      -2.90837806E-25
  -15.0699997      -4.96329144E-25
  -15.0600004      -5.60023598E-25
  -15.0500002      -3.05462473E-25
  -15.0400000       3.92579908E-25
  -15.0299997       1.47819202E-24
  -15.0200005       2.58926178E-24
  -15.0100002       3.02376716E-24
  -15.0000000       1.89787430E-24
  -14.9899998      -1.44318819E-24
  -14.9799995      -6.81191095E-24
  -14.9700003      -1.25835013E-23
  -14.9600000      -1.55078852E-23
  -14.9499998      -1.13768463E-23
  -14.9399996       3.17763921E-24
  -14.9300003       2.79531410E-23
  -14.9200001       5.64360432E-23
  -14.9099998       7.46877602E-23
  -14.8999996       6.37737244E-23
  -14.8900003       6.99866114E-24
  -14.8800001      -9.86639820E-23
  -14.8699999      -2.30451564E-22
  -14.8599997      -3.33458472E-22
  -14.8500004      -3.27871267E-22
  -14.8400002      -1.35497475E-22
  -14.8299999       2.75518797E-22
  -14.8199997       8.39812888E-22
  -14.8100004       1.36147477E-21
  -14.8000002       1.52859938E-21
  -14.7900000       1.00049444E-21
  -14.7799997      -4.30283411E-22
  -14.7700005      -2.63746074E-21
  -14.7600002      -5.00276007E-21
  -14.7500000      -6.41033713E-21
  -14.7399998      -5.49548749E-21
  -14.7299995      -1.18175079E-21
  -14.7200003       6.58630244E-21
  -14.7100000       1.61645390E-20
  -14.6999998       2.39604497E-20
  -14.6899996       2.50014532E-20
  -14.6800003       1.45323694E-20
  -14.6700001      -9.52864567E-21
  -14.6599998      -4.39679001E-20
  -14.6499996      -7.86622978E-20
  -14.6400003      -9.73341036E-20
  -14.6300001      -8.16705533E-20
  -14.6199999      -1.87597681E-20
  -14.6099997       8.97987273E-20
  -14.6000004       2.20438257E-19
  -14.5900002       3.26188283E-19
  -14.5799999       3.45177791E-19
  -14.5699997       2.20521207E-19
  -14.5600004      -7.14095911E-20
  -14.5500002      -4.92663551E-19
  -14.5400000      -9.27985288E-19
  -14.5299997      -1.19511696E-18
  -14.5200005      -1.08976848E-18
  -14.5100002      -4.62938247E-19
  -14.5000000       6.87012790E-19
  -14.4899998       2.14004260E-18
  -14.4799995       3.43831663E-18
  -14.4700003       3.96299833E-18
  -14.4600000       3.11541489E-18
  -14.4499998       5.75368223E-19
  -14.4399996      -3.43544549E-18
  -14.4300003      -7.99159208E-18
  -14.4200001      -1.15159862E-17
  -14.4099998      -1.21200373E-17
  -14.3999996      -8.22084601E-18
  -14.3900003       6.92470838E-19
  -14.3800001       1.33856964E-17
  -14.3699999       2.66065390E-17
  -14.3599997       3.54875405E-17
  -14.3500004       3.47469326E-17
  -14.3400002       2.05469911E-17
  -14.3299999      -7.44320028E-18
  -14.3199997      -4.44905776E-17
  -14.3100004      -8.05399888E-17
  -14.3000002      -1.01858577E-16
  -14.2900000      -9.46939822E-17
  -14.2799997      -5.03427084E-17
  -14.2700005       2.97265386E-17
  -14.2600002       1.30563736E-16
  -14.2500000       2.24116500E-16
  -14.2399998       2.74484335E-16
  -14.2299995       2.47875272E-16
  -14.2200003       1.25332487E-16
  -14.2100000      -8.53586401E-17
  -14.1999998      -3.43080081E-16
  -14.1899996      -5.76213485E-16
  -14.1800003      -6.97012877E-16
  -14.1700001      -6.26273503E-16
  -14.1599998      -3.23079251E-16
  -14.1499996       1.88977921E-16
  -14.1400003       8.09148340E-16
  -14.1300001       1.36887301E-15
  -14.1199999       1.66663156E-15
  -14.1099997       1.52417957E-15
  -14.1000004       8.51750444E-16
  -14.0900002      -2.96746108E-16
  -14.0799999      -1.69946224E-15
  -14.0699997      -2.98978278E-15
  -14.0600004      -3.73238207E-15
  -14.0500002      -3.54185726E-15
  -14.0400000      -2.21720361E-15
  -14.0299997       1.46525384E-16
  -14.0200005       3.11046211E-15
  -14.0100002       5.93902530E-15
  -14.0000000       7.75036502E-15
  -13.9899998       7.74831266E-15
  -13.9799995       5.48336731E-15
  -13.9700003       1.06946263E-15
  -13.9600000      -4.71964598E-15
  -13.9499998      -1.05302060E-14
  -13.9399996      -1.46985560E-14
  -13.9300003      -1.56708193E-14
  -13.9200001      -1.24780294E-14
  -13.9099998      -5.13683385E-15
  -13.8999996       5.15695639E-15
  -13.8900003       1.61389541E-14
  -13.8800001       2.49156978E-14
  -13.8699999       2.86655465E-14
  -13.8599997       2.54447867E-14
  -13.8500004       1.48847711E-14
  -13.8400002      -1.43834972E-15
  -13.8299999      -2.01209644E-14
  -13.8199997      -3.65804392E-14
  -13.8100004      -4.61331074E-14
  -13.8000002      -4.52604364E-14
  -13.7900000      -3.27334561E-14
  -13.7799997      -1.02581670E-14
  -13.7700005       1.76048632E-14
  -13.7600002       4.43195692E-14
  -13.7500000       6.29069889E-14
  -13.7399998       6.77805929E-14
  -13.7299995       5.64045508E-14
  -13.7200003       3.02871470E-14
  -13.7100000      -5.04423663E-15
  -13.6999998      -4.11896876E-14
  -13.6899996      -6.89353766E-14
  -13.6800003      -8.07293278E-14
  -13.6700001      -7.29048508E-14
  -13.6599998      -4.69845754E-14
  -13.6499996      -9.59624971E-15
  -13.6400003       2.91087412E-14
  -13.6300001       5.82105504E-14
  -13.6199999       6.92428157E-14
  -13.6099997       5.89566983E-14
  -13.6000004       3.07386529E-14
  -13.5900002      -5.89938034E-15
  -13.5799999      -3.78184897E-14
  -13.5699997      -5.22002079E-14
  -13.5600004      -4.08914032E-14
  -13.5500002      -3.83794101E-15
  -13.5400000       4.95958357E-14
  -13.5299997       1.02137367E-13
  -13.5200005       1.32898250E-13
  -13.5100002       1.23544024E-13
  -13.5000000       6.47400495E-14
  -13.4899998      -3.90449154E-14
  -13.4799995      -1.68083307E-13
  -13.4700003      -2.90245475E-13
  -13.4600000      -3.68003262E-13
  -13.4499998      -3.68194841E-13
  -13.4399996      -2.72169711E-13
  -13.4300003      -8.35108960E-14
  -13.4200001       1.69159053E-13
  -13.4099998       4.35722178E-13
  -13.3999996       6.54307771E-13
  -13.3900003       7.65373062E-13
  -13.3800001       7.26868706E-13
  -13.3699999       5.26614126E-13
  -13.3599997       1.88385657E-13
  -13.3500004      -2.30407002E-13
  -13.3400002      -6.49519826E-13
  -13.3299999      -9.82965987E-13
  -13.3199997      -1.15840096E-12
  -13.3100004      -1.13398386E-12
  -13.3000002      -9.08295303E-13
  -13.2900000      -5.20617078E-13
  -13.2799997      -4.13386027E-14
  -13.2700005       4.45008098E-13
  -13.2600002       8.59506802E-13
  -13.2500000       1.14595204E-12
  -13.2399998       1.28050554E-12
  -13.2299995       1.27129308E-12
  -13.2200003       1.14835561E-12
  -13.2100000       9.47454680E-13
  -13.1999998       6.93428008E-13
  -13.1899996       3.89313744E-13
  -13.1800003       1.59961325E-14
  -13.1700001      -4.55981607E-13
  -13.1599998      -1.04497227E-12
  -13.1499996      -1.73340552E-12
  -13.1400003      -2.44835771E-12
  -13.1300001      -3.05609878E-12
  -13.1199999      -3.37658157E-12
  -13.1099997      -3.21868617E-12
  -13.1000004      -2.43092330E-12
  -13.0900002      -9.56559593E-13
  -13.0799999       1.12138055E-12
  -13.0699997       3.55976360E-12
  -13.0600004       5.97035008E-12
  -13.0500002       7.87340939E-12
  -13.0400000       8.78396834E-12
  -13.0299997       8.31568408E-12
  -13.0200005       6.28089030E-12
  -13.0100002       2.76344052E-12
  -13.0000000      -1.85554523E-12
  -12.9899998      -6.93029531E-12
  -12.9799995      -1.16407101E-11
  -12.9700003      -1.51268199E-11
  -12.9600000      -1.66433291E-11
  -12.9499998      -1.57043389E-11
  -12.9399996      -1.21889851E-11
  -12.9300003      -6.38587707E-12
  -12.9200001       1.03356624E-12
  -12.9099998       9.10838592E-12
  -12.8999996       1.67299855E-11
  -12.8900003       2.28057729E-11
  -12.8800001       2.64144418E-11
  -12.8699999       2.69270856E-11
  -12.8599997       2.40778664E-11
  -12.8500004       1.79799751E-11
  -12.8400002       9.09510401E-12
  -12.8299999      -1.82768492E-12
  -12.8199997      -1.38252049E-11
  -12.8100004      -2.57908660E-11
  -12.8000002      -3.65363920E-11
  -12.7900000      -4.48481807E-11
  -12.7799997      -4.95496560E-11
  -12.7700005      -4.95836081E-11
  -12.7600002      -4.41244957E-11
  -12.7500000      -3.27198164E-11
  -12.7399998      -1.54455060E-11
  -12.7299995       6.95353887E-12
  -12.7200003       3.29758720E-11
  -12.7100000       6.03661218E-11
  -12.6999998       8.62358518E-11
  -12.6899996       1.07309148E-10
  -12.6800003       1.20275984E-10
  -12.6700001       1.22210339E-10
  -12.6599998       1.10992777E-10
  -12.6499996       8.56702626E-11
  -12.6400003       4.66938190E-11
  -12.6300001      -4.00450853E-12
  -12.6199999      -6.31055416E-11
  -12.6099997      -1.26148036E-10
  -12.6000004      -1.87879712E-10
  -12.5900002      -2.42657838E-10
  -12.5799999      -2.84845564E-10
  -12.5699997      -3.09165193E-10
  -12.5600004      -3.10994092E-10
  -12.5500002      -2.86615509E-10
  -12.5400000      -2.33452785E-10
  -12.5299997      -1.50322782E-10
  -12.5200005      -3.77310162E-11
  -12.5100002       1.01789389E-10
  -12.5000000       2.63328803E-10
  -12.4899998       4.39302372E-10
  -12.4799995       6.19280294E-10
  -12.4700003       7.90027155E-10
  -12.4600000       9.35810762E-10
  -12.4499998       1.03899978E-09
  -12.4399996       1.08092624E-09
  -12.4300003       1.04294329E-09
  -12.4200001       9.07561970E-10
  -12.4099998       6.59558463E-10
  -12.3999996       2.86939666E-10
  -12.3900003      -2.18314672E-10
  -12.3800001      -8.59750049E-10
  -12.3699999      -1.63616454E-09
  -12.3599997      -2.54150967E-09
  -12.3500004      -3.56488306E-09
  -12.3400002      -4.69053330E-09
  -12.3299999      -5.89786842E-09
  -12.3199997      -7.16143722E-09
  -12.3100004      -8.45098391E-09
  -12.3000002      -9.73159775E-09
  -12.2900000      -1.09641265E-08
  -12.2799997      -1.21058781E-08
  -12.2700005      -1.31117259E-08
  -12.2600002      -1.39354990E-08
  -12.2500000      -1.45316923E-08
  -12.2399998      -1.48572497E-08
  -12.2299995      -1.48733239E-08
  -12.2200003      -1.45468002E-08
  -12.2100000      -1.38514924E-08
  -12.1999998      -1.27688704E-08
  -12.1899996      -1.12884049E-08
  -12.1800003      -9.40755918E-09
  -12.1700001      -7.13148873E-09
  -12.1599998      -4.47274262E-09
  -12.1499996      -1.45092527E-09
  -12.1400003       1.90740712E-09
  -12.1300001       5.56878632E-09
  -12.1199999       9.49279855E-09
  -12.1099997       1.36319800E-08
  -12.1000004       1.79320523E-08
  -12.0900002       2.23323493E-08
  -12.0799999       2.67668074E-08
  -12.0699997       3.11653210E-08
  -12.0600004       3.54556633E-08
  -12.0500002       3.95656130E-08
  -12.0400000       4.34252847E-08
  -12.0299997       4.69691628E-08
  -12.0200005       5.01380342E-08
  -12.0100002       5.28802779E-08
  -12.0000000       5.51524586E-08
  -11.9899998       5.69195748E-08
  -11.9799995       5.81545798E-08
  -11.9700003       5.88375144E-08
  -11.9600000       5.89543383E-08
  -11.9499998       5.84957149E-08
  -11.9399996       5.74558179E-08
  -11.9300003       5.58311299E-08
  -11.9200001       5.36194094E-08
  -11.9099998       5.08189082E-08
  -11.8999996       4.74276192E-08
  -11.8900003       4.34429346E-08
  -11.8800001       3.88614687E-08
  -11.8699999       3.36793136E-08
  -11.8599997       2.78929768E-08
  -11.8500004       2.15003428E-08
  -11.8400002       1.45025689E-08
  -11.8299999       6.90626711E-09
  -11.8199997      -1.27422339E-09
  -11.8100004      -1.00142517E-08
  -11.8000002      -1.92768255E-08
  -11.7900000      -2.90108026E-08
  -11.7799997      -3.91503541E-08
  -11.7700005      -4.96149362E-08
  -11.7600002      -6.03103274E-08
  -11.7500000      -7.11305503E-08
  -11.7399998      -8.19608772E-08
  -11.7299995      -9.26810131E-08
  -11.7200003      -1.03168659E-07
  -11.7100000      -1.13303173E-07
  -11.6999998      -1.22969084E-07
  -11.6899996      -1.32058844E-07
  -11.6800003      -1.40475336E-07
  -11.6700001      -1.48133040E-07
  -11.6599998      -1.54958599E-07
  -11.6499996      -1.60890352E-07
  -11.6400003      -1.65876841E-07
  -11.6300001      -1.69874568E-07
  -11.6199999      -1.72845020E-07
  -11.6099997      -1.74752046E-07
  -11.6000004      -1.75558895E-07
  -11.5900002      -1.75226432E-07
  -11.5799999      -1.73711811E-07
  -11.5699997      -1.70968519E-07
  -11.5600004      -1.66948112E-07
  -11.5500002      -1.61602358E-07
  -11.5400000      -1.54885953E-07
  -11.5299997      -1.46760115E-07
  -11.5200005      -1.37195030E-07
  -11.5100002      -1.26172495E-07
  -11.5000000      -1.13686582E-07
  -11.4899998      -9.97442413E-08
  -11.4799995      -8.43643235E-08
  -11.4700003      -6.75762593E-08
  -11.4600000      -4.94185279E-08
  -11.4499998      -2.99365510E-08
  -11.4399996      -9.18160303E-09
  -11.4300003       1.27907853E-08
  -11.4200001       3.59214098E-08
  -11.4099998       6.01483237E-08
  -11.3999996       8.54073861E-08
  -11.3900003       1.11632879E-07
  -11.3800001       1.38758438E-07
  -11.3699999       1.66717427E-07
  -11.3599997       1.95444130E-07
  -11.3500004       2.24873403E-07
  -11.3400002       2.54941057E-07
  -11.3299999       2.85582502E-07
  -11.3199997       3.16731928E-07
  -11.3100004       3.48320555E-07
  -11.3000002       3.80275168E-07
  -11.2900000       4.12516926E-07
  -11.2799997       4.44960875E-07
  -11.2700005       4.77516494E-07
  -11.2600002       5.10089251E-07
  -11.2500000       5.42582995E-07
  -11.2399998       5.74903538E-07
  -11.2299995       6.06962374E-07
  -11.2200003       6.38679580E-07
  -11.2100000       6.69987742E-07
  -11.1999998       7.00833141E-07
  -11.1899996       7.31176158E-07
  -11.1800003       7.60991327E-07
  -11.1700001       7.90264949E-07
  -11.1599998       8.18992589E-07
  -11.1499996       8.47175329E-07
  -11.1400003       8.74815498E-07
  -11.1300001       9.01916849E-07
  -11.1199999       9.28478585E-07
  -11.1099997       9.54498432E-07
  -11.1000004       9.79968263E-07
  -11.0900002       1.00488114E-06
  -11.0799999       1.02922695E-06
  -11.0699997       1.05299637E-06
  -11.0600004       1.07618359E-06
  -11.0500002       1.09878215E-06
  -11.0400000       1.12079238E-06
  -11.0299997       1.14221382E-06
  -11.0200005       1.16304886E-06
  -11.0100002       1.18329899E-06
  -11.0000000       1.20296215E-06
  -10.9899998       1.22203426E-06
  -10.9799995       1.24050530E-06
  -10.9700003       1.25835993E-06
  -10.9600000       1.27557325E-06
  -10.9499998       1.29211696E-06
  -10.9399996       1.30796059E-06
  -10.9300003       1.32306593E-06
  -10.9200001       1.33739559E-06
  -10.9099998       1.35091761E-06
  -10.8999996       1.36360575E-06
  -10.8900003       1.37543793E-06
  -10.8800001       1.38641042E-06
  -10.8699999       1.39653071E-06
  -10.8599997       1.40581813E-06
  -10.8500004       1.41430849E-06
  -10.8400002       1.42204590E-06
  -10.8299999       1.42908459E-06
  -10.8199997       1.43548493E-06
  -10.8100004       1.44130036E-06
  -10.8000002       1.44658225E-06
  -10.7900000       1.45137290E-06
  -10.7799997       1.45570141E-06
  -10.7700005       1.45958143E-06
  -10.7600002       1.46301193E-06
  -10.7500000       1.46597552E-06
  -10.7399998       1.46844206E-06
  -10.7299995       1.47037258E-06
  -10.7200003       1.47171681E-06
  -10.7100000       1.47242554E-06
  -10.6999998       1.47245464E-06
  -10.6899996       1.47176036E-06
  -10.6800003       1.47032119E-06
  -10.6700001       1.46812658E-06
  -10.6599998       1.46519392E-06
  -10.6499996       1.46155844E-06
  -10.6400003       1.45727995E-06
  -10.6300001       1.45244701E-06
  -10.6199999       1.44716034E-06
  -10.6099997       1.44153569E-06
  -10.6000004       1.43570333E-06
  -10.5900002       1.42980059E-06
  -10.5799999       1.42397050E-06
  -10.5699997       1.41833937E-06
  -10.5600004       1.41304110E-06
  -10.5500002       1.40818827E-06
  -10.5400000       1.40389147E-06
  -10.5299997       1.40023997E-06
  -10.5200005       1.39731276E-06
  -10.5100002       1.39517749E-06
  -10.5000000       1.39388294E-06
  -10.4899998       1.39346776E-06
  -10.4799995       1.39395172E-06
  -10.4700003       1.39534404E-06
  -10.4600000       1.39764734E-06
  -10.4499998       1.40083739E-06
  -10.4399996       1.40488464E-06
  -10.4300003       1.40974294E-06
  -10.4200001       1.41535861E-06
  -10.4099998       1.42166436E-06
  -10.3999996       1.42858471E-06
  -10.3900003       1.43602836E-06
  -10.3800001       1.44389742E-06
  -10.3699999       1.45208696E-06
  -10.3599997       1.46048285E-06
  -10.3500004       1.46898356E-06
  -10.3400002       1.47747312E-06
  -10.3299999       1.48586048E-06
  -10.3199997       1.49405196E-06
  -10.3100004       1.50197513E-06
  -10.3000002       1.50957692E-06
  -10.2900000       1.51682400E-06
  -10.2799997       1.52370103E-06
  -10.2700005       1.53022108E-06
  -10.2600002       1.53639701E-06
  -10.2500000       1.54227143E-06
  -10.2399998       1.54788302E-06
  -10.2299995       1.55329042E-06
  -10.2200003       1.55855855E-06
  -10.2100000       1.56375347E-06
  -10.1999998       1.56895089E-06
  -10.1899996       1.57423096E-06
  -10.1800003       1.57968964E-06
  -10.1700001       1.58542514E-06
  -10.1599998       1.59152569E-06
  -10.1499996       1.59811918E-06
  -10.1400003       1.60529169E-06
  -10.1300001       1.61315472E-06
  -10.1199999       1.62181152E-06
  -10.1099997       1.63135496E-06
  -10.1000004       1.64187770E-06
  -10.0900002       1.65345375E-06
  -10.0799999       1.66617656E-06
  -10.0699997       1.68011798E-06
  -10.0600004       1.69533757E-06
  -10.0500002       1.71190231E-06
  -10.0400000       1.72985108E-06
  -10.0299997       1.74922297E-06
  -10.0200005       1.77003403E-06
  -10.0100002       1.79229050E-06
  -10.0000000       1.81598296E-06
  -9.98999977       1.84106932E-06
  -9.97999954       1.86752607E-06
  -9.97000027       1.89530272E-06
  -9.96000004       1.92437687E-06
  -9.94999981       1.95471512E-06
  -9.93999958       1.98630960E-06
  -9.93000031       2.01917169E-06
  -9.92000008       2.05333095E-06
  -9.90999985       2.08883921E-06
  -9.89999962       2.12577083E-06
  -9.89000034       2.16421972E-06
  -9.88000011       2.20430820E-06
  -9.86999989       2.24614905E-06
  -9.85999966       2.28987074E-06
  -9.85000038       2.33561877E-06
  -9.84000015       2.38352573E-06
  -9.82999992       2.43373415E-06
  -9.81999969       2.48637275E-06
  -9.81000042       2.54156726E-06
  -9.80000019       2.59945364E-06
  -9.78999996       2.66015559E-06
  -9.77999973       2.72379793E-06
  -9.77000046       2.79049959E-06
  -9.76000023       2.86036015E-06
  -9.75000000       2.93347398E-06
  -9.73999977       3.00991132E-06
  -9.72999954       3.08973085E-06
  -9.72000027       3.17296212E-06
  -9.71000004       3.25960059E-06
  -9.69999981       3.34961260E-06
  -9.68999958       3.44291311E-06
  -9.68000031       3.53939231E-06
  -9.67000008       3.63889694E-06
  -9.65999985       3.74123624E-06
  -9.64999962       3.84616260E-06
  -9.64000034       3.95339612E-06
  -9.63000011       4.06262188E-06
  -9.61999989       4.17346882E-06
  -9.60999966       4.28555995E-06
  -9.60000038       4.39846599E-06
  -9.59000015       4.51173992E-06
  -9.57999992       4.62492881E-06
  -9.56999969       4.73755654E-06
  -9.56000042       4.84915472E-06
  -9.55000019       4.95923086E-06
  -9.53999996       5.06731340E-06
  -9.52999973       5.17293120E-06
  -9.52000046       5.27563543E-06
  -9.51000023       5.37497590E-06
  -9.50000000       5.47051332E-06
  -9.48999977       5.56189889E-06
  -9.47999954       5.64876973E-06
  -9.47000027       5.73085117E-06
  -9.46000004       5.80793312E-06
  -9.44999981       5.87986187E-06
  -9.43999958       5.94657877E-06
  -9.43000031       6.00811563E-06
  -9.42000008       6.06456342E-06
  -9.40999985       6.11611858E-06
  -9.39999962       6.16306988E-06
  -9.39000034       6.20576793E-06
  -9.38000011       6.24468657E-06
  -9.36999989       6.28034422E-06
  -9.35999966       6.31337207E-06
  -9.35000038       6.34446451E-06
  -9.34000015       6.37437324E-06
  -9.32999992       6.40391545E-06
  -9.31999969       6.43395788E-06
  -9.31000042       6.46541548E-06
  -9.30000019       6.49919002E-06
  -9.28999996       6.53622556E-06
  -9.27999973       6.57745977E-06
  -9.27000046       6.62383763E-06
  -9.26000023       6.67629001E-06
  -9.25000000       6.73569912E-06
  -9.23999977       6.80294806E-06
  -9.22999954       6.87885358E-06
  -9.22000027       6.96414918E-06
  -9.21000004       7.05955017E-06
  -9.19999981       7.16562772E-06
  -9.18999958       7.28286750E-06
  -9.18000031       7.41166878E-06
  -9.17000008       7.55229257E-06
  -9.15999985       7.70489078E-06
  -9.14999962       7.86948021E-06
  -9.14000034       8.04599858E-06
  -9.13000011       8.23421942E-06
  -9.11999989       8.43384896E-06
  -9.10999966       8.64441517E-06
  -9.10000038       8.86535236E-06
  -9.09000015       9.09597748E-06
  -9.07999992       9.33550109E-06
  -9.06999969       9.58302098E-06
  -9.06000042       9.83755581E-06
  -9.05000019       1.00980324E-05
  -9.03999996       1.03633411E-05
  -9.02999973       1.06323405E-05
  -9.02000046       1.09037765E-05
  -9.01000023       1.11764357E-05
  -9.00000000       1.14490203E-05
  -8.98999977       1.17203008E-05
  -8.97999954       1.19889501E-05
  -8.97000027       1.22536712E-05
  -8.96000004       1.25131965E-05
  -8.94999981       1.27662488E-05
  -8.93999958       1.30115977E-05
  -8.93000031       1.32480709E-05
  -8.92000008       1.34744796E-05
  -8.90999985       1.36897452E-05
  -8.89999962       1.38928290E-05
  -8.89000034       1.40827897E-05
  -8.88000011       1.42587569E-05
  -8.86999989       1.44199548E-05
  -8.85999966       1.45657041E-05
  -8.85000038       1.46953889E-05
  -8.84000015       1.48085710E-05
  -8.82999992       1.49048346E-05
  -8.81999969       1.49839889E-05
  -8.81000042       1.50458800E-05
  -8.80000019       1.50904507E-05
  -8.78999996       1.51178056E-05
  -8.77999973       1.51281056E-05
  -8.77000046       1.51216127E-05
  -8.76000023       1.50986534E-05
  -8.75000000       1.50596852E-05
  -8.73999977       1.50052010E-05
  -8.72999954       1.49358193E-05
  -8.72000027       1.48522822E-05
  -8.71000004       1.47552191E-05
  -8.69999981       1.46454513E-05
  -8.68999958       1.45238801E-05
  -8.68000031       1.43913530E-05
  -8.67000008       1.42488752E-05
  -8.65999985       1.40973380E-05
  -8.64999962       1.39378053E-05
  -8.64000034       1.37712886E-05
  -8.63000011       1.35988485E-05
  -8.61999989       1.34214843E-05
  -8.60999966       1.32403102E-05
  -8.60000038       1.30562221E-05
  -8.59000015       1.28701340E-05
  -8.57999992       1.26829691E-05
  -8.56999969       1.24955259E-05
  -8.56000042       1.23085429E-05
  -8.55000019       1.21227458E-05
  -8.53999996       1.19387778E-05
  -8.52999973       1.17571863E-05
  -8.52000046       1.15785315E-05
  -8.51000023       1.14033792E-05
  -8.50000000       1.12320786E-05
  -8.48999977       1.10649953E-05
  -8.47999954       1.09024950E-05
  -8.47000027       1.07448604E-05
  -8.46000004       1.05922263E-05
  -8.44999981       1.04448673E-05
  -8.43999958       1.03029051E-05
  -8.43000031       1.01664882E-05
  -8.42000008       1.00358557E-05
  -8.40999985       9.91108482E-06
  -8.39999962       9.79229753E-06
  -8.39000034       9.67966662E-06
  -8.38000011       9.57335760E-06
  -8.36999989       9.47356330E-06
  -8.35999966       9.38049561E-06
  -8.35000038       9.29436465E-06
  -8.34000015       9.21544597E-06
  -8.32999992       9.14393877E-06
  -8.31999969       9.08027596E-06
  -8.31000042       9.02466854E-06
  -8.30000019       8.97746304E-06
  -8.28999996       8.93915967E-06
  -8.27999973       8.91008585E-06
  -8.27000046       8.89068633E-06
  -8.26000023       8.88140858E-06
  -8.25000000       8.88272734E-06
  -8.23999977       8.89506282E-06
  -8.22999954       8.91898526E-06
  -8.22000027       8.95494668E-06
  -8.21000004       9.00346095E-06
  -8.19999981       9.06507466E-06
  -8.18999958       9.14027805E-06
  -8.18000031       9.22959043E-06
  -8.17000008       9.33347110E-06
  -8.15999985       9.45242209E-06
  -8.14999962       9.58683268E-06
  -8.14000034       9.73716578E-06
  -8.13000011       9.90375702E-06
  -8.11999989       1.00868028E-05
  -8.10999966       1.02866552E-05
  -8.10000038       1.05033969E-05
  -8.09000015       1.07371106E-05
  -8.07999992       1.09878092E-05
  -8.06999969       1.12553325E-05
  -8.06000042       1.15396251E-05
  -8.05000019       1.18403505E-05
  -8.03999996       1.21572257E-05
  -8.02999973       1.24897806E-05
  -8.02000046       1.28376496E-05
  -8.01000023       1.32001805E-05
  -8.00000000       1.35767041E-05
  -7.98999977       1.39666490E-05
  -7.98000002       1.43693560E-05
  -7.96999979       1.47840010E-05
  -7.96000004       1.52097973E-05
  -7.94999981       1.56459901E-05
  -7.94000006       1.60917589E-05
  -7.92999983       1.65462952E-05
  -7.92000008       1.70087533E-05
  -7.90999985       1.74784236E-05
  -7.90000010       1.79542112E-05
  -7.88999987       1.84353976E-05
  -7.88000011       1.89210532E-05
  -7.86999989       1.94103195E-05
  -7.86000013       1.99023598E-05
  -7.84999990       2.03962936E-05
  -7.84000015       2.08912625E-05
  -7.82999992       2.13864296E-05
  -7.82000017       2.18809928E-05
  -7.80999994       2.23741226E-05
  -7.80000019       2.28651261E-05
  -7.78999996       2.33531955E-05
  -7.78000021       2.38375687E-05
  -7.76999998       2.43176673E-05
  -7.76000023       2.47926837E-05
  -7.75000000       2.52621321E-05
  -7.73999977       2.57254487E-05
  -7.73000002       2.61820915E-05
  -7.71999979       2.66316456E-05
  -7.71000004       2.70737328E-05
  -7.69999981       2.75079947E-05
  -7.69000006       2.79342221E-05
  -7.67999983       2.83521658E-05
  -7.67000008       2.87616749E-05
  -7.65999985       2.91628021E-05
  -7.65000010       2.95554328E-05
  -7.63999987       2.99397634E-05
  -7.63000011       3.03160014E-05
  -7.61999989       3.06844013E-05
  -7.61000013       3.10452997E-05
  -7.59999990       3.13994133E-05
  -7.59000015       3.17470403E-05
  -7.57999992       3.20886757E-05
  -7.57000017       3.24253961E-05
  -7.55999994       3.27578346E-05
  -7.55000019       3.30869225E-05
  -7.53999996       3.34133947E-05
  -7.53000021       3.37384627E-05
  -7.51999998       3.40629740E-05
  -7.51000023       3.43879801E-05
  -7.50000000       3.47143832E-05
  -7.48999977       3.50432674E-05
  -7.48000002       3.53754695E-05
  -7.46999979       3.57120589E-05
  -7.46000004       3.60537597E-05
  -7.44999981       3.64015687E-05
  -7.44000006       3.67561333E-05