  -16.0000000       0.00000000    
  -15.9899998       0.00000000    
  -15.9799995       0.00000000    
  -15.9700003       0.00000000    
  -15.9600000       0.00000000    
  -15.9499998       0.00000000    
  -15.9399996       0.00000000    
  -15.9300003       0.00000000    
  -15.9200001       0.00000000    
  -15.9099998       0.00000000    
  -15.8999996       0.00000000    
  -15.8900003       0.00000000    
  -15.8800001       0.00000000    
  -15.8699999       3.97112571E-40
  -15.8599997       8.17953748E-39
  -15.8500004       8.70716531E-38
  -15.8400002       6.37011942E-37
  -15.8299999       3.58055838E-36
  -15.8199997       1.63020906E-35
  -15.8100004       6.15362511E-35
  -15.8000002       1.92690524E-34
  -15.7900000       4.85849218E-34
  -15.7799997       8.81006751E-34
  -15.7700005       5.10801887E-34
  -15.7600002      -4.21275355E-33
  -15.7500000      -2.36787365E-32
  -15.7399998      -8.12908828E-32
  -15.7299995      -2.17841273E-31
  -15.7200003      -4.81386425E-31
  -15.7100000      -8.78000617E-31
  -15.6999998      -1.25389888E-30
  -15.6899996      -1.10598981E-30
  -15.6800003       5.90555714E-31
  -15.6700001       5.27890627E-30
  -15.6599998       1.40005522E-29
  -15.6499996       2.54466353E-29
  -15.6400003       3.30868415E-29
  -15.6300001       2.31329645E-29
  -15.6199999      -2.26689748E-29
  -15.6099997      -1.14069111E-28
  -15.6000004      -2.26723097E-28
  -15.5900002      -2.72703567E-28
  -15.5799999      -9.60711755E-29
  -15.5699997       4.57397769E-28
  -15.5600004       1.35205001E-27
  -15.5500002       2.07803296E-27
  -15.5400000       1.44579975E-27
  -15.5299997      -2.16453398E-27
  -15.5200005      -9.62857582E-27
  -15.5100002      -1.88002779E-26
  -15.5000000      -2.19149103E-26
  -15.4899998      -5.05527721E-27
  -15.4799995       4.64750161E-26
  -15.4700003       1.33483561E-25
  -15.4600000       2.20264879E-25
  -15.4499998       2.15625095E-25
  -15.4399996      -1.76519491E-26
  -15.4300003      -5.93184254E-25
  -15.4200001      -1.45433203E-24
  -15.4099998      -2.18514471E-24
  -15.3999996      -1.90114709E-24
  -15.3900003       5.69579218E-25
  -15.3800001       5.99678689E-24
  -15.3699999       1.35126745E-23
  -15.3599997       1.92344720E-23
  -15.3500004       1.57774358E-23
  -15.3400002      -5.81739676E-24
  -15.3299999      -5.04385483E-23
  -15.3199997      -1.09821833E-22
  -15.3100004      -1.53476903E-22
  -15.3000002      -1.27008865E-22
  -15.2900000       3.23909033E-23
  -15.2799997       3.56256249E-22
  -15.2700005       7.85117287E-22
  -15.2600002       1.11272968E-21
  -15.2500000       9.80609086E-22
  -15.2399998      -2.02372452E-23
  -15.2299995      -2.10416229E-21
  -15.2200003      -4.93381812E-21
  -15.2100000      -7.29395990E-21
  -15.1999998      -7.05610912E-21
  -15.1899996      -1.74139775E-21
  -15.1800003       1.01333777E-20
  -15.1700001       2.70992382E-20
  -15.1599998       4.29099846E-20
  -15.1499996       4.61718582E-20
  -15.1400003       2.29756911E-20
  -15.1300001      -3.65019198E-20
  -15.1199999      -1.28160456E-19
  -15.1099997      -2.24290721E-19
  -15.1000004      -2.70170500E-19
  -15.0900002      -1.94264957E-19
  -15.0799999       6.29865272E-20
  -15.0699997       5.03938798E-19
  -15.0600004       1.02572319E-18
  -15.0500002       1.39522663E-18
  -15.0400000       1.27932477E-18
  -15.0299997       3.55213611E-19
  -15.0200005      -1.50128018E-18
  -15.0100002      -3.99672579E-18
  -15.0000000      -6.26869315E-18
  -14.9899998      -6.93311191E-18
  -14.9799995      -4.44514908E-18
  -14.9700003       2.20012176E-18
  -14.9600000       1.25637014E-17
  -14.9499998       2.39887275E-17
  -14.9399996       3.14426240E-17
  -14.9300003       2.84595526E-17
  -14.9200001       9.41857459E-18
  -14.9099998      -2.71289052E-17
  -14.8999996      -7.50683347E-17
  -14.8900003      -1.18883245E-16
  -14.8800001      -1.35202751E-16
  -14.8699999      -9.90157295E-17
  -14.8599997       5.62002266E-18
  -14.8500004       1.72795859E-16
  -14.8400002       3.64603426E-16
  -14.8299999       5.09765392E-16
  -14.8199997       5.16524291E-16
  -14.8100004       3.01787701E-16
  -14.8000002      -1.67635007E-16
  -14.7900000      -8.33414352E-16
  -14.7799997      -1.52155122E-15
  -14.7700005      -1.95496496E-15
  -14.7600002      -1.81612207E-15
  -14.7500000      -8.58120079E-16
  -14.7399998       9.57967476E-16
  -14.7299995       3.34346668E-15
  -14.7200003       5.63691448E-15
  -14.7100000       6.88653880E-15
  -14.6999998       6.08609902E-15
  -14.6899996       2.54131378E-15
  -14.6800003      -3.71730827E-15
  -14.6700001      -1.16128192E-14
  -14.6599998      -1.89537835E-14
  -14.6499996      -2.27531752E-14
  -14.6400003      -1.99817817E-14
  -14.6300001      -8.65700368E-15
  -14.6199999       1.09833322E-14
  -14.6099997       3.56156280E-14
  -14.6000004       5.87037065E-14
  -14.5900002       7.14493636E-14
  -14.5799999       6.49241674E-14
  -14.5699997       3.31091660E-14
  -14.5600004      -2.38406537E-14
  -14.5500002      -9.71266050E-14
  -14.5400000      -1.68781777E-13
  -14.5299997      -2.14008932E-13
  -14.5200005      -2.06748071E-13
  -14.5100002      -1.27833874E-13
  -14.5000000       2.58821014E-14
  -14.4899998       2.34148231E-13
  -14.4799995       4.50694061E-13
  -14.4700003       6.08155941E-13
  -14.4600000       6.31817515E-13
  -14.4499998       4.61120129E-13
  -14.4399996       7.49222868E-14
  -14.4300003      -4.86399386E-13
  -14.4200001      -1.11031778E-12
  -14.4099998      -1.62107719E-12
  -14.3999996      -1.81265170E-12
  -14.3900003      -1.50399463E-12
  -14.3800001      -6.06987767E-13
  -14.3699999       8.10741556E-13
  -14.3599997       2.49059670E-12
  -14.3500004       3.99723874E-12
  -14.3400002       4.79555631E-12
  -14.3299999       4.38742532E-12
  -14.3199997       2.48456073E-12
  -14.3100004      -8.27198119E-13
  -14.3000002      -4.98888778E-12
  -14.2900000      -8.98966145E-12
  -14.2799997      -1.15411682E-11
  -14.2700005      -1.13977378E-11
  -14.2600002      -7.76540204E-12
  -14.2500000      -6.92351016E-13
  -14.2399998       8.69076859E-12
  -14.2299995       1.82051024E-11
  -14.2200003       2.50026787E-11
  -14.2100000       2.62686088E-11
  -14.1999998       2.01098287E-11
  -14.1899996       6.39706777E-12
  -14.1800003      -1.27257250E-11
  -14.1700001      -3.29150179E-11
  -14.1599998      -4.84145952E-11
  -14.1499996      -5.34854522E-11
  -14.1400003      -4.41823557E-11
  -14.1300001      -1.99923463E-11
  -14.1199999       1.52141650E-11
  -14.1099997       5.33897579E-11
  -14.1000004       8.38644917E-11
  -14.0900002       9.60633517E-11
  -14.0799999       8.27735866E-11
  -14.0699997       4.30474198E-11
  -14.0600004      -1.62507785E-11
  -14.0500002      -8.10278164E-11
  -14.0400000      -1.32906797E-10
  -14.0299997      -1.54084939E-10
  -14.0200005      -1.32931569E-10
  -14.0100002      -6.87138610E-11
  -14.0000000       2.62091494E-11
  -13.9899998       1.27864636E-10
  -13.9799995       2.06045694E-10
  -13.9700003       2.32582051E-10
  -13.9600000       1.90450225E-10
  -13.9499998       8.10197326E-11
  -13.9399996      -7.31472730E-11
  -13.9300003      -2.31547892E-10
  -13.9200001      -3.45099782E-10
  -13.9099998      -3.69724779E-10
  -13.8999996      -2.80732659E-10
  -13.8900003      -8.37255820E-11
  -13.8800001       1.81783866E-10
  -13.8699999       4.48325654E-10
  -13.8599997       6.35696495E-10
  -13.8500004       6.72377320E-10
  -13.8400002       5.17790422E-10
  -13.8299999       1.79090298E-10
  -13.8199997      -2.83164325E-10
  -13.8100004      -7.63575703E-10
  -13.8000002      -1.13422916E-09
  -13.7900000      -1.27629740E-09
  -13.7799997      -1.11332454E-09
  -13.7700005      -6.37305819E-10
  -13.7600002       8.03811115E-11
  -13.7500000       8.97716679E-10
  -13.7399998       1.63013558E-09
  -13.7299995       2.09238582E-09
  -13.7200003       2.14433538E-09
  -13.7100000       1.72919312E-09
  -13.6999998       8.93609076E-10
  -13.6899996      -2.16597323E-10
  -13.6800003      -1.38539769E-09
  -13.6700001      -2.37392372E-09
  -13.6599998      -2.97474467E-09
  -13.6499996      -3.05933856E-09
  -13.6400003      -2.60630473E-09
  -13.6300001      -1.70289560E-09
  -13.6199999      -5.19503107E-10
  -13.6099997       7.35428607E-10
  -13.6000004       1.86691951E-09
  -13.5900002       2.73621037E-09
  -13.5799999       3.28183303E-09
  -13.5699997       3.51297147E-09
  -13.5600004       3.47785423E-09
  -13.5500002       3.21920646E-09
  -13.5400000       2.73413958E-09
  -13.5299997       1.95673566E-09
  -13.5200005       7.75360776E-10
  -13.5100002      -9.13820630E-10
  -13.5000000      -3.12952397E-09
  -13.4899998      -5.72782133E-09
  -13.4799995      -8.35469649E-09
  -13.4700003      -1.04553397E-08
  -13.4600000      -1.13557839E-08
  -13.4499998      -1.04115205E-08
  -13.4399996      -7.19682092E-09
  -13.4300003      -1.68847736E-09
  -13.4200001       5.60956170E-09
  -13.4099998       1.36501832E-08
  -13.3999996       2.09633395E-08
  -13.3900003       2.59086441E-08
  -13.3800001       2.70201852E-08
  -13.3699999       2.33712338E-08
  -13.3599997       1.48716941E-08
  -13.3500004       2.41424436E-09
  -13.3400002      -1.21864030E-08
  -13.3299999      -2.64713051E-08
  -13.3199997      -3.77903575E-08
  -13.3100004      -4.38396484E-08
  -13.3000002      -4.31637908E-08
  -13.2900000      -3.55040690E-08
  -13.2799997      -2.18995062E-08
  -13.2700005      -4.50711868E-09
  -13.2600002       1.38281617E-08
  -13.2500000       3.01585743E-08
  -13.2399998       4.20365254E-08
  -13.2299995       4.79890403E-08
  -13.2200003       4.77482160E-08
  -13.2100000       4.21814512E-08
  -13.1999998       3.29444383E-08
  -13.1899996       2.19563301E-08
  -13.1800003       1.08442642E-08
  -13.1700001       5.21575616E-10
  -13.1599998      -8.97442831E-09
  -13.1499996      -1.83274356E-08
  -13.1400003      -2.85046777E-08
  -13.1300001      -4.01623126E-08
  -13.1199999      -5.30745545E-08
  -13.1099997      -6.57838299E-08
  -13.1000004      -7.56163985E-08
  -13.0900002      -7.91250088E-08
  -13.0799999      -7.28968743E-08
  -13.0699997      -5.45490479E-08
  -13.0600004      -2.36656916E-08
  -13.0500002       1.75962338E-08
  -13.0400000       6.44420979E-08
  -13.0299997       1.10012301E-07
  -13.0200005       1.46535569E-07
  -13.0100002       1.66849631E-07
  -13.0000000       1.65964693E-07
  -12.9899998       1.42307002E-07
  -12.9799995       9.83215998E-08
  -12.9700003       4.02531803E-08
  -12.9600000      -2.29129302E-08
  -12.9499998      -8.11524785E-08
  -12.9399996      -1.25402948E-07
  -12.9300003      -1.49436801E-07
  -12.9200001      -1.51187550E-07
  -12.9099998      -1.33220055E-07
  -12.8999996      -1.02224760E-07
  -12.8900003      -6.76104221E-08
  -12.8800001      -3.94836697E-08
  -12.8699999      -2.64173110E-08
  -12.8599997      -3.34651595E-08
  -12.8500004      -6.08189907E-08
  -12.8400002      -1.03377175E-07
  -12.8299999      -1.51303027E-07
  -12.8199997      -1.91471585E-07
  -12.8100004      -2.09541014E-07
  -12.8000002      -1.92293214E-07
  -12.7900000      -1.29868553E-07
  -12.7799997      -1.75747150E-08
  -12.7700005       1.42951663E-07
  -12.7600002       3.43329475E-07
  -12.7500000       5.68739779E-07
  -12.7399998       7.98839835E-07
  -12.7299995       1.00914542E-06
  -12.7200003       1.17271225E-06
  -12.7100000       1.26202826E-06
  -12.6999998       1.25101485E-06
  -12.6899996       1.11716372E-06
  -12.6800003       8.43762450E-07
  -12.6700001       4.22229533E-07
  -12.6599998      -1.45548569E-07
  -12.6499996      -8.45024829E-07
  -12.6400003      -1.64722098E-06
  -12.6300001      -2.50771609E-06
  -12.6199999      -3.36677090E-06
  -12.6099997      -4.15095838E-06
  -12.6000004      -4.77648791E-06
  -12.5900002      -5.15432157E-06
  -12.5799999      -5.19688592E-06
  -12.5699997      -4.82587075E-06
  -12.5600004      -3.98063548E-06
  -12.5500002      -2.62623757E-06
  -12.5400000      -7.60404703E-07
  -12.5299997       1.58130501E-06
  -12.5200005       4.32262277E-06
  -12.5100002       7.34622790E-06
  -12.5000000       1.04957799E-05
  -12.4899998       1.35800110E-05
  -12.4799995       1.63782024E-05
  -12.4700003       1.86468042E-05
  -12.4600000       2.01262519E-05
  -12.4499998       2.05482174E-05
  -12.4399996       1.96429392E-05
  -12.4300003       1.71472129E-05
  -12.4200001       1.28132924E-05
  -12.4099998       6.41917541E-06
  -12.3999996      -2.21942105E-06
  -12.3900003      -1.32353580E-05
  -12.3800001      -2.66954630E-05
  -12.3699999      -4.25855796E-05
  -12.3599997      -6.07967559E-05
  -12.3500004      -8.11141726E-05
  -12.3400002      -1.03208935E-04
  -12.3299999      -1.26637067E-04
  -12.3199997      -1.50841093E-04
  -12.3100004      -1.75160661E-04
  -12.3000002      -1.98844893E-04
  -12.2900000      -2.21072594E-04
  -12.2799997      -2.40974259E-04
  -12.2700005      -2.57655367E-04
  -12.2600002      -2.70225079E-04
  -12.2500000      -2.77821295E-04
  -12.2399998      -2.79642030E-04
  -12.2299995      -2.74969789E-04
  -12.2200003      -2.63205467E-04
  -12.2100000      -2.43891744E-04
  -12.1999998      -2.16737069E-04
  -12.1899996      -1.81637864E-04
  -12.1800003      -1.38688687E-04
  -12.1700001      -8.81886444E-05
  -12.1599998      -3.06313777E-05
  -12.1499996       3.33070784E-05
  -12.1400003       1.02797341E-04
  -12.1300001       1.76887494E-04
  -12.1199999       2.54539540E-04
  -12.1099997       3.34664568E-04
  -12.1000004       4.16153227E-04
  -12.0900002       4.97897505E-04
  -12.0799999       5.78805688E-04
  -12.0699997       6.57803670E-04
  -12.0600004       7.33830966E-04
  -12.0500002       8.05832446E-04
  -12.0400000       8.72749311E-04
  -12.0299997       9.33513278E-04
  -12.0200005       9.87049309E-04
  -12.0100002       1.03228609E-03
  -12.0000000       1.06817752E-03
  -11.9899998       1.09372637E-03
  -11.9799995       1.10801414E-03
  -11.9700003       1.11022964E-03
  -11.9600000       1.09969010E-03
  -11.9499998       1.07585464E-03
  -11.9399996       1.03833049E-03
  -11.9300003       9.86875501E-04
  -11.9200001       9.21388564E-04
  -11.9099998       8.41907808E-04
  -11.8999996       7.48602673E-04
  -11.8900003       6.41781662E-04
  -11.8800001       5.21896873E-04
  -11.8699999       3.89558059E-04
  -11.8599997       2.45537551E-04
  -11.8500004       9.07837093E-05
  -11.8400002      -7.35808935E-05
  -11.8299999      -2.46277166E-04
  -11.8199997      -4.25881997E-04
  -11.8100004      -6.10864372E-04
  -11.8000002      -7.99612782E-04
  -11.7900000      -9.90474131E-04
  -11.7799997      -1.18177070E-03
  -11.7700005      -1.37182209E-03
  -11.7600002      -1.55895052E-03
  -11.7500000      -1.74148194E-03
  -11.7399998      -1.91773928E-03
  -11.7299995      -2.08604313E-03
  -11.7200003      -2.24471255E-03
  -11.7100000      -2.39208364E-03
  -11.6999998      -2.52652331E-03
  -11.6899996      -2.64645973E-03
  -11.6800003      -2.75041000E-03
  -11.6700001      -2.83700670E-03
  -11.6599998      -2.90501490E-03
  -11.6499996      -2.95333564E-03
  -11.6400003      -2.98100826E-03
  -11.6300001      -2.98719574E-03
  -11.6199999      -2.97117280E-03
  -11.6099997      -2.93231709E-03
  -11.6000004      -2.87010265E-03
  -11.5900002      -2.78410525E-03
  -11.5799999      -2.67401058E-03
  -11.5699997      -2.53963517E-03
  -11.5600004      -2.38093990E-03
  -11.5500002      -2.19804328E-03
  -11.5400000      -1.99122657E-03
  -11.5299997      -1.76092994E-03
  -11.5200005      -1.50774291E-03
  -11.5100002      -1.23238948E-03
  -11.5000000      -9.35710792E-04
  -11.4899998      -6.18657272E-04
  -11.4799995      -2.82283232E-04
  -11.4700003       7.22570840E-05
  -11.4600000       4.43695986E-04
  -11.4499998       8.30647419E-04
  -11.4399996       1.23161182E-03
  -11.4300003       1.64497469E-03
  -11.4200001       2.06902111E-03
  -11.4099998       2.50196853E-03
  -11.3999996       2.94200028E-03
  -11.3900003       3.38729285E-03
  -11.3800001       3.83607647E-03
  -11.3699999       4.28664312E-03
  -11.3599997       4.73739579E-03
  -11.3500004       5.18684927E-03
  -11.3400002       5.63365035E-03
  -11.3299999       6.07657153E-03
  -11.3199997       6.51452551E-03
  -11.3100004       6.94654649E-03
  -11.3000002       7.37178978E-03
  -11.2900000       7.78954104E-03
  -11.2799997       8.19920003E-03
  -11.2700005       8.60027969E-03
  -11.2600002       8.99239257E-03
  -11.2500000       9.37523879E-03
  -11.2399998       9.74857900E-03
  -11.2299995       1.01122130E-02
  -11.2200003       1.04659451E-02
  -11.2100000       1.08095556E-02
  -11.1999998       1.11427987E-02
  -11.1899996       1.14653595E-02
  -11.1800003       1.17768850E-02
  -11.1700001       1.20769804E-02
  -11.1599998       1.23652574E-02
  -11.1499996       1.26413414E-02
  -11.1400003       1.29049448E-02
  -11.1300001       1.31558897E-02
  -11.1199999       1.33941360E-02
  -11.1099997       1.36197926E-02
  -11.1000004       1.38331335E-02
  -11.0900002       1.40345683E-02
  -11.0799999       1.42246094E-02
  -11.0699997       1.44038470E-02
  -11.0600004       1.45729054E-02
  -11.0500002       1.47324130E-02
  -11.0400000       1.48829734E-02
  -11.0299997       1.50251668E-02
  -11.0200005       1.51595213E-02
  -11.0100002       1.52865276E-02
  -11.0000000       1.54066179E-02
  -10.9899998       1.55201685E-02
  -10.9799995       1.56274661E-02
  -10.9700003       1.57287046E-02
  -10.9600000       1.58239454E-02
  -10.9499998       1.59130953E-02
  -10.9399996       1.59958899E-02
  -10.9300003       1.60719138E-02
  -10.9200001       1.61406025E-02
  -10.9099998       1.62012763E-02
  -10.8999996       1.62531883E-02
  -10.8900003       1.62955839E-02
  -10.8800001       1.63277164E-02
  -10.8699999       1.63489282E-02
  -10.8599997       1.63586624E-02
  -10.8500004       1.63564496E-02
  -10.8400002       1.63419712E-02
  -10.8299999       1.63150113E-02
  -10.8199997       1.62754674E-02
  -10.8100004       1.62233319E-02
  -10.8000002       1.61586814E-02
  -10.7900000       1.60816982E-02
  -10.7799997       1.59926135E-02
  -10.7700005       1.58917587E-02
  -10.7600002       1.57795511E-02
  -10.7500000       1.56564843E-02
  -10.7399998       1.55231394E-02
  -10.7299995       1.53802186E-02
  -10.7200003       1.52285248E-02
  -10.7100000       1.50689678E-02
  -10.6999998       1.49025787E-02
  -10.6899996       1.47305345E-02
  -10.6800003       1.45541588E-02
  -10.6700001       1.43748811E-02
  -10.6599998       1.41942920E-02
  -10.6499996       1.40140839E-02
  -10.6400003       1.38360402E-02
  -10.6300001       1.36620086E-02
  -10.6199999       1.34938452E-02
  -10.6099997       1.33334156E-02
  -10.6000004       1.31824920E-02
  -10.5900002       1.30427228E-02
  -10.5799999       1.29156914E-02
  -10.5699997       1.28027070E-02
  -10.5600004       1.27050076E-02
  -10.5500002       1.26235848E-02
  -10.5400000       1.25592668E-02
  -10.5299997       1.25126857E-02
  -10.5200005       1.24842906E-02
  -10.5100002       1.24743292E-02
  -10.5000000       1.24828415E-02
  -10.4899998       1.25096608E-02
  -10.4799995       1.25543550E-02
  -10.4700003       1.26162507E-02
  -10.4600000       1.26944538E-02
  -10.4499998       1.27877640E-02
  -10.4399996       1.28948139E-02
  -10.4300003       1.30140483E-02
  -10.4200001       1.31437797E-02
  -10.4099998       1.32822189E-02
  -10.3999996       1.34275537E-02
  -10.3900003       1.35779651E-02
  -10.3800001       1.37317022E-02
  -10.3699999       1.38870524E-02
  -10.3599997       1.40424287E-02
  -10.3500004       1.41963819E-02
  -10.3400002       1.43475896E-02
  -10.3299999       1.44948987E-02
  -10.3199997       1.46373790E-02
  -10.3100004       1.47742620E-02
  -10.3000002       1.49049638E-02
  -10.2900000       1.50291016E-02
  -10.2799997       1.51464194E-02
  -10.2700005       1.52567998E-02
  -10.2600002       1.53601570E-02
  -10.2500000       1.54565219E-02
  -10.2399998       1.55459074E-02
  -10.2299995       1.56283341E-02
  -10.2200003       1.57038867E-02
  -10.2100000       1.57726407E-02
  -10.1999998       1.58347283E-02
  -10.1899996       1.58904567E-02
  -10.1800003       1.59402303E-02
  -10.1700001       1.59846228E-02
  -10.1599998       1.60244703E-02
  -10.1499996       1.60607398E-02
  -10.1400003       1.60946939E-02
  -10.1300001       1.61277782E-02
  -10.1199999       1.61616262E-02
  -10.1099997       1.61980521E-02
  -10.1000004       1.62389819E-02
  -10.0900002       1.62864476E-02
  -10.0799999       1.63425785E-02
  -10.0699997       1.64095499E-02
  -10.0600004       1.64895598E-02
  -10.0500002       1.65848006E-02
  -10.0400000       1.66974645E-02
  -10.0299997       1.68296527E-02
  -10.0200005       1.69834066E-02
  -10.0100002       1.71605535E-02
  -10.0000000       1.73627790E-02
  -9.98999977       1.75915286E-02
  -9.97999954       1.78479273E-02
  -9.97000027       1.81328487E-02
  -9.96000004       1.84469521E-02
  -9.94999981       1.87905859E-02
  -9.93999958       1.91640723E-02
  -9.93000031       1.95676051E-02
  -9.92000008       2.00014859E-02
  -9.90999985       2.04660222E-02
  -9.89999962       2.09617652E-02
  -9.89000034       2.14893501E-02
  -9.88000011       2.20495090E-02
  -9.86999989       2.26431284E-02
  -9.85999966       2.32708994E-02
  -9.85000038       2.39335094E-02
  -9.84000015       2.46313009E-02
  -9.82999992       2.53643412E-02
  -9.81999969       2.61322726E-02
  -9.81000042       2.69344393E-02
  -9.80000019       2.77696587E-02
  -9.78999996       2.86364760E-02
  -9.77999973       2.95330826E-02
  -9.77000046       3.04574184E-02
  -9.76000023       3.14071588E-02
  -9.75000000       3.23797874E-02
  -9.73999977       3.33727412E-02
  -9.72999954       3.43832821E-02
  -9.72000027       3.54087949E-02
  -9.71000004       3.64466012E-02
  -9.69999981       3.74941044E-02
  -9.68999958       3.85488048E-02
  -9.68000031       3.96084525E-02
  -9.67000008       4.06705737E-02
  -9.65999985       4.17330265E-02
  -9.64999962       4.27933522E-02
  -9.64000034       4.38491292E-02
  -9.63000011       4.48976383E-02
  -9.61999989       4.59360406E-02
  -9.60999966       4.69612926E-02
  -9.60000038       4.79700789E-02
  -9.59000015       4.89592217E-02
  -9.57999992       4.99254838E-02
  -9.56999969       5.08658588E-02
  -9.56000042       5.17774113E-02
  -9.55000019       5.26577644E-02
  -9.53999996       5.35047427E-02
  -9.52999973       5.43164685E-02
  -9.52000046       5.50915450E-02
  -9.51000023       5.58286980E-02
  -9.50000000       5.65271527E-02
  -9.48999977       5.71860485E-02
  -9.47999954       5.78050688E-02
  -9.47000027       5.83839044E-02
  -9.46000004       5.89224957E-02
  -9.44999981       5.94212115E-02
  -9.43999958       5.98805621E-02
  -9.43000031       6.03017844E-02
  -9.42000008       6.06864132E-02
  -9.40999985       6.10368140E-02
  -9.39999962       6.13560416E-02
  -9.39000034       6.16479851E-02
  -9.38000011       6.19174801E-02
  -9.36999989       6.21700250E-02
  -9.35999966       6.24120794E-02
  -9.35000038       6.26506209E-02
  -9.34000015       6.28931597E-02
  -9.32999992       6.31475374E-02
  -9.31999969       6.34217709E-02
  -9.31000042       6.37240559E-02
  -9.30000019       6.40623942E-02
  -9.28999996       6.44445941E-02
  -9.27999973       6.48784712E-02
  -9.27000046       6.53713942E-02
  -9.26000023       6.59303293E-02
  -9.25000000       6.65619299E-02
  -9.23999977       6.72722459E-02
  -9.22999954       6.80667907E-02
  -9.22000027       6.89503178E-02
  -9.21000004       6.99271634E-02
  -9.19999981       7.10005537E-02
  -9.18999958       7.21732005E-02
  -9.18000031       7.34468848E-02
  -9.17000008       7.48225078E-02
  -9.15999985       7.62999505E-02
  -9.14999962       7.78780282E-02
  -9.14000034       7.95545802E-02
  -9.13000011       8.13261941E-02
  -9.11999989       8.31882879E-02
  -9.10999966       8.51352364E-02
  -9.10000038       8.71601999E-02
  -9.09000015       8.92553777E-02
  -9.07999992       9.14119110E-02
  -9.06999969       9.36202481E-02
  -9.06000042       9.58700702E-02
  -9.05000019       9.81502086E-02
  -9.03999996      0.100449346    
  -9.02999973      0.102755390    
  -9.02000046      0.105056226    
  -9.01000023      0.107339598    
  -9.00000000      0.109593138    
  -8.98999977      0.111804515    
  -8.97999954      0.113961689    
  -8.97000027      0.116052859    
  -8.96000004      0.118066542    
  -8.94999981      0.119991675    
  -8.93999958      0.121817864    
  -8.93000031      0.123535372    
  -8.92000008      0.125135154    
  -8.90999985      0.126609206    
  -8.89999962      0.127950683    
  -8.89000034      0.129153758    
  -8.88000011      0.130213961    
  -8.86999989      0.131128058    
  -8.85999966      0.131893948    
  -8.85000038      0.132510945    
  -8.84000015      0.132979497    
  -8.82999992      0.133301109    
  -8.81999969      0.133478567    
  -8.81000042      0.133515924    
  -8.80000019      0.133418217    
  -8.78999996      0.133191481    
  -8.77999973      0.132843107    
  -8.77000046      0.132381499    
  -8.76000023      0.131815717    
  -8.75000000      0.131155536    
  -8.73999977      0.130411685    
  -8.72999954      0.129595160    
  -8.72000027      0.128717303    
  -8.71000004      0.127789453    
  -8.69999981      0.126823172    
  -8.68999958      0.125829801    
  -8.68000031      0.124820217    
  -8.67000008      0.123804979    
  -8.65999985      0.122793980    
  -8.64999962      0.121796839    
  -8.64000034      0.120822161    
  -8.63000011      0.119877726    
  -8.61999989      0.118970819    
  -8.60999966      0.118108042    
  -8.60000038      0.117295280    
  -8.59000015      0.116537884    
  -8.57999992      0.115841053    
  -8.56999969      0.115208916    
  -8.56000042      0.114645876    
  -8.55000019      0.114155583    
  -8.53999996      0.113741696    
  -8.52999973      0.113406904    
  -8.52000046      0.113153741    
  -8.51000023      0.112984233    
  -8.50000000      0.112899743    
  -8.48999977      0.112901039    
  -8.47999954      0.112988815    
  -8.47000027      0.113162480    
  -8.46000004      0.113421649    
  -8.44999981      0.113765448    
  -8.43999958      0.114192881    
  -8.43000031      0.114702828    
  -8.42000008      0.115293667    
  -8.40999985      0.115964092    
  -8.39999962      0.116712771    
  -8.39000034      0.117538050    
  -8.38000011      0.118438102    
  -8.36999989      0.119411275    
  -8.35999966      0.120456100    
  -8.35000038      0.121570617    
  -8.34000015      0.122753583    
  -8.32999992      0.124003574    
  -8.31999969      0.125319079    
  -8.31000042      0.126699701    
  -8.30000019      0.128144324    
  -8.28999996      0.129652783    
  -8.27999973      0.131224796    
  -8.27000046      0.132860765    
  -8.26000023      0.134561166    
  -8.25000000      0.136327162    
  -8.23999977      0.138160452    
  -8.22999954      0.140063435    
  -8.22000027      0.142037705    
  -8.21000004      0.144086838    
  -8.19999981      0.146213546    
  -8.18999958      0.148420736    
  -8.18000031      0.150712103    
  -8.17000008      0.153090745    
  -8.15999985      0.155559674    
  -8.14999962      0.158122092    
  -8.14000034      0.160780951    
  -8.13000011      0.163538903    
  -8.11999989      0.166398615    
  -8.10999966      0.169362202    
  -8.10000038      0.172431201    
  -8.09000015      0.175606206    
  -8.07999992      0.178887680    
  -8.06999969      0.182274595    
  -8.06000042      0.185765937    
  -8.05000019      0.189358637    
  -8.03999996      0.193049431    
  -8.02999973      0.196834013    
  -8.02000046      0.200707436    
  -8.01000023      0.204663932    
  -8.00000000      0.208696857    
  -7.98999977      0.212798685    
  -7.98000002      0.216961756    
  -7.96999979      0.221177652    
  -7.96000004      0.225437194    
  -7.94999981      0.229731247    
  -7.94000006      0.234050110    
  -7.92999983      0.238384396    
  -7.92000008      0.242723957    
  -7.90999985      0.247059628    
  -7.90000010      0.251381665    
  -7.88999987      0.255680740    
  -7.88000011      0.259948403    
  -7.86999989      0.264175862    
  -7.86000013      0.268354982    
  -7.84999990      0.272478551    
  -7.84000015      0.276538998    
  -7.82999992      0.280530602    
  -7.82000017      0.284447283    
  -7.80999994      0.288285255    
  -7.80000019      0.292040288    
  -7.78999996      0.295709908    
  -7.78000021      0.299292654    
  -7.76999998      0.302787364    
  -7.76000023      0.306194842    
  -7.75000000      0.309516340    
  -7.73999977      0.312753290    
  -7.73000002      0.315908521    
  -7.71999979      0.318985462    
  -7.71000004      0.321987182    
  -7.69999981      0.324919432    
  -7.69000006      0.327786714    
  -7.67999983      0.330595225    
  -7.67000008      0.333351016    
  -7.65999985      0.336060137    
  -7.65000010      0.338730574    
  -7.63999987      0.341369063    
  -7.63000011      0.343984038    
  -7.61999989      0.346582711    
  -7.61000013      0.349174112    
  -7.59999990      0.351766825    
  -7.59000015      0.354369253    
  -7.57999992      0.356990695    
  -7.57000017      0.359639078    
  -7.55999994      0.362323195    
  -7.55000019      0.365051240    
  -7.53999996      0.367830992    
  -7.53000021      0.370669305    
  -7.51999998      0.373574138    
  -7.51000023      0.376551956    
  -7.50000000      0.379609466    
  -7.48999977      0.382752895    
  -7.48000002      0.385988683    
  -7.46999979      0.389322340    
  -7.46000004      0.392759204    
  -7.44999981      0.396305293    
  -7.44000006      0.399964958    