  -16.0000000       0.00000000    
  -15.9899998       0.00000000    
  -15.9799995       0.00000000    
  -15.9700003       0.00000000    
  -15.9600000       0.00000000    
  -15.9499998       0.00000000    
  -15.9399996       0.00000000    
  -15.9300003       0.00000000    
  -15.9200001       0.00000000    
  -15.9099998       0.00000000    
  -15.8999996       0.00000000    
  -15.8900003       0.00000000    
  -15.8800001       0.00000000    
  -15.8699999       0.00000000    
  -15.8599997       0.00000000    
  -15.8500004       0.00000000    
  -15.8400002      -0.00000000    
  -15.8299999       0.00000000    
  -15.8199997       1.40129846E-45
  -15.8100004       1.12103877E-44
  -15.8000002       6.72623263E-44
  -15.7900000       3.46120721E-43
  -15.7799997       1.54282961E-42
  -15.7700005       6.08303663E-42
  -15.7600002       2.15183392E-41
  -15.7500000       6.88471949E-41
  -15.7399998       2.00567849E-40
  -15.7299995       5.34563134E-40
  -15.7200003       1.30738344E-39
  -15.7100000       2.93760083E-39
  -15.6999998       6.05845926E-39
  -15.6899996       1.14246322E-38
  -15.6800003       1.95329305E-38
  -15.6700001       2.97683298E-38
  -15.6599998       3.89882235E-38
  -15.6499996       3.98130838E-38
  -15.6400003       1.95772438E-38
  -15.6300001      -3.82092865E-38
  -15.6199999      -1.47425668E-37
  -15.6099997      -3.06100107E-37
  -15.6000004      -4.77570409E-37
  -15.5900002      -5.73282816E-37
  -15.5799999      -4.52202288E-37
  -15.5699997       4.31836298E-38
  -15.5600004       9.99481219E-37
  -15.5500002       2.30185384E-36
  -15.5400000       3.51046960E-36
  -15.5299997       3.84107738E-36
  -15.5200005       2.36564256E-36
  -15.5100002      -1.50550359E-36
  -15.5000000      -7.35564873E-36
  -15.4899998      -1.32348926E-35
  -15.4799995      -1.57869709E-35
  -15.4700003      -1.14802054E-35
  -15.4600000       1.09633144E-36
  -15.4499998       1.88076628E-35
  -15.4399996       3.32590199E-35
  -15.4300003       3.37482591E-35
  -15.4200001       1.43312391E-35
  -15.4099998      -1.78372673E-35
  -15.3999996      -3.94252196E-35
  -15.3900003      -2.06835104E-35
  -15.3800001       4.95664871E-35
  -15.3699999       1.33910342E-34
  -15.3599997       1.36637925E-34
  -15.3500004      -5.47165471E-35
  -15.3400002      -4.65007703E-34
  -15.3299999      -9.03839902E-34
  -15.3199997      -9.20283415E-34
  -15.3100004       2.23963917E-35
  -15.3000002       2.08376982E-33
  -15.2900000       4.43853626E-33
  -15.2799997       4.96948980E-33
  -15.2700005       9.06077382E-34
  -15.2600002      -9.14820030E-33
  -15.2500000      -2.21979795E-32
  -15.2399998      -2.86261968E-32
  -15.2299995      -1.37497251E-32
  -15.2200003       3.40606247E-32
  -15.2100000       1.08881939E-31
  -15.1999998       1.72484436E-31
  -15.1899996       1.52213682E-31
  -15.1800003      -3.29859408E-32
  -15.1700001      -4.10879568E-31
  -15.1599998      -8.73512485E-31
  -15.1499996      -1.12159333E-30
  -15.1400003      -7.09251209E-31
  -15.1300001       7.45333384E-31
  -15.1199999       3.18619831E-30
  -15.1099997       5.71724266E-30
  -15.1000004       6.45742869E-30
  -15.0900002       3.01326410E-30
  -15.0799999      -6.20385218E-30
  -15.0699997      -2.00119468E-29
  -15.0600004      -3.27024259E-29
  -15.0500002      -3.39735938E-29
  -15.0400000      -1.21290291E-29
  -15.0299997       3.88377165E-29
  -15.0200005       1.09869910E-28
  -15.0100002       1.69770688E-28
  -15.0000000       1.67318835E-28
  -14.9899998       4.89574281E-29
  -14.9799995      -2.06867771E-28
  -14.9700003      -5.48003047E-28
  -14.9600000      -8.21304158E-28
  -14.9499998      -7.89603977E-28
  -14.9399996      -2.17538337E-28
  -14.9300003       9.74497633E-28
  -14.9200001       2.53348843E-27
  -14.9099998       3.76893204E-27
  -14.8999996       3.64207027E-27
  -14.8900003       1.14227887E-27
  -14.8800001      -4.06498253E-27
  -14.8699999      -1.09131811E-26
  -14.8599997      -1.65176057E-26
  -14.8500004      -1.65453175E-26
  -14.8400002      -6.72488360E-27
  -14.8299999       1.45772883E-26
  -14.8199997       4.34681957E-26
  -14.8100004       6.87917093E-26
  -14.8000002       7.33569459E-26
  -14.7900000       3.94838811E-26
  -14.7799997      -4.13217483E-26
  -14.7700005      -1.57210931E-25
  -14.7600002      -2.68589192E-25
  -14.7500000      -3.11070978E-25
  -14.7399998      -2.13992128E-25
  -14.7299995       6.54576318E-26
  -14.7200003       5.00839752E-25
  -14.7100000       9.65343585E-25
  -14.6999998       1.23395615E-24
  -14.6899996       1.03859760E-24
  -14.6800003       1.80180416E-25
  -14.6700001      -1.32564032E-24
  -14.6599998      -3.12354485E-24
  -14.6499996      -4.49064277E-24
  -14.6400003      -4.47721833E-24
  -14.6300001      -2.24439566E-24
  -14.6199999       2.45514241E-24
  -14.6099997       8.80878848E-24
  -14.6000004       1.47246773E-23
  -14.5900002       1.71080107E-23
  -14.5799999       1.27752395E-23
  -14.5699997      -8.12512188E-26
  -14.5600004      -2.02749796E-23
  -14.5500002      -4.25350929E-23
  -14.5400000      -5.77361049E-23
  -14.5299997      -5.50359539E-23
  -14.5200005      -2.59298942E-23
  -14.5100002       3.06505594E-23
  -14.5000000       1.03981264E-22
  -14.4899998       1.70274705E-22
  -14.4799995       1.96605027E-22
  -14.4700003       1.50845402E-22
  -14.4600000       1.61581795E-23
  -14.4499998      -1.94126830E-22
  -14.4399996      -4.27549534E-22
  -14.4300003      -5.96148219E-22
  -14.4200001      -5.97003168E-22
  -14.4099998      -3.48742658E-22
  -14.3999996       1.64179537E-22
  -14.3900003       8.54572489E-22
  -14.3800001       1.52169163E-21
  -14.3699999       1.88255059E-21
  -14.3599997       1.65085580E-21
  -14.3500004       6.51782073E-22
  -14.3400002      -1.05880239E-21
  -14.3299999      -3.11698962E-21
  -14.3199997      -4.86391369E-21
  -14.3100004      -5.48135595E-21
  -14.3000002      -4.24614750E-21
  -14.2900000      -8.51142496E-22
  -14.2799997       4.30613829E-21
  -14.2700005       9.99199364E-21
  -14.2600002       1.42740080E-20
  -14.2500000       1.49782085E-20
  -14.2399998       1.04134082E-20
  -14.2299995       1.89180495E-22
  -14.2200003      -1.41448628E-20
  -14.2100000      -2.89422677E-20
  -14.1999998      -3.90178381E-20
  -14.1899996      -3.89702623E-20
  -14.1800003      -2.50552458E-20
  -14.1700001       2.87952517E-21
  -14.1599998       4.00739280E-20
  -14.1499996       7.68307971E-20
  -14.1400003       1.00228402E-19
  -14.1300001       9.75379454E-20
  -14.1199999       6.06999997E-20
  -14.1099997      -9.36081848E-21
  -14.1000004      -1.00128985E-19
  -14.0900002      -1.88027963E-19
  -14.0799999      -2.42869534E-19
  -14.0699997      -2.35899400E-19
  -14.0600004      -1.49797769E-19
  -14.0500002       1.21387608E-20
  -14.0400000       2.20926577E-19
  -14.0299997       4.23781559E-19
  -14.0200005       5.54296520E-19
  -14.0100002       5.49877463E-19
  -14.0000000       3.72766022E-19
  -13.9899998       2.88394000E-20
  -13.9799995      -4.22397402E-19
  -13.9700003      -8.72076564E-19
  -13.9600000      -1.18275578E-18
  -13.9499998      -1.22333705E-18
  -13.9399996      -9.10707863E-19
  -13.9300003      -2.46857242E-19
  -13.9200001       6.60993410E-19
  -13.9099998       1.60729310E-18
  -13.8999996       2.32611915E-18
  -13.8900003       2.55564688E-18
  -13.8800001       2.11561078E-18
  -13.8699999       9.77517897E-19
  -13.8599997      -6.94571515E-19
  -13.8500004      -2.55059818E-18
  -13.8400002      -4.11580133E-18
  -13.8299999      -4.89955455E-18
  -13.8199997      -4.52939660E-18
  -13.8100004      -2.87656339E-18
  -13.8000002      -1.36014109E-19
  -13.7900000       3.16942896E-18
  -13.7799997       6.27446645E-18
  -13.7700005       8.33680184E-18
  -13.7600002       8.64932226E-18
  -13.7500000       6.84758971E-18
  -13.7399998       3.05533821E-18
  -13.7299995      -2.07981785E-18
  -13.7200003      -7.48419122E-18
  -13.7100000      -1.18792202E-17
  -13.6999998      -1.40810095E-17
  -13.6899996      -1.33069852E-17
  -13.6800003      -9.40923075E-18
  -13.6700001      -2.96651680E-18
  -13.6599998       4.80016797E-18
  -13.6499996       1.22789081E-17
  -13.6400003       1.78289599E-17
  -13.6300001       2.01642033E-17
  -13.6199999       1.86583789E-17
  -13.6099997       1.34902446E-17
  -13.6000004       5.58921887E-18
  -13.5900002      -3.60162959E-18
  -13.5799999      -1.24753659E-17
  -13.5699997      -1.96199995E-17
  -13.5600004      -2.40806950E-17
  -13.5500002      -2.54526155E-17
  -13.5400000      -2.37904241E-17
  -13.5299997      -1.93882103E-17
  -13.5200005      -1.25363192E-17
  -13.5100002      -3.37919472E-18
  -13.5000000       8.03119417E-18
  -13.4899998       2.14643178E-17
  -13.4799995       3.60973612E-17
  -13.4700003       5.01226949E-17
  -13.4600000       6.05878631E-17
  -13.4499998       6.36562995E-17
  -13.4399996       5.53769296E-17
  -13.4300003       3.28889824E-17
  -13.4200001      -4.19458987E-18
  -13.4099998      -5.26269279E-17
  -13.3999996      -1.05045162E-16
  -13.3900003      -1.50538666E-16
  -13.3800001      -1.76420062E-16
  -13.3699999      -1.71027175E-16
  -13.3599997      -1.27034402E-16
  -13.3500004      -4.44764626E-17
  -13.3400002       6.74170265E-17
  -13.3299999       1.90345085E-16
  -13.3199997       2.99406083E-16
  -13.3100004       3.67747348E-16
  -13.3000002       3.72600423E-16
  -13.2900000       3.01400739E-16
  -13.2799997       1.56447753E-16
  -13.2700005      -4.33070244E-17
  -13.2600002      -2.64219037E-16
  -13.2500000      -4.63683835E-16
  -13.2399998      -5.98697128E-16
  -13.2299995      -6.35453699E-16
  -13.2200003      -5.57711956E-16
  -13.2100000      -3.71737800E-16
  -13.1999998      -1.06301914E-16
  -13.1899996       1.92640743E-16
  -13.1800003       4.71597928E-16
  -13.1700001       6.81290464E-16
  -13.1599998       7.87570652E-16
  -13.1499996       7.78578762E-16
  -13.1400003       6.66087016E-16
  -13.1300001       4.80470440E-16
  -13.1199999       2.60579231E-16
  -13.1099997       4.13895106E-17
  -13.1000004      -1.56768778E-16
  -13.0900002      -3.33750569E-16
  -13.0799999      -5.07511384E-16
  -13.0699997      -7.04165541E-16
  -13.0600004      -9.42496207E-16
  -13.0500002      -1.21737788E-15
  -13.0400000      -1.48772179E-15
  -13.0299997      -1.67416687E-15
  -13.0200005      -1.66971020E-15
  -13.0100002      -1.36317999E-15
  -13.0000000      -6.71688127E-16
  -12.9899998       4.25138515E-16
  -12.9799995       1.85812516E-15
  -12.9700003       3.45737927E-15
  -12.9600000       4.96297102E-15
  -12.9499998       6.05887665E-15
  -12.9399996       6.42621705E-15
  -12.9300003       5.80678524E-15
  -12.9200001       4.06458416E-15
  -12.9099998       1.23247444E-15
  -12.8999996      -2.46668975E-15
  -12.8900003      -6.63031684E-15
  -12.8800001      -1.07174867E-14
  -12.8699999      -1.41152848E-14
  -12.8599997      -1.62194070E-14
  -12.8500004      -1.65164360E-14
  -12.8400002      -1.46560586E-14
  -12.8299999      -1.05047510E-14
  -12.8199997      -4.17670845E-15
  -12.8100004       3.95782328E-15
  -12.8000002       1.32841380E-14
  -12.7900000       2.29710016E-14
  -12.7799997       3.20127395E-14
  -12.7700005       3.92857540E-14
  -12.7600002       4.36217631E-14
  -12.7500000       4.39008774E-14
  -12.7399998       3.91660107E-14
  -12.7299995       2.87555624E-14
  -12.7200003       1.24458024E-14
  -12.7100000      -9.41256045E-15
  -12.6999998      -3.57835675E-14
  -12.6899996      -6.48831642E-14
  -12.6800003      -9.41852594E-14
  -12.6700001      -1.20511592E-13
  -12.6599998      -1.40213131E-13
  -12.6499996      -1.49440993E-13
  -12.6400003      -1.44496015E-13
  -12.6300001      -1.22238387E-13
  -12.6199999      -8.05325316E-14
  -12.6099997      -1.86973358E-14
  -12.6000004       6.20724988E-14
  -12.5900002       1.58353704E-13
  -12.5799999       2.64254899E-13
  -12.5699997       3.71340464E-13
  -12.5600004       4.68769663E-13
  -12.5500002       5.43702453E-13
  -12.5400000       5.82010622E-13
  -12.5299997       5.69316079E-13
  -12.5200005       4.92346290E-13
  -12.5100002       3.40559503E-13
  -12.5000000       1.07953211E-13
  -12.4899998      -2.05079036E-13
  -12.4799995      -5.90003957E-13
  -12.4700003      -1.02871195E-12
  -12.4600000      -1.49257223E-12
  -12.4499998      -1.94216713E-12
  -12.4399996      -2.32783584E-12
  -12.4300003      -2.59112133E-12
  -12.4200001      -2.66712932E-12
  -12.4099998      -2.48774373E-12
  -12.3999996      -1.98553652E-12
  -12.3900003      -1.09817960E-12
  -12.3800001       2.26939873E-13
  -12.3699999       2.02818318E-12
  -12.3599997       4.32554860E-12
  -12.3500004       7.11724646E-12
  -12.3400002       1.03772407E-11
  -12.3299999       1.40539004E-11
  -12.3199997       1.80699171E-11
  -12.3100004       2.23234521E-11
  -12.3000002       2.66905005E-11
  -12.2900000       3.10283639E-11
  -12.2799997       3.51800394E-11
  -12.2700005       3.89794030E-11
  -12.2600002       4.22569410E-11
  -12.2500000       4.48457209E-11
  -12.2399998       4.65877163E-11
  -12.2299995       4.73396079E-11
  -12.2200003       4.69784281E-11
  -12.2100000       4.54063384E-11
  -12.1999998       4.25544114E-11
  -12.1899996       3.83852741E-11
  -12.1800003       3.28943470E-11
  -12.1700001       2.61096405E-11
  -12.1599998       1.80902966E-11
  -12.1499996       8.92387813E-12
  -12.1400003      -1.27713573E-12
  -12.1300001      -1.23795037E-11
  -12.1199999      -2.42335058E-11
  -12.1099997      -3.66773417E-11
  -12.1000004      -4.95412877E-11
  -12.0900002      -6.26512869E-11
  -12.0799999      -7.58324167E-11
  -12.0699997      -8.89116419E-11
  -12.0600004      -1.01720070E-10
  -12.0500002      -1.14094914E-10
  -12.0400000      -1.25880500E-10
  -12.0299997      -1.36928829E-10
  -12.0200005      -1.47099291E-10
  -12.0100002      -1.56257854E-10
  -12.0000000      -1.64275760E-10
  -11.9899998      -1.71027983E-10
  -11.9799995      -1.76391887E-10
  -11.9700003      -1.80246443E-10
  -11.9600000      -1.82472454E-10
  -11.9499998      -1.82953860E-10
  -11.9399996      -1.81580251E-10
  -11.9300003      -1.78250414E-10
  -11.9200001      -1.72876199E-10
  -11.9099998      -1.65386996E-10
  -11.8999996      -1.55733454E-10
  -11.8900003      -1.43890039E-10
  -11.8800001      -1.29857222E-10
  -11.8699999      -1.13661192E-10
  -11.8599997      -9.53539539E-11
  -11.8500004      -7.50116150E-11
  -11.8400002      -5.27319230E-11
  -11.8299999      -2.86330196E-11
  -11.8199997      -2.85125070E-12
  -11.8100004       2.44600989E-11
  -11.8000002       5.31314992E-11
  -11.7900000       8.29781382E-11
  -11.7799997       1.13800171E-10
  -11.7700005       1.45382664E-10
  -11.7600002       1.77496740E-10
  -11.7500000       2.09899445E-10
  -11.7399998       2.42335374E-10
  -11.7299995       2.74537643E-10
  -11.7200003       3.06229792E-10
  -11.7100000       3.37127770E-10
  -11.6999998       3.66942143E-10
  -11.6899996       3.95381616E-10
  -11.6800003       4.22155727E-10
  -11.6700001       4.46978704E-10
  -11.6599998       4.69572881E-10
  -11.6499996       4.89671748E-10
  -11.6400003       5.07023201E-10
  -11.6300001       5.21391375E-10
  -11.6199999       5.32558164E-10
  -11.6099997       5.40323619E-10
  -11.6000004       5.44506162E-10
  -11.5900002       5.44941536E-10
  -11.5799999       5.41482914E-10
  -11.5699997       5.33999567E-10
  -11.5600004       5.22376753E-10
  -11.5500002       5.06515274E-10
  -11.5400000       4.86332752E-10
  -11.5299997       4.61763627E-10
  -11.5200005       4.32760910E-10
  -11.5100002       3.99297539E-10
  -11.5000000       3.61368629E-10
  -11.4899998       3.18991916E-10
  -11.4799995       2.72209338E-10
  -11.4700003       2.21089300E-10
  -11.4600000       1.65727446E-10
  -11.4499998       1.06245256E-10
  -11.4399996       4.27906877E-11
  -11.4300003      -2.44634452E-11
  -11.4200001      -9.53219656E-11
  -11.4099998      -1.69570760E-10
  -11.3999996      -2.46979631E-10
  -11.3900003      -3.27307681E-10
  -11.3800001      -4.10305401E-10
  -11.3699999      -4.95719799E-10
  -11.3599997      -5.83297077E-10
  -11.3500004      -6.72785994E-10
  -11.3400002      -7.63939911E-10
  -11.3299999      -8.56518745E-10
  -11.3199997      -9.50289736E-10
  -11.3100004      -1.04502995E-09
  -11.3000002      -1.14052612E-09
  -11.2900000      -1.23657518E-09
  -11.2799997      -1.33298450E-09
  -11.2700005      -1.42957068E-09
  -11.2600002      -1.52615987E-09
  -11.2500000      -1.62258473E-09
  -11.2399998      -1.71868142E-09
  -11.2299995      -1.81428961E-09
  -11.2200003      -1.90924854E-09
  -11.2100000      -2.00339634E-09
  -11.1999998      -2.09656736E-09
  -11.1899996      -2.18859442E-09
  -11.1800003      -2.27930719E-09
  -11.1700001      -2.36853803E-09
  -11.1599998      -2.45612042E-09
  -11.1499996      -2.54189536E-09
  -11.1400003      -2.62571387E-09
  -11.1300001      -2.70744560E-09
  -11.1199999      -2.78698042E-09
  -11.1099997      -2.86423307E-09
  -11.1000004      -2.93914493E-09
  -11.0900002      -3.01168734E-09
  -11.0799999      -3.08186143E-09
  -11.0699997      -3.14969362E-09
  -11.0600004      -3.21522786E-09
  -11.0500002      -3.27852057E-09
  -11.0400000      -3.33963612E-09
  -11.0299997      -3.39863093E-09
  -11.0200005      -3.45555140E-09
  -11.0100002      -3.51042884E-09
  -11.0000000      -3.56327590E-09
  -10.9899998      -3.61409103E-09
  -10.9799995      -3.66285735E-09
  -10.9700003      -3.70955644E-09
  -10.9600000      -3.75415965E-09
  -10.9499998      -3.79664478E-09
  -10.9399996      -3.83699472E-09
  -10.9300003      -3.87519838E-09
  -10.9200001      -3.91123889E-09
  -10.9099998      -3.94511179E-09
  -10.8999996      -3.97679889E-09
  -10.8900003      -4.00628064E-09
  -10.8800001      -4.03352240E-09
  -10.8699999      -4.05848155E-09
  -10.8599997      -4.08110168E-09
  -10.8500004      -4.10131840E-09
  -10.8400002      -4.11906509E-09
  -10.8299999      -4.13427204E-09
  -10.8199997      -4.14685442E-09
  -10.8100004      -4.15673673E-09
  -10.8000002      -4.16384438E-09
  -10.7900000      -4.16810675E-09
  -10.7799997      -4.16945811E-09
  -10.7700005      -4.16784340E-09
  -10.7600002      -4.16322576E-09
  -10.7500000      -4.15558876E-09
  -10.7399998      -4.14493861E-09
  -10.7299995      -4.13130685E-09
  -10.7200003      -4.11476675E-09
  -10.7100000      -4.09539780E-09
  -10.6999998      -4.07332923E-09
  -10.6899996      -4.04869471E-09
  -10.6800003      -4.02164479E-09
  -10.6700001      -3.99234734E-09
  -10.6599998      -3.96097688E-09
  -10.6499996      -3.92770172E-09
  -10.6400003      -3.89270882E-09
  -10.6300001      -3.85616783E-09
  -10.6199999      -3.81824661E-09
  -10.6099997      -3.77912279E-09
  -10.6000004      -3.73897091E-09
  -10.5900002      -3.69795616E-09
  -10.5799999      -3.65627106E-09
  -10.5699997      -3.61410235E-09
  -10.5600004      -3.57164276E-09
  -10.5500002      -3.52908325E-09
  -10.5400000      -3.48666540E-09
  -10.5299997      -3.44460505E-09
  -10.5200005      -3.40312800E-09
  -10.5100002      -3.36247252E-09
  -10.5000000      -3.32286598E-09
  -10.4899998      -3.28454330E-09
  -10.4799995      -3.24771920E-09
  -10.4700003      -3.21261617E-09
  -10.4600000      -3.17942139E-09
  -10.4499998      -3.14831317E-09
  -10.4399996      -3.11946802E-09
  -10.4300003      -3.09301118E-09
  -10.4200001      -3.06905834E-09
  -10.4099998      -3.04766878E-09
  -10.3999996      -3.02888026E-09
  -10.3900003      -3.01269121E-09
  -10.3800001      -2.99905856E-09
  -10.3699999      -2.98791036E-09
  -10.3599997      -2.97914182E-09
  -10.3500004      -2.97266567E-09
  -10.3400002      -2.96836489E-09
  -10.3299999      -2.96616576E-09
  -10.3199997      -2.96597946E-09
  -10.3100004      -2.96775560E-09
  -10.3000002      -2.97146130E-09
  -10.2900000      -2.97706748E-09
  -10.2799997      -2.98455261E-09
  -10.2700005      -2.99392267E-09
  -10.2600002      -3.00517966E-09
  -10.2500000      -3.01831360E-09
  -10.2399998      -3.03330672E-09
  -10.2299995      -3.05014169E-09
  -10.2200003      -3.06876280E-09
  -10.2100000      -3.08911252E-09
  -10.1999998      -3.11109183E-09
  -10.1899996      -3.13461501E-09
  -10.1800003      -3.15957971E-09
  -10.1700001      -3.18588711E-09
  -10.1599998      -3.21348259E-09
  -10.1499996      -3.24232108E-09
  -10.1400003      -3.27241856E-09
  -10.1300001      -3.30381056E-09
  -10.1199999      -3.33658567E-09
  -10.1099997      -3.37089223E-09
  -10.1000004      -3.40690520E-09
  -10.0900002      -3.44478557E-09
  -10.0799999      -3.48472629E-09
  -10.0699997      -3.52693874E-09
  -10.0600004      -3.57159924E-09
  -10.0500002      -3.61887920E-09
  -10.0400000      -3.66894048E-09
  -10.0299997      -3.72188524E-09
  -10.0200005      -3.77782738E-09
  -10.0100002      -3.83679799E-09
  -10.0000000      -3.89883859E-09
  -9.98999977      -3.96394872E-09
  -9.97999954      -4.03209111E-09
  -9.97000027      -4.10323198E-09
  -9.96000004      -4.17731760E-09
  -9.94999981      -4.25429914E-09
  -9.93999958      -4.33414282E-09
  -9.93000031      -4.41680070E-09
  -9.92000008      -4.50224436E-09
  -9.90999985      -4.59047822E-09
  -9.89999962      -4.68150718E-09
  -9.89000034      -4.77535833E-09
  -9.88000011      -4.87206275E-09
  -9.86999989      -4.97167818E-09
  -9.85999966      -5.07424636E-09
  -9.85000038      -5.17983212E-09
  -9.84000015      -5.28851141E-09
  -9.82999992      -5.40032641E-09
  -9.81999969      -5.51529356E-09
  -9.81000042      -5.63345681E-09
  -9.80000019      -5.75479442E-09
  -9.78999996      -5.87928195E-09
  -9.77999973      -6.00688921E-09
  -9.77000046      -6.13758422E-09
  -9.76000023      -6.27134167E-09
  -9.75000000      -6.40815800E-09
  -9.73999977      -6.54803278E-09
  -9.72999954      -6.69097133E-09
  -9.72000027      -6.83705181E-09
  -9.71000004      -6.98630664E-09
  -9.69999981      -7.13875981E-09
  -9.68999958      -7.29445748E-09
  -9.68000031      -7.45337747E-09
  -9.67000008      -7.61552954E-09
  -9.65999985      -7.78084441E-09
  -9.64999962      -7.94923061E-09
  -9.64000034      -8.12056644E-09
  -9.63000011      -8.29467872E-09
  -9.61999989      -8.47137471E-09
  -9.60999966      -8.65036753E-09
  -9.60000038      -8.83136320E-09
  -9.59000015      -9.01401087E-09
  -9.57999992      -9.19793752E-09
  -9.56999969      -9.38273015E-09
  -9.56000042      -9.56796420E-09
  -9.55000019      -9.75318937E-09
  -9.53999996      -9.93793492E-09
  -9.52999973      -1.01217905E-08
  -9.52000046      -1.03042908E-08
  -9.51000023      -1.04850022E-08
  -9.50000000      -1.06635474E-08
  -9.48999977      -1.08395453E-08
  -9.47999954      -1.10126717E-08
  -9.47000027      -1.11826424E-08
  -9.46000004      -1.13492069E-08
  -9.44999981      -1.15121672E-08
  -9.43999958      -1.16714123E-08
  -9.43000031      -1.18268355E-08
  -9.42000008      -1.19783987E-08
  -9.40999985      -1.21261445E-08
  -9.39999962      -1.22701884E-08
  -9.39000034      -1.24106965E-08
  -9.38000011      -1.25478978E-08
  -9.36999989      -1.26821034E-08
  -9.35999966      -1.28137048E-08
  -9.35000038      -1.29431497E-08
  -9.34000015      -1.30709417E-08
  -9.32999992      -1.31976323E-08
  -9.31999969      -1.33238665E-08
  -9.31000042      -1.34502764E-08
  -9.30000019      -1.35774885E-08
  -9.28999996      -1.37062299E-08
  -9.27999973      -1.38371687E-08
  -9.27000046      -1.39710394E-08
  -9.26000023      -1.41085428E-08
  -9.25000000      -1.42504284E-08
  -9.23999977      -1.43973446E-08
  -9.22999954      -1.45500119E-08
  -9.22000027      -1.47091175E-08
  -9.21000004      -1.48752521E-08
  -9.19999981      -1.50489967E-08
  -9.18999958      -1.52308139E-08
  -9.18000031      -1.54211559E-08
  -9.17000008      -1.56203388E-08
  -9.15999985      -1.58285971E-08
  -9.14999962      -1.60460907E-08
  -9.14000034      -1.62729190E-08
  -9.13000011      -1.65090466E-08
  -9.11999989      -1.67543188E-08
  -9.10999966      -1.70085901E-08
  -9.10000038      -1.72715868E-08
  -9.09000015      -1.75429822E-08
  -9.07999992      -1.78223249E-08
  -9.06999969      -1.81091675E-08
  -9.06000042      -1.84029627E-08
  -9.05000019      -1.87030498E-08
  -9.03999996      -1.90088407E-08
  -9.02999973      -1.93196108E-08
  -9.02000046      -1.96346264E-08
  -9.01000023      -1.99531769E-08
  -9.00000000      -2.02744932E-08
  -8.98999977      -2.05977724E-08
  -8.97999954      -2.09222968E-08
  -8.97000027      -2.12472209E-08
  -8.96000004      -2.15718803E-08
  -8.94999981      -2.18954739E-08
  -8.93999958      -2.22172840E-08
  -8.93000031      -2.25366641E-08
  -8.92000008      -2.28529906E-08
  -8.90999985      -2.31657094E-08
  -8.89999962      -2.34743602E-08
  -8.89000034      -2.37785294E-08
  -8.88000011      -2.40778135E-08
  -8.86999989      -2.43719303E-08
  -8.85999966      -2.46606593E-08
  -8.85000038      -2.49438017E-08
  -8.84000015      -2.52213308E-08
  -8.82999992      -2.54930601E-08
  -8.81999969      -2.57590340E-08
  -8.81000042      -2.60192294E-08
  -8.80000019      -2.62737760E-08
  -8.78999996      -2.65227733E-08
  -8.77999973      -2.67663580E-08
  -8.77000046      -2.70047291E-08
  -8.76000023      -2.72380518E-08
  -8.75000000      -2.74666796E-08
  -8.73999977      -2.76909020E-08
  -8.72999954      -2.79110921E-08
  -8.72000027      -2.81277313E-08
  -8.71000004      -2.83413097E-08
  -8.69999981      -2.85524600E-08
  -8.68999958      -2.87617201E-08
  -8.68000031      -2.89699056E-08
  -8.67000008      -2.91776434E-08
  -8.65999985      -2.93858893E-08
  -8.64999962      -2.95954177E-08
  -8.64000034      -2.98070830E-08
  -8.63000011      -3.00218588E-08
  -8.61999989      -3.02405248E-08
  -8.60999966      -3.04640224E-08
  -8.60000038      -3.06931121E-08
  -8.59000015      -3.09285788E-08
  -8.57999992      -3.11709982E-08
  -8.56999969      -3.14209672E-08
  -8.56000042      -3.16789439E-08
  -8.55000019      -3.19451985E-08
  -8.53999996      -3.22200648E-08
  -8.52999973      -3.25036318E-08
  -8.52000046      -3.27958958E-08
  -8.51000023      -3.30968994E-08
  -8.50000000      -3.34063905E-08
  -8.48999977      -3.37241310E-08
  -8.47999954      -3.40497692E-08
  -8.47000027      -3.43830884E-08
  -8.46000004      -3.47236089E-08
  -8.44999981      -3.50709009E-08
  -8.43999958      -3.54245664E-08
  -8.43000031      -3.57842715E-08
  -8.42000008      -3.61495687E-08
  -8.40999985      -3.65201238E-08
  -8.39999962      -3.68956492E-08
  -8.39000034      -3.72760027E-08
  -8.38000011      -3.76610032E-08
  -8.36999989      -3.80505121E-08
  -8.35999966      -3.84445222E-08
  -8.35000038      -3.88431367E-08
  -8.34000015      -3.92464763E-08
  -8.32999992      -3.96548643E-08
  -8.31999969      -4.00685600E-08
  -8.31000042      -4.04879259E-08
  -8.30000019      -4.09135268E-08
  -8.28999996      -4.13456789E-08
  -8.27999973      -4.17848973E-08
  -8.27000046      -4.22314592E-08
  -8.26000023      -4.26860609E-08
  -8.25000000      -4.31487983E-08
  -8.23999977      -4.36201653E-08
  -8.22999954      -4.41003785E-08
  -8.22000027      -4.45895303E-08
  -8.21000004      -4.50879512E-08
  -8.19999981      -4.55956410E-08
  -8.18999958      -4.61127136E-08
  -8.18000031      -4.66390055E-08
  -8.17000008      -4.71746411E-08
  -8.15999985      -4.77193680E-08
  -8.14999962      -4.82729767E-08
  -8.14000034      -4.88353074E-08
  -8.13000011      -4.94060934E-08
  -8.11999989      -4.99852177E-08
  -8.10999966      -5.05724174E-08
  -8.10000038      -5.11674827E-08
  -8.09000015      -5.17700975E-08
  -8.07999992      -5.23798960E-08
  -8.06999969      -5.29967181E-08
  -8.06000042      -5.36202442E-08
  -8.05000019      -5.42500693E-08
  -8.03999996      -5.48857493E-08
  -8.02999973      -5.55270212E-08
  -8.02000046      -5.61734197E-08
  -8.01000023      -5.68245397E-08
  -8.00000000      -5.74797880E-08
  -7.98999977      -5.81387241E-08
  -7.98000002      -5.88005307E-08
  -7.96999979      -5.94644440E-08
  -7.96000004      -6.01298353E-08
  -7.94999981      -6.07959123E-08
  -7.94000006      -6.14617690E-08
  -7.92999983      -6.21264107E-08
  -7.92000008      -6.27891410E-08
  -7.90999985      -6.34489794E-08
  -7.90000010      -6.41049738E-08
  -7.88999987      -6.47562572E-08
  -7.88000011      -6.54018351E-08
  -7.86999989      -6.60409043E-08
  -7.86000013      -6.66725839E-08
  -7.84999990      -6.72960923E-08
  -7.84000015      -6.79108041E-08
  -7.82999992      -6.85161794E-08
  -7.82000017      -6.91116213E-08
  -7.80999994      -6.96967533E-08
  -7.80000019      -7.02716747E-08
  -7.78999996      -7.08359096E-08
  -7.78000021      -7.13893371E-08
  -7.76999998      -7.19320283E-08
  -7.76000023      -7.24643670E-08
  -7.75000000      -7.29865448E-08
  -7.73999977      -7.34989456E-08
  -7.73000002      -7.40023367E-08
  -7.71999979      -7.44972652E-08
  -7.71000004      -7.49846549E-08
  -7.69999981      -7.54652874E-08
  -7.69000006      -7.59401715E-08
  -7.67999983      -7.64102239E-08
  -7.67000008      -7.68764892E-08
  -7.65999985      -7.73399975E-08
  -7.65000010      -7.78022553E-08
  -7.63999987      -7.82641791E-08
  -7.63000011      -7.87271546E-08
  -7.61999989      -7.91922972E-08
  -7.61000013      -7.96607935E-08
  -7.59999990      -8.01341358E-08
  -7.59000015      -8.06134963E-08
  -7.57999992      -8.10997562E-08
  -7.57000017      -8.15944787E-08
  -7.55999994      -8.20987864E-08
  -7.55000019      -8.26137594E-08
  -7.53999996      -8.31409182E-08
  -7.53000021      -8.36812930E-08
  -7.51999998      -8.42361558E-08
  -7.51000023      -8.48065298E-08
  -7.50000000      -8.53937721E-08
  -7.48999977      -8.59991971E-08
  -7.48000002      -8.66237642E-08
  -7.46999979      -8.72686812E-08
  -7.46000004      -8.79349500E-08
  -7.44999981      -8.86237999E-08
  -7.44000006      -8.93361118E-08