  -16.0000000       0.00000000    
  -15.9899998       0.00000000    
  -15.9799995       0.00000000    
  -15.9700003       0.00000000    
  -15.9600000       0.00000000    
  -15.9499998       0.00000000    
  -15.9399996       0.00000000    
  -15.9300003       0.00000000    
  -15.9200001       0.00000000    
  -15.9099998       0.00000000    
  -15.8999996       0.00000000    
  -15.8900003       0.00000000    
  -15.8800001       0.00000000    
  -15.8699999       0.00000000    
  -15.8599997       0.00000000    
  -15.8500004       0.00000000    
  -15.8400002       1.40129846E-45
  -15.8299999       1.82168800E-44
  -15.8199997       1.76563607E-43
  -15.8100004       1.31722056E-42
  -15.8000002       8.21721419E-42
  -15.7900000       4.39279043E-41
  -15.7799997       2.05084234E-40
  -15.7700005       8.47786972E-40
  -15.7600002       3.13560710E-39
  -15.7500000       1.04606874E-38
  -15.7399998       3.16763630E-38
  -15.7299995       8.74759221E-38
  -15.7200003       2.20993153E-37
  -15.7100000       5.11446407E-37
  -15.6999998       1.08335985E-36
  -15.6899996       2.09167683E-36
  -15.6800003       3.64557360E-36
  -15.6700001       5.61826822E-36
  -15.6599998       7.29553450E-36
  -15.6499996       6.87467610E-36
  -15.6400003       9.77629483E-37
  -15.6300001      -1.53939423E-35
  -15.6199999      -4.77090396E-35
  -15.6099997      -9.86170999E-35
  -15.6000004      -1.61885271E-34
  -15.5900002      -2.14252970E-34
  -15.5799999      -2.08562200E-34
  -15.5699997      -7.51628594E-35
  -15.5600004       2.58576569E-34
  -15.5500002       8.22313400E-34
  -15.5400000       1.53217497E-33
  -15.5299997       2.11872130E-33
  -15.5200005       2.10470078E-33
  -15.5100002       9.03764046E-34
  -15.5000000      -1.90263587E-33
  -15.4899998      -6.12654505E-33
  -15.4799995      -1.05270735E-32
  -15.4700003      -1.26687713E-32
  -15.4600000      -9.47330236E-33
  -15.4499998       1.29211248E-33
  -15.4399996       1.88085267E-32
  -15.4300003       3.72216936E-32
  -15.4200001       4.54977087E-32
  -15.4099998       3.08364142E-32
  -15.3999996      -1.36684353E-32
  -15.3900003      -7.88195235E-32
  -15.3800001      -1.31508877E-31
  -15.3699999      -1.17000326E-31
  -15.3599997       2.08778479E-32
  -15.3500004       2.98428675E-31
  -15.3400002       6.37158375E-31
  -15.3299999       8.18895444E-31
  -15.3199997       4.92580610E-31
  -15.3100004      -7.14542673E-31
  -15.3000002      -2.93941465E-30
  -15.2900000      -5.69095108E-30
  -15.2799997      -7.44907949E-30
  -15.2700005      -5.55011106E-30
  -15.2600002       3.18588610E-30
  -15.2500000       2.06277178E-29
  -15.2399998       4.42254363E-29
  -15.2299995       6.34888042E-29
  -15.2200003       5.83670945E-29
  -15.2100000       3.19820905E-30
  -15.1999998      -1.20126450E-28
  -15.1899996      -2.99203521E-28
  -15.1800003      -4.64996237E-28
  -15.1700001      -4.79421260E-28
  -15.1599998      -1.61908031E-28
  -15.1499996       6.22103298E-28
  -15.1400003       1.81061855E-27
  -15.1300001       2.97990416E-27
  -15.1199999       3.27321193E-27
  -15.1099997       1.57384645E-27
  -15.1000004      -2.95563667E-27
  -15.0900002      -9.99415585E-27
  -15.0799999      -1.71423527E-26
  -15.0699997      -1.95811840E-26
  -15.0600004      -1.11037727E-26
  -15.0500002       1.29113927E-26
  -15.0400000       5.08541340E-26
  -15.0299997       9.02379653E-26
  -15.0200005       1.06233273E-25
  -15.0100002       6.71966942E-26
  -15.0000000      -5.03819791E-26
  -14.9899998      -2.39317324E-25
  -14.9799995      -4.39938951E-25
  -14.9700003      -5.33986258E-25
  -14.9600000      -3.71204613E-25
  -14.9499998       1.61583069E-25
  -14.9399996       1.03851734E-24
  -14.9300003       1.99799002E-24
  -14.9200001       2.51605233E-24
  -14.9099998       1.92144054E-24
  -14.8999996      -3.09160604E-25
  -14.8900003      -4.11849606E-24
  -14.8800001      -8.45774143E-24
  -14.8699999      -1.11610810E-23
  -14.8599997      -9.39218740E-24
  -14.8500004      -8.16138729E-25
  -14.8400002       1.46682611E-23
  -14.8299999       3.32466912E-23
  -14.8199997       4.65685639E-23
  -14.8100004       4.32875557E-23
  -14.8000002       1.33812440E-23
  -14.7900000      -4.52920166E-23
  -14.7799997      -1.20367363E-22
  -14.7700005      -1.81928692E-22
  -14.7600002      -1.87106914E-22
  -14.7500000      -9.48140947E-23
  -14.7399998       1.10834515E-22
  -14.7299995       3.95500804E-22
  -14.7200003       6.60429150E-22
  -14.7100000       7.53459807E-22
  -14.6999998       5.15124354E-22
  -14.6899996      -1.42764790E-22
  -14.6800003      -1.14718814E-21
  -14.6700001      -2.20236010E-21
  -14.6599998      -2.80510820E-21
  -14.6499996      -2.37481918E-21
  -14.6400003      -4.99172501E-22
  -14.6300001       2.76086050E-21
  -14.6199999       6.62498808E-21
  -14.6099997       9.56185568E-21
  -14.6000004       9.60730457E-21
  -14.5900002       5.07150573E-21
  -14.5799999      -4.49443295E-21
  -14.5699997      -1.73966099E-20
  -14.5600004      -2.94269309E-20
  -14.5500002      -3.44803421E-20
  -14.5400000      -2.63900504E-20
  -14.5299997      -1.75620016E-21
  -14.5200005       3.70339746E-20
  -14.5100002       7.98893750E-20
  -14.5000000       1.09634570E-19
  -14.4899998       1.06147797E-19
  -14.4799995       5.38841542E-20
  -14.4700003      -4.89377790E-20
  -14.4600000      -1.82770364E-19
  -14.4499998      -3.04907795E-19
  -14.4399996      -3.56899405E-19
  -14.4300003      -2.82284509E-19
  -14.4200001      -5.17362021E-20
  -14.4099998       3.11806792E-19
  -14.3999996       7.18743386E-19
  -14.3900003       1.02002330E-18
  -14.3800001       1.04245333E-18
  -14.3699999       6.49583694E-19
  -14.3599997      -1.86062052E-19
  -14.3500004      -1.32432319E-18
  -14.3400002      -2.44198192E-18
  -14.3299999      -3.08480466E-18
  -14.3199997      -2.79374648E-18
  -14.3100004      -1.28488849E-18
  -14.3000002       1.36688153E-18
  -14.2900000       4.61144713E-18
  -14.2799997       7.44620874E-18
  -14.2700005       8.62288391E-18
  -14.2600002       7.02869677E-18
  -14.2500000       2.16137765E-18
  -14.2399998      -5.44805719E-18
  -14.2299995      -1.40438592E-17
  -14.2200003      -2.08413218E-17
  -14.2100000      -2.26753996E-17
  -14.1999998      -1.70221147E-17
  -14.1899996      -3.14722309E-18
  -14.1800003       1.69933934E-17
  -14.1700001       3.85127418E-17
  -14.1599998       5.43191939E-17
  -14.1499996       5.68712082E-17
  -14.1400003       4.06735394E-17
  -14.1300001       4.87382303E-18
  -14.1199999      -4.49172440E-17
  -14.1099997      -9.64591856E-17
  -14.1000004      -1.32937983E-16
  -14.0900002      -1.37219615E-16
  -14.0799999      -9.75152305E-17
  -14.0699997      -1.29615959E-17
  -14.0600004       1.02781215E-16
  -14.0500002       2.21687951E-16
  -14.0400000       3.06300084E-16
  -14.0299997       3.19150103E-16
  -14.0200005       2.34843087E-16
  -14.0100002       5.16015317E-17
  -14.0000000      -2.01592743E-16
  -13.9899998      -4.65712690E-16
  -13.9799995      -6.62079915E-16
  -13.9700003      -7.11643677E-16
  -13.9600000      -5.59344242E-16
  -13.9499998      -1.97229795E-16
  -13.9399996       3.21142880E-16
  -13.9300003       8.81562192E-16
  -13.9200001       1.32863799E-15
  -13.9099998       1.50232993E-15
  -13.8999996       1.28440476E-15
  -13.8900003       6.43111777E-16
  -13.8800001      -3.37669102E-16
  -13.8699999      -1.45684182E-15
  -13.8599997      -2.42844388E-15
  -13.8500004      -2.94554754E-15
  -13.8400002      -2.76354600E-15
  -13.8299999      -1.78253722E-15
  -13.8199997      -1.04830412E-16
  -13.8100004       1.95375095E-15
  -13.8000002       3.91070495E-15
  -13.7900000       5.21916630E-15
  -13.7799997       5.40663883E-15
  -13.7700005       4.21737154E-15
  -13.7600002       1.71901207E-15
  -13.7500000      -1.66211391E-15
  -13.7399998      -5.19822637E-15
  -13.7299995      -8.00805362E-15
  -13.7200003      -9.26796176E-15
  -13.7100000      -8.43693689E-15
  -13.6999998      -5.43548411E-15
  -13.6899996      -7.23456399E-16
  -13.6800003       4.75662448E-15
  -13.6700001       9.77056316E-15
  -13.6599998       1.30797735E-14
  -13.6499996       1.37556990E-14
  -13.6400003       1.14376646E-14
  -13.6300001       6.45873295E-15
  -13.6199999      -2.04547551E-16
  -13.6099997      -7.15538113E-15
  -13.6000004      -1.29189906E-14
  -13.5900002      -1.63112355E-14
  -13.5799999      -1.67272558E-14
  -13.5699997      -1.42623425E-14
  -13.5600004      -9.62552910E-15
  -13.5500002      -3.87157711E-15
  -13.5400000       1.95995949E-15
  -13.5299997       7.17130365E-15
  -13.5200005       1.15729163E-14
  -13.5100002       1.54113308E-14
  -13.5000000       1.90627306E-14
  -13.4899998       2.25916952E-14
  -13.4799995       2.53497361E-14
  -13.4700003       2.58127785E-14
  -13.4600000       2.18116083E-14
  -13.4499998       1.11957139E-14
  -13.4399996      -7.18595054E-15
  -13.4300003      -3.24586718E-14
  -13.4200001      -6.10206669E-14
  -13.4099998      -8.65335161E-14
  -13.3999996      -1.00841183E-13
  -13.3900003      -9.58124097E-14
  -13.3800001      -6.57986781E-14
  -13.3699999      -1.01202014E-14
  -13.3599997       6.51713452E-14
  -13.3500004       1.46975991E-13
  -13.3400002       2.16743249E-13
  -13.3299999       2.54002684E-13
  -13.3199997       2.41292717E-13
  -13.3100004       1.69438357E-13
  -13.3000002       4.18115893E-14
  -13.2900000      -1.23786154E-13
  -13.2799997      -2.96593208E-13
  -13.2700005      -4.37956285E-13
  -13.2600002      -5.09327877E-13
  -13.2500000      -4.81636215E-13
  -13.2399998      -3.43858216E-13
  -13.2299995      -1.08509013E-13
  -13.2200003       1.87776295E-13
  -13.2100000       4.89383111E-13
  -13.1999998       7.32044037E-13
  -13.1899996       8.56444418E-13
  -13.1800003       8.22161295E-13
  -13.1700001       6.18612529E-13
  -13.1599998       2.70117777E-13
  -13.1499996      -1.66605485E-13
  -13.1400003      -6.12456592E-13
  -13.1300001      -9.81558801E-13
  -13.1199999      -1.19906450E-12
  -13.1099997      -1.21706031E-12
  -13.1000004      -1.02479657E-12
  -13.0900002      -6.50778476E-13
  -13.0799999      -1.56248725E-13
  -13.0699997       3.78224958E-13
  -13.0600004       8.69593080E-13
  -13.0500002       1.24828099E-12
  -13.0400000       1.46928671E-12
  -13.0299997       1.51591218E-12
  -13.0200005       1.39584145E-12
  -13.0100002       1.13160696E-12
  -13.0000000       7.49242302E-13
  -12.9899998       2.69549465E-13
  -12.9799995      -2.94393253E-13
  -12.9700003      -9.31893126E-13
  -12.9600000      -1.62267248E-12
  -12.9499998      -2.32218845E-12
  -12.9399996      -2.94995777E-12
  -12.9300003      -3.38685351E-12
  -12.9200001      -3.48573037E-12
  -12.9099998      -3.09652824E-12
  -12.8999996      -2.10293285E-12
  -12.8900003      -4.63701451E-13
  -12.8800001       1.75093750E-12
  -12.8699999       4.33805032E-12
  -12.8599997       6.96434577E-12
  -12.8500004       9.19637977E-12
  -12.8400002       1.05573900E-11
  -12.8299999       1.06036664E-11
  -12.8199997       9.00855432E-12
  -12.8100004       5.63953094E-12
  -12.8000002       6.14019252E-13
  -12.7900000      -5.67750317E-12
  -12.7799997      -1.25873504E-11
  -12.7700005      -1.92653879E-11
  -12.7600002      -2.47466058E-11
  -12.7500000      -2.80607343E-11
  -12.7399998      -2.83506482E-11
  -12.7299995      -2.49862353E-11
  -12.7200003      -1.76622848E-11
  -12.7100000      -6.47211841E-12
  -12.6999998       8.04799803E-12
  -12.6899996       2.49064450E-11
  -12.6800003       4.26773408E-11
  -12.6700001       5.95571717E-11
  -12.6599998       7.34599326E-11
  -12.6499996       8.21545748E-11
  -12.6400003       8.34470201E-11
  -12.6300001       7.54065352E-11
  -12.6199999       5.66281154E-11
  -12.6099997       2.65147331E-11
  -12.6000004      -1.44477711E-11
  -12.5900002      -6.44594031E-11
  -12.5799999      -1.20259913E-10
  -12.5699997      -1.77109924E-10
  -12.5600004      -2.28934247E-10
  -12.5500002      -2.68648465E-10
  -12.5400000      -2.88670032E-10
  -12.5299997      -2.81594192E-10
  -12.5200005      -2.40992198E-10
  -12.5100002      -1.62273930E-10
  -12.5000000      -4.35444389E-11
  -12.4899998       1.13615520E-10
  -12.4799995       3.03513270E-10
  -12.4700003       5.15908705E-10
  -12.4600000       7.35824512E-10
  -12.4499998       9.43637279E-10
  -12.4399996       1.11547394E-09
  -12.4300003       1.22393129E-09
  -12.4200001       1.23912969E-09
  -12.4099998       1.13009802E-09
  -12.3999996       8.66477112E-10
  -12.3900003       4.20487006E-10
  -12.3800001      -2.30917757E-10
  -12.3699999      -1.10382936E-09
  -12.3599997      -2.20526153E-09
  -12.3500004      -3.53131013E-09
  -12.3400002      -5.06577713E-09
  -12.3299999      -6.77942547E-09
  -12.3199997      -8.63001848E-09
  -12.3100004      -1.05631583E-08
  -12.3000002      -1.25139259E-08
  -12.2900000      -1.44092347E-08
  -12.2799997      -1.61706879E-08
  -12.2700005      -1.77177935E-08
  -12.2600002      -1.89712797E-08
  -12.2500000      -1.98563317E-08
  -12.2399998      -2.03056025E-08
  -12.2299995      -2.02618171E-08
  -12.2200003      -1.96799341E-08
  -12.2100000      -1.85287767E-08
  -12.1999998      -1.67921055E-08
  -12.1899996      -1.44690553E-08
  -12.1800003      -1.15739551E-08
  -12.1700001      -8.13552337E-09
  -12.1599998      -4.19541379E-09
  -12.1499996       1.93804917E-10
  -12.1400003       4.97102537E-09
  -12.1300001       1.00692263E-08
  -12.1199999       1.54180029E-08
  -12.1099997       2.09458797E-08
  -12.1000004       2.65820628E-08
  -12.0900002       3.22575637E-08
  -12.0799999       3.79056360E-08
  -12.0699997       4.34615757E-08
  -12.0600004       4.88620628E-08
  -12.0500002       5.40442393E-08
  -12.0400000       5.89447673E-08
  -12.0299997       6.34991437E-08
  -12.0200005       6.76412810E-08
  -12.0100002       7.13035391E-08
  -12.0000000       7.44172226E-08
  -11.9899998       7.69133166E-08
  -11.9799995       7.87234740E-08
  -11.9700003       7.97813868E-08
  -11.9600000       8.00240301E-08
  -11.9499998       7.93931250E-08
  -11.9399996       7.78368801E-08
  -11.9300003       7.53115046E-08
  -11.9200001       7.17830986E-08
  -11.9099998       6.72293865E-08
  -11.8999996       6.16411242E-08
  -11.8900003       5.50234027E-08
  -11.8800001       4.73962736E-08
  -11.8699999       3.87947452E-08
  -11.8599997       2.92680831E-08
  -11.8500004       1.88781968E-08
  -11.8400002       7.69778730E-09
  -11.8299999      -4.19208224E-09
  -11.8199997      -1.67043321E-08
  -11.8100004      -2.97480032E-08
  -11.8000002      -4.32299494E-08
  -11.7900000      -5.70557823E-08
  -11.7799997      -7.11300245E-08
  -11.7700005      -8.53557864E-08
  -11.7600002      -9.96339509E-08
  -11.7500000      -1.13861709E-07
  -11.7399998      -1.27931557E-07
  -11.7299995      -1.41730325E-07
  -11.7200003      -1.55138451E-07
  -11.7100000      -1.68030397E-07
  -11.6999998      -1.80275464E-07
  -11.6899996      -1.91739090E-07
  -11.6800003      -2.02285193E-07
  -11.6700001      -2.11778527E-07
  -11.6599998      -2.20087458E-07
  -11.6499996      -2.27086403E-07
  -11.6400003      -2.32658209E-07
  -11.6300001      -2.36696067E-07
  -11.6199999      -2.39104793E-07
  -11.6099997      -2.39801381E-07
  -11.6000004      -2.38715671E-07
  -11.5900002      -2.35789628E-07
  -11.5799999      -2.30977179E-07
  -11.5699997      -2.24243308E-07
  -11.5600004      -2.15563375E-07
  -11.5500002      -2.04922230E-07
  -11.5400000      -1.92313749E-07
  -11.5299997      -1.77740191E-07
  -11.5200005      -1.61211872E-07
  -11.5100002      -1.42747695E-07
  -11.5000000      -1.22374445E-07
  -11.4899998      -1.00128396E-07
  -11.4799995      -7.60552723E-08
  -11.4700003      -5.02110282E-08
  -11.4600000      -2.26629506E-08
  -11.4499998       6.51059029E-09
  -11.4399996       3.72203495E-08
  -11.4300003       6.93667914E-08
  -11.4200001       1.02841717E-07
  -11.4099998       1.37530037E-07
  -11.3999996       1.73311975E-07
  -11.3900003       2.10065210E-07
  -11.3800001       2.47666605E-07
  -11.3699999       2.85993252E-07
  -11.3599997       3.24923462E-07
  -11.3500004       3.64336472E-07
  -11.3400002       4.04111745E-07
  -11.3299999       4.44129341E-07
  -11.3199997       4.84268242E-07
  -11.3100004       5.24407653E-07
  -11.3000002       5.64426273E-07
  -11.2900000       6.04203990E-07
  -11.2799997       6.43622798E-07
  -11.2700005       6.82568384E-07
  -11.2600002       7.20931439E-07
  -11.2500000       7.58608394E-07
  -11.2399998       7.95502501E-07
  -11.2299995       8.31523380E-07
  -11.2200003       8.66587584E-07
  -11.2100000       9.00617636E-07
  -11.1999998       9.33542083E-07
  -11.1899996       9.65295271E-07
  -11.1800003       9.95818368E-07
  -11.1700001       1.02505783E-06
  -11.1599998       1.05296579E-06
  -11.1499996       1.07950063E-06
  -11.1400003       1.10462656E-06
  -11.1300001       1.12831447E-06
  -11.1199999       1.15054104E-06
  -11.1099997       1.17128923E-06
  -11.1000004       1.19054823E-06
  -11.0900002       1.20831521E-06
  -11.0799999       1.22459448E-06
  -11.0699997       1.23940140E-06
  -11.0600004       1.25276028E-06
  -11.0500002       1.26470138E-06
  -11.0400000       1.27526312E-06
  -11.0299997       1.28448585E-06
  -11.0200005       1.29241107E-06
  -11.0100002       1.29907608E-06
  -11.0000000       1.30450826E-06
  -10.9899998       1.30872695E-06
  -10.9799995       1.31173863E-06
  -10.9700003       1.31353863E-06
  -10.9600000       1.31411207E-06
  -10.9499998       1.31344086E-06
  -10.9399996       1.31150512E-06
  -10.9300003       1.30828937E-06
  -10.9200001       1.30378100E-06
  -10.9099998       1.29798070E-06
  -10.8999996       1.29089472E-06
  -10.8900003       1.28254044E-06
  -10.8800001       1.27294254E-06
  -10.8699999       1.26212501E-06
  -10.8599997       1.25011445E-06
  -10.8500004       1.23693212E-06
  -10.8400002       1.22259132E-06
  -10.8299999       1.20709319E-06
  -10.8199997       1.19042681E-06
  -10.8100004       1.17256616E-06
  -10.8000002       1.15347154E-06
  -10.7900000       1.13309329E-06
  -10.7799997       1.11137035E-06
  -10.7700005       1.08824213E-06
  -10.7600002       1.06364882E-06
  -10.7500000       1.03753575E-06
  -10.7399998       1.00986267E-06
  -10.7299995       9.80600817E-07
  -10.7200003       9.49736602E-07
  -10.7100000       9.17269915E-07
  -10.6999998       8.83212181E-07
  -10.6899996       8.47585056E-07
  -10.6800003       8.10413042E-07
  -10.6700001       7.71722000E-07
  -10.6599998       7.31532793E-07
  -10.6499996       6.89866738E-07
  -10.6400003       6.46743729E-07
  -10.6300001       6.02176669E-07
  -10.6199999       5.56188468E-07
  -10.6099997       5.08801975E-07
  -10.6000004       4.60056413E-07
  -10.5900002       4.10000752E-07
  -10.5799999       3.58699339E-07
  -10.5699997       3.06234568E-07
  -10.5600004       2.52706826E-07
  -10.5500002       1.98234190E-07
  -10.5400000       1.42945979E-07
  -10.5299997       8.69751133E-08
  -10.5200005       3.04690602E-08
  -10.5100002      -2.64365987E-08
  -10.5000000      -8.36076168E-08
  -10.4899998      -1.40919042E-07
  -10.4799995      -1.98255307E-07
  -10.4700003      -2.55509605E-07
  -10.4600000      -3.12578891E-07
  -10.4499998      -3.69361373E-07
  -10.4399996      -4.25751637E-07
  -10.4300003      -4.81637983E-07
  -10.4200001      -5.36894504E-07
  -10.4099998      -5.91387675E-07
  -10.3999996      -6.44973682E-07
  -10.3900003      -6.97501889E-07
  -10.3800001      -7.48820128E-07
  -10.3699999      -7.98769179E-07
  -10.3599997      -8.47197953E-07
  -10.3500004      -8.93959452E-07
  -10.3400002      -9.38914638E-07
  -10.3299999      -9.81931635E-07
  -10.3199997      -1.02289107E-06
  -10.3100004      -1.06169011E-06
  -10.3000002      -1.09823645E-06
  -10.2900000      -1.13246108E-06
  -10.2799997      -1.16430874E-06
  -10.2700005      -1.19374170E-06
  -10.2600002      -1.22074368E-06
  -10.2500000      -1.24531277E-06
  -10.2399998      -1.26746397E-06
  -10.2299995      -1.28722786E-06
  -10.2200003      -1.30465321E-06
  -10.2100000      -1.31980789E-06
  -10.1999998      -1.33278354E-06
  -10.1899996      -1.34368963E-06
  -10.1800003      -1.35265998E-06
  -10.1700001      -1.35985010E-06
  -10.1599998      -1.36543179E-06
  -10.1499996      -1.36958636E-06
  -10.1400003      -1.37250117E-06
  -10.1300001      -1.37436086E-06
  -10.1199999      -1.37534312E-06
  -10.1099997      -1.37561256E-06
  -10.1000004      -1.37532231E-06
  -10.0900002      -1.37461166E-06
  -10.0799999      -1.37360701E-06
  -10.0699997      -1.37242444E-06
  -10.0600004      -1.37117127E-06
  -10.0500002      -1.36994697E-06
  -10.0400000      -1.36884387E-06
  -10.0299997      -1.36794961E-06
  -10.0200005      -1.36734729E-06
  -10.0100002      -1.36711651E-06
  -10.0000000      -1.36733536E-06
  -9.98999977      -1.36808126E-06
  -9.97999954      -1.36943129E-06
  -9.97000027      -1.37146253E-06
  -9.96000004      -1.37424979E-06
  -9.94999981      -1.37786503E-06
  -9.93999958      -1.38237522E-06
  -9.93000031      -1.38784048E-06
  -9.92000008      -1.39431290E-06
  -9.90999985      -1.40183784E-06
  -9.89999962      -1.41045439E-06
  -9.89000034      -1.42019712E-06
  -9.88000011      -1.43109799E-06
  -9.86999989      -1.44318903E-06
  -9.85999966      -1.45650392E-06
  -9.85000038      -1.47107778E-06
  -9.84000015      -1.48695142E-06
  -9.82999992      -1.50417111E-06
  -9.81999969      -1.52279119E-06
  -9.81000042      -1.54287602E-06
  -9.80000019      -1.56450130E-06
  -9.78999996      -1.58775617E-06
  -9.77999973      -1.61274386E-06
  -9.77000046      -1.63957873E-06
  -9.76000023      -1.66838720E-06
  -9.75000000      -1.69930149E-06
  -9.73999977      -1.73245883E-06
  -9.72999954      -1.76799779E-06
  -9.72000027      -1.80605321E-06
  -9.71000004      -1.84675002E-06
  -9.69999981      -1.89020216E-06
  -9.68999958      -1.93650749E-06
  -9.68000031      -1.98573844E-06
  -9.67000008      -2.03793911E-06
  -9.65999985      -2.09311452E-06
  -9.64999962      -2.15122509E-06
  -9.64000034      -2.21217397E-06
  -9.63000011      -2.27580995E-06
  -9.61999989      -2.34191225E-06
  -9.60999966      -2.41020030E-06
  -9.60000038      -2.48032279E-06
  -9.59000015      -2.55186342E-06
  -9.57999992      -2.62434310E-06
  -9.56999969      -2.69722864E-06
  -9.56000042      -2.76993092E-06
  -9.55000019      -2.84181510E-06
  -9.53999996      -2.91220863E-06
  -9.52999973      -2.98041846E-06
  -9.52000046      -3.04572427E-06
  -9.51000023      -3.10740938E-06
  -9.50000000      -3.16476212E-06
  -9.48999977      -3.21710218E-06
  -9.47999954      -3.26378199E-06
  -9.47000027      -3.30421221E-06
  -9.46000004      -3.33786761E-06
  -9.44999981      -3.36430912E-06
  -9.43999958      -3.38318864E-06
  -9.43000031      -3.39427152E-06
  -9.42000008      -3.39743679E-06
  -9.40999985      -3.39269718E-06
  -9.39999962      -3.38020777E-06
  -9.39000034      -3.36026892E-06
  -9.38000011      -3.33332537E-06
  -9.36999989      -3.29998420E-06
  -9.35999966      -3.26100349E-06
  -9.35000038      -3.21727657E-06
  -9.34000015      -3.16984688E-06
  -9.32999992      -3.11987287E-06
  -9.31999969      -3.06862853E-06
  -9.31000042      -3.01747855E-06
  -9.30000019      -2.96786743E-06
  -9.28999996      -2.92128948E-06
  -9.27999973      -2.87927605E-06
  -9.27000046      -2.84337398E-06
  -9.26000023      -2.81511893E-06
  -9.25000000      -2.79601750E-06
  -9.23999977      -2.78752282E-06
  -9.22999954      -2.79101755E-06
  -9.22000027      -2.80779614E-06
  -9.21000004      -2.83903614E-06
  -9.19999981      -2.88578826E-06
  -9.18999958      -2.94896108E-06
  -9.18000031      -3.02931653E-06
  -9.17000008      -3.12746306E-06
  -9.15999985      -3.24383473E-06
  -9.14999962      -3.37869915E-06
  -9.14000034      -3.53214705E-06
  -9.13000011      -3.70408247E-06
  -9.11999989      -3.89422394E-06
  -9.10999966      -4.10209395E-06
  -9.10000038      -4.32702427E-06
  -9.09000015      -4.56815496E-06
  -9.07999992      -4.82443465E-06
  -9.06999969      -5.09465826E-06
  -9.06000042      -5.37743517E-06
  -9.05000019      -5.67125744E-06
  -9.03999996      -5.97448434E-06
  -9.02999973      -6.28536873E-06
  -9.02000046      -6.60206842E-06
  -9.01000023      -6.92265985E-06
  -9.00000000      -7.24516804E-06
  -8.98999977      -7.56756162E-06
  -8.97999954      -7.88778652E-06
  -8.97000027      -8.20377954E-06
  -8.96000004      -8.51347249E-06
  -8.94999981      -8.81482629E-06
  -8.93999958      -9.10584731E-06
  -8.93000031      -9.38458743E-06
  -8.92000008      -9.64918218E-06
  -8.90999985      -9.89781347E-06
  -8.89999962      -1.01287596E-05
  -8.89000034      -1.03403972E-05
  -8.88000011      -1.05311992E-05
  -8.86999989      -1.06997804E-05
  -8.85999966      -1.08448239E-05
  -8.85000038      -1.09651864E-05
  -8.84000015      -1.10598439E-05
  -8.82999992      -1.11278887E-05
  -8.81999969      -1.11685649E-05
  -8.81000042      -1.11812324E-05
  -8.80000019      -1.11653781E-05
  -8.78999996      -1.11206336E-05
  -8.77999973      -1.10467490E-05
  -8.77000046      -1.09436432E-05
  -8.76000023      -1.08113909E-05
  -8.75000000      -1.06501911E-05
  -8.73999977      -1.04604233E-05
  -8.72999954      -1.02426084E-05
  -8.72000027      -9.99740769E-06
  -8.71000004      -9.72560247E-06
  -8.69999981      -9.42809675E-06
  -8.68999958      -9.10590370E-06
  -8.68000031      -8.76012928E-06
  -8.67000008      -8.39197037E-06
  -8.65999985      -8.00270936E-06
  -8.64999962      -7.59370641E-06
  -8.64000034      -7.16635031E-06
  -8.63000011      -6.72210126E-06
  -8.61999989      -6.26243127E-06
  -8.60999966      -5.78881009E-06
  -8.60000038      -5.30269381E-06
  -8.59000015      -4.80548806E-06
  -8.57999992      -4.29858710E-06
  -8.56999969      -3.78333175E-06
  -8.56000042      -3.26095983E-06
  -8.55000019      -2.73268233E-06
  -8.53999996      -2.19959975E-06
  -8.52999973      -1.66273674E-06
  -8.52000046      -1.12301052E-06
  -8.51000023      -5.81244990E-07
  -8.50000000      -3.81743206E-08
  -8.48999977       5.05570767E-07
  -8.47999954       1.04945525E-06
  -8.47000027       1.59297508E-06
  -8.46000004       2.13570479E-06
  -8.44999981       2.67724749E-06
  -8.43999958       3.21722314E-06
  -8.43000031       3.75527338E-06
  -8.42000008       4.29104239E-06
  -8.40999985       4.82413907E-06
  -8.39999962       5.35417894E-06
  -8.39000034       5.88072589E-06
  -8.38000011       6.40330018E-06
  -8.36999989       6.92138428E-06
  -8.35999966       7.43436976E-06
  -8.35000038       7.94162315E-06
  -8.34000015       8.44244278E-06
  -8.32999992       8.93606830E-06
  -8.31999969       9.42171482E-06
  -8.31000042       9.89860291E-06
  -8.30000019       1.03658849E-05
  -8.28999996       1.08227578E-05
  -8.27999973       1.12684083E-05
  -8.27000046       1.17020209E-05
  -8.26000023       1.21228204E-05
  -8.25000000       1.25300094E-05
  -8.23999977       1.29228347E-05
  -8.22999954       1.33005660E-05
  -8.22000027       1.36624676E-05
  -8.21000004       1.40078337E-05
  -8.19999981       1.43359530E-05
  -8.18999958       1.46461225E-05
  -8.18000031       1.49376247E-05
  -8.17000008       1.52097346E-05
  -8.15999985       1.54617119E-05
  -8.14999962       1.56928018E-05
  -8.14000034       1.59022366E-05
  -8.13000011       1.60892396E-05
  -8.11999989       1.62530250E-05
  -8.10999966       1.63928125E-05
  -8.10000038       1.65078309E-05
  -8.09000015       1.65973088E-05
  -8.07999992       1.66605078E-05
  -8.06999969       1.66967111E-05
  -8.06000042       1.67052476E-05
  -8.05000019       1.66855098E-05
  -8.03999996       1.66369591E-05
  -8.02999973       1.65591446E-05
  -8.02000046       1.64517351E-05
  -8.01000023       1.63145032E-05
  -8.00000000       1.61473617E-05
  -7.98999977       1.59503488E-05
  -7.98000002       1.57236518E-05
  -7.96999979       1.54675963E-05
  -7.96000004       1.51826571E-05
  -7.94999981       1.48694598E-05
  -7.94000006       1.45287759E-05
  -7.92999983       1.41615183E-05
  -7.92000008       1.37687439E-05
  -7.90999985       1.33516332E-05
  -7.90000010       1.29114878E-05
  -7.88999987       1.24497201E-05
  -7.88000011       1.19678243E-05
  -7.86999989       1.14673749E-05
  -7.86000013       1.09500097E-05
  -7.84999990       1.04174223E-05
  -7.84000015       9.87134808E-06
  -7.82999992       9.31354316E-06
  -7.82000017       8.74578564E-06
  -7.80999994       8.16985721E-06
  -7.80000019       7.58752640E-06
  -7.78999996       7.00053397E-06
  -7.78000021       6.41057932E-06
  -7.76999998       5.81930362E-06
  -7.76000023       5.22828213E-06
  -7.75000000       4.63901870E-06
  -7.73999977       4.05293576E-06
  -7.73000002       3.47138098E-06
  -7.71999979       2.89562308E-06
  -7.71000004       2.32685397E-06
  -7.69999981       1.76618300E-06
  -7.69000006       1.21463927E-06
  -7.67999983       6.73165061E-07
  -7.67000008       1.42614496E-07
  -7.65999985      -3.76251961E-07
  -7.65000010      -8.82769257E-07
  -7.63999987      -1.37636130E-06
  -7.63000011      -1.85654346E-06
  -7.61999989      -2.32291450E-06
  -7.61000013      -2.77515755E-06
  -7.59999990      -3.21303878E-06
  -7.59000015      -3.63641107E-06
  -7.57999992      -4.04521506E-06
  -7.57000017      -4.43948829E-06
  -7.55999994      -4.81936058E-06
  -7.55000019      -5.18505703E-06
  -7.53999996      -5.53689642E-06
  -7.53000021      -5.87528302E-06
  -7.51999998      -6.20069977E-06
  -7.51000023      -6.51369282E-06
  -7.50000000      -6.81487109E-06
  -7.48999977      -7.10489940E-06
  -7.48000002      -7.38448489E-06
  -7.46999979      -7.65437653E-06
  -7.46000004      -7.91536422E-06
  -7.44999981      -8.16825013E-06
  -7.44000006      -8.41385190E-06