  -16.0000000       0.00000000    
  -15.9899998       0.00000000    
  -15.9799995       0.00000000    
  -15.9700003       0.00000000    
  -15.9600000       0.00000000    
  -15.9499998       0.00000000    
  -15.9399996       0.00000000    
  -15.9300003       0.00000000    
  -15.9200001       0.00000000    
  -15.9099998       0.00000000    
  -15.8999996       0.00000000    
  -15.8900003       0.00000000    
  -15.8800001       0.00000000    
  -15.8699999       0.00000000    
  -15.8599997       0.00000000    
  -15.8500004       0.00000000    
  -15.8400002       0.00000000    
  -15.8299999      -0.00000000    
  -15.8199997      -0.00000000    
  -15.8100004      -7.00649232E-45
  -15.8000002      -3.92363570E-44
  -15.7900000      -2.11596068E-43
  -15.7799997      -1.00052710E-42
  -15.7700005      -4.18567851E-42
  -15.7600002      -1.56805298E-41
  -15.7500000      -5.31582572E-41
  -15.7399998      -1.64213963E-40
  -15.7299995      -4.64791082E-40
  -15.7200003      -1.20994976E-39
  -15.7100000      -2.90356609E-39
  -15.6999998      -6.42732025E-39
  -15.6899996      -1.31063698E-38
  -15.6800003      -2.45200354E-38
  -15.6700001      -4.17333784E-38
  -15.6599998      -6.35582292E-38
  -15.6499996      -8.36334328E-38
  -15.6400003      -8.67894148E-38
  -15.6300001      -4.65171339E-38
  -15.6199999       7.27734033E-38
  -15.6099997       3.03512929E-37
  -15.6000004       6.48209191E-37
  -15.5900002       1.03883919E-36
  -15.5799999       1.29459557E-36
  -15.5699997       1.10672813E-36
  -15.5600004       9.37964116E-38
  -15.5500002      -2.03050327E-36
  -15.5400000      -5.16887768E-36
  -15.5299997      -8.50120399E-36
  -15.5200005      -1.02746371E-35
  -15.5100002      -7.99734926E-36
  -15.5000000       6.98791223E-37
  -15.4899998       1.64699616E-35
  -15.4799995       3.63404452E-35
  -15.4700003       5.24363923E-35
  -15.4600000       5.27873531E-35
  -15.4499998       2.54089332E-35
  -15.4399996      -3.43722096E-35
  -15.4300003      -1.15695219E-34
  -15.4200001      -1.87942319E-34
  -15.4099998      -2.06488853E-34
  -15.3999996      -1.31878275E-34
  -15.3900003       4.14083841E-35
  -15.3800001       2.60831337E-34
  -15.3699999       4.18464372E-34
  -15.3599997       3.99236361E-34
  -15.3500004       1.71442729E-34
  -15.3400002      -1.23197375E-34
  -15.3299999      -1.62002832E-34
  -15.3199997       3.96419628E-34
  -15.3100004       1.55967841E-33
  -15.3000002       2.59032615E-33
  -15.2900000       1.85766440E-33
  -15.2799997      -2.62208635E-33
  -15.2700005      -1.16907233E-32
  -15.2600002      -2.28804568E-32
  -15.2500000      -2.87245769E-32
  -15.2399998      -1.74846468E-32
  -15.2299995       2.17802896E-32
  -15.2200003       8.94525575E-32
  -15.2100000       1.63932467E-31
  -15.1999998       1.95821748E-31
  -15.1899996       1.17607211E-31
  -15.1800003      -1.23726317E-31
  -15.1700001      -5.14015045E-31
  -15.1599998      -9.19422875E-31
  -15.1499996      -1.07229770E-30
  -15.1400003      -6.39361675E-31
  -15.1300001       6.04554676E-31
  -15.1199999       2.52876539E-30
  -15.1099997       4.43459513E-30
  -15.1000004       5.05401257E-30
  -15.0900002       2.93147057E-30
  -15.0799999      -2.76195845E-30
  -15.0699997      -1.11868784E-29
  -15.0600004      -1.90834666E-29
  -15.0500002      -2.10304945E-29
  -15.0400000      -1.13138567E-29
  -15.0299997       1.26105853E-29
  -15.0200005       4.61340689E-29
  -15.0100002       7.51975555E-29
  -15.0000000       7.83967659E-29
  -14.9899998       3.53162529E-29
  -14.9799995      -5.97944312E-29
  -14.9700003      -1.83957726E-28
  -14.9600000      -2.79724713E-28
  -14.9499998      -2.67259854E-28
  -14.9399996      -7.90578534E-29
  -14.9300003       2.88908582E-28
  -14.9200001       7.30468443E-28
  -14.9099998       1.01935225E-27
  -14.8999996       8.67600144E-28
  -14.8900003       6.26134871E-29
  -14.8800001      -1.34858256E-27
  -14.8699999      -2.90958460E-27
  -14.8599997      -3.75466206E-27
  -14.8500004      -2.85928605E-27
  -14.8400002       4.43382392E-28
  -14.8299999       5.81477924E-27
  -14.8199997       1.14336514E-26
  -14.8100004       1.40857709E-26
  -14.8000002       1.01385944E-26
  -14.7900000      -2.59657496E-27
  -14.7799997      -2.26283241E-26
  -14.7700005      -4.32302216E-26
  -14.7600002      -5.28948493E-26
  -14.7500000      -3.88070138E-26
  -14.7399998       6.73826419E-27
  -14.7299995       7.87491677E-26
  -14.7200003       1.54292725E-25
  -14.7100000       1.93928561E-25
  -14.6999998       1.53084350E-25
  -14.6899996       3.14872290E-27
  -14.6800003      -2.43338198E-25
  -14.6700001      -5.14504647E-25
  -14.6599998      -6.81774566E-25
  -14.6499996      -5.94001415E-25
  -14.6400003      -1.43311609E-25
  -14.6300001       6.53567809E-25
  -14.6199999       1.59182566E-24
  -14.6099997       2.27554186E-24
  -14.6000004       2.21024035E-24
  -14.5900002       9.96801287E-25
  -14.5799999      -1.41539889E-24
  -14.5699997      -4.51033116E-24
  -14.5600004      -7.14889418E-24
  -14.5500002      -7.78780762E-24
  -14.5400000      -5.01187669E-24
  -14.5299997       1.71473354E-24
  -14.5200005       1.13261115E-23
  -14.5100002       2.08204090E-23
  -14.5000000       2.56686850E-23
  -14.4899998       2.11476096E-23
  -14.4799995       4.43383334E-24
  -14.4700003      -2.31340671E-23
  -14.4600000      -5.45827565E-23
  -14.4499998      -7.76720147E-23
  -14.4399996      -7.78162626E-23
  -14.4300003      -4.34559207E-23
  -14.4200001       2.73655028E-23
  -14.4099998       1.21564715E-22
  -14.3999996       2.09626735E-22
  -14.3900003       2.50694896E-22
  -14.3800001       2.04853281E-22
  -14.3699999       5.05346126E-23
  -14.3599997      -1.98088653E-22
  -14.3500004      -4.81059244E-22
  -14.3400002      -6.97281450E-22
  -14.3299999      -7.28157995E-22
  -14.3199997      -4.78448557E-22
  -14.3100004       7.51844585E-23
  -14.3000002       8.44441445E-22
  -14.2900000       1.61797467E-21
  -14.2799997       2.09415171E-21
  -14.2700005       1.96247732E-21
  -14.2600002       1.02072209E-21
  -14.2500000      -7.04030312E-22
  -14.2399998      -2.87561969E-21
  -14.2299995      -4.85633981E-21
  -14.2200003      -5.83126587E-21
  -14.2100000      -5.04531383E-21
  -14.1999998      -2.10521485E-21
  -14.1899996       2.74237151E-21
  -14.1800003       8.46724209E-21
  -14.1700001       1.33457110E-20
  -14.1599998       1.53319639E-20
  -14.1499996       1.26726663E-20
  -14.1400003       4.62721038E-21
  -14.1300001      -7.92605432E-21
  -14.1199999      -2.22474184E-20
  -14.1099997      -3.40585090E-20
  -14.1000004      -3.84981199E-20
  -14.0900002      -3.15819206E-20
  -14.0799999      -1.18257852E-20
  -14.0699997       1.84649089E-20
  -14.0600004       5.27722102E-20
  -14.0500002       8.12066601E-20
  -14.0400000       9.27061250E-20
  -14.0299997       7.82661817E-20
  -14.0200005       3.44481014E-20
  -14.0100002      -3.38879838E-20
  -14.0000000      -1.12714112E-19
  -13.9899998      -1.80618389E-19
  -13.9799995      -2.13398420E-19
  -13.9700003      -1.90778804E-19
  -13.9600000      -1.03726723E-19
  -13.9499998       3.97343930E-20
  -13.9399996       2.12380574E-19
  -13.9300003       3.70893931E-19
  -13.9200001       4.64596176E-19
  -13.9099998       4.48576634E-19
  -13.8999996       2.98372991E-19
  -13.8900003       2.22336310E-20
  -13.8800001      -3.33212675E-19
  -13.8699999      -6.87066091E-19
  -13.8599997      -9.39089154E-19
  -13.8500004      -9.93597151E-19
  -13.8400002      -7.87452213E-19
  -13.8299999      -3.15098686E-19
  -13.8199997       3.57054114E-19
  -13.8100004       1.09315134E-18
  -13.8000002       1.71006667E-18
  -13.7900000       2.01702616E-18
  -13.7799997       1.86521370E-18
  -13.7700005       1.19576185E-18
  -13.7600002       7.28722984E-20
  -13.7500000      -1.30944728E-18
  -13.7399998      -2.65338530E-18
  -13.7299995      -3.61468374E-18
  -13.7200003      -3.88145238E-18
  -13.7100000      -3.25743188E-18
  -13.6999998      -1.72917878E-18
  -13.6899996       5.01929577E-19
  -13.6800003       3.03537483E-18
  -13.6700001       5.33678940E-18
  -13.6599998       6.84275566E-18
  -13.6499996       7.08449258E-18
  -13.6400003       5.80370597E-18
  -13.6300001       3.03403686E-18
  -13.6199999      -8.71978957E-19
  -13.6099997      -5.27914691E-18
  -13.6000004      -9.36459609E-18
  -13.5900002      -1.22553078E-17
  -13.5799999      -1.31845468E-17
  -13.5699997      -1.16415960E-17
  -13.5600004      -7.49215366E-18
  -13.5500002      -1.05250358E-18
  -13.5400000       6.89356027E-18
  -13.5299997       1.51419911E-17
  -13.5200005       2.21849063E-17
  -13.5100002       2.63989399E-17
  -13.5000000       2.63026676E-17
  -13.4899998       2.08677121E-17
  -13.4799995       9.84757857E-18
  -13.4700003      -5.93691183E-18
  -13.4600000      -2.44391157E-17
  -13.4499998      -4.24462868E-17
  -13.4399996      -5.59315509E-17
  -13.4300003      -6.07223031E-17
  -13.4200001      -5.34297398E-17
  -13.4099998      -3.24890670E-17
  -13.3999996       9.26535861E-19
  -13.3900003       4.24010003E-17
  -13.3800001       8.44412836E-17
  -13.3699999       1.17470526E-16
  -13.3599997       1.31623997E-16
  -13.3500004       1.19095943E-16
  -13.3400002       7.65682116E-17
  -13.3299999       7.10813837E-18
  -13.3199997      -7.90863082E-17
  -13.3100004      -1.65557539E-16
  -13.3000002      -2.32217762E-16
  -13.2900000      -2.59449633E-16
  -13.2799997      -2.32949466E-16
  -13.2700005      -1.48243021E-16
  -13.2600002      -1.36821323E-17
  -13.2500000       1.49109576E-16
  -13.2399998       3.07917626E-16
  -13.2299995       4.25639959E-16
  -13.2200003       4.68144151E-16
  -13.2100000       4.12741553E-16
  -13.1999998       2.55352243E-16
  -13.1899996       1.44621942E-17
  -13.1800003      -2.69538960E-16
  -13.1700001      -5.40155134E-16
  -13.1599998      -7.35100031E-16
  -13.1499996      -7.99391420E-16
  -13.1400003      -6.98623140E-16
  -13.1300001      -4.29458224E-16
  -13.1199999      -2.46629524E-17
  -13.1099997       4.49084587E-16
  -13.1000004       9.00986087E-16
  -13.0900002       1.23225792E-15
  -13.0799999       1.35585686E-15
  -13.0699997       1.21600166E-15
  -13.0600004       8.03373005E-16
  -13.0500002       1.62427620E-16
  -13.0400000      -6.11410510E-16
  -13.0299997      -1.38497934E-15
  -13.0200005      -2.00920344E-15
  -13.0100002      -2.34580798E-15
  -13.0000000      -2.29400027E-15
  -12.9899998      -1.81194916E-15
  -12.9799995      -9.28747274E-16
  -12.9700003       2.55666784E-16
  -12.9600000       1.58276968E-15
  -12.9499998       2.85761113E-15
  -12.9399996       3.87667541E-15
  -12.9300003       4.45635723E-15
  -12.9200001       4.45730760E-15
  -12.9099998       3.80140594E-15
  -12.8999996       2.48038098E-15
  -12.8900003       5.57343021E-16
  -12.8800001      -1.83587890E-15
  -12.8699999      -4.50246843E-15
  -12.8599997      -7.18359325E-15
  -12.8500004      -9.56140278E-15
  -12.8400002      -1.12659355E-14
  -12.8299999      -1.18922977E-14
  -12.8199997      -1.10351156E-14
  -12.8100004      -8.34512191E-15
  -12.8000002      -3.60763021E-15
  -12.7900000       3.16459704E-15
  -12.7799997       1.16397387E-14
  -12.7700005       2.10985302E-14
  -12.7600002       3.04139377E-14
  -12.7500000       3.81008125E-14
  -12.7399998       4.24485445E-14
  -12.7299995       4.17354648E-14
  -12.7200003       3.45070042E-14
  -12.7100000       1.98829566E-14
  -12.6999998      -2.15274313E-15
  -12.6899996      -3.05309638E-14
  -12.6800003      -6.29921191E-14
  -12.6700001      -9.61305146E-14
  -12.6599998      -1.25603006E-13
  -12.6499996      -1.46495026E-13
  -12.6400003      -1.53815735E-13
  -12.6300001      -1.43079721E-13
  -12.6199999      -1.10923627E-13
  -12.6099997      -5.57037293E-14
  -12.6000004       2.19759175E-14
  -12.5900002       1.18851516E-13
  -12.5799999       2.28747902E-13
  -12.5699997       3.42530339E-13
  -12.5600004       4.48305672E-13
  -12.5500002       5.31918259E-13
  -12.5400000       5.77781204E-13
  -12.5299997       5.70065046E-13
  -12.5200005       4.94240391E-13
  -12.5100002       3.38920271E-13
  -12.5000000       9.79017621E-14
  -12.4899998      -2.27749839E-13
  -12.4799995      -6.27780271E-13
  -12.4700003      -1.08121129E-12
  -12.4600000      -1.55542148E-12
  -12.4499998      -2.00602989E-12
  -12.4399996      -2.37772085E-12
  -12.4300003      -2.60606510E-12
  -12.4200001      -2.62029309E-12
  -12.4099998      -2.34692040E-12
  -12.3999996      -1.71402779E-12
  -12.3900003      -6.55965028E-13
  -12.3800001       8.81780272E-13
  -12.3699999       2.93782620E-12
  -12.3599997       5.53050097E-12
  -12.3500004       8.65407312E-12
  -12.3400002       1.22758591E-11
  -12.3299999       1.63343783E-11
  -12.3199997       2.07387926E-11
  -12.3100004       2.53697965E-11
  -12.3000002       3.00819716E-11
  -12.2900000       3.47077124E-11
  -12.2799997       3.90625900E-11
  -12.2700005       4.29520169E-11
  -12.2600002       4.61788940E-11
  -12.2500000       4.85518466E-11
  -12.2399998       4.98936795E-11
  -12.2299995       5.00494091E-11
  -12.2200003       4.88935281E-11
  -12.2100000       4.63359906E-11
  -12.1999998       4.23265277E-11
  -12.1899996       3.68569550E-11
  -12.1800003       2.99613702E-11
  -12.1700001       2.17141895E-11
  -12.1599998       1.22262218E-11
  -12.1499996       1.63885865E-12
  -12.1400003      -9.88300067E-12
  -12.1300001      -2.21586569E-11
  -12.1199999      -3.49996421E-11
  -12.1099997      -4.82170311E-11
  -12.1000004      -6.16278140E-11
  -12.0900002      -7.50593893E-11
  -12.0799999      -8.83522491E-11
  -12.0699997      -1.01360580E-10
  -12.0600004      -1.13950828E-10
  -12.0500002      -1.25998878E-10
  -12.0400000      -1.37386172E-10
  -12.0299997      -1.47995408E-10
  -12.0200005      -1.57706417E-10
  -12.0100002      -1.66393205E-10
  -12.0000000      -1.73921599E-10
  -11.9899998      -1.80149298E-10
  -11.9799995      -1.84926671E-10
  -11.9700003      -1.88099675E-10
  -11.9600000      -1.89513988E-10
  -11.9499998      -1.89019980E-10
  -11.9399996      -1.86478166E-10
  -11.9300003      -1.81765353E-10
  -11.9200001      -1.74779927E-10
  -11.9099998      -1.65446823E-10
  -11.8999996      -1.53721119E-10
  -11.8900003      -1.39591533E-10
  -11.8800001      -1.23081045E-10
  -11.8699999      -1.04247368E-10
  -11.8599997      -8.31818642E-11
  -11.8500004      -6.00073602E-11
  -11.8400002      -3.48750161E-11
  -11.8299999      -7.96095308E-12
  -11.8199997       2.05376081E-11
  -11.8100004       5.04067517E-11
  -11.8000002       8.14198015E-11
  -11.7900000       1.13340975E-10
  -11.7799997       1.45929199E-10
  -11.7700005       1.78941237E-10
  -11.7600002       2.12133450E-10
  -11.7500000       2.45263670E-10
  -11.7399998       2.78091189E-10
  -11.7299995       3.10376252E-10
  -11.7200003       3.41877998E-10
  -11.7100000       3.72352760E-10
  -11.6999998       4.01551320E-10
  -11.6899996       4.29216745E-10
  -11.6800003       4.55083166E-10
  -11.6700001       4.78875606E-10
  -11.6599998       5.00311570E-10
  -11.6499996       5.19103982E-10
  -11.6400003       5.34965683E-10
  -11.6300001       5.47614065E-10
  -11.6199999       5.56778734E-10
  -11.6099997       5.62206448E-10
  -11.6000004       5.63666613E-10
  -11.5900002       5.60957614E-10
  -11.5799999       5.53910418E-10
  -11.5699997       5.42390854E-10
  -11.5600004       5.26303057E-10
  -11.5500002       5.05587794E-10
  -11.5400000       4.80223084E-10
  -11.5299997       4.50220944E-10
  -11.5200005       4.15622925E-10
  -11.5100002       3.76495835E-10
  -11.5000000       3.32925104E-10
  -11.4899998       2.85008517E-10
  -11.4799995       2.32850239E-10
  -11.4700003       1.76556894E-10
  -11.4600000       1.16234807E-10
  -11.4499998       5.19900928E-11
  -11.4399996      -1.60687939E-11
  -11.4300003      -8.78251499E-11
  -11.4200001      -1.63147648E-10
  -11.4099998      -2.41882819E-10
  -11.3999996      -3.23848309E-10
  -11.3900003      -4.08827611E-10
  -11.3800001      -4.96567565E-10
  -11.3699999      -5.86780291E-10
  -11.3599997      -6.79147183E-10
  -11.3500004      -7.73328734E-10
  -11.3400002      -8.68974559E-10
  -11.3299999      -9.65735270E-10
  -11.3199997      -1.06327580E-09
  -11.3100004      -1.16128607E-09
  -11.3000002      -1.25948962E-09
  -11.2900000      -1.35764955E-09
  -11.2799997      -1.45556978E-09
  -11.2700005      -1.55309188E-09
  -11.2600002      -1.65009106E-09
  -11.2500000      -1.74646586E-09
  -11.2399998      -1.84212789E-09
  -11.2299995      -1.93699301E-09
  -11.2200003      -2.03096895E-09
  -11.2100000      -2.12394924E-09
  -11.1999998      -2.21580398E-09
  -11.1899996      -2.30638397E-09
  -11.1800003      -2.39552023E-09
  -11.1700001      -2.48302823E-09
  -11.1599998      -2.56871657E-09
  -11.1499996      -2.65239919E-09
  -11.1400003      -2.73390066E-09
  -11.1300001      -2.81306978E-09
  -11.1199999      -2.88978041E-09
  -11.1099997      -2.96394109E-09
  -11.1000004      -3.03549297E-09
  -11.0900002      -3.10440984E-09
  -11.0799999      -3.17069460E-09
  -11.0699997      -3.23437499E-09
  -11.0600004      -3.29549521E-09
  -11.0500002      -3.35411765E-09
  -11.0400000      -3.41030804E-09
  -11.0299997      -3.46413764E-09
  -11.0200005      -3.51568086E-09
  -11.0100002      -3.56499874E-09
  -11.0000000      -3.61215302E-09
  -10.9899998      -3.65719455E-09
  -10.9799995      -3.70015374E-09
  -10.9700003      -3.74106346E-09
  -10.9600000      -3.77993503E-09
  -10.9499998      -3.81676779E-09
  -10.9399996      -3.85155907E-09
  -10.9300003      -3.88428978E-09
  -10.9200001      -3.91493060E-09
  -10.9099998      -3.94344735E-09
  -10.8999996      -3.96979560E-09
  -10.8900003      -3.99392208E-09
  -10.8800001      -4.01576372E-09
  -10.8699999      -4.03525791E-09
  -10.8599997      -4.05232337E-09
  -10.8500004      -4.06688905E-09
  -10.8400002      -4.07888212E-09
  -10.8299999      -4.08823775E-09
  -10.8199997      -4.09489553E-09
  -10.8100004      -4.09880885E-09
  -10.8000002      -4.09993550E-09
  -10.7900000      -4.09825240E-09
  -10.7799997      -4.09374312E-09
  -10.7700005      -4.08640055E-09
  -10.7600002      -4.07622425E-09
  -10.7500000      -4.06322753E-09
  -10.7399998      -4.04743083E-09
  -10.7299995      -4.02886569E-09
  -10.7200003      -4.00757560E-09
  -10.7100000      -3.98361300E-09
  -10.6999998      -3.95705069E-09
  -10.6899996      -3.92797528E-09
  -10.6800003      -3.89647870E-09
  -10.6700001      -3.86268262E-09
  -10.6599998      -3.82672649E-09
  -10.6499996      -3.78878928E-09
  -10.6400003      -3.74908460E-09
  -10.6300001      -3.70784758E-09
  -10.6199999      -3.66535557E-09
  -10.6099997      -3.62192898E-09
  -10.6000004      -3.57789309E-09
  -10.5900002      -3.53357277E-09
  -10.5799999      -3.48931728E-09
  -10.5699997      -3.44543238E-09
  -10.5600004      -3.40221207E-09
  -10.5500002      -3.35993056E-09
  -10.5400000      -3.31881123E-09
  -10.5299997      -3.27907412E-09
  -10.5200005      -3.24088179E-09
  -10.5100002      -3.20438986E-09
  -10.5000000      -3.16973603E-09
  -10.4899998      -3.13704329E-09
  -10.4799995      -3.10642689E-09
  -10.4700003      -3.07796899E-09
  -10.4600000      -3.05176506E-09
  -10.4499998      -3.02791414E-09
  -10.4399996      -3.00652125E-09
  -10.4300003      -2.98768721E-09
  -10.4200001      -2.97150149E-09
  -10.4099998      -2.95806846E-09
  -10.3999996      -2.94747737E-09
  -10.3900003      -2.93978064E-09
  -10.3800001      -2.93499958E-09
  -10.3699999      -2.93314173E-09
  -10.3599997      -2.93414493E-09
  -10.3500004      -2.93795455E-09
  -10.3400002      -2.94445113E-09
  -10.3299999      -2.95351055E-09
  -10.3199997      -2.96501534E-09
  -10.3100004      -2.97882918E-09
  -10.3000002      -2.99482017E-09
  -10.2900000      -3.01289238E-09
  -10.2799997      -3.03291747E-09
  -10.2700005      -3.05480663E-09
  -10.2600002      -3.07847614E-09
  -10.2500000      -3.10386805E-09
  -10.2399998      -3.13093018E-09
  -10.2299995      -3.15963677E-09
  -10.2200003      -3.18998539E-09
  -10.2100000      -3.22198357E-09
  -10.1999998      -3.25564864E-09
  -10.1899996      -3.29101546E-09
  -10.1800003      -3.32811090E-09
  -10.1700001      -3.36695538E-09
  -10.1599998      -3.40756712E-09
  -10.1499996      -3.44997186E-09
  -10.1400003      -3.49417184E-09
  -10.1300001      -3.54018326E-09
  -10.1199999      -3.58800833E-09
  -10.1099997      -3.63768593E-09
  -10.1000004      -3.68921671E-09
  -10.0900002      -3.74264220E-09
  -10.0799999      -3.79797527E-09
  -10.0699997      -3.85525167E-09
  -10.0600004      -3.91450428E-09
  -10.0500002      -3.97578637E-09
  -10.0400000      -4.03915257E-09
  -10.0299997      -4.10471301E-09
  -10.0200005      -4.17256985E-09
  -10.0100002      -4.24286517E-09
  -10.0000000      -4.31575486E-09
  -9.98999977      -4.39139658E-09
  -9.97999954      -4.46994664E-09
  -9.97000027      -4.55157467E-09
  -9.96000004      -4.63642991E-09
  -9.94999981      -4.72465178E-09
  -9.93999958      -4.81637796E-09
  -9.93000031      -4.91174790E-09
  -9.92000008      -5.01084818E-09
  -9.90999985      -5.11377163E-09
  -9.89999962      -5.22060839E-09
  -9.89000034      -5.33139310E-09
  -9.88000011      -5.44612666E-09
  -9.86999989      -5.56478463E-09
  -9.85999966      -5.68733594E-09
  -9.85000038      -5.81369486E-09
  -9.84000015      -5.94381522E-09
  -9.82999992      -6.07762152E-09
  -9.81999969      -6.21508311E-09
  -9.81000042      -6.35616404E-09
  -9.80000019      -6.50088738E-09
  -9.78999996      -6.64927002E-09
  -9.77999973      -6.80134082E-09
  -9.77000046      -6.95715041E-09
  -9.76000023      -7.11678361E-09
  -9.75000000      -7.28029637E-09
  -9.73999977      -7.44776418E-09
  -9.72999954      -7.61928387E-09
  -9.72000027      -7.79492648E-09
  -9.71000004      -7.97478705E-09
  -9.69999981      -8.15893841E-09
  -9.68999958      -8.34741964E-09
  -9.68000031      -8.54023519E-09
  -9.67000008      -8.73736994E-09
  -9.65999985      -8.93871643E-09
  -9.64999962      -9.14417697E-09
  -9.64000034      -9.35358457E-09
  -9.63000011      -9.56672164E-09
  -9.61999989      -9.78337589E-09
  -9.60999966      -1.00032889E-08
  -9.60000038      -1.02261764E-08
  -9.59000015      -1.04517284E-08
  -9.57999992      -1.06795586E-08
  -9.56999969      -1.09092984E-08
  -9.56000042      -1.11404779E-08
  -9.55000019      -1.13725935E-08
  -9.53999996      -1.16050947E-08
  -9.52999973      -1.18373569E-08
  -9.52000046      -1.20687442E-08
  -9.51000023      -1.22985693E-08
  -9.50000000      -1.25261455E-08
  -9.48999977      -1.27507640E-08
  -9.47999954      -1.29717819E-08
  -9.47000027      -1.31885569E-08
  -9.46000004      -1.34005393E-08
  -9.44999981      -1.36072336E-08
  -9.43999958      -1.38083118E-08
  -9.43000031      -1.40034757E-08
  -9.42000008      -1.41926275E-08
  -9.40999985      -1.43757548E-08
  -9.39999962      -1.45530130E-08
  -9.39000034      -1.47246686E-08
  -9.38000011      -1.48911319E-08
  -9.36999989      -1.50529456E-08
  -9.35999966      -1.52107269E-08
  -9.35000038      -1.53652451E-08
  -9.34000015      -1.55173012E-08
  -9.32999992      -1.56678350E-08
  -9.31999969      -1.58177809E-08
  -9.31000042      -1.59681388E-08
  -9.30000019      -1.61199090E-08
  -9.28999996      -1.62741216E-08
  -9.27999973      -1.64317751E-08
  -9.27000046      -1.65938356E-08
  -9.26000023      -1.67612786E-08
  -9.25000000      -1.69349779E-08
  -9.23999977      -1.71157932E-08
  -9.22999954      -1.73045454E-08
  -9.22000027      -1.75019537E-08
  -9.21000004      -1.77087163E-08
  -9.19999981      -1.79254531E-08
  -9.18999958      -1.81527060E-08
  -9.18000031      -1.83909439E-08
  -9.17000008      -1.86404989E-08
  -9.15999985      -1.89016109E-08
  -9.14999962      -1.91744221E-08
  -9.14000034      -1.94589536E-08
  -9.13000011      -1.97551575E-08
  -9.11999989      -2.00628740E-08
  -9.10999966      -2.03818598E-08
  -9.10000038      -2.07117576E-08
  -9.09000015      -2.10521556E-08
  -9.07999992      -2.14025455E-08
  -9.06999969      -2.17623803E-08
  -9.06000042      -2.21309424E-08
  -9.05000019      -2.25075016E-08
  -9.03999996      -2.28912711E-08
  -9.02999973      -2.32814479E-08
  -9.02000046      -2.36770710E-08
  -9.01000023      -2.40771989E-08
  -9.00000000      -2.44809364E-08
  -8.98999977      -2.48872460E-08
  -8.97999954      -2.52952290E-08
  -8.97000027      -2.57038320E-08
  -8.96000004      -2.61120228E-08
  -8.94999981      -2.65188618E-08
  -8.93999958      -2.69233045E-08
  -8.93000031      -2.73243828E-08
  -8.92000008      -2.77212386E-08
  -8.90999985      -2.81129218E-08
  -8.89999962      -2.84986150E-08
  -8.89000034      -2.88775919E-08
  -8.88000011      -2.92492466E-08
  -8.86999989      -2.96129166E-08
  -8.85999966      -2.99681595E-08
  -8.85000038      -3.03146201E-08
  -8.84000015      -3.06518935E-08
  -8.82999992      -3.09799013E-08
  -8.81999969      -3.12984341E-08
  -8.81000042      -3.16075628E-08
  -8.80000019      -3.19074722E-08
  -8.78999996      -3.21983471E-08
  -8.77999973      -3.24804752E-08
  -8.77000046      -3.27543042E-08
  -8.76000023      -3.30203456E-08
  -8.75000000      -3.32790897E-08
  -8.73999977      -3.35311867E-08
  -8.72999954      -3.37772228E-08
  -8.72000027      -3.40179369E-08
  -8.71000004      -3.42540218E-08
  -8.69999981      -3.44862379E-08
  -8.68999958      -3.47152991E-08
  -8.68000031      -3.49419729E-08
  -8.67000008      -3.51669840E-08
  -8.65999985      -3.53910643E-08
  -8.64999962      -3.56150238E-08
  -8.64000034      -3.58395589E-08
  -8.63000011      -3.60652592E-08
  -8.61999989      -3.62928816E-08
  -8.60999966      -3.65230797E-08
  -8.60000038      -3.67563899E-08
  -8.59000015      -3.69934519E-08
  -8.57999992      -3.72347984E-08
  -8.56999969      -3.74808806E-08
  -8.56000042      -3.77321179E-08
  -8.55000019      -3.79887091E-08
  -8.53999996      -3.82511338E-08
  -8.52999973      -3.85193708E-08
  -8.52000046      -3.87936936E-08
  -8.51000023      -3.90741164E-08
  -8.50000000      -3.93606250E-08
  -8.48999977      -3.96532016E-08
  -8.47999954      -3.99516793E-08
  -8.47000027      -4.02558555E-08
  -8.46000004      -4.05657019E-08
  -8.44999981      -4.08808098E-08
  -8.43999958      -4.12010692E-08
  -8.43000031      -4.15262740E-08
  -8.42000008      -4.18561470E-08
  -8.40999985      -4.21905995E-08
  -8.39999962      -4.25295035E-08
  -8.39000034      -4.28728271E-08
  -8.38000011      -4.32205134E-08
  -8.36999989      -4.35726797E-08
  -8.35999966      -4.39292549E-08
  -8.35000038      -4.42905197E-08
  -8.34000015      -4.46564172E-08
  -8.32999992      -4.50272459E-08
  -8.31999969      -4.54030022E-08
  -8.31000042      -4.57841480E-08
  -8.30000019      -4.61706939E-08
  -8.28999996      -4.65629419E-08
  -8.27999973      -4.69612331E-08
  -8.27000046      -4.73657380E-08
  -8.26000023      -4.77769007E-08
  -8.25000000      -4.81948739E-08
  -8.23999977      -4.86201337E-08
  -8.22999954      -4.90528578E-08
  -8.22000027      -4.94936110E-08
  -8.21000004      -4.99426918E-08
  -8.19999981      -5.04005655E-08
  -8.18999958      -5.08674312E-08
  -8.18000031      -5.13437008E-08
  -8.17000008      -5.18297334E-08
  -8.15999985      -5.23258947E-08
  -8.14999962      -5.28325295E-08
  -8.14000034      -5.33498472E-08
  -8.13000011      -5.38781357E-08
  -8.11999989      -5.44175762E-08
  -8.10999966      -5.49684636E-08
  -8.10000038      -5.55308866E-08
  -8.09000015      -5.61048843E-08
  -8.07999992      -5.66904639E-08
  -8.06999969      -5.72877212E-08
  -8.06000042      -5.78961874E-08
  -8.05000019      -5.85158944E-08
  -8.03999996      -5.91464087E-08
  -8.02999973      -5.97873466E-08
  -8.02000046      -6.04381398E-08
  -8.01000023      -6.10982198E-08
  -8.00000000      -6.17669471E-08
  -7.98999977      -6.24435543E-08
  -7.98000002      -6.31269970E-08
  -7.96999979      -6.38166426E-08
  -7.96000004      -6.45116529E-08
  -7.94999981      -6.52110259E-08
  -7.94000006      -6.59136532E-08
  -7.92999983      -6.66188384E-08
  -7.92000008      -6.73257361E-08
  -7.90999985      -6.80331382E-08
  -7.90000010      -6.87404338E-08
  -7.88999987      -6.94468412E-08
  -7.88000011      -7.01515503E-08
  -7.86999989      -7.08539645E-08
  -7.86000013      -7.15533020E-08
  -7.84999990      -7.22490867E-08
  -7.84000015      -7.29408924E-08
  -7.82999992      -7.36283141E-08
  -7.82000017      -7.43112096E-08
  -7.80999994      -7.49891242E-08
  -7.80000019      -7.56621716E-08
  -7.78999996      -7.63300676E-08
  -7.78000021      -7.69927979E-08
  -7.76999998      -7.76507108E-08
  -7.76000023      -7.83036711E-08
  -7.75000000      -7.89518424E-08
  -7.73999977      -7.95955515E-08
  -7.73000002      -8.02350613E-08
  -7.71999979      -8.08708904E-08
  -7.71000004      -8.15036856E-08
  -7.69999981      -8.21337167E-08
  -7.69000006      -8.27620212E-08
  -7.67999983      -8.33890397E-08
  -7.67000008      -8.40157455E-08
  -7.65999985      -8.46430126E-08
  -7.65000010      -8.52716795E-08
  -7.63999987      -8.59030038E-08
  -7.63000011      -8.65378169E-08
  -7.61999989      -8.71771633E-08
  -7.61000013      -8.78224924E-08
  -7.59999990      -8.84747351E-08
  -7.59000015      -8.91353835E-08
  -7.57999992      -8.98054466E-08
  -7.57000017      -9.04860897E-08
  -7.55999994      -9.11788547E-08
  -7.55000019      -9.18849423E-08
  -7.53999996      -9.26054753E-08
  -7.53000021      -9.33415549E-08
  -7.51999998      -9.40946876E-08
  -7.51000023      -9.48658325E-08
  -7.50000000      -9.56562332E-08
  -7.48999977      -9.64671329E-08
  -7.48000002      -9.72994201E-08
  -7.46999979      -9.81541675E-08
  -7.46000004      -9.90323841E-08
  -7.44999981      -9.99350291E-08
  -7.44000006      -1.00862792E-07