  -16.0000000       0.00000000    
  -15.9899998       0.00000000    
  -15.9799995       0.00000000    
  -15.9700003       0.00000000    
  -15.9600000       0.00000000    
  -15.9499998       0.00000000    
  -15.9399996       0.00000000    
  -15.9300003       0.00000000    
  -15.9200001       0.00000000    
  -15.9099998       0.00000000    
  -15.8999996       0.00000000    
  -15.8900003       0.00000000    
  -15.8800001       0.00000000    
  -15.8699999      -5.55208465E-41
  -15.8599997      -1.09172921E-39
  -15.8500004      -1.10014135E-38
  -15.8400002      -7.64756563E-38
  -15.8299999      -4.15485892E-37
  -15.8199997      -1.89090650E-36
  -15.8100004      -7.48900822E-36
  -15.8000002      -2.61792062E-35
  -15.7900000      -8.02376028E-35
  -15.7799997      -2.09435808E-34
  -15.7700005      -4.33294840E-34
  -15.7600002      -5.50659502E-34
  -15.7500000       4.65443509E-34
  -15.7399998       5.70640096E-33
  -15.7299995       2.17598154E-32
  -15.7200003       5.77534598E-32
  -15.7100000       1.15691731E-31
  -15.6999998       1.63638629E-31
  -15.6899996       9.27620972E-32
  -15.6800003      -3.03903728E-31
  -15.6700001      -1.22307921E-30
  -15.6599998      -2.44547118E-30
  -15.6499996      -2.55578107E-30
  -15.6400003       1.81817736E-30
  -15.6300001       1.53758438E-29
  -15.6199999       3.96890798E-29
  -15.6099997       6.28683599E-29
  -15.6000004       4.57448385E-29
  -15.5900002      -8.25133208E-29
  -15.5799999      -3.92682671E-28
  -15.5699997      -8.57184907E-28
  -15.5600004      -1.18549048E-27
  -15.5500002      -6.82700421E-28
  -15.5400000       1.64202476E-27
  -15.5299997       6.39603145E-27
  -15.5200005       1.23735591E-26
  -15.5100002       1.48015297E-26
  -15.5000000       4.79213664E-27
  -15.4899998      -2.73570059E-26
  -15.4799995      -8.25422883E-26
  -15.4700003      -1.37683505E-25
  -15.4600000      -1.33139617E-25
  -15.4499998       1.95958164E-26
  -15.4399996       3.87617283E-25
  -15.4300003       9.13805823E-25
  -15.4200001       1.29197716E-24
  -15.4099998       9.16403838E-25
  -15.3999996      -9.38247988E-25
  -15.3900003      -4.56522838E-24
  -15.3800001      -8.93346163E-24
  -15.3699999      -1.08563685E-23
  -15.3599997      -5.09215473E-24
  -15.3500004       1.35000685E-23
  -15.3400002       4.50852972E-23
  -15.3299999       7.82285213E-23
  -15.3199997       8.52486576E-23
  -15.3100004       2.60628473E-23
  -15.3000002      -1.32518812E-22
  -15.2900000      -3.80063112E-22
  -15.2799997      -6.18685357E-22
  -15.2700005      -6.40131317E-22
  -15.2600002      -1.66233440E-22
  -15.2500000       1.00866497E-21
  -15.2399998       2.77328759E-21
  -15.2299995       4.43248932E-21
  -15.2200003       4.59866013E-21
  -15.2100000       1.49060329E-21
  -15.1999998      -6.15996394E-21
  -15.1899996      -1.76400450E-20
  -15.1800003      -2.87254365E-20
  -15.1700001      -3.11248354E-20
  -15.1599998      -1.42431454E-20
  -15.1499996       2.97297792E-20
  -15.1400003       9.77560368E-20
  -15.1300001       1.67614115E-19
  -15.1199999       1.94643883E-19
  -15.1099997       1.20355387E-19
  -15.1000004      -1.02113501E-19
  -15.0900002      -4.67302711E-19
  -15.0799999      -8.74297337E-19
  -15.0699997      -1.10638726E-18
  -15.0600004      -8.65550988E-19
  -15.0500002       1.13746110E-19
  -15.0400000       1.87584194E-18
  -15.0299997       4.03359736E-18
  -15.0200005       5.64528476E-18
  -15.0100002       5.32059444E-18
  -15.0000000       1.67212400E-18
  -14.9899998      -5.88355827E-18
  -14.9799995      -1.61706646E-17
  -14.9700003      -2.55718932E-17
  -14.9600000      -2.82052872E-17
  -14.9499998      -1.74881351E-17
  -14.9399996       1.07773015E-17
  -14.9300003       5.44025605E-17
  -14.9200001       1.01420469E-16
  -14.9099998       1.29541593E-16
  -14.8999996       1.10691357E-16
  -14.8900003       2.16619594E-17
  -14.8800001      -1.40608938E-16
  -14.8699999      -3.43995459E-16
  -14.8599997      -5.14218244E-16
  -14.8500004      -5.44663414E-16
  -14.8400002      -3.28610323E-16
  -14.8299999       1.88235033E-16
  -14.8199997       9.48380439E-16
  -14.8100004       1.74129264E-15
  -14.8000002       2.21108231E-15
  -14.7900000       1.93827672E-15
  -14.7799997       5.99848828E-16
  -14.7700005      -1.82332249E-15
  -14.7600002      -4.86178912E-15
  -14.7500000      -7.49455260E-15
  -14.7399998      -8.30359527E-15
  -14.7299995      -5.89389707E-15
  -14.7200003       4.69516239E-16
  -14.7100000       1.01782986E-14
  -14.6999998       2.08328600E-14
  -14.6899996       2.83486664E-14
  -14.6800003       2.78513835E-14
  -14.6700001       1.53663703E-14
  -14.6599998      -1.00350441E-14
  -14.6499996      -4.43296895E-14
  -14.6400003      -7.78027816E-14
  -14.6300001      -9.63368044E-14
  -14.6199999      -8.51350782E-14
  -14.6099997      -3.44522283E-14
  -14.6000004       5.41210177E-14
  -14.5900002       1.63138342E-13
  -14.5799999       2.59151993E-13
  -14.5699997       2.98888762E-13
  -14.5600004       2.41965519E-13
  -14.5500002       6.78559991E-14
  -14.5400000      -2.07820984E-13
  -14.5299997      -5.24311985E-13
  -14.5200005      -7.80422764E-13
  -14.5100002      -8.56480848E-13
  -14.5000000      -6.51813239E-13
  -14.4899998      -1.29474610E-13
  -14.4799995       6.45875226E-13
  -14.4700003       1.49357241E-12
  -14.4600000       2.13980548E-12
  -14.4499998       2.28240842E-12
  -14.4399996       1.68859913E-12
  -14.4300003       3.01394326E-13
  -14.4200001      -1.68048268E-12
  -14.4099998      -3.78641866E-12
  -14.3999996      -5.34752667E-12
  -14.3900003      -5.66219250E-12
  -14.3800001      -4.22432705E-12
  -14.3699999      -9.53890287E-13
  -14.3599997       3.64858014E-12
  -14.3500004       8.49804515E-12
  -14.3400002       1.21148785E-11
  -14.3299999       1.29977218E-11
  -14.3199997       1.01036670E-11
  -14.3100004       3.30472477E-12
  -14.3000002      -6.33641316E-12
  -14.2900000      -1.66040463E-11
  -14.2799997      -2.45443908E-11
  -14.2700005      -2.72100623E-11
  -14.2600002      -2.25707439E-11
  -14.2500000      -1.03355822E-11
  -14.2399998       7.58998420E-12
  -14.2299995       2.72301764E-11
  -14.2200003       4.33204445E-11
  -14.2100000       5.06265967E-11
  -14.1999998       4.54875929E-11
  -14.1899996       2.71511494E-11
  -14.1800003      -1.54047912E-12
  -14.1700001      -3.44244390E-11
  -14.1599998      -6.33021274E-11
  -14.1499996      -7.99964470E-11
  -14.1400003      -7.86550061E-11
  -14.1300001      -5.76453052E-11
  -14.1199999      -2.04263082E-11
  -14.1099997       2.49680554E-11
  -14.1000004       6.78077733E-11
  -14.0900002       9.74677561E-11
  -14.0799999       1.06363314E-10
  -14.0699997       9.21564630E-11
  -14.0600004       5.84858620E-11
  -14.0500002       1.39365698E-11
  -14.0400000      -3.05272752E-11
  -14.0299997      -6.49007584E-11
  -14.0200005      -8.31867769E-11
  -14.0100002      -8.50969295E-11
  -14.0000000      -7.57427732E-11
  -13.9899998      -6.32951122E-11
  -13.9799995      -5.53082510E-11
  -13.9700003      -5.49696191E-11
  -13.9600000      -5.87361410E-11
  -13.9499998      -5.64910028E-11
  -13.9399996      -3.46305935E-11
  -13.9300003       1.85107121E-11
  -13.9200001       1.06440988E-10
  -13.9099998       2.19625554E-10
  -13.8999996       3.33992528E-10
  -13.8900003       4.14194179E-10
  -13.8800001       4.21631896E-10
  -13.8699999       3.25773630E-10
  -13.8599997       1.15909740E-10
  -13.8500004      -1.90116131E-10
  -13.8400002      -5.43464662E-10
  -13.8299999      -8.70083172E-10
  -13.8199997      -1.08463749E-09
  -13.8100004      -1.11023246E-09
  -13.8000002      -8.99507524E-10
  -13.7900000      -4.51793686E-10
  -13.7799997       1.78800308E-10
  -13.7700005       8.87674823E-10
  -13.7600002       1.53697444E-09
  -13.7500000       1.98289918E-09
  -13.7399998       2.10756834E-09
  -13.7299995       1.84795179E-09
  -13.7200003       1.21455901E-09
  -13.7100000       2.94644337E-10
  -13.6999998      -7.61888497E-10
  -13.6899996      -1.77155612E-09
  -13.6800003      -2.55467159E-09
  -13.6700001      -2.97245406E-09
  -13.6599998      -2.95444358E-09
  -13.6499996      -2.50963361E-09
  -13.6400003      -1.71864267E-09
  -13.6300001      -7.09199477E-10
  -13.6199999       3.77191750E-10
  -13.6099997       1.41784717E-09
  -13.6000004       2.33046338E-09
  -13.5900002       3.07694181E-09
  -13.5799999       3.64847463E-09
  -13.5699997       4.03740730E-09
  -13.5600004       4.20639834E-09
  -13.5500002       4.06877376E-09
  -13.5400000       3.49134610E-09
  -13.5299997       2.32529218E-09
  -13.5200005       4.62048483E-10
  -13.5100002      -2.09878270E-09
  -13.5000000      -5.18890308E-09
  -13.4899998      -8.44087289E-09
  -13.4799995      -1.13052359E-08
  -13.4700003      -1.31235494E-08
  -13.4600000      -1.32503457E-08
  -13.4499998      -1.12035208E-08
  -13.4399996      -6.81041001E-09
  -13.4300003      -3.13122639E-10
  -13.4200001       7.59848007E-09
  -13.4099998       1.58439182E-08
  -13.3999996       2.30987922E-08
  -13.3900003       2.80080528E-08
  -13.3800001       2.94284703E-08
  -13.3699999       2.66508291E-08
  -13.3599997       1.95594207E-08
  -13.3500004       8.69415473E-09
  -13.3400002      -4.79596984E-09
  -13.3299999      -1.92992218E-08
  -13.3199997      -3.29564322E-08
  -13.3100004      -4.39081518E-08
  -13.3000002      -5.05303710E-08
  -13.2900000      -5.16263796E-08
  -13.2799997      -4.65597658E-08
  -13.2700005      -3.53209479E-08
  -13.2600002      -1.85416571E-08
  -13.2500000       2.53148036E-09
  -13.2399998       2.60934687E-08
  -13.2299995       4.98703834E-08
  -13.2200003       7.12451396E-08
  -13.2100000       8.74435457E-08
  -13.1999998       9.57902699E-08
  -13.1899996       9.40315559E-08
  -13.1800003       8.07066627E-08
  -13.1700001       5.55144339E-08
  -13.1599998       1.96066186E-08
  -13.1499996      -2.42655869E-08
  -13.1400003      -7.18263706E-08
  -13.1300001      -1.17605687E-07
  -13.1199999      -1.55512907E-07
  -13.1099997      -1.79610922E-07
  -13.1000004      -1.84971341E-07
  -13.0900002      -1.68491482E-07
  -13.0799999      -1.29530036E-07
  -13.0699997      -7.02455480E-08
  -13.0600004       4.42761383E-09
  -13.0500002       8.71871606E-08
  -13.0400000       1.69099167E-07
  -13.0299997       2.40576668E-07
  -13.0200005       2.92459248E-07
  -13.0100002       3.17083504E-07
  -13.0000000       3.09202193E-07
  -12.9899998       2.66679820E-07
  -12.9799995       1.90898390E-07
  -12.9700003       8.68447358E-08
  -12.9600000      -3.71192144E-08
  -12.9499998      -1.69802149E-07
  -12.9399996      -2.98034934E-07
  -12.9300003      -4.07786757E-07
  -12.9200001      -4.85504302E-07
  -12.9099998      -5.19600860E-07
  -12.8999996      -5.01950694E-07
  -12.8900003      -4.29237986E-07
  -12.8800001      -3.03957194E-07
  -12.8699999      -1.34851092E-07
  -12.8599997       6.33605808E-08
  -12.8500004       2.71077283E-07
  -12.8400002       4.65714834E-07
  -12.8299999       6.24241068E-07
  -12.8199997       7.26087023E-07
  -12.8100004       7.56036229E-07
  -12.8000002       7.06668914E-07
  -12.7900000       5.79946459E-07
  -12.7799997       3.87616780E-07
  -12.7700005       1.50297339E-07
  -12.7600002      -1.04758833E-07
  -12.7500000      -3.46936417E-07
  -12.7399998      -5.46236038E-07
  -12.7299995      -6.77309231E-07
  -12.7200003      -7.23132132E-07
  -12.7100000      -6.77721061E-07
  -12.6999998      -5.47529282E-07
  -12.6899996      -3.51319301E-07
  -12.6800003      -1.18449449E-07
  -12.6700001       1.14205953E-07
  -12.6599998       3.06488289E-07
  -12.6499996       4.19846913E-07
  -12.6400003       4.22496328E-07
  -12.6300001       2.94302993E-07
  -12.6199999       3.09570503E-08
  -12.6099997      -3.53091878E-07
  -12.6000004      -8.23278981E-07
  -12.5900002      -1.32561433E-06
  -12.5799999      -1.78957123E-06
  -12.5699997      -2.13332623E-06
  -12.5600004      -2.27121245E-06
  -12.5500002      -2.12287614E-06
  -12.5400000      -1.62357458E-06
  -12.5299997      -7.34455455E-07
  -12.5200005       5.48178718E-07
  -12.5100002       2.18587365E-06
  -12.5000000       4.09440008E-06
  -12.4899998       6.14405963E-06
  -12.4799995       8.16436113E-06
  -12.4700003       9.95274331E-06
  -12.4600000       1.12864927E-05
  -12.4499998       1.19370134E-05
  -12.4399996       1.16846459E-05
  -12.4300003       1.03330449E-05
  -12.4200001       7.72190651E-06
  -12.4099998       3.73671332E-06
  -12.3999996      -1.68378642E-06
  -12.3900003      -8.54399968E-06
  -12.3800001      -1.67898070E-05
  -12.3699999      -2.63096190E-05
  -12.3599997      -3.69369227E-05
  -12.3500004      -4.84541888E-05
  -12.3400002      -6.05981368E-05
  -12.3299999      -7.30653192E-05
  -12.3199997      -8.55190010E-05
  -12.3100004      -9.75966104E-05
  -12.3000002      -1.08918131E-04
  -12.2900000      -1.19094497E-04
  -12.2799997      -1.27736639E-04
  -12.2700005      -1.34463000E-04
  -12.2600002      -1.38909425E-04
  -12.2500000      -1.40734599E-04
  -12.2399998      -1.39627431E-04
  -12.2299995      -1.35313545E-04
  -12.2200003      -1.27561842E-04
  -12.2100000      -1.16190524E-04
  -12.1999998      -1.01073085E-04
  -12.1899996      -8.21481299E-05
  -12.1800003      -5.94241428E-05
  -12.1700001      -3.29875911E-05
  -12.1599998      -3.00564261E-06
  -12.1499996       3.02699555E-05
  -12.1400003       6.65056723E-05
  -12.1300001       1.05291721E-04
  -12.1199999       1.46148421E-04
  -12.1099997       1.88541453E-04
  -12.1000004       2.31891870E-04
  -12.0900002       2.75589584E-04
  -12.0799999       3.19006911E-04
  -12.0699997       3.61506856E-04
  -12.0600004       4.02450940E-04
  -12.0500002       4.41204378E-04
  -12.0400000       4.77139227E-04
  -12.0299997       5.09636244E-04
  -12.0200005       5.38088614E-04
  -12.0100002       5.61905326E-04
  -12.0000000       5.80517168E-04
  -11.9899998       5.93385776E-04
  -11.9799995       6.00011903E-04
  -11.9700003       5.99945080E-04
  -11.9600000       5.92796539E-04
  -11.9499998       5.78245556E-04
  -11.9399996       5.56049345E-04
  -11.9300003       5.26051328E-04
  -11.9200001       4.88179852E-04
  -11.9099998       4.42459510E-04
  -11.8999996       3.89006251E-04
  -11.8900003       3.28031776E-04
  -11.8800001       2.59842403E-04
  -11.8699999       1.84835764E-04
  -11.8599997       1.03497492E-04
  -11.8500004       1.63959830E-05
  -11.8400002      -7.58277893E-05
  -11.8299999      -1.72467408E-04
  -11.8199997      -2.72762845E-04
  -11.8100004      -3.75914766E-04
  -11.8000002      -4.81090217E-04
  -11.7900000      -5.87433868E-04
  -11.7799997      -6.94074901E-04
  -11.7700005      -8.00129143E-04
  -11.7600002      -9.04700602E-04
  -11.7500000      -1.00688194E-03
  -11.7399998      -1.10575231E-03
  -11.7299995      -1.20037608E-03
  -11.7200003      -1.28980447E-03
  -11.7100000      -1.37308100E-03
  -11.6999998      -1.44924689E-03
  -11.6899996      -1.51735311E-03
  -11.6800003      -1.57647405E-03
  -11.6700001      -1.62572053E-03
  -11.6599998      -1.66425970E-03
  -11.6499996      -1.69132522E-03
  -11.6400003      -1.70622964E-03
  -11.6300001      -1.70837459E-03
  -11.6199999      -1.69725320E-03
  -11.6099997      -1.67245069E-03
  -11.6000004      -1.63364154E-03
  -11.5900002      -1.58058479E-03
  -11.5799999      -1.51311525E-03
  -11.5699997      -1.43114047E-03
  -11.5600004      -1.33463321E-03
  -11.5500002      -1.22362899E-03
  -11.5400000      -1.09822792E-03
  -11.5299997      -9.58596473E-04
  -11.5200005      -8.04976560E-04
  -11.5100002      -6.37692225E-04
  -11.5000000      -4.57163755E-04
  -11.4899998      -2.63915630E-04
  -11.4799995      -5.85902890E-05
  -11.4700003       1.58047944E-04
  -11.4600000       3.85107240E-04
  -11.4499998       6.21575979E-04
  -11.4399996       8.66327318E-04
  -11.4300003       1.11814251E-03
  -11.4200001       1.37572945E-03
  -11.4099998       1.63775310E-03
  -11.3999996       1.90286525E-03
  -11.3900003       2.16973596E-03
  -11.3800001       2.43707700E-03
  -11.3699999       2.70366506E-03
  -11.3599997       2.96835904E-03
  -11.3500004       3.23010609E-03
  -11.3400002       3.48794321E-03
  -11.3299999       3.74099659E-03
  -11.3199997       3.98847694E-03
  -11.3100004       4.22968017E-03
  -11.3000002       4.46397485E-03
  -11.2900000       4.69080871E-03
  -11.2799997       4.90970537E-03
  -11.2700005       5.12025924E-03
  -11.2600002       5.32214437E-03
  -11.2500000       5.51509578E-03
  -11.2399998       5.69891511E-03
  -11.2299995       5.87345753E-03
  -11.2200003       6.03860756E-03
  -11.2100000       6.19428186E-03
  -11.1999998       6.34041009E-03
  -11.1899996       6.47691777E-03
  -11.1800003       6.60374155E-03
  -11.1700001       6.72081066E-03
  -11.1599998       6.82805572E-03
  -11.1499996       6.92542549E-03
  -11.1400003       7.01288646E-03
  -11.1300001       7.09044421E-03
  -11.1199999       7.15814484E-03
  -11.1099997       7.21610570E-03
  -11.1000004       7.26450840E-03
  -11.0900002       7.30361044E-03
  -11.0799999       7.33375363E-03
  -11.0699997       7.35536171E-03
  -11.0600004       7.36893294E-03
  -11.0500002       7.37502659E-03
  -11.0400000       7.37425918E-03
  -11.0299997       7.36727659E-03
  -11.0200005       7.35473912E-03
  -11.0100002       7.33730104E-03
  -11.0000000       7.31559750E-03
  -10.9899998       7.29022967E-03
  -10.9799995       7.26175355E-03
  -10.9700003       7.23067531E-03
  -10.9600000       7.19744712E-03
  -10.9499998       7.16244942E-03
  -10.9399996       7.12599698E-03
  -10.9300003       7.08831474E-03
  -10.9200001       7.04953587E-03
  -10.9099998       7.00968085E-03
  -10.8999996       6.96864352E-03
  -10.8900003       6.92618825E-03
  -10.8800001       6.88194111E-03
  -10.8699999       6.83541037E-03
  -10.8599997       6.78599533E-03
  -10.8500004       6.73301425E-03
  -10.8400002       6.67575281E-03
  -10.8299999       6.61348226E-03
  -10.8199997       6.54551899E-03
  -10.8100004       6.47124741E-03
  -10.8000002       6.39014412E-03
  -10.7900000       6.30180771E-03
  -10.7799997       6.20596204E-03
  -10.7700005       6.10244973E-03
  -10.7600002       5.99123770E-03
  -10.7500000       5.87240327E-03
  -10.7399998       5.74612571E-03
  -10.7299995       5.61268674E-03
  -10.7200003       5.47245005E-03
  -10.7100000       5.32588409E-03
  -10.6999998       5.17354393E-03
  -10.6899996       5.01608010E-03
  -10.6800003       4.85422742E-03
  -10.6700001       4.68881009E-03
  -10.6599998       4.52071801E-03
  -10.6499996       4.35089739E-03
  -10.6400003       4.18031961E-03
  -10.6300001       4.00999608E-03
  -10.6199999       3.84092564E-03
  -10.6099997       3.67411762E-03
  -10.6000004       3.51055851E-03
  -10.5900002       3.35123320E-03
  -10.5799999       3.19711678E-03
  -10.5699997       3.04916594E-03
  -10.5600004       2.90831854E-03
  -10.5500002       2.77548400E-03
  -10.5400000       2.65150145E-03
  -10.5299997       2.53712689E-03
  -10.5200005       2.43299128E-03
  -10.5100002       2.33955588E-03
  -10.5000000       2.25710310E-03
  -10.4899998       2.18566949E-03
  -10.4799995       2.12506298E-03
  -10.4700003       2.07484397E-03
  -10.4600000       2.03434657E-03
  -10.4499998       2.00269814E-03
  -10.4399996       1.97883719E-03
  -10.4300003       1.96158444E-03
  -10.4200001       1.94967072E-03
  -10.4099998       1.94176822E-03
  -10.3999996       1.93653896E-03
  -10.3900003       1.93266070E-03
  -10.3800001       1.92884472E-03
  -10.3699999       1.92385260E-03
  -10.3599997       1.91650074E-03
  -10.3500004       1.90568087E-03
  -10.3400002       1.89035456E-03
  -10.3299999       1.86957081E-03
  -10.3199997       1.84247829E-03
  -10.3100004       1.80831889E-03
  -10.3000002       1.76646980E-03
  -10.2900000       1.71641645E-03
  -10.2799997       1.65778084E-03
  -10.2700005       1.59030419E-03
  -10.2600002       1.51385542E-03
  -10.2500000       1.42842846E-03
  -10.2399998       1.33414054E-03
  -10.2299995       1.23124116E-03
  -10.2200003       1.12009910E-03
  -10.2100000       1.00120716E-03
  -10.1999998       8.75187223E-04
  -10.1899996       7.42745004E-04
  -10.1800003       6.04687200E-04
  -10.1700001       4.61868738E-04
  -10.1599998       3.15196346E-04
  -10.1499996       1.65594509E-04
  -10.1400003       1.40001039E-05
  -10.1300001      -1.38595482E-04
  -10.1199999      -2.91155389E-04
  -10.1099997      -4.42553370E-04
  -10.1000004      -5.91551361E-04
  -10.0900002      -7.36731221E-04
  -10.0799999      -8.76569655E-04
  -10.0699997      -1.00934424E-03
  -10.0600004      -1.13327208E-03
  -10.0500002      -1.24648667E-03
  -10.0400000      -1.34715112E-03
  -10.0299997      -1.43351220E-03
  -10.0200005      -1.50395674E-03
  -10.0100002      -1.55709649E-03
  -10.0000000      -1.59175706E-03
  -9.98999977      -1.60701445E-03
  -9.97999954      -1.60219287E-03
  -9.97000027      -1.57680141E-03
  -9.96000004      -1.53054425E-03
  -9.94999981      -1.46325282E-03
  -9.93999958      -1.37481280E-03
  -9.93000031      -1.26519357E-03
  -9.92000008      -1.13434065E-03
  -9.90999985      -9.82206315E-04
  -9.89999962      -8.08694458E-04
  -9.89000034      -6.13693555E-04
  -9.88000011      -3.97060357E-04
  -9.86999989      -1.58651412E-04
  -9.85999966       1.01676967E-04
  -9.85000038       3.83966399E-04
  -9.84000015       6.88204891E-04
  -9.82999992       1.01421634E-03
  -9.81999969       1.36165577E-03
  -9.81000042       1.72996160E-03
  -9.80000019       2.11832835E-03
  -9.78999996       2.52570957E-03
  -9.77999973       2.95079965E-03
  -9.77000046       3.39207333E-03
  -9.76000023       3.84779670E-03
  -9.75000000       4.31609806E-03
  -9.73999977       4.79498086E-03
  -9.72999954       5.28238714E-03
  -9.72000027       5.77623630E-03
  -9.71000004       6.27446221E-03
  -9.69999981       6.77500013E-03
  -9.68999958       7.27584120E-03
  -9.68000031       7.77498772E-03
  -9.67000008       8.27048160E-03
  -9.65999985       8.76042526E-03
  -9.64999962       9.24292114E-03
  -9.64000034       9.71614663E-03
  -9.63000011       1.01783546E-02
  -9.61999989       1.06278444E-02
  -9.60999966       1.10630812E-02
  -9.60000038       1.14826020E-02
  -9.59000015       1.18851345E-02
  -9.57999992       1.22695733E-02
  -9.56999969       1.26350159E-02
  -9.56000042       1.29807657E-02
  -9.55000019       1.33063449E-02
  -9.53999996       1.36114610E-02
  -9.52999973       1.38960220E-02
  -9.52000046       1.41600193E-02
  -9.51000023       1.44035686E-02
  -9.50000000       1.46267936E-02
  -9.48999977       1.48298554E-02
  -9.47999954       1.50128920E-02
  -9.47000027       1.51760671E-02
  -9.46000004       1.53195607E-02
  -9.44999981       1.54436277E-02
  -9.43999958       1.55486418E-02
  -9.43000031       1.56351067E-02
  -9.42000008       1.57036409E-02
  -9.40999985       1.57549921E-02
  -9.39999962       1.57900061E-02
  -9.39000034       1.58095267E-02
  -9.38000011       1.58144403E-02
  -9.36999989       1.58055667E-02
  -9.35999966       1.57836657E-02
  -9.35000038       1.57494657E-02
  -9.34000015       1.57036260E-02
  -9.32999992       1.56467278E-02
  -9.31999969       1.55793251E-02
  -9.31000042       1.55019304E-02
  -9.30000019       1.54150100E-02
  -9.28999996       1.53190065E-02
  -9.27999973       1.52144218E-02
  -9.27000046       1.51017159E-02
  -9.26000023       1.49815492E-02
  -9.25000000       1.48545429E-02
  -9.23999977       1.47215705E-02
  -9.22999954       1.45835830E-02
  -9.22000027       1.44416438E-02
  -9.21000004       1.42968576E-02
  -9.19999981       1.41503206E-02
  -9.18999958       1.40030449E-02
  -9.18000031       1.38559463E-02
  -9.17000008       1.37097323E-02
  -9.15999985       1.35649927E-02
  -9.14999962       1.34221977E-02
  -9.14000034       1.32816629E-02
  -9.13000011       1.31436987E-02
  -9.11999989       1.30085275E-02
  -9.10999966       1.28763905E-02
  -9.10000038       1.27475457E-02
  -9.09000015       1.26222083E-02
  -9.07999992       1.25006391E-02
  -9.06999969       1.23830903E-02
  -9.06000042       1.22698024E-02
  -9.05000019       1.21610034E-02
  -9.03999996       1.20569253E-02
  -9.02999973       1.19577320E-02
  -9.02000046       1.18636154E-02
  -9.01000023       1.17746945E-02
  -9.00000000       1.16911298E-02
  -8.98999977       1.16129909E-02
  -8.97999954       1.15404502E-02
  -8.97000027       1.14737386E-02
  -8.96000004       1.14131747E-02
  -8.94999981       1.13592418E-02
  -8.93999958       1.13125974E-02
  -8.93000031       1.12740882E-02
  -8.92000008       1.12447962E-02
  -8.90999985       1.12259332E-02
  -8.89999962       1.12189278E-02
  -8.89000034       1.12254238E-02
  -8.88000011       1.12472298E-02
  -8.86999989       1.12862773E-02
  -8.85999966       1.13447271E-02
  -8.85000038       1.14248460E-02
  -8.84000015       1.15290787E-02
  -8.82999992       1.16599221E-02
  -8.81999969       1.18199708E-02
  -8.81000042       1.20118260E-02
  -8.80000019       1.22380015E-02
  -8.78999996       1.25009678E-02
  -8.77999973       1.28030889E-02
  -8.77000046       1.31465010E-02
  -8.76000023       1.35331918E-02
  -8.75000000       1.39649510E-02
  -8.73999977       1.44433891E-02
  -8.72999954       1.49699058E-02
  -8.72000027       1.55457575E-02
  -8.71000004       1.61719751E-02
  -8.69999981       1.68493837E-02
  -8.68999958       1.75784864E-02
  -8.68000031       1.83594991E-02
  -8.67000008       1.91921666E-02
  -8.65999985       2.00757552E-02
  -8.64999962       2.10090056E-02
  -8.64000034       2.19902080E-02
  -8.63000011       2.30171196E-02
  -8.61999989       2.40870602E-02
  -8.60999966       2.51971763E-02
  -8.60000038       2.63443496E-02
  -8.59000015       2.75253784E-02
  -8.57999992       2.87370011E-02
  -8.56999969       2.99759731E-02
  -8.56000042       3.12390793E-02
  -8.55000019       3.25230025E-02
  -8.53999996       3.38244438E-02
  -8.52999973       3.51400375E-02
  -8.52000046       3.64665315E-02
  -8.51000023       3.78006846E-02
  -8.50000000       3.91393937E-02
  -8.48999977       4.04797122E-02
  -8.47999954       4.18189578E-02
  -8.47000027       4.31545749E-02
  -8.46000004       4.44842987E-02
  -8.44999981       4.58059907E-02
  -8.43999958       4.71176952E-02
  -8.43000031       4.84176166E-02
  -8.42000008       4.97040004E-02
  -8.40999985       5.09753712E-02
  -8.39999962       5.22303320E-02
  -8.39000034       5.34675978E-02
  -8.38000011       5.46860173E-02
  -8.36999989       5.58845177E-02
  -8.35999966       5.70621006E-02
  -8.35000038       5.82177453E-02
  -8.34000015       5.93504719E-02
  -8.32999992       6.04593493E-02
  -8.31999969       6.15435913E-02
  -8.31000042       6.26024976E-02
  -8.30000019       6.36355430E-02
  -8.28999996       6.46423548E-02
  -8.27999973       6.56226426E-02
  -8.27000046       6.65761754E-02
  -8.26000023       6.75026178E-02
  -8.25000000       6.84017241E-02
  -8.23999977       6.92729726E-02
  -8.22999954       7.01157153E-02
  -8.22000027       7.09292591E-02
  -8.21000004       7.17126951E-02
  -8.19999981       7.24651515E-02
  -8.18999958       7.31856897E-02
  -8.18000031       7.38734007E-02
  -8.17000008       7.45272338E-02
  -8.15999985       7.51461163E-02
  -8.14999962       7.57287592E-02
  -8.14000034       7.62737766E-02
  -8.13000011       7.67796263E-02
  -8.11999989       7.72446021E-02
  -8.10999966       7.76666477E-02
  -8.10000038       7.80437589E-02
  -8.09000015       7.83737749E-02
  -8.07999992       7.86543489E-02
  -8.06999969       7.88832903E-02
  -8.06000042       7.90581554E-02
  -8.05000019       7.91765824E-02
  -8.03999996       7.92362541E-02
  -8.02999973       7.92349726E-02
  -8.02000046       7.91705176E-02
  -8.01000023       7.90410638E-02
  -8.00000000       7.88448378E-02
  -7.98999977       7.85803422E-02
  -7.98000002       7.82462806E-02
  -7.96999979       7.78417662E-02
  -7.96000004       7.73659348E-02
  -7.94999981       7.68183693E-02
  -7.94000006       7.61988461E-02
  -7.92999983       7.55075440E-02
  -7.92000008       7.47448206E-02
  -7.90999985       7.39118829E-02
  -7.90000010       7.30099827E-02
  -7.88999987       7.20409304E-02
  -7.88000011       7.10070953E-02
  -7.86999989       6.99113533E-02
  -7.86000013       6.87566549E-02
  -7.84999990       6.75467625E-02
  -7.84000015       6.62854835E-02
  -7.82999992       6.49770349E-02
  -7.82000017       6.36258051E-02
  -7.80999994       6.22365624E-02
  -7.80000019       6.08142503E-02
  -7.78999996       5.93641810E-02
  -7.78000021       5.78919314E-02
  -7.76999998       5.64031266E-02
  -7.76000023       5.49036451E-02
  -7.75000000       5.33995591E-02
  -7.73999977       5.18968366E-02
  -7.73000002       5.04014269E-02
  -7.71999979       4.89189476E-02
  -7.71000004       4.74554561E-02
  -7.69999981       4.60161828E-02
  -7.69000006       4.46069352E-02
  -7.67999983       4.32331003E-02
  -7.67000008       4.19002883E-02
  -7.65999985       4.06139828E-02
  -7.65000010       3.93798240E-02
  -7.63999987       3.82031649E-02
  -7.63000011       3.70892696E-02
  -7.61999989       3.60431857E-02
  -7.61000013       3.50698903E-02
  -7.59999990       3.41738537E-02
  -7.59000015       3.33594196E-02
  -7.57999992       3.26307528E-02
  -7.57000017       3.19914594E-02
  -7.55999994       3.14450003E-02
  -7.55000019       3.09942849E-02
  -7.53999996       3.06420401E-02
  -7.53000021       3.03900260E-02
  -7.51999998       3.02398168E-02
  -7.51000023       3.01923640E-02
  -7.50000000       3.02479435E-02
  -7.48999977       3.04067321E-02
  -7.48000002       3.06681134E-02
  -7.46999979       3.10316794E-02
  -7.46000004       3.14962082E-02
  -7.44999981       3.20601463E-02
  -7.44000006       3.27216759E-02