  -16.0000000       0.00000000    
  -15.9899998       0.00000000    
  -15.9799995       0.00000000    
  -15.9700003       0.00000000    
  -15.9600000       0.00000000    
  -15.9499998       0.00000000    
  -15.9399996       0.00000000    
  -15.9300003       0.00000000    
  -15.9200001       0.00000000    
  -15.9099998       0.00000000    
  -15.8999996       0.00000000    
  -15.8900003       0.00000000    
  -15.8800001       0.00000000    
  -15.8699999       1.26116862E-44
  -15.8599997       2.22946586E-42
  -15.8500004       6.44779462E-41
  -15.8400002       1.02412077E-39
  -15.8299999       1.13125354E-38
  -15.8199997       9.45642503E-38
  -15.8100004       6.33048801E-37
  -15.8000002       3.52573797E-36
  -15.7900000       1.67824648E-35
  -15.7799997       6.96382942E-35
  -15.7700005       2.55638912E-34
  -15.7600002       8.39440628E-34
  -15.7500000       2.48590772E-33
  -15.7399998       6.67705844E-33
  -15.7299995       1.63215907E-32
  -15.7200003       3.63430233E-32
  -15.7100000       7.35622190E-32
  -15.6999998       1.34473744E-31
  -15.6899996       2.18877706E-31
  -15.6800003       3.07603197E-31
  -15.6700001       3.45158925E-31
  -15.6599998       2.24464431E-31
  -15.6499996      -2.09438064E-31
  -15.6400003      -1.11052581E-30
  -15.6300001      -2.51290167E-30
  -15.6199999      -4.14279004E-30
  -15.6099997      -5.22345002E-30
  -15.6000004      -4.42234516E-30
  -15.5900002      -1.59959919E-31
  -15.5799999       8.53665514E-30
  -15.5699997       2.06877993E-29
  -15.5600004       3.20401858E-29
  -15.5500002       3.48369551E-29
  -15.5400000       1.99829345E-29
  -15.5299997      -1.77098271E-29
  -15.5200005      -7.23471852E-29
  -15.5100002      -1.21722685E-28
  -15.5000000      -1.30018580E-28
  -15.4899998      -6.34678176E-29
  -15.4799995       8.21395279E-29
  -15.4700003       2.54147184E-28
  -15.4600000       3.38484451E-28
  -15.4499998       2.01070962E-28
  -15.4399996      -2.20300241E-28
  -15.4300003      -8.07097825E-28
  -15.4200001      -1.20812247E-27
  -15.4099998      -9.27149512E-28
  -15.3999996       4.22376996E-28
  -15.3900003       2.78459676E-27
  -15.3800001       5.45203149E-27
  -15.3699999       7.17237188E-27
  -15.3599997       6.54666036E-27
  -15.3500004       2.34720073E-27
  -15.3400002      -6.75851342E-27
  -15.3299999      -2.30433697E-26
  -15.3199997      -4.96363145E-26
  -15.3100004      -8.64280260E-26
  -15.3000002      -1.19151720E-25
  -15.2900000      -1.03767552E-25
  -15.2799997       4.10416780E-26
  -15.2700005       4.07890959E-25
  -15.2600002       1.01380390E-24
  -15.2500000       1.65035105E-24
  -15.2399998       1.73463394E-24
  -15.2299995       3.18090189E-25
  -15.2200003      -3.52619168E-24
  -15.2100000      -9.78382056E-24
  -15.1999998      -1.61949058E-23
  -15.1899996      -1.72638738E-23
  -15.1800003      -4.88377357E-24
  -15.1700001       2.79440881E-23
  -15.1599998       7.97156440E-23
  -15.1499996       1.31223591E-22
  -15.1400003       1.40116376E-22
  -15.1300001       4.80343306E-23
  -15.1199999      -1.91185943E-22
  -15.1099997      -5.61232352E-22
  -15.1000004      -9.26238419E-22
  -15.0900002      -1.00376530E-21
  -15.0799999      -4.20157971E-22
  -15.0699997       1.10753274E-21
  -15.0600004       3.46851210E-21
  -15.0500002       5.83401358E-21
  -15.0400000       6.52544691E-21
  -15.0299997       3.35776420E-21
  -15.0200005      -5.32599099E-21
  -15.0100002      -1.89943562E-20
  -15.0000000      -3.32009715E-20
  -14.9899998      -3.89096713E-20
  -14.9799995      -2.42898065E-20
  -14.9700003       1.99950896E-20
  -14.9600000       9.23969210E-20
  -14.9499998       1.71764287E-19
  -14.9399996       2.13659020E-19
  -14.9300003       1.58402864E-19
  -14.9200001      -4.43772544E-20
  -14.9099998      -3.96346279E-19
  -14.8999996      -8.08548731E-19
  -14.8900003      -1.08082211E-18
  -14.8800001      -9.32332432E-19
  -14.8699999      -1.05377349E-19
  -14.8599997       1.46230591E-18
  -14.8500004       3.44612604E-18
  -14.8400002       5.02250833E-18
  -14.8299999       4.96177218E-18
  -14.8199997       2.02637454E-18
  -14.8100004      -4.32832554E-18
  -14.8000002      -1.31281355E-17
  -14.7900000      -2.13053734E-17
  -14.7799997      -2.38782294E-17
  -14.7700005      -1.53189730E-17
  -14.7600002       7.80858002E-18
  -14.7500000       4.35065470E-17
  -14.7399998       8.16235557E-17
  -14.7299995       1.03647789E-16
  -14.7200003       8.68064246E-17
  -14.7100000       1.31614990E-17
  -14.6999998      -1.17804191E-16
  -14.6899996      -2.77403767E-16
  -14.6800003      -4.03388271E-16
  -14.6700001      -4.09950712E-16
  -14.6599998      -2.16049359E-16
  -14.6499996       2.10938177E-16
  -14.6400003       8.08670243E-16
  -14.6300001       1.39186709E-15
  -14.6199999       1.66790009E-15
  -14.6099997       1.31416018E-15
  -14.6000004       1.15929720E-16
  -14.5900002      -1.86677252E-15
  -14.5799999      -4.16677826E-15
  -14.5699997      -5.89441419E-15
  -14.5600004      -5.91246700E-15
  -14.5500002      -3.22505910E-15
  -14.5400000       2.48286342E-15
  -14.5299997       1.03233623E-14
  -14.5200005       1.79500071E-14
  -14.5100002       2.18272784E-14
  -14.5000000       1.81798665E-14
  -14.4899998       4.54798629E-15
  -14.4799995      -1.84333529E-14
  -14.4700003      -4.57070871E-14
  -14.4600000      -6.77309771E-14
  -14.4499998      -7.23355566E-14
  -14.4399996      -4.86413346E-14
  -14.4300003       7.65202026E-15
  -14.4200001       8.92137316E-14
  -14.4099998       1.74525962E-13
  -14.3999996       2.30082392E-13
  -14.3900003       2.18623662E-13
  -14.3800001       1.12757283E-13
  -14.3699999      -8.92493341E-14
  -14.3599997      -3.51003298E-13
  -14.3500004      -5.95431527E-13
  -14.3400002      -7.17515511E-13
  -14.3299999      -6.13793467E-13
  -14.3199997      -2.24007946E-13
  -14.3100004       4.26526219E-13
  -14.3000002       1.20029258E-12
  -14.2900000       1.85357502E-12
  -14.2799997       2.08612359E-12
  -14.2700005       1.63273171E-12
  -14.2600002       3.78291691E-13
  -14.2500000      -1.53846478E-12
  -14.2399998      -3.67629885E-12
  -14.2299995      -5.33721244E-12
  -14.2200003      -5.72522064E-12
  -14.2100000      -4.20131204E-12
  -14.1999998      -5.75645543E-13
  -14.1899996       4.65638205E-12
  -14.1800003       1.02406798E-11
  -14.1700001       1.43374479E-11
  -14.1599998       1.49646840E-11
  -14.1499996       1.06465349E-11
  -14.1400003       1.10648079E-12
  -14.1300001      -1.22244688E-11
  -14.1199999      -2.61232702E-11
  -14.1099997      -3.60815371E-11
  -14.1000004      -3.74177668E-11
  -14.0900002      -2.68052767E-11
  -14.0799999      -3.82422262E-12
  -14.0699997       2.79810949E-11
  -14.0600004       6.10440795E-11
  -14.0500002       8.50351387E-11
  -14.0400000       8.94054622E-11
  -14.0299997       6.67498626E-11
  -14.0200005       1.61137614E-11
  -14.0100002      -5.48409616E-11
  -14.0000000      -1.29831937E-10
  -13.9899998      -1.86702057E-10
  -13.9799995      -2.02761155E-10
  -13.9700003      -1.61724467E-10
  -13.9600000      -6.04570768E-11
  -13.9499998       8.66357333E-11
  -13.9399996       2.47517978E-10
  -13.9300003       3.77820913E-10
  -13.9200001       4.31185865E-10
  -13.9099998       3.72683467E-10
  -13.8999996       1.91929445E-10
  -13.8900003      -8.81165071E-11
  -13.8800001      -4.10294271E-10
  -13.8699999      -6.92294444E-10
  -13.8599997      -8.45053583E-10
  -13.8500004      -7.97012512E-10
  -13.8400002      -5.18302901E-10
  -13.8299999      -3.77675391E-11
  -13.8199997       5.53501467E-10
  -13.8100004       1.11573739E-09
  -13.8000002       1.49043855E-09
  -13.7900000       1.54105029E-09
  -13.7799997       1.19472565E-09
  -13.7700005       4.73383110E-10
  -13.7600002      -4.96409081E-10
  -13.7500000      -1.50101698E-09
  -13.7399998      -2.28412644E-09
  -13.7299995      -2.60957433E-09
  -13.7200003      -2.32773334E-09
  -13.7100000      -1.42744583E-09
  -13.6999998      -5.70635275E-11
  -13.6899996       1.49532653E-09
  -13.6800003       2.86209900E-09
  -13.6700001       3.68478781E-09
  -13.6599998       3.70984532E-09
  -13.6499996       2.86538726E-09
  -13.6400003       1.29554023E-09
  -13.6300001      -6.61535604E-10
  -13.6199999      -2.55099097E-09
  -13.6099997      -3.91670962E-09
  -13.6000004      -4.42476900E-09
  -13.5900002      -3.95953315E-09
  -13.5799999      -2.66179545E-09
  -13.5699997      -8.93082941E-10
  -13.5600004       8.68457306E-10
  -13.5500002       2.17349672E-09
  -13.5400000       2.74502909E-09
  -13.5299997       2.57295851E-09
  -13.5200005       1.92316540E-09
  -13.5100002       1.24861110E-09
  -13.5000000       1.02104314E-09
  -13.4899998       1.53165380E-09
  -13.4799995       2.72715828E-09
  -13.4700003       4.14663281E-09
  -13.4600000       5.00166042E-09
  -13.4499998       4.40125136E-09
  -13.4399996       1.67426950E-09
  -13.4300003      -3.30016969E-09
  -13.4200001      -9.86500659E-09
  -13.4099998      -1.65603815E-08
  -13.3999996      -2.13576996E-08
  -13.3900003      -2.21374421E-08
  -13.3800001      -1.73178005E-08
  -13.3699999      -6.47424336E-09
  -13.3599997       9.23777055E-09
  -13.3500004       2.70236544E-08
  -13.3400002       4.28451479E-08
  -13.3299999       5.22468149E-08
  -13.3199997       5.14629228E-08
  -13.3100004       3.85464283E-08
  -13.3000002       1.42157015E-08
  -13.2900000      -1.78588557E-08
  -13.2799997      -5.14944887E-08
  -13.2700005      -7.91541126E-08
  -13.2600002      -9.36217930E-08
  -13.2500000      -8.98249368E-08
  -13.2399998      -6.63479867E-08
  -13.2299995      -2.62061715E-08
  -13.2200003       2.34060593E-08
  -13.2100000       7.24400877E-08
  -13.1999998       1.10159199E-07
  -13.1899996       1.27668983E-07
  -13.1800003       1.20190322E-07
  -13.1700001       8.84668268E-08
  -13.1599998       3.88698460E-08
  -13.1499996      -1.79229200E-08
  -13.1400003      -6.94289568E-08
  -13.1300001      -1.04456547E-07
  -13.1199999      -1.16004671E-07
  -13.1099997      -1.03164076E-07
  -13.1000004      -7.14347763E-08
  -13.0900002      -3.12678061E-08
  -13.0799999       4.87943952E-09
  -13.0699997       2.62358757E-08
  -13.0600004       2.71444431E-08
  -13.0500002       9.19671184E-09
  -13.0400000      -1.86828188E-08
  -13.0299997      -4.24351008E-08
  -13.0200005      -4.69473562E-08
  -13.0100002      -2.10211404E-08
  -13.0000000       3.81388290E-08
  -12.9899998       1.22306787E-07
  -12.9799995       2.12514209E-07
  -12.9700003       2.82556584E-07
  -12.9600000       3.05194817E-07
  -12.9499998       2.59697060E-07
  -12.9399996       1.38835915E-07
  -12.9300003      -4.66247272E-08
  -12.9200001      -2.67493164E-07
  -12.9099998      -4.80392714E-07
  -12.8999996      -6.36164998E-07
  -12.8900003      -6.90811760E-07
  -12.8800001      -6.16494333E-07
  -12.8699999      -4.09934501E-07
  -12.8599997      -9.59313411E-08
  -12.8500004       2.75259595E-07
  -12.8400002       6.36508901E-07
  -12.8299999       9.16770091E-07
  -12.8199997       1.05565823E-06
  -12.8100004       1.01645219E-06
  -12.8000002       7.94516723E-07
  -12.7900000       4.19236358E-07
  -12.7799997      -5.10324405E-08
  -12.7700005      -5.39817165E-07
  -12.7600002      -9.66700895E-07
  -12.7500000      -1.26163172E-06
  -12.7399998      -1.37630389E-06
  -12.7299995      -1.29042826E-06
  -12.7200003      -1.01217199E-06
  -12.7100000      -5.73518378E-07
  -12.6999998      -2.26273578E-08
  -12.6899996       5.84233248E-07
  -12.6800003       1.18881655E-06
  -12.6700001       1.73377805E-06
  -12.6599998       2.16243279E-06
  -12.6499996       2.41697194E-06
  -12.6400003       2.43773366E-06
  -12.6300001       2.16609624E-06
  -12.6199999       1.55283942E-06
  -12.6099997       5.71902035E-07
  -12.6000004      -7.62431853E-07
  -12.5900002      -2.37904715E-06
  -12.5799999      -4.13922589E-06
  -12.5699997      -5.83658948E-06
  -12.5600004      -7.21103197E-06
  -12.5500002      -7.97734083E-06
  -12.5400000      -7.86561668E-06
  -12.5299997      -6.66765982E-06
  -12.5200005      -4.28111252E-06
  -12.5100002      -7.42896134E-07
  -12.5000000       3.75527611E-06
  -12.4899998       8.87319857E-06
  -12.4799995       1.41500468E-05
  -12.4700003       1.90491119E-05
  -12.4600000       2.30113164E-05
  -12.4499998       2.55076611E-05
  -12.4399996       2.60819070E-05
  -12.4300003       2.43762934E-05
  -12.4200001       2.01390940E-05
  -12.4099998       1.32157629E-05
  -12.3999996       3.53057612E-06
  -12.3900003      -8.93283050E-06
  -12.3800001      -2.41439757E-05
  -12.3699999      -4.20250726E-05
  -12.3599997      -6.24366367E-05
  -12.3500004      -8.51525037E-05
  -12.3400002      -1.09831817E-04
  -12.3299999      -1.35997179E-04
  -12.3199997      -1.63028089E-04
  -12.3100004      -1.90175677E-04
  -12.3000002      -2.16596498E-04
  -12.2900000      -2.41402740E-04
  -12.2799997      -2.63718015E-04
  -12.2700005      -2.82723282E-04
  -12.2600002      -2.97687802E-04
  -12.2500000      -3.07973009E-04
  -12.2399998      -3.13011988E-04
  -12.2299995      -3.12271906E-04
  -12.2200003      -3.05213471E-04
  -12.2100000      -2.91256962E-04
  -12.1999998      -2.69781827E-04
  -12.1899996      -2.40156645E-04
  -12.1800003      -2.01806441E-04
  -12.1700001      -1.54305977E-04
  -12.1599998      -9.74846989E-05
  -12.1499996      -3.15178295E-05
  -12.1400003       4.30108266E-05
  -12.1300001       1.25105245E-04
  -12.1199999       2.13393534E-04
  -12.1099997       3.06228700E-04
  -12.1000004       4.01811325E-04
  -12.0900002       4.98329464E-04
  -12.0799999       5.94083744E-04
  -12.0699997       6.87574968E-04
  -12.0600004       7.77542416E-04
  -12.0500002       8.62957386E-04
  -12.0400000       9.42972547E-04
  -12.0299997       1.01684569E-03
  -12.0200005       1.08386832E-03
  -12.0100002       1.14330568E-03
  -12.0000000       1.19436590E-03
  -11.9899998       1.23620743E-03
  -11.9799995       1.26796623E-03
  -11.9700003       1.28880295E-03
  -11.9600000       1.29794539E-03
  -11.9499998       1.29471743E-03
  -11.9399996       1.27854710E-03
  -11.9300003       1.24894816E-03
  -11.9200001       1.20549602E-03
  -11.9099998       1.14779209E-03
  -11.8999996       1.07545324E-03
  -11.8900003       9.88111249E-04
  -11.8800001       8.85453308E-04
  -11.8699999       7.67276098E-04
  -11.8599997       6.33558375E-04
  -11.8500004       4.84525779E-04
  -11.8400002       3.20704654E-04
  -11.8299999       1.42934223E-04
  -11.8199997      -4.76366731E-05
  -11.8100004      -2.49605800E-04
  -11.8000002      -4.61380841E-04
  -11.7900000      -6.81243953E-04
  -11.7799997      -9.07422218E-04
  -11.7700005      -1.13812194E-03
  -11.7600002      -1.37154642E-03
  -11.7500000      -1.60588371E-03
  -11.7399998      -1.83927990E-03
  -11.7299995      -2.06981460E-03
  -11.7200003      -2.29547312E-03
  -11.7100000      -2.51415372E-03
  -11.6999998      -2.72368430E-03
  -11.6899996      -2.92186672E-03
  -11.6800003      -3.10653890E-03
  -11.6700001      -3.27562657E-03
  -11.6599998      -3.42720537E-03
  -11.6499996      -3.55952745E-03
  -11.6400003      -3.67103983E-03
  -11.6300001      -3.76036554E-03
  -11.6199999      -3.82629712E-03
  -11.6099997      -3.86774633E-03
  -11.6000004      -3.88371642E-03
  -11.5900002      -3.87329515E-03
  -11.5799999      -3.83562176E-03
  -11.5699997      -3.76990507E-03
  -11.5600004      -3.67543823E-03
  -11.5500002      -3.55160492E-03
  -11.5400000      -3.39790643E-03
  -11.5299997      -3.21396673E-03
  -11.5200005      -2.99953250E-03
  -11.5100002      -2.75446428E-03
  -11.5000000      -2.47873319E-03
  -11.4899998      -2.17241631E-03
  -11.4799995      -1.83568138E-03
  -11.4700003      -1.46881607E-03
  -11.4600000      -1.07223226E-03
  -11.4499998      -6.46488217E-04
  -11.4399996      -1.92326945E-04
  -11.4300003       2.89331743E-04
  -11.4200001       7.97387271E-04
  -11.4099998       1.33057567E-03
  -11.3999996       1.88750215E-03
  -11.3900003       2.46669212E-03
  -11.3800001       3.06662195E-03
  -11.3699999       3.68575798E-03
  -11.3599997       4.32255166E-03
  -11.3500004       4.97545069E-03
  -11.3400002       5.64283552E-03
  -11.3299999       6.32301718E-03
  -11.3199997       7.01417215E-03
  -11.3100004       7.71435117E-03
  -11.3000002       8.42149183E-03
  -11.2900000       9.13347956E-03
  -11.2799997       9.84822214E-03
  -11.2700005       1.05637480E-02
  -11.2600002       1.12783257E-02
  -11.2500000       1.19904941E-02
  -11.2399998       1.26991086E-02
  -11.2299995       1.34032974E-02
  -11.2200003       1.41024049E-02
  -11.2100000       1.47958621E-02
  -11.1999998       1.54830962E-02
  -11.1899996       1.61634162E-02
  -11.1800003       1.68359671E-02
  -11.1700001       1.74997151E-02
  -11.1599998       1.81535240E-02
  -11.1499996       1.87962148E-02
  -11.1400003       1.94266699E-02
  -11.1300001       2.00439375E-02
  -11.1199999       2.06472948E-02
  -11.1099997       2.12362651E-02
  -11.1000004       2.18106061E-02
  -11.0900002       2.23702118E-02
  -11.0799999       2.29150895E-02
  -11.0699997       2.34452244E-02
  -11.0600004       2.39605736E-02
  -11.0500002       2.44610049E-02
  -11.0400000       2.49463059E-02
  -11.0299997       2.54162122E-02
  -11.0200005       2.58704275E-02
  -11.0100002       2.63086632E-02
  -11.0000000       2.67306194E-02
  -10.9899998       2.71359961E-02
  -10.9799995       2.75244936E-02
  -10.9700003       2.78957076E-02
  -10.9600000       2.82492023E-02
  -10.9499998       2.85844654E-02
  -10.9399996       2.89009530E-02
  -10.9300003       2.91981138E-02
  -10.9200001       2.94754971E-02
  -10.9099998       2.97327302E-02
  -10.8999996       2.99696419E-02
  -10.8900003       3.01862396E-02
  -10.8800001       3.03826611E-02
  -10.8699999       3.05592082E-02
  -10.8599997       3.07162311E-02
  -10.8500004       3.08540445E-02
  -10.8400002       3.09729371E-02
  -10.8299999       3.10730804E-02
  -10.8199997       3.11545487E-02
  -10.8100004       3.12173460E-02
  -10.8000002       3.12614664E-02
  -10.7900000       3.12869065E-02
  -10.7799997       3.12938169E-02
  -10.7700005       3.12824845E-02
  -10.7600002       3.12533900E-02
  -10.7500000       3.12071927E-02
  -10.7399998       3.11447196E-02
  -10.7299995       3.10669057E-02
  -10.7200003       3.09747346E-02
  -10.7100000       3.08691449E-02
  -10.6999998       3.07511147E-02
  -10.6899996       3.06214597E-02
  -10.6800003       3.04810256E-02
  -10.6700001       3.03305574E-02
  -10.6599998       3.01709045E-02
  -10.6499996       3.00029535E-02
  -10.6400003       2.98277605E-02
  -10.6300001       2.96465661E-02
  -10.6199999       2.94607934E-02
  -10.6099997       2.92721167E-02
  -10.6000004       2.90823951E-02
  -10.5900002       2.88936086E-02
  -10.5799999       2.87079047E-02
  -10.5699997       2.85274293E-02
  -10.5600004       2.83543989E-02
  -10.5500002       2.81909760E-02
  -10.5400000       2.80392636E-02
  -10.5299997       2.79011782E-02
  -10.5200005       2.77785435E-02
  -10.5100002       2.76729781E-02
  -10.5000000       2.75858585E-02
  -10.4899998       2.75183432E-02
  -10.4799995       2.74712574E-02
  -10.4700003       2.74452176E-02
  -10.4600000       2.74404213E-02
  -10.4499998       2.74567679E-02
  -10.4399996       2.74938568E-02
  -10.4300003       2.75507774E-02
  -10.4200001       2.76264437E-02
  -10.4099998       2.77193375E-02
  -10.3999996       2.78276578E-02
  -10.3900003       2.79494114E-02
  -10.3800001       2.80825347E-02
  -10.3699999       2.82246843E-02
  -10.3599997       2.83736624E-02
  -10.3500004       2.85272058E-02
  -10.3400002       2.86831725E-02
  -10.3299999       2.88394559E-02
  -10.3199997       2.89940909E-02
  -10.3100004       2.91453470E-02
  -10.3000002       2.92916354E-02
  -10.2900000       2.94316392E-02
  -10.2799997       2.95643024E-02
  -10.2700005       2.96889991E-02
  -10.2600002       2.98054777E-02
  -10.2500000       2.99137849E-02
  -10.2399998       3.00144590E-02
  -10.2299995       3.01082619E-02
  -10.2200003       3.01961899E-02
  -10.2100000       3.02793868E-02
  -10.1999998       3.03590875E-02
  -10.1899996       3.04364245E-02
  -10.1800003       3.05127110E-02
  -10.1700001       3.05890255E-02
  -10.1599998       3.06665935E-02
  -10.1499996       3.07466369E-02
  -10.1400003       3.08305193E-02
  -10.1300001       3.09196804E-02
  -10.1199999       3.10156178E-02
  -10.1099997       3.11200563E-02
  -10.1000004       3.12345941E-02
  -10.0900002       3.13609540E-02
  -10.0799999       3.15005183E-02
  -10.0699997       3.16548012E-02
  -10.0600004       3.18248346E-02
  -10.0500002       3.20115946E-02
  -10.0400000       3.22158560E-02
  -10.0299997       3.24382037E-02
  -10.0200005       3.26791033E-02
  -10.0100002       3.29390988E-02
  -10.0000000       3.32187638E-02
  -9.98999977       3.35188545E-02
  -9.97999954       3.38402875E-02
  -9.97000027       3.41843665E-02
  -9.96000004       3.45524400E-02
  -9.94999981       3.49462070E-02
  -9.93999958       3.53674740E-02
  -9.93000031       3.58180255E-02
  -9.92000008       3.62996235E-02
  -9.90999985       3.68139073E-02
  -9.89999962       3.73623446E-02
  -9.89000034       3.79461125E-02
  -9.88000011       3.85664068E-02
  -9.86999989       3.92242260E-02
  -9.85999966       3.99206355E-02
  -9.85000038       4.06567678E-02
  -9.84000015       4.14339900E-02
  -9.82999992       4.22537103E-02
  -9.81999969       4.31174040E-02
  -9.81000042       4.40266915E-02
  -9.80000019       4.49828580E-02
  -9.78999996       4.59871851E-02
  -9.77999973       4.70404699E-02
  -9.77000046       4.81433012E-02
  -9.76000023       4.92960997E-02
  -9.75000000       5.04989363E-02
  -9.73999977       5.17518818E-02
  -9.72999954       5.30548356E-02
  -9.72000027       5.44078462E-02
  -9.71000004       5.58104888E-02
  -9.69999981       5.72624318E-02
  -9.68999958       5.87627403E-02
  -9.68000031       6.03102036E-02
  -9.67000008       6.19027130E-02
  -9.65999985       6.35378137E-02
  -9.64999962       6.52124956E-02
  -9.64000034       6.69229180E-02
  -9.63000011       6.86651990E-02
  -9.61999989       7.04347491E-02
  -9.60999966       7.22267330E-02
  -9.60000038       7.40359202E-02
  -9.59000015       7.58568197E-02
  -9.57999992       7.76833445E-02
  -9.56999969       7.95095414E-02
  -9.56000042       8.13290030E-02
  -9.55000019       8.31353217E-02
  -9.53999996       8.49222392E-02
  -9.52999973       8.66838470E-02
  -9.52000046       8.84147659E-02
  -9.51000023       9.01100188E-02
  -9.50000000       9.17652324E-02
  -9.48999977       9.33767706E-02
  -9.47999954       9.49411839E-02
  -9.47000027       9.64556634E-02
  -9.46000004       9.79178324E-02
  -9.44999981       9.93254110E-02
  -9.43999958      0.100676998    
  -9.43000031      0.101971716    
  -9.42000008      0.103209428    
  -9.40999985      0.104390912    
  -9.39999962      0.105518177    
  -9.39000034      0.106594391    
  -9.38000011      0.107623868    
  -9.36999989      0.108612210    
  -9.35999966      0.109566137    
  -9.35000038      0.110493407    
  -9.34000015      0.111403003    
  -9.32999992      0.112304360    
  -9.31999969      0.113207906    
  -9.31000042      0.114124574    
  -9.30000019      0.115066133    
  -9.28999996      0.116044149    
  -9.27999973      0.117070936    
  -9.27000046      0.118158765    
  -9.26000023      0.119319841    
  -9.25000000      0.120566234    
  -9.23999977      0.121909805    
  -9.22999954      0.123361617    
  -9.22000027      0.124932490    
  -9.21000004      0.126631618    
  -9.19999981      0.128467456    
  -9.18999958      0.130447105    
  -9.18000031      0.132575676    
  -9.17000008      0.134857029    
  -9.15999985      0.137293130    
  -9.14999962      0.139884233    
  -9.14000034      0.142629072    
  -9.13000011      0.145524696    
  -9.11999989      0.148566604    
  -9.10999966      0.151748970    
  -9.10000038      0.155064464    
  -9.09000015      0.158504456    
  -9.07999992      0.162058830    
  -9.06999969      0.165716752    
  -9.06000042      0.169465736    
  -9.05000019      0.173292086    
  -9.03999996      0.177181989    
  -9.02999973      0.181120232    
  -9.02000046      0.185091197    
  -9.01000023      0.189078838    
  -9.00000000      0.193067461    
  -8.98999977      0.197040185    
  -8.97999954      0.200981304    
  -8.97000027      0.204873979    
  -8.96000004      0.208702326    
  -8.94999981      0.212450475    
  -8.93999958      0.216102764    
  -8.93000031      0.219644725    
  -8.92000008      0.223061979    
  -8.90999985      0.226341680    
  -8.89999962      0.229471624    
  -8.89000034      0.232440799    
  -8.88000011      0.235239431    
  -8.86999989      0.237859070    
  -8.85999966      0.240291789    
  -8.85000038      0.242531151    
  -8.84000015      0.244571894    
  -8.82999992      0.246409819    
  -8.81999969      0.248041674    
  -8.81000042      0.249465883    
  -8.80000019      0.250682205    
  -8.78999996      0.251691520    
  -8.77999973      0.252496660    
  -8.77000046      0.253101259    
  -8.76000023      0.253510952    
  -8.75000000      0.253731966    
  -8.73999977      0.253772497    
  -8.72999954      0.253640980    
  -8.72000027      0.253348053    
  -8.71000004      0.252905160    
  -8.69999981      0.252324015    
  -8.68999958      0.251617968    
  -8.68000031      0.250800431    
  -8.67000008      0.249884859    
  -8.65999985      0.248884559    
  -8.64999962      0.247813165    
  -8.64000034      0.246683225    
  -8.63000011      0.245506898    
  -8.61999989      0.244295865    
  -8.60999966      0.243061170    
  -8.60000038      0.241813734    
  -8.59000015      0.240563810    
  -8.57999992      0.239320233    
  -8.56999969      0.238092288    
  -8.56000042      0.236887842    
  -8.55000019      0.235713333    
  -8.53999996      0.234574959    
  -8.52999973      0.233477145    
  -8.52000046      0.232423782    
  -8.51000023      0.231418446    
  -8.50000000      0.230463848    
  -8.48999977      0.229561403    
  -8.47999954      0.228713855    
  -8.47000027      0.227922186    
  -8.46000004      0.227187708    
  -8.44999981      0.226512000    
  -8.43999958      0.225895688    
  -8.43000031      0.225340948    
  -8.42000008      0.224848732    
  -8.40999985      0.224421054    
  -8.39999962      0.224061146    
  -8.39000034      0.223770857    
  -8.38000011      0.223554850    
  -8.36999989      0.223415896    
  -8.35999966      0.223359600    
  -8.35000038      0.223390386    
  -8.34000015      0.223514229    
  -8.32999992      0.223736867    
  -8.31999969      0.224065438    
  -8.31000042      0.224506065    
  -8.30000019      0.225066692    
  -8.28999996      0.225754067    
  -8.27999973      0.226575926    
  -8.27000046      0.227539420    
  -8.26000023      0.228651538    
  -8.25000000      0.229919136    
  -8.23999977      0.231349036    
  -8.22999954      0.232948095    
  -8.22000027      0.234722689    
  -8.21000004      0.236679763    
  -8.19999981      0.238826275    
  -8.18999958      0.241167814    
  -8.18000031      0.243711948    
  -8.17000008      0.246463850    
  -8.15999985      0.249429479    
  -8.14999962      0.252613395    
  -8.14000034      0.256020457    
  -8.13000011      0.259653419    
  -8.11999989      0.263516098    
  -8.10999966      0.267610520    
  -8.10000038      0.271937877    
  -8.09000015      0.276499659    
  -8.07999992      0.281294644    
  -8.06999969      0.286322564    
  -8.06000042      0.291580200    
  -8.05000019      0.297064632    
  -8.03999996      0.302771598    
  -8.02999973      0.308695078    
  -8.02000046      0.314829469    
  -8.01000023      0.321166366    
  -8.00000000      0.327698320    
  -7.98999977      0.334415764    
  -7.98000002      0.341309756    
  -7.96999979      0.348367572    
  -7.96000004      0.355579913    
  -7.94999981      0.362933785    
  -7.94000006      0.370416433    
  -7.92999983      0.378015101    
  -7.92000008      0.385717481    
  -7.90999985      0.393509477    
  -7.90000010      0.401379168    
  -7.88999987      0.409312725    
  -7.88000011      0.417299032    
  -7.86999989      0.425326139    
  -7.86000013      0.433381915    
  -7.84999990      0.441455185    
  -7.84000015      0.449535817    
  -7.82999992      0.457613826    
  -7.82000017      0.465679199    
  -7.80999994      0.473723084    
  -7.80000019      0.481736958    
  -7.78999996      0.489712417    
  -7.78000021      0.497642010    
  -7.76999998      0.505517244    
  -7.76000023      0.513332486    
  -7.75000000      0.521080315    
  -7.73999977      0.528755784    
  -7.73000002      0.536353767    
  -7.71999979      0.543869615    
  -7.71000004      0.551299632    
  -7.69999981      0.558641970    
  -7.69000006      0.565893352    
  -7.67999983      0.573053658    
  -7.67000008      0.580122530    
  -7.65999985      0.587100208    
  -7.65000010      0.593990684    
  -7.63999987      0.600795746    
  -7.63000011      0.607520819    
  -7.61999989      0.614172578    
  -7.61000013      0.620756388    
  -7.59999990      0.627281070    
  -7.59000015      0.633755386    
  -7.57999992      0.640187621    
  -7.57000017      0.646586776    
  -7.55999994      0.652961493    
  -7.55000019      0.659322083    
  -7.53999996      0.665678144    
  -7.53000021      0.672039628    
  -7.51999998      0.678414941    
  -7.51000023      0.684816658    
  -7.50000000      0.691253483    
  -7.48999977      0.697737753    
  -7.48000002      0.704280019    
  -7.46999979      0.710890710    
  -7.46000004      0.717581689    
  -7.44999981      0.724363029    
  -7.44000006      0.731245518    