  -16.0000000       0.00000000    
  -15.9899998       0.00000000    
  -15.9799995       0.00000000    
  -15.9700003       0.00000000    
  -15.9600000       0.00000000    
  -15.9499998       0.00000000    
  -15.9399996       0.00000000    
  -15.9300003       0.00000000    
  -15.9200001       0.00000000    
  -15.9099998       0.00000000    
  -15.8999996       0.00000000    
  -15.8900003       0.00000000    
  -15.8800001       0.00000000    
  -15.8699999       0.00000000    
  -15.8599997      -0.00000000    
  -15.8500004      -0.00000000    
  -15.8400002      -1.12103877E-44
  -15.8299999      -1.51340234E-43
  -15.8199997      -1.43773222E-42
  -15.8100004      -1.07031177E-41
  -15.8000002      -6.58708369E-41
  -15.7900000      -3.45228094E-40
  -15.7799997      -1.57508330E-39
  -15.7700005      -6.35876873E-39
  -15.7600002      -2.29950458E-38
  -15.7500000      -7.51798196E-38
  -15.7399998      -2.23749698E-37
  -15.7299995      -6.09177536E-37
  -15.7200003      -1.52188923E-36
  -15.7100000      -3.49312883E-36
  -15.6999998      -7.35937954E-36
  -15.6899996      -1.41779815E-35
  -15.6800003      -2.47699791E-35
  -15.6700001      -3.85956523E-35
  -15.6599998      -5.17597886E-35
  -15.6499996      -5.43941070E-35
  -15.6400003      -2.86402569E-35
  -15.6300001       5.01191130E-35
  -15.6199999       2.04885290E-34
  -15.6099997       4.37936022E-34
  -15.6000004       7.01183850E-34
  -15.5900002       8.64909550E-34
  -15.5799999       7.06495798E-34
  -15.5699997      -4.79624941E-35
  -15.5600004      -1.59734603E-33
  -15.5500002      -3.84942000E-33
  -15.5400000      -6.17021319E-33
  -15.5299997      -7.23811455E-33
  -15.5200005      -5.21080666E-33
  -15.5100002       1.59977122E-33
  -15.5000000       1.35152066E-32
  -15.4899998       2.80577630E-32
  -15.4799995       3.90579950E-32
  -15.4700003       3.73792363E-32
  -15.4600000       1.41782207E-32
  -15.4499998      -3.33226464E-32
  -15.4399996      -9.53346372E-32
  -15.4300003      -1.46101640E-31
  -15.4200001      -1.48544000E-31
  -15.4099998      -7.04439969E-32
  -15.3999996       8.96270773E-32
  -15.3900003       2.77240319E-31
  -15.3800001       3.77569491E-31
  -15.3699999       2.53843021E-31
  -15.3599997      -1.60468380E-31
  -15.3500004      -7.36705914E-31
  -15.3400002      -1.06183467E-30
  -15.3299999      -4.96220693E-31
  -15.3199997       1.51098909E-30
  -15.3100004       4.82747882E-30
  -15.3000002       7.94525923E-30
  -15.2900000       7.64850126E-30
  -15.2799997      -2.83975925E-31
  -15.2700005      -1.87485759E-29
  -15.2600002      -4.53992454E-29
  -15.2500000      -6.84657081E-29
  -15.2399998      -6.52647524E-29
  -15.2299995      -7.46801755E-30
  -15.2200003       1.23617535E-28
  -15.2100000       3.12579369E-28
  -15.1999998       4.84704085E-28
  -15.1899996       4.97681820E-28
  -15.1800003       1.73348838E-28
  -15.1700001      -6.13047190E-28
  -15.1599998      -1.79210478E-27
  -15.1499996      -2.95584178E-27
  -15.1400003      -3.30532604E-27
  -15.1300001      -1.81282894E-27
  -15.1199999       2.31083571E-27
  -15.1099997       8.87453727E-27
  -15.1000004       1.59301339E-26
  -15.0900002       1.94348256E-26
  -15.0799999       1.39557521E-26
  -15.0699997      -5.12839168E-27
  -15.0600004      -3.80356157E-26
  -15.0500002      -7.66660942E-26
  -15.0400000      -1.02512894E-25
  -15.0299997      -8.91760723E-26
  -15.0200005      -1.16969522E-26
  -15.0100002       1.37412149E-25
  -15.0000000       3.29653435E-25
  -14.9899998       4.88485303E-25
  -14.9799995       4.95745288E-25
  -14.9700003       2.27008383E-25
  -14.9600000      -3.82414671E-25
  -14.9499998      -1.25527630E-24
  -14.9399996      -2.10814597E-24
  -14.9300003      -2.45413760E-24
  -14.9200001      -1.71994535E-24
  -14.9099998       5.04335392E-25
  -14.8999996       4.12321108E-24
  -14.8900003       8.22056567E-24
  -14.8800001       1.09588699E-23
  -14.8699999       9.89668210E-24
  -14.8599997       2.84837379E-24
  -14.8500004      -1.07892459E-23
  -14.8400002      -2.86124457E-23
  -14.8299999      -4.43581031E-23
  -14.8199997      -4.84511899E-23
  -14.8100004      -3.06207972E-23
  -14.8000002       1.53487420E-23
  -14.7900000       8.56983841E-23
  -14.7799997       1.61802150E-22
  -14.7700005       2.09434139E-22
  -14.7600002       1.85321716E-22
  -14.7500000       5.25535822E-23
  -14.7399998      -1.96923499E-22
  -14.7299995      -5.19133181E-22
  -14.7200003      -8.05125728E-22
  -14.7100000      -8.91236926E-22
  -14.6999998      -6.02626471E-22
  -14.6899996       1.69488974E-22
  -14.6800003       1.37248055E-21
  -14.6700001       2.71307102E-21
  -14.6599998       3.64240945E-21
  -14.6499996       3.45337283E-21
  -14.6400003       1.51452661E-21
  -14.6300001      -2.38439012E-21
  -14.6199999      -7.66894736E-21
  -14.6099997      -1.27581866E-20
  -14.6000004      -1.51752358E-20
  -14.5900002      -1.21417852E-20
  -14.5799999      -1.67370384E-21
  -14.5699997       1.60273401E-20
  -14.5600004       3.73494503E-20
  -14.5500002       5.48731262E-20
  -14.5400000       5.84666120E-20
  -14.5299997       3.82458071E-20
  -14.5200005      -1.08636384E-20
  -14.5100002      -8.40946255E-20
  -14.5000000      -1.63320957E-19
  -14.4899998      -2.17462862E-19
  -14.4799995      -2.08813913E-19
  -14.4700003      -1.05758402E-19
  -14.4600000       1.00208666E-19
  -14.4499998       3.78245008E-19
  -14.4399996       6.50143334E-19
  -14.4300003       7.98304978E-19
  -14.4200001       6.94625178E-19
  -14.4099998       2.48787494E-19
  -14.3999996      -5.34548876E-19
  -14.3900003      -1.50919806E-18
  -14.3800001      -2.37624919E-18
  -14.3699999      -2.73025623E-18
  -14.3599997      -2.17166675E-18
  -14.3500004      -4.71274367E-19
  -14.3400002       2.25559497E-18
  -14.3299999       5.43102554E-18
  -14.3199997       8.02604828E-18
  -14.3100004       8.75640492E-18
  -14.3000002       6.46805980E-18
  -14.2900000       6.45045471E-19
  -14.2799997      -8.10543860E-18
  -14.2700005      -1.77893529E-17
  -14.2600002      -2.51803506E-17
  -14.2500000      -2.65101146E-17
  -14.2399998      -1.86546433E-17
  -14.2299995      -5.71280193E-19
  -14.2200003       2.54527991E-17
  -14.2100000       5.32826539E-17
  -14.1999998       7.36286698E-17
  -14.1899996       7.61663474E-17
  -14.1800003       5.28534265E-17
  -14.1700001       1.69029798E-18
  -14.1599998      -7.02690658E-17
  -14.1499996      -1.46009753E-16
  -14.1400003      -2.00834622E-16
  -14.1300001      -2.08154390E-16
  -14.1199999      -1.47986225E-16
  -14.1099997      -1.61307466E-17
  -14.1000004       1.68915324E-16
  -14.0900002       3.64438758E-16
  -14.0799999       5.09662318E-16
  -14.0699997       5.39958040E-16
  -14.0600004       4.06896761E-16
  -14.0500002       9.92668550E-17
  -14.0400000      -3.41585438E-16
  -14.0299997      -8.18826697E-16
  -14.0200005      -1.19420878E-15
  -14.0100002      -1.31949416E-15
  -14.0000000      -1.08006717E-15
  -13.9899998      -4.40249583E-16
  -13.9799995       5.23484731E-16
  -13.9700003       1.61497906E-15
  -13.9600000       2.54553497E-15
  -13.9499998       2.99616856E-15
  -13.9399996       2.70474794E-15
  -13.9300003       1.55773721E-15
  -13.9200001      -3.39786420E-16
  -13.9099998      -2.64157453E-15
  -13.8999996      -4.80236722E-15
  -13.8900003      -6.18664818E-15
  -13.8800001      -6.22683693E-15
  -13.8699999      -4.59602110E-15
  -13.8599997      -1.34943212E-15
  -13.8500004       3.01091583E-15
  -13.8400002       7.58073397E-15
  -13.8299999       1.12147865E-14
  -13.8199997       1.27819567E-14
  -13.8100004       1.14617712E-14
  -13.8000002       7.01084088E-15
  -13.7900000      -7.50080166E-17
  -13.7799997      -8.56030216E-15
  -13.7700005      -1.66544008E-14
  -13.7600002      -2.23599469E-14
  -13.7500000      -2.39202053E-14
  -13.7399998      -2.02684650E-14
  -13.7299995      -1.13718146E-14
  -13.7200003       1.62322133E-15
  -13.7100000       1.64969289E-14
  -13.6999998       3.03135914E-14
  -13.6899996       3.99711731E-14
  -13.6800003       4.28379120E-14
  -13.6700001       3.73458453E-14
  -13.6599998       2.34150891E-14
  -13.6499996       2.61457662E-15
  -13.6400003      -2.19831206E-14
  -13.6300001      -4.62353273E-14
  -13.6199999      -6.55793846E-14
  -13.6099997      -7.57904888E-14
  -13.6000004      -7.37250498E-14
  -13.5900002      -5.79361998E-14
  -13.5799999      -2.90746194E-14
  -13.5699997       9.97863172E-15
  -13.5600004       5.42696788E-14
  -13.5500002       9.72176509E-14
  -13.5400000       1.31330846E-13
  -13.5299997       1.49160225E-13
  -13.5200005       1.44435652E-13
  -13.5100002       1.13293408E-13
  -13.5000000       5.54520148E-14
  -13.4899998      -2.48654890E-14
  -13.4799995      -1.18511714E-13
  -13.4700003      -2.11752260E-13
  -13.4600000      -2.87559662E-13
  -13.4499998      -3.27925675E-13
  -13.4399996      -3.17042616E-13
  -13.4300003      -2.44949704E-13
  -13.4200001      -1.10996173E-13
  -13.4099998       7.36862421E-14
  -13.3999996       2.85517757E-13
  -13.3900003       4.90235402E-13
  -13.3800001       6.47313095E-13
  -13.3699999       7.16707347E-13
  -13.3599997       6.66990714E-13
  -13.3500004       4.83414632E-13
  -13.3400002       1.74154568E-13
  -13.3299999      -2.26943193E-13
  -13.3199997      -6.62328970E-13
  -13.3100004      -1.05782592E-12
  -13.3000002      -1.33416639E-12
  -13.2900000      -1.42129212E-12
  -13.2799997      -1.27290832E-12
  -13.2700005      -8.78417348E-13
  -13.2600002      -2.69581774E-13
  -13.2500000       4.79933476E-13
  -13.2399998       1.26272918E-12
  -13.2299995       1.95266524E-12
  -13.2200003       2.42442958E-12
  -13.2100000       2.57445215E-12
  -13.1999998       2.33957927E-12
  -13.1899996       1.71025444E-12
  -13.1800003       7.35896966E-13
  -13.1700001      -4.78459123E-13
  -13.1599998      -1.78374926E-12
  -13.1499996      -3.00489429E-12
  -13.1400003      -3.96261106E-12
  -13.1300001      -4.49609620E-12
  -13.1199999      -4.48386640E-12
  -13.1099997      -3.86065051E-12
  -13.1000004      -2.62892854E-12
  -13.0900002      -8.64384519E-13
  -13.0799999       1.28503946E-12
  -13.0699997       3.60662672E-12
  -13.0600004       5.83702878E-12
  -13.0500002       7.68313017E-12
  -13.0400000       8.84944808E-12
  -13.0299997       9.07117090E-12
  -13.0200005       8.15088448E-12
  -13.0100002       5.99562934E-12
  -13.0000000       2.64958715E-12
  -12.9899998      -1.68326746E-12
  -12.9799995      -6.63244286E-12
  -12.9700003      -1.16750489E-11
  -12.9600000      -1.61736475E-11
  -12.9499998      -1.94375523E-11
  -12.9399996      -2.08036539E-11
  -12.9300003      -1.97289893E-11
  -12.9200001      -1.58841811E-11
  -12.9099998      -9.23501119E-12
  -12.8999996      -9.91216183E-14
  -12.8900003       1.08334904E-11
  -12.8800001       2.25241579E-11
  -12.8699999       3.36567163E-11
  -12.8599997       4.27537832E-11
  -12.8500004       4.83301489E-11
  -12.8400002       4.90698072E-11
  -12.8299999       4.40088972E-11
  -12.8199997       3.27039056E-11
  -12.8100004       1.53636409E-11
  -12.8000002      -7.07516077E-12
  -12.7900000      -3.29448482E-11
  -12.7799997      -5.99261613E-11
  -12.7700005      -8.52111298E-11
  -12.7600002      -1.05740597E-10
  -12.7500000      -1.18497240E-10
  -12.7399998      -1.20825960E-10
  -12.7299995      -1.10748327E-10
  -12.7200003      -8.72351358E-11
  -12.7100000      -5.04065609E-11
  -12.6999998      -1.63666661E-12
  -12.6899996       5.64480962E-11
  -12.6800003       1.20073257E-10
  -12.6700001       1.84509449E-10
  -12.6599998       2.44331722E-10
  -12.6499996       2.93721825E-10
  -12.6400003       3.26793703E-10
  -12.6300001       3.37931877E-10
  -12.6199999       3.22142729E-10
  -12.6099997       2.75427264E-10
  -12.6000004       1.95186978E-10
  -12.5900002       8.06708728E-11
  -12.5799999      -6.65416541E-11
  -12.5699997      -2.42044801E-10
  -12.5600004      -4.38142633E-10
  -12.5500002      -6.43484377E-10
  -12.5400000      -8.42881986E-10
  -12.5299997      -1.01740294E-09
  -12.5200005      -1.14483145E-09
  -12.5100002      -1.20058197E-09
  -12.5000000      -1.15913090E-09
  -12.4899998      -9.96002836E-10
  -12.4799995      -6.90312141E-10
  -12.4700003      -2.27814934E-10
  -12.4600000       3.95632499E-10
  -12.4499998       1.17036980E-09
  -12.4399996       2.06921791E-09
  -12.4300003       3.04404457E-09
  -12.4200001       4.02295131E-09
  -12.4099998       4.90845542E-09
  -12.3999996       5.57701796E-09
  -12.3900003       5.88022608E-09
  -12.3800001       5.64785374E-09
  -12.3699999       4.69287498E-09
  -12.3599997       2.81837820E-09
  -12.3500004      -1.73848561E-10
  -12.3400002      -4.47341009E-09
  -12.3299999      -1.02505666E-08
  -12.3199997      -1.76452044E-08
  -12.3100004      -2.67561475E-08
  -12.3000002      -3.76313274E-08
  -12.2900000      -5.02593842E-08
  -12.2799997      -6.45632312E-08
  -12.2700005      -8.03958784E-08
  -12.2600002      -9.75388588E-08
  -12.2500000      -1.15703408E-07
  -12.2399998      -1.34534474E-07
  -12.2299995      -1.53617421E-07
  -12.2200003      -1.72487248E-07
  -12.2100000      -1.90639824E-07
  -12.1999998      -2.07544801E-07
  -12.1899996      -2.22659224E-07
  -12.1800003      -2.35441647E-07
  -12.1700001      -2.45365669E-07
  -12.1599998      -2.51932306E-07
  -12.1499996      -2.54681424E-07
  -12.1400003      -2.53200653E-07
  -12.1300001      -2.47132846E-07
  -12.1199999      -2.36181535E-07
  -12.1099997      -2.20114572E-07
  -12.1000004      -1.98766273E-07
  -12.0900002      -1.72038739E-07
  -12.0799999      -1.39902014E-07
  -12.0699997      -1.02393784E-07
  -12.0600004      -5.96192393E-08
  -12.0500002      -1.17502807E-08
  -12.0400000       4.09748004E-08
  -12.0299997       9.82519097E-08
  -12.0200005       1.59711462E-07
  -12.0100002       2.24919049E-07
  -12.0000000       2.93376502E-07
  -11.9899998       3.64523260E-07
  -11.9799995       4.37738777E-07
  -11.9700003       5.12345935E-07
  -11.9600000       5.87615204E-07
  -11.9499998       6.62770788E-07
  -11.9399996       7.36996697E-07
  -11.9300003       8.09444714E-07
  -11.9200001       8.79241895E-07
  -11.9099998       9.45499892E-07
  -11.8999996       1.00732257E-06
  -11.8900003       1.06381412E-06
  -11.8800001       1.11408849E-06
  -11.8699999       1.15727471E-06
  -11.8599997       1.19252650E-06
  -11.8500004       1.21902849E-06
  -11.8400002       1.23600364E-06
  -11.8299999       1.24272185E-06
  -11.8199997       1.23850691E-06
  -11.8100004       1.22274582E-06
  -11.8000002       1.19489766E-06
  -11.7900000       1.15450189E-06
  -11.7799997       1.10118719E-06
  -11.7700005       1.03468017E-06
  -11.7600002       9.54812322E-07
  -11.7500000       8.61526757E-07
  -11.7399998       7.54883160E-07
  -11.7299995       6.35061099E-07
  -11.7200003       5.02361843E-07
  -11.7100000       3.57207966E-07
  -11.6999998       2.00141741E-07
  -11.6899996       3.18219122E-08
  -11.6800003      -1.46981094E-07
  -11.6700001      -3.35390126E-07
  -11.6599998      -5.32427123E-07
  -11.6499996      -7.37018468E-07
  -11.6400003      -9.48000718E-07
  -11.6300001      -1.16412480E-06
  -11.6199999      -1.38406142E-06
  -11.6099997      -1.60640468E-06
  -11.6000004      -1.82967608E-06
  -11.5900002      -2.05232936E-06
  -11.5799999      -2.27275495E-06
  -11.5699997      -2.48928427E-06
  -11.5600004      -2.70019632E-06
  -11.5500002      -2.90372441E-06
  -11.5400000      -3.09806182E-06
  -11.5299997      -3.28137207E-06
  -11.5200005      -3.45179569E-06
  -11.5100002      -3.60746299E-06
  -11.5000000      -3.74650313E-06
  -11.4899998      -3.86705688E-06
  -11.4799995      -3.96729092E-06
  -11.4700003      -4.04541288E-06
  -11.4600000      -4.09968334E-06
  -11.4499998      -4.12843110E-06
  -11.4399996      -4.13006728E-06
  -11.4300003      -4.10309394E-06
  -11.4200001      -4.04611001E-06
  -11.4099998      -3.95782263E-06
  -11.3999996      -3.83704310E-06
  -11.3900003      -3.68269320E-06
  -11.3800001      -3.49380048E-06
  -11.3699999      -3.26949566E-06
  -11.3599997      -3.00901297E-06
  -11.3500004      -2.71168483E-06
  -11.3400002      -2.37694258E-06
  -11.3299999      -2.00431123E-06
  -11.3199997      -1.59341232E-06
  -11.3100004      -1.14396016E-06
  -11.3000002      -6.55761880E-07
  -11.2900000      -1.28716380E-07
  -11.2799997       4.37185065E-07
  -11.2700005       1.04186074E-06
  -11.2600002       1.68513759E-06
  -11.2500000       2.36674987E-06
  -11.2399998       3.08634185E-06
  -11.2299995       3.84346413E-06
  -11.2200003       4.63757715E-06
  -11.2100000       5.46805177E-06
  -11.1999998       6.33417540E-06
  -11.1899996       7.23515541E-06
  -11.1800003       8.17013188E-06
  -11.1700001       9.13818167E-06
  -11.1599998       1.01383321E-05
  -11.1499996       1.11695745E-05
  -11.1400003       1.22308647E-05
  -11.1300001       1.33211406E-05
  -11.1199999       1.44393198E-05
  -11.1099997       1.55843118E-05
  -11.1000004       1.67550115E-05
  -11.0900002       1.79503058E-05
  -11.0799999       1.91690724E-05
  -11.0699997       2.04101780E-05
  -11.0600004       2.16724748E-05
  -11.0500002       2.29548114E-05
  -11.0400000       2.42560218E-05
  -11.0299997       2.55749310E-05
  -11.0200005       2.69103675E-05
  -11.0100002       2.82611436E-05
  -11.0000000       2.96260896E-05
  -10.9899998       3.10040450E-05
  -10.9799995       3.23938511E-05
  -10.9700003       3.37943748E-05
  -10.9600000       3.52044917E-05
  -10.9499998       3.66231070E-05
  -10.9399996       3.80491183E-05
  -10.9300003       3.94814342E-05
  -10.9200001       4.09189597E-05
  -10.9099998       4.23605707E-05
  -10.8999996       4.38051393E-05
  -10.8900003       4.52514869E-05
  -10.8800001       4.66984020E-05
  -10.8699999       4.81446332E-05
  -10.8599997       4.95888962E-05
  -10.8500004       5.10298632E-05
  -10.8400002       5.24661773E-05
  -10.8299999       5.38964705E-05
  -10.8199997       5.53193531E-05
  -10.8100004       5.67334246E-05
  -10.8000002       5.81372915E-05
  -10.7900000       5.95295605E-05
  -10.7799997       6.09088638E-05
  -10.7700005       6.22738371E-05
  -10.7600002       6.36231343E-05
  -10.7500000       6.49554131E-05
  -10.7399998       6.62694001E-05
  -10.7299995       6.75637930E-05
  -10.7200003       6.88373329E-05
  -10.7100000       7.00888049E-05
  -10.6999998       7.13170157E-05
  -10.6899996       7.25208083E-05
  -10.6800003       7.36990769E-05
  -10.6700001       7.48507882E-05
  -10.6599998       7.59749528E-05
  -10.6499996       7.70706756E-05
  -10.6400003       7.81371709E-05
  -10.6300001       7.91737111E-05
  -10.6199999       8.01796996E-05
  -10.6099997       8.11546561E-05
  -10.6000004       8.20982023E-05
  -10.5900002       8.30101126E-05
  -10.5799999       8.38902488E-05
  -10.5699997       8.47386400E-05
  -10.5600004       8.55554244E-05
  -10.5500002       8.63408568E-05
  -10.5400000       8.70952936E-05
  -10.5299997       8.78192222E-05
  -10.5200005       8.85131885E-05
  -10.5100002       8.91778618E-05
  -10.5000000       8.98139333E-05
  -10.4899998       9.04221961E-05
  -10.4799995       9.10035014E-05
  -10.4700003       9.15587225E-05
  -10.4600000       9.20888124E-05
  -10.4499998       9.25947243E-05
  -10.4399996       9.30774622E-05
  -10.4300003       9.35380594E-05
  -10.4200001       9.39775491E-05
  -10.4099998       9.43969717E-05
  -10.3999996       9.47973385E-05
  -10.3900003       9.51796392E-05
  -10.3800001       9.55448777E-05
  -10.3699999       9.58940291E-05
  -10.3599997       9.62280174E-05
  -10.3500004       9.65477666E-05
  -10.3400002       9.68541863E-05
  -10.3299999       9.71481713E-05
  -10.3199997       9.74306313E-05
  -10.3100004       9.77023665E-05
  -10.3000002       9.79642791E-05
  -10.2900000       9.82171186E-05
  -10.2799997       9.84617072E-05
  -10.2700005       9.86987579E-05
  -10.2600002       9.89289547E-05
  -10.2500000       9.91529087E-05
  -10.2399998       9.93712456E-05
  -10.2299995       9.95844530E-05
  -10.2200003       9.97930110E-05
  -10.2100000       9.99973417E-05
  -10.1999998       1.00197860E-04
  -10.1899996       1.00394893E-04
  -10.1800003       1.00588797E-04
  -10.1700001       1.00779886E-04
  -10.1599998       1.00968449E-04
  -10.1499996       1.01154772E-04
  -10.1400003       1.01339181E-04
  -10.1300001       1.01521968E-04
  -10.1199999       1.01703466E-04
  -10.1099997       1.01883998E-04
  -10.1000004       1.02063881E-04
  -10.0900002       1.02243517E-04
  -10.0799999       1.02423219E-04
  -10.0699997       1.02603393E-04
  -10.0600004       1.02784506E-04
  -10.0500002       1.02966980E-04
  -10.0400000       1.03151346E-04
  -10.0299997       1.03338163E-04
  -10.0200005       1.03528131E-04
  -10.0100002       1.03721948E-04
  -10.0000000       1.03920393E-04
  -9.98999977       1.04124425E-04
  -9.97999954       1.04334955E-04
  -9.97000027       1.04553023E-04
  -9.96000004       1.04779705E-04
  -9.94999981       1.05016123E-04
  -9.93999958       1.05263432E-04
  -9.93000031       1.05522806E-04
  -9.92000008       1.05795392E-04
  -9.90999985       1.06082392E-04
  -9.89999962       1.06385007E-04
  -9.89000034       1.06704378E-04
  -9.88000011       1.07041677E-04
  -9.86999989       1.07398075E-04
  -9.85999966       1.07774758E-04
  -9.85000038       1.08172906E-04
  -9.84000015       1.08593733E-04
  -9.82999992       1.09038396E-04
  -9.81999969       1.09508146E-04
  -9.81000042       1.10004170E-04
  -9.80000019       1.10527704E-04
  -9.78999996       1.11079942E-04
  -9.77999973       1.11662128E-04
  -9.77000046       1.12275491E-04
  -9.76000023       1.12921269E-04
  -9.75000000       1.13600661E-04
  -9.73999977       1.14314935E-04
  -9.72999954       1.15065297E-04
  -9.72000027       1.15853014E-04
  -9.71000004       1.16679279E-04
  -9.69999981       1.17545373E-04
  -9.68999958       1.18452466E-04
  -9.68000031       1.19401775E-04
  -9.67000008       1.20394507E-04
  -9.65999985       1.21431811E-04
  -9.64999962       1.22514786E-04
  -9.64000034       1.23644510E-04
  -9.63000011       1.24822007E-04
  -9.61999989       1.26048253E-04
  -9.60999966       1.27324078E-04
  -9.60000038       1.28650296E-04
  -9.59000015       1.30027503E-04
  -9.57999992       1.31456254E-04
  -9.56999969       1.32936970E-04
  -9.56000042       1.34469839E-04
  -9.55000019       1.36054950E-04
  -9.53999996       1.37692230E-04
  -9.52999973       1.39381504E-04
  -9.52000046       1.41122247E-04
  -9.51000023       1.42914025E-04
  -9.50000000       1.44756021E-04
  -9.48999977       1.46647450E-04
  -9.47999954       1.48587205E-04
  -9.47000027       1.50574080E-04
  -9.46000004       1.52606852E-04
  -9.44999981       1.54684007E-04
  -9.43999958       1.56804032E-04
  -9.43000031       1.58965326E-04
  -9.42000008       1.61166172E-04
  -9.40999985       1.63404868E-04
  -9.39999962       1.65679754E-04
  -9.39000034       1.67989172E-04
  -9.38000011       1.70331477E-04
  -9.36999989       1.72705259E-04
  -9.35999966       1.75109148E-04
  -9.35000038       1.77541981E-04
  -9.34000015       1.80002724E-04
  -9.32999992       1.82490636E-04
  -9.31999969       1.85005221E-04
  -9.31000042       1.87546248E-04
  -9.30000019       1.90113715E-04
  -9.28999996       1.92708001E-04
  -9.27999973       1.95329747E-04
  -9.27000046       1.97979825E-04
  -9.26000023       2.00659546E-04
  -9.25000000       2.03370335E-04
  -9.23999977       2.06113982E-04
  -9.22999954       2.08892656E-04
  -9.22000027       2.11708568E-04
  -9.21000004       2.14564294E-04
  -9.19999981       2.17462541E-04
  -9.18999958       2.20406204E-04
  -9.18000031       2.23398209E-04
  -9.17000008       2.26441713E-04
  -9.15999985       2.29539815E-04
  -9.14999962       2.32695791E-04
  -9.14000034       2.35912783E-04
  -9.13000011       2.39194007E-04
  -9.11999989       2.42542490E-04
  -9.10999966       2.45961215E-04
  -9.10000038       2.49453064E-04
  -9.09000015       2.53020582E-04
  -9.07999992       2.56666273E-04
  -9.06999969       2.60392146E-04
  -9.06000042       2.64200236E-04
  -9.05000019       2.68092088E-04
  -9.03999996       2.72069097E-04
  -9.02999973       2.76132167E-04
  -9.02000046       2.80282140E-04
  -9.01000023       2.84519308E-04
  -9.00000000       2.88843672E-04
  -8.98999977       2.93254969E-04
  -8.97999954       2.97752587E-04
  -8.97000027       3.02335597E-04
  -8.96000004       3.07002745E-04
  -8.94999981       3.11752374E-04
  -8.93999958       3.16582620E-04
  -8.93000031       3.21491156E-04
  -8.92000008       3.26475652E-04
  -8.90999985       3.31533112E-04
  -8.89999962       3.36660567E-04
  -8.89000034       3.41854728E-04
  -8.88000011       3.47111898E-04
  -8.86999989       3.52428295E-04
  -8.85999966       3.57799901E-04
  -8.85000038       3.63222614E-04
  -8.84000015       3.68692068E-04
  -8.82999992       3.74203926E-04
  -8.81999969       3.79753561E-04
  -8.81000042       3.85336549E-04
  -8.80000019       3.90948291E-04
  -8.78999996       3.96584335E-04
  -8.77999973       4.02240112E-04
  -8.77000046       4.07911284E-04
  -8.76000023       4.13593632E-04
  -8.75000000       4.19283024E-04
  -8.73999977       4.24975617E-04
  -8.72999954       4.30667598E-04
  -8.72000027       4.36355709E-04
  -8.71000004       4.42036719E-04
  -8.69999981       4.47707775E-04
  -8.68999958       4.53366403E-04
  -8.68000031       4.59010451E-04
  -8.67000008       4.64638200E-04
  -8.65999985       4.70248167E-04
  -8.64999962       4.75839421E-04
  -8.64000034       4.81411320E-04
  -8.63000011       4.86963458E-04
  -8.61999989       4.92496125E-04
  -8.60999966       4.98009671E-04
  -8.60000038       5.03504765E-04
  -8.59000015       5.08982455E-04
  -8.57999992       5.14444080E-04
  -8.56999969       5.19890862E-04
  -8.56000042       5.25324489E-04
  -8.55000019       5.30746765E-04
  -8.53999996       5.36159496E-04
  -8.52999973       5.41564892E-04
  -8.52000046       5.46964526E-04
  -8.51000023       5.52360842E-04
  -8.50000000       5.57755760E-04
  -8.48999977       5.63151261E-04
  -8.47999954       5.68549323E-04
  -8.47000027       5.73951926E-04
  -8.46000004       5.79360931E-04
  -8.44999981       5.84778260E-04
  -8.43999958       5.90205484E-04
  -8.43000031       5.95644524E-04
  -8.42000008       6.01097126E-04
  -8.40999985       6.06564456E-04
  -8.39999962       6.12048490E-04
  -8.39000034       6.17550628E-04
  -8.38000011       6.23072439E-04
  -8.36999989       6.28615380E-04
  -8.35999966       6.34180964E-04
  -8.35000038       6.39770995E-04
  -8.34000015       6.45387452E-04
  -8.32999992       6.51031733E-04
  -8.31999969       6.56706048E-04
  -8.31000042       6.62412378E-04
  -8.30000019       6.68153167E-04
  -8.28999996       6.73930685E-04
  -8.27999973       6.79747667E-04
  -8.27000046       6.85607025E-04
  -8.26000023       6.91511668E-04
  -8.25000000       6.97464566E-04
  -8.23999977       7.03469093E-04
  -8.22999954       7.09528802E-04
  -8.22000027       7.15647067E-04
  -8.21000004       7.21827964E-04
  -8.19999981       7.28074985E-04
  -8.18999958       7.34391971E-04
  -8.18000031       7.40782940E-04
  -8.17000008       7.47251499E-04
  -8.15999985       7.53801898E-04
  -8.14999962       7.60437862E-04
  -8.14000034       7.67163350E-04
  -8.13000011       7.73982087E-04
  -8.11999989       7.80897681E-04
  -8.10999966       7.87913741E-04
  -8.10000038       7.95033993E-04
  -8.09000015       8.02261522E-04
  -8.07999992       8.09599471E-04
  -8.06999969       8.17050925E-04
  -8.06000042       8.24618735E-04
  -8.05000019       8.32305523E-04
  -8.03999996       8.40113556E-04
  -8.02999973       8.48045340E-04
  -8.02000046       8.56102619E-04
  -8.01000023       8.64287314E-04
  -8.00000000       8.72600882E-04
  -7.98999977       8.81044951E-04
  -7.98000002       8.89620744E-04
  -7.96999979       8.98329134E-04
  -7.96000004       9.07171110E-04
  -7.94999981       9.16147081E-04
  -7.94000006       9.25257104E-04
  -7.92999983       9.34501877E-04
  -7.92000008       9.43880761E-04
  -7.90999985       9.53393232E-04
  -7.90000010       9.63039056E-04
  -7.88999987       9.72816837E-04
  -7.88000011       9.82725178E-04
  -7.86999989       9.92762856E-04
  -7.86000013       1.00292754E-03
  -7.84999990       1.01321749E-03
  -7.84000015       1.02362980E-03
  -7.82999992       1.03416236E-03
  -7.82000017       1.04481180E-03
  -7.80999994       1.05557567E-03
  -7.80000019       1.06645015E-03
  -7.78999996       1.07743230E-03
  -7.78000021       1.08851830E-03
  -7.76999998       1.09970523E-03
  -7.76000023       1.11098890E-03
  -7.75000000       1.12236571E-03
  -7.73999977       1.13383250E-03
  -7.73000002       1.14538532E-03
  -7.71999979       1.15702068E-03
  -7.71000004       1.16873498E-03
  -7.69999981       1.18052482E-03
  -7.69000006       1.19238684E-03
  -7.67999983       1.20431790E-03
  -7.67000008       1.21631450E-03
  -7.65999985       1.22837431E-03
  -7.65000010       1.24049454E-03
  -7.63999987       1.25267275E-03
  -7.63000011       1.26490637E-03
  -7.61999989       1.27719413E-03
  -7.61000013       1.28953438E-03
  -7.59999990       1.30192551E-03
  -7.59000015       1.31436717E-03
  -7.57999992       1.32685853E-03
  -7.57000017       1.33939961E-03
  -7.55999994       1.35199097E-03
  -7.55000019       1.36463321E-03
  -7.53999996       1.37732760E-03
  -7.53000021       1.39007554E-03
  -7.51999998       1.40287913E-03
  -7.51000023       1.41574105E-03
  -7.50000000       1.42866385E-03
  -7.48999977       1.44165102E-03
  -7.48000002       1.45470619E-03
  -7.46999979       1.46783306E-03
  -7.46000004       1.48103654E-03
  -7.44999981       1.49432127E-03
  -7.44000006       1.50769216E-03