  -16.0000000       0.00000000    
  -15.9899998       0.00000000    
  -15.9799995       0.00000000    
  -15.9700003       0.00000000    
  -15.9600000       0.00000000    
  -15.9499998       0.00000000    
  -15.9399996       0.00000000    
  -15.9300003       0.00000000    
  -15.9200001       0.00000000    
  -15.9099998       0.00000000    
  -15.8999996       0.00000000    
  -15.8900003       0.00000000    
  -15.8800001      -7.00649232E-44
  -15.8699999      -5.86583537E-42
  -15.8599997      -1.51118829E-40
  -15.8500004      -2.12084841E-39
  -15.8400002      -2.00385947E-38
  -15.8299999      -1.41826348E-37
  -15.8199997      -8.00247787E-37
  -15.8100004      -3.74351652E-36
  -15.8000002      -1.48892833E-35
  -15.7900000      -5.11386821E-35
  -15.7799997      -1.52822083E-34
  -15.7700005      -3.97050125E-34
  -15.7600002      -8.85514588E-34
  -15.7500000      -1.63294955E-33
  -15.7399998      -2.21587059E-33
  -15.7299995      -1.01604194E-33
  -15.7200003       5.93277509E-33
  -15.7100000       2.58713082E-32
  -15.6999998       6.81884936E-32
  -15.6899996       1.37992928E-31
  -15.6800003       2.20888601E-31
  -15.6700001       2.58913163E-31
  -15.6599998       1.27180860E-31
  -15.6499996      -3.64087346E-31
  -15.6400003      -1.40393108E-30
  -15.6300001      -3.01599407E-30
  -15.6199999      -4.79522100E-30
  -15.6099997      -5.62144419E-30
  -15.6000004      -3.52463423E-30
  -15.5900002       4.03422702E-30
  -15.5799999       1.91567753E-29
  -15.5699997       4.14866886E-29
  -15.5600004       6.50476700E-29
  -15.5500002       7.43834589E-29
  -15.5400000       4.19785742E-29
  -15.5299997      -6.80696527E-29
  -15.5200005      -2.81498398E-28
  -15.5100002      -5.71496792E-28
  -15.5000000      -7.94726180E-28
  -15.4899998      -6.39467675E-28
  -15.4799995       3.30547188E-28
  -15.4700003       2.41542353E-27
  -15.4600000       5.22521241E-27
  -15.4499998       6.97319991E-27
  -15.4399996       4.17354373E-27
  -15.4300003      -7.24860481E-27
  -15.4200001      -2.84126990E-26
  -15.4099998      -5.16070308E-26
  -15.3999996      -5.49283540E-26
  -15.3900003      -4.04781941E-27
  -15.3800001       1.30080587E-25
  -15.3699999       3.32697600E-25
  -15.3599997       4.95687159E-25
  -15.3500004       3.91934694E-25
  -15.3400002      -2.66941138E-25
  -15.3299999      -1.63133457E-24
  -15.3199997      -3.37455013E-24
  -15.3100004      -4.35192592E-24
  -15.3000002      -2.57747837E-24
  -15.2900000       4.04927706E-24
  -15.2799997       1.59753595E-23
  -15.2700005       2.94712218E-23
  -15.2600002       3.46557040E-23
  -15.2500000       1.64545499E-23
  -15.2399998      -3.88325774E-23
  -15.2299995      -1.30329414E-22
  -15.2200003      -2.26083951E-22
  -15.2100000      -2.53078367E-22
  -15.1999998      -1.09126613E-22
  -15.1899996       2.88713751E-22
  -15.1800003       9.17710845E-22
  -15.1700001       1.55153950E-21
  -15.1599998       1.71390450E-21
  -15.1499996       7.72381462E-22
  -15.1400003      -1.75414574E-21
  -15.1300001      -5.68598016E-21
  -15.1199999      -9.64175535E-21
  -15.1099997      -1.08254597E-20
  -15.1000004      -5.61049710E-21
  -15.0900002       8.72953508E-21
  -15.0799999       3.12682285E-20
  -15.0699997       5.45972679E-20
  -15.0600004       6.37769952E-20
  -15.0500002       3.93844730E-20
  -15.0400000      -3.37099816E-20
  -15.0299997      -1.52569522E-19
  -15.0200005      -2.82052692E-19
  -15.0100002      -3.49122951E-19
  -15.0000000      -2.56415573E-19
  -14.9899998       7.73696730E-20
  -14.9799995       6.53324257E-19
  -14.9700003       1.32477411E-18
  -14.9600000       1.76503365E-18
  -14.9499998       1.51827027E-18
  -14.9399996       1.68397352E-19
  -14.9300003      -2.38278723E-18
  -14.9200001      -5.60849300E-18
  -14.9099998      -8.17867055E-18
  -14.8999996      -8.11089220E-18
  -14.8900003      -3.40822566E-18
  -14.8800001       6.82175893E-18
  -14.8699999       2.10496538E-17
  -14.8599997       3.44036758E-17
  -14.8500004       3.89382072E-17
  -14.8400002       2.57769414E-17
  -14.8299999      -1.07394232E-17
  -14.8199997      -6.77711127E-17
  -14.8100004      -1.29627037E-16
  -14.8000002      -1.67278604E-16
  -14.7900000      -1.44553306E-16
  -14.7799997      -3.21376675E-17
  -14.7700005       1.72823547E-16
  -14.7600002       4.28037141E-16
  -14.7500000       6.38390098E-16
  -14.7399998       6.70062354E-16
  -14.7299995       3.92787680E-16
  -14.7200003      -2.53603464E-16
  -14.7100000      -1.18659141E-15
  -14.6999998      -2.13430597E-15
  -14.6899996      -2.65278691E-15
  -14.6800003      -2.23609774E-15
  -14.6700001      -5.20056842E-16
  -14.6599998       2.46392779E-15
  -14.6499996       6.07643310E-15
  -14.6400003       9.02150313E-15
  -14.6300001       9.57473338E-15
  -14.6199999       6.13318346E-15
  -14.6099997      -1.99160125E-15
  -14.6000004      -1.37686163E-14
  -14.5900002      -2.59871335E-14
  -14.5799999      -3.35259977E-14
  -14.5699997      -3.06067529E-14
  -14.5600004      -1.29762271E-14
  -14.5500002       1.94719932E-14
  -14.5400000       6.05598200E-14
  -14.5299997       9.73294118E-14
  -14.5200005       1.12195606E-13
  -14.5100002       8.80923413E-14
  -14.5000000       1.58495839E-14
  -14.4899998      -9.82560591E-14
  -14.4799995      -2.27841373E-13
  -14.4700003      -3.27885695E-13
  -14.4600000      -3.44472118E-13
  -14.4499998      -2.32487722E-13
  -14.4399996       2.24079144E-14
  -14.4300003       3.84538755E-13
  -14.4200001       7.60537249E-13
  -14.4099998       1.01114158E-12
  -14.3999996       9.85892140E-13
  -14.3900003       5.76523746E-13
  -14.3800001      -2.24137413E-13
  -14.3699999      -1.27830602E-12
  -14.3599997      -2.29710998E-12
  -14.3500004      -2.88916092E-12
  -14.3400002      -2.66636062E-12
  -14.3299999      -1.38878481E-12
  -14.3199997       8.90870494E-13
  -14.3100004       3.73695692E-12
  -14.3000002       6.34741044E-12
  -14.2900000       7.70915016E-12
  -14.2799997       6.88453548E-12
  -14.2700005       3.37085047E-12
  -14.2600002      -2.57119608E-12
  -14.2500000      -9.74722473E-12
  -14.2399998      -1.61295786E-11
  -14.2299995      -1.92808842E-11
  -14.2200003      -1.70561777E-11
  -14.2100000      -8.42765788E-12
  -14.1999998       5.81413476E-12
  -14.1899996       2.27602555E-11
  -14.1800003       3.77063311E-11
  -14.1700001       4.51724387E-11
  -14.1599998       4.04787003E-11
  -14.1499996       2.15085380E-11
  -14.1400003      -9.87265304E-12
  -14.1300001      -4.73050071E-11
  -14.1199999      -8.07388670E-11
  -14.1099997      -9.86418378E-11
  -14.1000004      -9.12568146E-11
  -14.0900002      -5.41300754E-11
  -14.0799999       9.15041480E-12
  -14.0699997       8.60683955E-11
  -14.0600004       1.56865507E-10
  -14.0500002       1.98871392E-10
  -14.0400000       1.92730457E-10
  -14.0299997       1.29016686E-10
  -14.0200005       1.32806708E-11
  -14.0100002      -1.32355155E-10
  -14.0000000      -2.72258993E-10
  -13.9899998      -3.65029312E-10
  -13.9799995      -3.74502429E-10
  -13.9700003      -2.81352913E-10
  -13.9600000      -9.19286175E-11
  -13.9499998       1.58820027E-10
  -13.9399996       4.12243600E-10
  -13.9300003       5.98649574E-10
  -13.9200001       6.55305865E-10
  -13.9099998       5.45399670E-10
  -13.8999996       2.72570577E-10
  -13.8900003      -1.13903435E-10
  -13.8800001      -5.26185484E-10
  -13.8699999      -8.56980764E-10
  -13.8599997      -1.00685305E-09
  -13.8500004      -9.13017495E-10
  -13.8400002      -5.71510561E-10
  -13.8299999      -4.54934736E-11
  -13.8199997       5.44465306E-10
  -13.8100004       1.04755049E-09
  -13.8000002       1.32157962E-09
  -13.7900000       1.27376010E-09
  -13.7799997       8.91760887E-10
  -13.7700005       2.55010069E-10
  -13.7600002      -4.79246476E-10
  -13.7500000      -1.11382203E-09
  -13.7399998      -1.46491208E-09
  -13.7299995      -1.41687373E-09
  -13.7200003      -9.62471103E-10
  -13.7100000      -2.15097773E-10
  -13.6999998       6.13727957E-10
  -13.6899996       1.26874733E-09
  -13.6800003       1.52456547E-09
  -13.6700001       1.25862754E-09
  -13.6599998       5.01567454E-10
  -13.6499996      -5.52941193E-10
  -13.6400003      -1.58681102E-09
  -13.6300001      -2.23919328E-09
  -13.6199999      -2.21228791E-09
  -13.6099997      -1.37297884E-09
  -13.6000004       1.80352649E-10
  -13.5900002       2.11010320E-09
  -13.5799999       3.90093469E-09
  -13.5699997       4.98183850E-09
  -13.5600004       4.88172081E-09
  -13.5500002       3.37866513E-09
  -13.5400000       6.00132555E-10
  -13.5299997      -2.95976332E-09
  -13.5200005      -6.52041576E-09
  -13.5100002      -9.18150889E-09
  -13.5000000      -1.01407451E-08
  -13.4899998      -8.90957885E-09
  -13.4799995      -5.46974466E-09
  -13.4700003      -3.24521687E-10
  -13.4600000       5.57680613E-09
  -13.4499998       1.10305622E-08
  -13.4399996       1.48441934E-08
  -13.4300003       1.61116347E-08
  -13.4200001       1.44289540E-08
  -13.4099998       9.99391947E-09
  -13.3999996       3.56251761E-09
  -13.3900003      -3.72665632E-09
  -13.3800001      -1.06132543E-08
  -13.3699999      -1.59906790E-08
  -13.3599997      -1.91220746E-08
  -13.3500004      -1.97405718E-08
  -13.3400002      -1.80131252E-08
  -13.3299999      -1.43898982E-08
  -13.3199997      -9.39826972E-09
  -13.3100004      -3.45968520E-09
  -13.3000002       3.19848081E-09
  -13.2900000       1.04953255E-08
  -13.2799997       1.83211402E-08
  -13.2700005       2.62943569E-08
  -13.2600002       3.35483605E-08
  -13.2500000       3.86551058E-08
  -13.2399998       3.97662987E-08
  -13.2299995       3.49938958E-08
  -13.2200003       2.29742412E-08
  -13.2100000       3.48532025E-09
  -13.1999998      -2.20616254E-08
  -13.1899996      -5.04376629E-08
  -13.1800003      -7.68494388E-08
  -13.1700001      -9.56627773E-08
  -13.1599998      -1.01505087E-07
  -13.1499996      -9.05363962E-08
  -13.1400003      -6.15991951E-08
  -13.1300001      -1.69441172E-08
  -13.1199999       3.77071068E-08
  -13.1099997       9.38654168E-08
  -13.1000004       1.41672487E-07
  -13.0900002       1.71744347E-07
  -13.0799999       1.77082399E-07
  -13.0699997       1.54626676E-07
  -13.0600004       1.06082560E-07
  -13.0500002       3.78030407E-08
  -13.0400000      -4.02789873E-08
  -13.0299997      -1.16450025E-07
  -13.0200005      -1.79352298E-07
  -13.0100002      -2.19979981E-07
  -13.0000000      -2.33096614E-07
  -12.9899998      -2.17784205E-07
  -12.9799995      -1.77063356E-07
  -12.9700003      -1.16763829E-07
  -12.9600000      -4.40195791E-08
  -12.9499998       3.41546489E-08
  -12.9399996       1.11795288E-07
  -12.9300003       1.84195315E-07
  -12.9200001       2.47399015E-07
  -12.9099998       2.97260868E-07
  -12.8999996       3.28528898E-07
  -12.8900003       3.34461191E-07
  -12.8800001       3.07368992E-07
  -12.8699999       2.40218043E-07
  -12.8599997       1.29071310E-07
  -12.8500004      -2.41780747E-08
  -12.8400002      -2.09563495E-07
  -12.8299999      -4.08104086E-07
  -12.8199997      -5.92793128E-07
  -12.8100004      -7.31745615E-07
  -12.8000002      -7.93224785E-07
  -12.7900000      -7.51752509E-07
  -12.7799997      -5.94123151E-07
  -12.7700005      -3.24006351E-07
  -12.7600002       3.60262042E-08
  -12.7500000       4.45765124E-07
  -12.7399998       8.52000255E-07
  -12.7299995       1.19590857E-06
  -12.7200003       1.42197280E-06
  -12.7100000       1.48685729E-06
  -12.6999998       1.36663675E-06
  -12.6899996       1.06108985E-06
  -12.6800003       5.94345181E-07
  -12.6700001       1.18836487E-08
  -12.6599998      -6.25418409E-07
  -12.6499996      -1.24903011E-06
  -12.6400003      -1.79090887E-06
  -12.6300001      -2.19077424E-06
  -12.6199999      -2.40162512E-06
  -12.6099997      -2.39312476E-06
  -12.6000004      -2.15300020E-06
  -12.5900002      -1.68696317E-06
  -12.5799999      -1.01779995E-06
  -12.5699997      -1.84142706E-07
  -12.5600004       7.60864168E-07
  -12.5500002       1.75117827E-06
  -12.5400000       2.71023032E-06
  -12.5299997       3.55462862E-06
  -12.5200005       4.19960588E-06
  -12.5100002       4.56620592E-06
  -12.5000000       4.58962677E-06
  -12.4899998       4.22759013E-06
  -12.4799995       3.46722641E-06
  -12.4700003       2.32891011E-06
  -12.4600000       8.65822585E-07
  -12.4499998      -8.41263500E-07
  -12.4399996      -2.69359361E-06
  -12.4300003      -4.58707927E-06
  -12.4200001      -6.42592249E-06
  -12.4099998      -8.13479528E-06
  -12.3999996      -9.66734933E-06
  -12.3900003      -1.10094516E-05
  -12.3800001      -1.21766006E-05
  -12.3699999      -1.32060513E-05
  -12.3599997      -1.41452883E-05
  -12.3500004      -1.50390761E-05
  -12.3400002      -1.59175579E-05
  -12.3299999      -1.67874441E-05
  -12.3199997      -1.76276699E-05
  -12.3100004      -1.83897664E-05
  -12.3000002      -1.90023893E-05
  -12.2900000      -1.93785727E-05
  -12.2799997      -1.94241384E-05
  -12.2700005      -1.90457577E-05
  -12.2600002      -1.81577379E-05
  -12.2500000      -1.66872669E-05
  -12.2399998      -1.45785270E-05
  -12.2299995      -1.17964664E-05
  -12.2200003      -8.33096055E-06
  -12.2100000      -4.20173455E-06
  -12.1999998       5.36281334E-07
  -12.1899996       5.78828849E-06
  -12.1800003       1.14172490E-05
  -12.1700001       1.72455657E-05
  -12.1599998       2.30622027E-05
  -12.1499996       2.86356335E-05
  -12.1400003       3.37319616E-05
  -12.1300001       3.81361024E-05
  -12.1199999       4.16729963E-05
  -12.1099997       4.42255405E-05
  -12.1000004       4.57460046E-05
  -12.0900002       4.62588250E-05
  -12.0799999       4.58541545E-05
  -12.0699997       4.46732556E-05
  -12.0600004       4.28882195E-05
  -12.0500002       4.06795989E-05
  -12.0400000       3.82157596E-05
  -12.0299997       3.56369856E-05
  -12.0200005       3.30464391E-05
  -12.0100002       3.05082940E-05
  -12.0000000       2.80520544E-05
  -11.9899998       2.56806197E-05
  -11.9799995       2.33796254E-05
  -11.9700003       2.11253355E-05
  -11.9600000       1.88895247E-05
  -11.9499998       1.66408536E-05
  -11.9399996       1.43434700E-05
  -11.9300003       1.19543756E-05
  -11.9200001       9.42173119E-06
  -11.9099998       6.68562143E-06
  -11.8999996       3.68244469E-06
  -11.8900003       3.52679677E-07
  -11.8800001      -3.34910123E-06
  -11.8699999      -7.44393537E-06
  -11.8599997      -1.19201750E-05
  -11.8500004      -1.67291091E-05
  -11.8400002      -2.17857196E-05
  -11.8299999      -2.69746470E-05
  -11.8199997      -3.21603256E-05
  -11.8100004      -3.71995193E-05
  -11.8000002      -4.19539538E-05
  -11.7900000      -4.63008982E-05
  -11.7799997      -5.01401992E-05
  -11.7700005      -5.33971070E-05
  -11.7600002      -5.60211811E-05
  -11.7500000      -5.79824336E-05
  -11.7399998      -5.92662982E-05
  -11.7299995      -5.98690240E-05
  -11.7200003      -5.97947947E-05
  -11.7100000      -5.90550735E-05
  -11.6999998      -5.76701241E-05
  -11.6899996      -5.56718951E-05
  -11.6800003      -5.31068363E-05
  -11.6700001      -5.00375536E-05
  -11.6599998      -4.65421836E-05
  -11.6499996      -4.27109917E-05
  -11.6400003      -3.86404172E-05
  -11.6300001      -3.44254186E-05
  -11.6199999      -3.01514101E-05
  -11.6099997      -2.58871478E-05
  -11.6000004      -2.16799381E-05
  -11.5900002      -1.75540372E-05
  -11.5799999      -1.35122700E-05
  -11.5699997      -9.54069947E-06
  -11.5600004      -5.61519346E-06
  -11.5500002      -1.70869157E-06
  -11.5400000       2.20217635E-06
  -11.5299997       6.13226393E-06
  -11.5200005       1.00855250E-05
  -11.5100002       1.40552738E-05
  -11.5000000       1.80267216E-05
  -11.4899998       2.19809899E-05
  -11.4799995       2.58997406E-05
  -11.4700003       2.97693423E-05
  -11.4600000       3.35837249E-05
  -11.4499998       3.73455878E-05
  -11.4399996       4.10653411E-05
  -11.4300003       4.47584316E-05
  -11.4200001       4.84409138E-05
  -11.4099998       5.21242800E-05
  -11.3999996       5.58099746E-05
  -11.3900003       5.94843114E-05
  -11.3800001       6.31146904E-05
  -11.3699999       6.66474662E-05
  -11.3599997       7.00081509E-05
  -11.3500004       7.31041000E-05
  -11.3400002       7.58298265E-05
  -11.3299999       7.80745831E-05
  -11.3199997       7.97317116E-05
  -11.3100004       8.07088436E-05
  -11.3000002       8.09379562E-05
  -11.2900000       8.03840376E-05
  -11.2799997       7.90514168E-05
  -11.2700005       7.69869439E-05
  -11.2600002       7.42794873E-05
  -11.2500000       7.10558306E-05
  -11.2399998       6.74733601E-05
  -11.2299995       6.37102712E-05
  -11.2200003       5.99541563E-05
  -11.2100000       5.63902177E-05
  -11.1999998       5.31895203E-05
  -11.1899996       5.04988420E-05
  -11.1800003       4.84319680E-05
  -11.1700001       4.70632476E-05
  -11.1599998       4.64235491E-05
  -11.1499996       4.64987461E-05
  -11.1400003       4.72306783E-05
  -11.1300001       4.85207565E-05
  -11.1199999       5.02359217E-05
  -11.1099997       5.22167429E-05
  -11.1000004       5.42874004E-05
  -11.0900002       5.62667083E-05
  -11.0799999       5.79798580E-05
  -11.0699997       5.92695251E-05
  -11.0600004       6.00059757E-05
  -11.0500002       6.00950079E-05
  -11.0400000       5.94832345E-05
  -11.0299997       5.81603235E-05
  -11.0200005       5.61580782E-05
  -11.0100002       5.35467516E-05
  -11.0000000       5.04289274E-05
  -10.9899998       4.69319129E-05
  -10.9799995       4.31992121E-05
  -10.9700003       3.93818518E-05
  -10.9600000       3.56301643E-05
  -10.9499998       3.20861691E-05
  -10.9399996       2.88767460E-05
  -10.9300003       2.61077112E-05
  -10.9200001       2.38584853E-05
  -10.9099998       2.21777009E-05
  -10.8999996       2.10798007E-05
  -10.8900003       2.05432298E-05
  -10.8800001       2.05104534E-05
  -10.8699999       2.08904130E-05
  -10.8599997       2.15635027E-05
  -10.8500004       2.23889165E-05
  -10.8400002       2.32137027E-05
  -10.8299999       2.38826797E-05
  -10.8199997       2.42480492E-05
  -10.8100004       2.41777652E-05
  -10.8000002       2.35618536E-05
  -10.7900000       2.23165825E-05
  -10.7799997       2.03866384E-05
  -10.7700005       1.77461152E-05
  -10.7600002       1.43988309E-05
  -10.7500000       1.03787197E-05
  -10.7399998       5.75047579E-06
  -10.7299995       6.10054087E-07
  -10.7200003      -4.91577839E-06
  -10.7100000      -1.06717534E-05
  -10.6999998      -1.64790672E-05
  -10.6899996      -2.21433984E-05
  -10.6800003      -2.74656395E-05
  -10.6700001      -3.22541928E-05
  -10.6599998      -3.63371073E-05
  -10.6499996      -3.95723000E-05
  -10.6400003      -4.18542695E-05
  -10.6300001      -4.31162589E-05
  -10.6199999      -4.33279420E-05
  -10.6099997      -4.24893587E-05
  -10.6000004      -4.06228100E-05
  -10.5900002      -3.77644355E-05
  -10.5799999      -3.39574181E-05
  -10.5699997      -2.92478417E-05
  -10.5600004      -2.36838459E-05
  -10.5500002      -1.73178669E-05
  -10.5400000      -1.02108479E-05
  -10.5299997      -2.43719865E-06
  -10.5200005       5.91075923E-06
  -10.5100002       1.47201981E-05
  -10.5000000       2.38574012E-05
  -10.4899998       3.31702031E-05
  -10.4799995       4.24925347E-05
  -10.4700003       5.16508480E-05
  -10.4600000       6.04713932E-05
  -10.4499998       6.87875217E-05
  -10.4399996       7.64462384E-05
  -10.4300003       8.33135200E-05
  -10.4200001       8.92780008E-05
  -10.4099998       9.42528568E-05
  -10.3999996       9.81764024E-05
  -10.3900003       1.01011785E-04
  -10.3800001       1.02746322E-04
  -10.3699999       1.03391380E-04
  -10.3599997       1.02982820E-04
  -10.3500004       1.01582511E-04
  -10.3400002       9.92803834E-05
  -10.3299999       9.61961487E-05
  -10.3199997       9.24796623E-05
  -10.3100004       8.83086832E-05
  -10.3000002       8.38831547E-05
  -10.2900000       7.94154766E-05
  -10.2799997       7.51171901E-05
  -10.2700005       7.11833272E-05
  -10.2600002       6.77761636E-05
  -10.2500000       6.50108705E-05
  -10.2399998       6.29452770E-05
  -10.2299995       6.15755926E-05
  -10.2200003       6.08394075E-05
  -10.2100000       6.06255526E-05
  -10.1999998       6.07898546E-05
  -10.1899996       6.11746655E-05
  -10.1800003       6.16295438E-05
  -10.1700001       6.20299397E-05
  -10.1599998       6.22917578E-05
  -10.1499996       6.23796877E-05
  -10.1400003       6.23085725E-05
  -10.1300001       6.21378640E-05
  -10.1199999       6.19604471E-05
  -10.1099997       6.18875201E-05
  -10.1000004       6.20321589E-05
  -10.0900002       6.24930399E-05
  -10.0799999       6.33409509E-05
  -10.0699997       6.46096232E-05
  -10.0600004       6.62908278E-05
  -10.0500002       6.83349790E-05
  -10.0400000       7.06557257E-05
  -10.0299997       7.31380715E-05
  -10.0200005       7.56483278E-05
  -10.0100002       7.80448318E-05
  -10.0000000       8.01881979E-05
  -9.98999977       8.19506895E-05
  -9.97999954       8.32241276E-05
  -9.97000027       8.39273489E-05
  -9.96000004       8.40125649E-05
  -9.94999981       8.34723323E-05
  -9.93999958       8.23458104E-05
  -9.93000031       8.07239267E-05
  -9.92000008       7.87522513E-05
  -9.90999985       7.66288067E-05
  -9.89999962       7.45963698E-05
  -9.89000034       7.29273961E-05
  -9.88000011       7.19024683E-05
  -9.86999989       7.17850635E-05
  -9.85999966       7.27955630E-05
  -9.85000038       7.50899562E-05
  -9.84000015       7.87467434E-05
  -9.82999992       8.37661937E-05
  -9.81999969       9.00810628E-05
  -9.81000042       9.75772637E-05
  -9.80000019       1.06119944E-04
  -9.78999996       1.15578798E-04
  -9.77999973       1.25846156E-04
  -9.77000046       1.36844901E-04
  -9.76000023       1.48523672E-04
  -9.75000000       1.60842275E-04
  -9.73999977       1.73751439E-04
  -9.72999954       1.87173311E-04
  -9.72000027       2.00987401E-04
  -9.71000004       2.15026899E-04
  -9.69999981       2.29085010E-04
  -9.68999958       2.42930400E-04
  -9.68000031       2.56325700E-04
  -9.67000008       2.69046548E-04
  -9.65999985       2.80894368E-04
  -9.64999962       2.91702250E-04
  -9.64000034       3.01333261E-04
  -9.63000011       3.09674331E-04
  -9.61999989       3.16627382E-04
  -9.60999966       3.22102365E-04
  -9.60000038       3.26012552E-04
  -9.59000015       3.28274124E-04
  -9.57999992       3.28807422E-04
  -9.56999969       3.27539310E-04
  -9.56000042       3.24403896E-04
  -9.55000019       3.19342682E-04
  -9.53999996       3.12303688E-04
  -9.52999973       3.03241366E-04
  -9.52000046       2.92119046E-04
  -9.51000023       2.78916006E-04
  -9.50000000       2.63637194E-04
  -9.48999977       2.46325886E-04
  -9.47999954       2.27075216E-04
  -9.47000027       2.06037337E-04
  -9.46000004       1.83426935E-04
  -9.44999981       1.59519608E-04
  -9.43999958       1.34645030E-04
  -9.43000031       1.09177272E-04
  -9.42000008       8.35239916E-05
  -9.40999985       5.81161257E-05
  -9.39999962       3.33993376E-05
  -9.39000034       9.82534948E-06
  -9.38000011      -1.21564171E-05
  -9.36999989      -3.21097250E-05
  -9.35999966      -4.96238208E-05
  -9.35000038      -6.43274107E-05
  -9.34000015      -7.59013637E-05
  -9.32999992      -8.40885623E-05
  -9.31999969      -8.86979469E-05
  -9.31000042      -8.96022248E-05
  -9.30000019      -8.67290801E-05
  -9.28999996      -8.00501512E-05
  -9.27999973      -6.95680792E-05
  -9.27000046      -5.53090395E-05
  -9.26000023      -3.73208059E-05
  -9.25000000      -1.56776186E-05
  -9.23999977       9.50743106E-06
  -9.22999954       3.80690399E-05
  -9.22000027       6.97762152E-05
  -9.21000004       1.04323517E-04
  -9.19999981       1.41330878E-04
  -9.18999958       1.80351184E-04
  -9.18000031       2.20885093E-04
  -9.17000008       2.62400368E-04
  -9.15999985       3.04352434E-04
  -9.14999962       3.46201879E-04
  -9.14000034       3.87428154E-04
  -9.13000011       4.27537685E-04
  -9.11999989       4.66069469E-04
  -9.10999966       5.02597541E-04
  -9.10000038       5.36734820E-04
  -9.09000015       5.68140065E-04
  -9.07999992       5.96525613E-04
  -9.06999969       6.21666433E-04
  -9.06000042       6.43406995E-04
  -9.05000019       6.61663827E-04
  -9.03999996       6.76421041E-04
  -9.02999973       6.87717635E-04
  -9.02000046       6.95631374E-04
  -9.01000023       7.00258650E-04
  -9.00000000       7.01697194E-04
  -8.98999977       7.00033444E-04
  -8.97999954       6.95338123E-04
  -8.97000027       6.87668915E-04
  -8.96000004       6.77077158E-04
  -8.94999981       6.63618674E-04
  -8.93999958       6.47361041E-04
  -8.93000031       6.28388894E-04
  -8.92000008       6.06805435E-04
  -8.90999985       5.82733308E-04
  -8.89999962       5.56314946E-04
  -8.89000034       5.27719269E-04
  -8.88000011       4.97147732E-04
  -8.86999989       4.64846264E-04
  -8.85999966       4.31114458E-04
  -8.85000038       3.96308664E-04
  -8.84000015       3.60838079E-04
  -8.82999992       3.25151428E-04
  -8.81999969       2.89718155E-04
  -8.81000042       2.55006773E-04
  -8.80000019       2.21468770E-04
  -8.78999996       1.89529295E-04
  -8.77999973       1.59587289E-04
  -8.77000046       1.32022047E-04
  -8.76000023       1.07200285E-04
  -8.75000000       8.54776881E-05
  -8.73999977       6.71911039E-05
  -8.72999954       5.26389776E-05
  -8.72000027       4.20537108E-05
  -8.71000004       3.55747216E-05
  -8.69999981       3.32263262E-05
  -8.68999958       3.49118163E-05
  -8.68000031       4.04222228E-05
  -8.67000008       4.94600245E-05
  -8.65999985       6.16698235E-05
  -8.64999962       7.66698795E-05
  -8.64000034       9.40739556E-05
  -8.63000011       1.13502654E-04
  -8.61999989       1.34582966E-04
  -8.60999966       1.56941489E-04
  -8.60000038       1.80198258E-04
  -8.59000015       2.03964140E-04
  -8.57999992       2.27848082E-04
  -8.56999969       2.51469319E-04
  -8.56000042       2.74473336E-04
  -8.55000019       2.96544371E-04
  -8.53999996       3.17411759E-04
  -8.52999973       3.36851022E-04
  -8.52000046       3.54678516E-04
  -8.51000023       3.70747293E-04
  -8.50000000       3.84945539E-04
  -8.48999977       3.97199503E-04
  -8.47999954       4.07479762E-04
  -8.47000027       4.15807357E-04
  -8.46000004       4.22251615E-04
  -8.44999981       4.26922081E-04
  -8.43999958       4.29950247E-04
  -8.43000031       4.31470718E-04
  -8.42000008       4.31608671E-04
  -8.40999985       4.30475891E-04
  -8.39999962       4.28184809E-04
  -8.39000034       4.24871803E-04
  -8.38000011       4.20723052E-04
  -8.36999989       4.15994844E-04
  -8.35999966       4.11013316E-04
  -8.35000038       4.06153064E-04
  -8.34000015       4.01797937E-04
  -8.32999992       3.98292585E-04
  -8.31999969       3.95902578E-04
  -8.31000042       3.94793547E-04
  -8.30000019       3.95038893E-04
  -8.28999996       3.96652933E-04
  -8.27999973       3.99638753E-04
  -8.27000046       4.04035323E-04
  -8.26000023       4.09945729E-04
  -8.25000000       4.17540723E-04
  -8.23999977       4.27031337E-04
  -8.22999954       4.38626186E-04
  -8.22000027       4.52482811E-04
  -8.21000004       4.68674058E-04
  -8.19999981       4.87178739E-04
  -8.18999958       5.07900142E-04
  -8.18000031       5.30702935E-04
  -8.17000008       5.55455510E-04
  -8.15999985       5.82062989E-04
  -8.14999962       6.10476185E-04
  -8.14000034       6.40677637E-04
  -8.13000011       6.72645692E-04
  -8.11999989       7.06313120E-04
  -8.10999966       7.41531083E-04
  -8.10000038       7.78055808E-04
  -8.09000015       8.15555046E-04
  -8.07999992       8.53636593E-04
  -8.06999969       8.91886943E-04
  -8.06000042       9.29905160E-04
  -8.05000019       9.67325410E-04
  -8.03999996       1.00382278E-03
  -8.02999973       1.03910314E-03
  -8.02000046       1.07288535E-03
  -8.01000023       1.10488641E-03
  -8.00000000       1.13481330E-03
  -7.98999977       1.16237404E-03
  -7.98000002       1.18729449E-03
  -7.96999979       1.20934565E-03
  -7.96000004       1.22836325E-03
  -7.94999981       1.24426163E-03
  -7.94000006       1.25702936E-03
  -7.92999983       1.26671849E-03
  -7.92000008       1.27342041E-03
  -7.90999985       1.27724512E-03
  -7.90000010       1.27830310E-03
  -7.88999987       1.27669971E-03
  -7.88000011       1.27253786E-03
  -7.86999989       1.26593281E-03
  -7.86000013       1.25702657E-03
  -7.84999990       1.24600425E-03
  -7.84000015       1.23310066E-03
  -7.82999992       1.21860194E-03
  -7.82000017       1.20283256E-03
  -7.80999994       1.18613697E-03
  -7.80000019       1.16885593E-03
  -7.78999996       1.15130655E-03
  -7.78000021       1.13376044E-03
  -7.76999998       1.11643632E-03
  -7.76000023       1.09949906E-03
  -7.75000000       1.08306389E-03
  -7.73999977       1.06721045E-03
  -7.73000002       1.05199369E-03
  -7.71999979       1.03745086E-03
  -7.71000004       1.02361047E-03
  -7.69999981       1.01048627E-03
  -7.69000006       9.98074422E-04
  -7.67999983       9.86354891E-04
  -7.67000008       9.75292467E-04
  -7.65999985       9.64850653E-04
  -7.65000010       9.55005875E-04
  -7.63999987       9.45766806E-04
  -7.63000011       9.37188510E-04
  -7.61999989       9.29379370E-04
  -7.61000013       9.22491483E-04
  -7.59999990       9.16706747E-04
  -7.59000015       9.12217249E-04
  -7.57999992       9.09208204E-04
  -7.57000017       9.07852373E-04
  -7.55999994       9.08315124E-04
  -7.55000019       9.10767936E-04
  -7.53999996       9.15406039E-04
  -7.53000021       9.22454521E-04
  -7.51999998       9.32162395E-04
  -7.51000023       9.44776053E-04
  -7.50000000       9.60502250E-04
  -7.48999977       9.79461707E-04
  -7.48000002       1.00166211E-03
  -7.46999979       1.02698046E-03
  -7.46000004       1.05518498E-03
  -7.44999981       1.08596939E-03
  -7.44000006       1.11900235E-03