  -16.0000000       0.00000000    
  -15.9899998       0.00000000    
  -15.9799995       0.00000000    
  -15.9700003       0.00000000    
  -15.9600000       0.00000000    
  -15.9499998       0.00000000    
  -15.9399996       0.00000000    
  -15.9300003       0.00000000    
  -15.9200001       0.00000000    
  -15.9099998       0.00000000    
  -15.8999996       0.00000000    
  -15.8900003       0.00000000    
  -15.8800001       9.80908925E-45
  -15.8699999       8.89824525E-43
  -15.8599997       2.64565150E-42
  -15.8500004      -2.22009117E-40
  -15.8400002      -4.33893993E-39
  -15.8299999      -4.60191488E-38
  -15.8199997      -3.46548576E-37
  -15.8100004      -2.04304724E-36
  -15.8000002      -9.92092551E-36
  -15.7900000      -4.09191191E-35
  -15.7799997      -1.46220959E-34
  -15.7700005      -4.58531234E-34
  -15.7600002      -1.27129980E-33
  -15.7500000      -3.12394934E-33
  -15.7399998      -6.77851903E-33
  -15.7299995      -1.28133513E-32
  -15.7200003      -2.03811207E-32
  -15.7100000      -2.46840824E-32
  -15.6999998      -1.33150126E-32
  -15.6899996       3.66937644E-32
  -15.6800003       1.56298113E-31
  -15.6700001       3.68274998E-31
  -15.6599998       6.49048924E-31
  -15.6499996       8.68421560E-31
  -15.6400003       7.30378604E-31
  -15.6300001      -2.22978701E-31
  -15.6199999      -2.44351572E-30
  -15.6099997      -5.94805295E-30
  -15.6000004      -9.64462307E-30
  -15.5900002      -1.07100445E-29
  -15.5799999      -4.72349365E-30
  -15.5699997       1.24470678E-29
  -15.5600004       4.03431557E-29
  -15.5500002       6.81104704E-29
  -15.5400000       7.10780154E-29
  -15.5299997       1.67947155E-29
  -15.5200005      -1.12301216E-28
  -15.5100002      -2.80194375E-28
  -15.5000000      -3.61964113E-28
  -15.4899998      -1.56100341E-28
  -15.4799995       4.99275382E-28
  -15.4700003       1.48369521E-27
  -15.4600000       2.11129454E-27
  -15.4499998       1.06591007E-27
  -15.4399996      -3.04951786E-27
  -15.4300003      -1.02501505E-26
  -15.4200001      -1.70538323E-26
  -15.4099998      -1.50483045E-26
  -15.3999996       7.35170447E-27
  -15.3900003       5.72616197E-26
  -15.3800001       1.23412777E-25
  -15.3699999       1.61382933E-25
  -15.3599997       9.15044754E-26
  -15.3500004      -1.71510896E-25
  -15.3400002      -6.43878132E-25
  -15.3299999      -1.16509096E-24
  -15.3199997      -1.31529865E-24
  -15.3100004      -4.64638383E-25
  -15.3000002       1.92691858E-24
  -15.2900000       5.72031994E-24
  -15.2799997       9.38635062E-24
  -15.2700005       9.63941483E-24
  -15.2600002       2.12435311E-24
  -15.2500000      -1.62172274E-23
  -15.2399998      -4.31611139E-23
  -15.2299995      -6.70325214E-23
  -15.2200003      -6.54808005E-23
  -15.2100000      -1.13037370E-23
  -15.1999998       1.11778334E-22
  -15.1899996       2.85157995E-22
  -15.1800003       4.32920958E-22
  -15.1700001       4.19231305E-22
  -15.1599998       8.70655557E-23
  -15.1499996      -6.49489504E-22
  -15.1400003      -1.67406886E-21
  -15.1300001      -2.55410270E-21
  -15.1199999      -2.53998914E-21
  -15.1099997      -7.82133701E-22
  -15.1000004       3.18470534E-21
  -15.0900002       8.77765050E-21
  -15.0799999       1.38074183E-20
  -15.0699997       1.44858922E-20
  -15.0600004       6.48031912E-21
  -15.0500002      -1.27803629E-20
  -15.0400000      -4.09738876E-20
  -15.0299997      -6.82251655E-20
  -15.0200005      -7.69630814E-20
  -15.0100002      -4.63977819E-20
  -15.0000000       3.74680021E-20
  -14.9899998       1.68033250E-19
  -14.9799995       3.05842768E-19
  -14.9700003       3.76312378E-19
  -14.9600000       2.86232539E-19
  -14.9499998      -3.66650973E-20
  -14.9399996      -5.87006137E-19
  -14.9300003      -1.22785201E-18
  -14.9200001      -1.67185537E-18
  -14.9099998      -1.53247151E-18
  -14.8999996      -4.65259109E-19
  -14.8900003       1.61665130E-18
  -14.8800001       4.31965958E-18
  -14.8699999       6.65368368E-18
  -14.8599997       7.15415525E-18
  -14.8500004       4.33083355E-18
  -14.8400002      -2.58261214E-18
  -14.8299999      -1.27760610E-17
  -14.8199997      -2.32782256E-17
  -14.8100004      -2.90970773E-17
  -14.8000002      -2.44487474E-17
  -14.7900000      -5.10855497E-18
  -14.7799997       2.86159791E-17
  -14.7700005       6.93758961E-17
  -14.7600002       1.02200931E-16
  -14.7500000       1.07195328E-16
  -14.7399998       6.60290373E-17
  -14.7299995      -2.87595810E-17
  -14.7200003      -1.64452426E-16
  -14.7100000      -3.03079003E-16
  -14.6999998      -3.85045190E-16
  -14.6899996      -3.44226143E-16
  -14.6800003      -1.33518942E-16
  -14.6700001       2.45236129E-16
  -14.6599998       7.17841470E-16
  -14.6499996       1.13391380E-15
  -14.6400003       1.29331375E-15
  -14.6300001       1.00546146E-15
  -14.6199999       1.71600127E-16
  -14.6099997      -1.13362358E-15
  -14.6000004      -2.61451098E-15
  -14.5900002      -3.77379775E-15
  -14.5799999      -4.01912771E-15
  -14.5699997      -2.85007084E-15
  -14.5600004      -8.57750429E-17
  -14.5500002       3.93707097E-15
  -14.5400000       8.28052125E-15
  -14.5299997       1.15084800E-14
  -14.5200005       1.20065633E-14
  -14.5100002       8.48169073E-15
  -14.5000000       5.30158980E-16
  -14.4899998      -1.08958710E-14
  -14.4799995      -2.33116698E-14
  -14.4700003      -3.29639406E-14
  -14.4600000      -3.55910166E-14
  -14.4499998      -2.75985645E-14
  -14.4399996      -7.42394563E-15
  -14.4300003       2.32563280E-14
  -14.4200001       5.88747055E-14
  -14.4099998       9.02365408E-14
  -14.3999996       1.05929215E-13
  -14.3900003       9.48732263E-14
  -14.3800001       4.97247202E-14
  -14.3699999      -2.94905363E-14
  -14.3599997      -1.32429468E-13
  -14.3500004      -2.37280817E-13
  -14.3400002      -3.12520165E-13
  -14.3299999      -3.22346669E-13
  -14.3199997      -2.35840725E-13
  -14.3100004      -3.87431040E-14
  -14.3000002       2.54651118E-13
  -14.2900000       5.93295161E-13
  -14.2799997       8.89374728E-13
  -14.2700005       1.03037338E-12
  -14.2600002       9.04855943E-13
  -14.2500000       4.39557760E-13
  -14.2399998      -3.59752213E-13
  -14.2299995      -1.37603069E-12
  -14.2200003      -2.37233020E-12
  -14.2100000      -3.02006965E-12
  -14.1999998      -2.97020524E-12
  -14.1899996      -1.96070005E-12
  -14.1800003       6.18732564E-14
  -14.1700001       2.84273278E-12
  -14.1599998       5.78402430E-12
  -14.1499996       8.01149078E-12
  -14.1400003       8.55809260E-12
  -14.1300001       6.64546846E-12
  -14.1199999       2.00360822E-12
  -14.1099997      -4.86493181E-12
  -14.1000004      -1.25831854E-11
  -14.0900002      -1.90482508E-11
  -14.0799999      -2.18632282E-11
  -14.0699997      -1.90013404E-11
  -14.0600004      -9.55842957E-12
  -14.0500002       5.62263040E-12
  -14.0400000       2.36950928E-11
  -14.0299997       4.01066576E-11
  -14.0200005       4.95153502E-11
  -14.0100002       4.72025787E-11
  -14.0000000       3.06726762E-11
  -13.9899998       9.87426395E-13
  -13.9799995      -3.66462069E-11
  -13.9700003      -7.34009659E-11
  -13.9600000      -9.85733023E-11
  -13.9499998      -1.02297559E-10
  -13.9399996      -7.86264109E-11
  -13.9300003      -2.81255661E-11
  -13.9200001       4.09001340E-11
  -13.9099998       1.13201948E-10
  -13.8999996       1.69571537E-10
  -13.8900003       1.91557104E-10
  -13.8800001       1.66843900E-10
  -13.8699999       9.38373546E-11
  -13.8599997      -1.60356173E-11
  -13.8500004      -1.39370987E-10
  -13.8400002      -2.45424514E-10
  -13.8299999      -3.03568504E-10
  -13.8199997      -2.91839330E-10
  -13.8100004      -2.04263412E-10
  -13.8000002      -5.46619798E-11
  -13.7900000       1.24654884E-10
  -13.7799997       2.89624102E-10
  -13.7700005       3.95357191E-10
  -13.7600002       4.08630269E-10
  -13.7500000       3.18501753E-10
  -13.7399998       1.41733722E-10
  -13.7299995      -7.91930480E-11
  -13.7200003      -2.85774432E-10
  -13.7100000      -4.18949875E-10
  -13.6999998      -4.36451542E-10
  -13.6899996      -3.27106481E-10
  -13.6800003      -1.17457571E-10
  -13.6700001       1.32229505E-10
  -13.6599998       3.42707529E-10
  -13.6499996       4.38187708E-10
  -13.6400003       3.70724951E-10
  -13.6300001       1.39453185E-10
  -13.6199999      -2.01857697E-10
  -13.6099997      -5.52884794E-10
  -13.6000004      -7.90359500E-10
  -13.5900002      -8.02498623E-10
  -13.5799999      -5.25716581E-10
  -13.5699997       2.68253909E-11
  -13.5600004       7.54411089E-10
  -13.5500002       1.48157253E-09
  -13.5400000       1.99449190E-09
  -13.5299997       2.09432627E-09
  -13.5200005       1.65510028E-09
  -13.5100002       6.70887124E-10
  -13.5000000      -7.22118976E-10
  -13.4899998      -2.25802244E-09
  -13.4799995      -3.58934926E-09
  -13.4700003      -4.36265779E-09
  -13.4600000      -4.30515712E-09
  -13.4499998      -3.30116667E-09
  -13.4399996      -1.43779844E-09
  -13.4300003       9.94593186E-10
  -13.4200001       3.55113361E-09
  -13.4099998       5.72173331E-09
  -13.3999996       7.04126490E-09
  -13.3900003       7.19429760E-09
  -13.3800001       6.08814021E-09
  -13.3699999       3.87515531E-09
  -13.3599997       9.18152443E-10
  -13.3500004      -2.29238206E-09
  -13.3400002      -5.24713251E-09
  -13.3299999      -7.52353557E-09
  -13.3199997      -8.85965434E-09
  -13.3100004      -9.17741794E-09
  -13.3000002      -8.55182680E-09
  -13.2900000      -7.14008674E-09
  -13.2799997      -5.09828046E-09
  -13.2700005      -2.51851784E-09
  -13.2600002       5.85763549E-10
  -13.2500000       4.23426849E-09
  -13.2399998       8.38359160E-09
  -13.2299995       1.28111584E-08
  -13.2200003       1.70245542E-08
  -13.2100000       2.02424708E-08
  -13.1999998       2.14796181E-08
  -13.1899996       1.97403462E-08
  -13.1800003       1.42918095E-08
  -13.1700001       4.95531527E-09
  -13.1599998      -7.66429231E-09
  -13.1499996      -2.20910064E-08
  -13.1400003      -3.60878616E-08
  -13.1300001      -4.69778385E-08
  -13.1199999      -5.21350891E-08
  -13.1099997      -4.95555454E-08
  -13.1000004      -3.83825736E-08
  -13.0900002      -1.92575218E-08
  -13.0799999       5.60773739E-09
  -13.0699997       3.26844791E-08
  -13.0600004       5.76817207E-08
  -13.0500002       7.63041612E-08
  -13.0400000       8.50616075E-08
  -13.0299997       8.19571397E-08
  -13.0200005       6.69010944E-08
  -13.0100002       4.17562340E-08
  -13.0000000       1.00024717E-08
  -12.9899998      -2.39030999E-08
  -12.9799995      -5.53244242E-08
  -12.9700003      -8.02228399E-08
  -12.9600000      -9.57436654E-08
  -12.9499998      -1.00500692E-07
  -12.9399996      -9.45315506E-08
  -12.9300003      -7.89869503E-08
  -12.9200001      -5.56877531E-08
  -12.9099998      -2.67125149E-08
  -12.8999996       5.84476822E-09
  -12.8900003       3.98767170E-08
  -12.8800001       7.30527034E-08
  -12.8699999       1.02521803E-07
  -12.8599997       1.24716124E-07
  -12.8500004       1.35448545E-07
  -12.8400002       1.30433193E-07
  -12.8299999       1.06237529E-07
  -12.8199997       6.15214120E-08
  -12.8100004      -1.72420345E-09
  -12.8000002      -7.73095223E-08
  -12.7900000      -1.54717355E-07
  -12.7799997      -2.19974552E-07
  -12.7700005      -2.57581888E-07
  -12.7600002      -2.53308940E-07
  -12.7500000      -1.97411168E-07
  -12.7399998      -8.76439259E-08
  -12.7299995       6.86130903E-08
  -12.7200003       2.53714433E-07
  -12.7100000       4.40960292E-07
  -12.6999998       5.97682913E-07
  -12.6899996       6.89866283E-07
  -12.6800003       6.87622560E-07
  -12.6700001       5.70642612E-07
  -12.6599998       3.32691286E-07
  -12.6499996      -1.56506559E-08
  -12.6400003      -4.46500792E-07
  -12.6300001      -9.16583190E-07
  -12.6199999      -1.37128006E-06
  -12.6099997      -1.75026071E-06
  -12.6000004      -1.99394094E-06
  -12.5900002      -2.04998787E-06
  -12.5799999      -1.87918988E-06
  -12.5699997      -1.46019988E-06
  -12.5600004      -7.92886453E-07
  -12.5500002       9.98110039E-08
  -12.5400000       1.17150148E-06
  -12.5299997       2.35341963E-06
  -12.5200005       3.55697694E-06
  -12.5100002       4.67785139E-06
  -12.5000000       5.60168746E-06
  -12.4899998       6.21137724E-06
  -12.4799995       6.39566997E-06
  -12.4700003       6.05858349E-06
  -12.4600000       5.12875977E-06
  -12.4499998       3.56767350E-06
  -12.4399996       1.37550569E-06
  -12.4300003      -1.40634074E-06
  -12.4200001      -4.69678025E-06
  -12.4099998      -8.38070537E-06
  -12.3999996      -1.23182463E-05
  -12.3900003      -1.63564346E-05
  -12.3800001      -2.03416566E-05
  -12.3699999      -2.41311318E-05
  -12.3599997      -2.76017636E-05
  -12.3500004      -3.06552720E-05
  -12.3400002      -3.32191339E-05
  -12.3299999      -3.52436618E-05
  -12.3199997      -3.66962449E-05
  -12.3100004      -3.75541567E-05
  -12.3000002      -3.77975921E-05
  -12.2900000      -3.74043084E-05
  -12.2799997      -3.63468098E-05
  -12.2700005      -3.45924855E-05
  -12.2600002      -3.21064217E-05
  -12.2500000      -2.88561259E-05
  -12.2399998      -2.48172983E-05
  -12.2299995      -1.99796286E-05
  -12.2200003      -1.43519328E-05
  -12.2100000      -7.96618406E-06
  -12.1999998      -8.80366656E-07
  -12.1899996       6.81970914E-06
  -12.1800003       1.50195283E-05
  -12.1700001       2.35759417E-05
  -12.1599998       3.23184358E-05
  -12.1499996       4.10521352E-05
  -12.1400003       4.95631684E-05
  -12.1300001       5.76268540E-05
  -12.1199999       6.50188667E-05
  -12.1099997       7.15288697E-05
  -12.1000004       7.69753606E-05
  -12.0900002       8.12200451E-05
  -12.0799999       8.41795263E-05
  -12.0699997       8.58322383E-05
  -12.0600004       8.62191591E-05
  -12.0500002       8.54374593E-05
  -12.0400000       8.36279651E-05
  -12.0299997       8.09574121E-05
  -12.0200005       7.75987646E-05
  -12.0100002       7.37118899E-05
  -12.0000000       6.94278278E-05
  -11.9899998       6.48387650E-05
  -11.9799995       5.99946361E-05
  -11.9700003       5.49064789E-05
  -11.9600000       4.95551794E-05
  -11.9499998       4.39034338E-05
  -11.9399996       3.79085577E-05
  -11.9300003       3.15337711E-05
  -11.9200001       2.47564876E-05
  -11.9099998       1.75726127E-05
  -11.8999996       9.99724034E-06
  -11.8900003       2.06262598E-06
  -11.8800001      -6.18538661E-06
  -11.8699999      -1.46908515E-05
  -11.8599997      -2.33903975E-05
  -11.8500004      -3.22145715E-05
  -11.8400002      -4.10880493E-05
  -11.8299999      -4.99293674E-05
  -11.8199997      -5.86510541E-05
  -11.8100004      -6.71607413E-05
  -11.8000002      -7.53636850E-05
  -11.7900000      -8.31663419E-05
  -11.7799997      -9.04804256E-05
  -11.7700005      -9.72261405E-05
  -11.7600002      -1.03334190E-04
  -11.7500000      -1.08745291E-04
  -11.7399998      -1.13407514E-04
  -11.7299995      -1.17272146E-04
  -11.7200003      -1.20288765E-04
  -11.7100000      -1.22401514E-04
  -11.6999998      -1.23547288E-04
  -11.6899996      -1.23657534E-04
  -11.6800003      -1.22662983E-04
  -11.6700001      -1.20501558E-04
  -11.6599998      -1.17127449E-04
  -11.6499996      -1.12520509E-04
  -11.6400003      -1.06693253E-04
  -11.6300001      -9.96952367E-05
  -11.6199999      -9.16129429E-05
  -11.6099997      -8.25659881E-05
  -11.6000004      -7.26999642E-05
  -11.5900002      -6.21770305E-05
  -11.5799999      -5.11659709E-05
  -11.5699997      -3.98324410E-05
  -11.5600004      -2.83308727E-05
  -11.5500002      -1.67980870E-05
  -11.5400000      -5.34906167E-06
  -11.5299997       5.92556262E-06
  -11.5200005       1.69603863E-05
  -11.5100002       2.77147701E-05
  -11.5000000       3.81711761E-05
  -11.4899998       4.83322583E-05
  -11.4799995       5.82167449E-05
  -11.4700003       6.78540819E-05
  -11.4600000       7.72782732E-05
  -11.4499998       8.65212496E-05
  -11.4399996       9.56065342E-05
  -11.4300003       1.04543782E-04
  -11.4200001       1.13324902E-04
  -11.4099998       1.21922072E-04
  -11.3999996       1.30287284E-04
  -11.3900003       1.38353906E-04
  -11.3800001       1.46038612E-04
  -11.3699999       1.53244502E-04
  -11.3599997       1.59863761E-04
  -11.3500004       1.65780584E-04
  -11.3400002       1.70874278E-04
  -11.3299999       1.75022957E-04
  -11.3199997       1.78108050E-04
  -11.3100004       1.80020608E-04
  -11.3000002       1.80668416E-04
  -11.2900000       1.79984621E-04
  -11.2799997       1.77936134E-04
  -11.2700005       1.74531320E-04
  -11.2600002       1.69825493E-04
  -11.2500000       1.63922872E-04
  -11.2399998       1.56974915E-04
  -11.2299995       1.49174011E-04
  -11.2200003       1.40743432E-04
  -11.2100000       1.31924011E-04
  -11.1999998       1.22959260E-04
  -11.1899996       1.14080074E-04
  -11.1800003       1.05490719E-04
  -11.1700001       9.73575297E-05
  -11.1599998       8.98012077E-05
  -11.1499996       8.28932825E-05
  -11.1400003       7.66566300E-05
  -11.1300001       7.10697204E-05
  -11.1199999       6.60735823E-05
  -11.1099997       6.15810204E-05
  -11.1000004       5.74861660E-05
  -11.0900002       5.36742664E-05
  -11.0799999       5.00304304E-05
  -11.0699997       4.64474433E-05
  -11.0600004       4.28319654E-05
  -11.0500002       3.91095928E-05
  -11.0400000       3.52288189E-05
  -11.0299997       3.11639269E-05
  -11.0200005       2.69169686E-05
  -11.0100002       2.25187196E-05
  -11.0000000       1.80283841E-05
  -10.9899998       1.35316213E-05
  -10.9799995       9.13692111E-06
  -10.9700003       4.96986740E-06
  -10.9600000       1.16575984E-06
  -10.9499998      -2.13940984E-06
  -10.9399996      -4.81887810E-06
  -10.9300003      -6.76535956E-06
  -10.9200001      -7.90085778E-06
  -10.9099998      -8.18511580E-06
  -10.8999996      -7.62204445E-06
  -10.8900003      -6.26350493E-06
  -10.8800001      -4.20983224E-06
  -10.8699999      -1.60671368E-06
  -10.8599997       1.36162635E-06
  -10.8500004       4.48260880E-06
  -10.8400002       7.52836695E-06
  -10.8299999       1.02704080E-05
  -10.8199997       1.24946919E-05
  -10.8100004       1.40153288E-05
  -10.8000002       1.46854291E-05
  -10.7900000       1.44040287E-05
  -10.7799997       1.31184015E-05
  -10.7700005       1.08222221E-05
  -10.7600002       7.55024394E-06
  -10.7500000       3.37123947E-06
  -10.7399998      -1.61927517E-06
  -10.7299995      -7.30509510E-06
  -10.7200003      -1.35533119E-05
  -10.7100000      -2.02162919E-05
  -10.6999998      -2.71323370E-05
  -10.6899996      -3.41263985E-05
  -10.6800003      -4.10124085E-05
  -10.6700001      -4.75979723E-05
  -10.6599998      -5.36921107E-05
  -10.6499996      -5.91150674E-05
  -10.6400003      -6.37089543E-05
  -10.6300001      -6.73473696E-05
  -10.6199999      -6.99415978E-05
  -10.6099997      -7.14427151E-05
  -10.6000004      -7.18387309E-05
  -10.5900002      -7.11476678E-05
  -10.5799999      -6.94086848E-05
  -10.5699997      -6.66729611E-05
  -10.5600004      -6.29968781E-05
  -10.5500002      -5.84390764E-05
  -10.5400000      -5.30615398E-05
  -10.5299997      -4.69341539E-05
  -10.5200005      -4.01407196E-05
  -10.5100002      -3.27841299E-05
  -10.5000000      -2.49882105E-05
  -10.4899998      -1.68950137E-05
  -10.4799995      -8.65672337E-06
  -10.4700003      -4.23556827E-07
  -10.4600000       7.67027996E-06
  -10.4499998       1.55199687E-05
  -10.4399996       2.30593396E-05
  -10.4300003       3.02645694E-05
  -10.4200001       3.71507303E-05
  -10.4099998       4.37621384E-05
  -10.3999996       5.01583090E-05
  -10.3900003       5.63983449E-05
  -10.3800001       6.25270550E-05
  -10.3699999       6.85655032E-05
  -10.3599997       7.45076541E-05
  -10.3500004       8.03231160E-05
  -10.3400002       8.59652064E-05
  -10.3299999       9.13815384E-05
  -10.3199997       9.65244326E-05
  -10.3100004       1.01358688E-04
  -10.3000002       1.05864827E-04
  -10.2900000       1.10037043E-04
  -10.2799997       1.13877657E-04
  -10.2700005       1.17389005E-04
  -10.2600002       1.20565521E-04
  -10.2500000       1.23388119E-04
  -10.2399998       1.25822655E-04
  -10.2299995       1.27822088E-04
  -10.2200003       1.29332475E-04
  -10.2100000       1.30300541E-04
  -10.1999998       1.30681889E-04
  -10.1899996       1.30447661E-04
  -10.1800003       1.29589112E-04
  -10.1700001       1.28120213E-04
  -10.1599998       1.26078128E-04
  -10.1499996       1.23522099E-04
  -10.1400003       1.20531804E-04
  -10.1300001       1.17204421E-04
  -10.1199999       1.13650291E-04
  -10.1099997       1.09986613E-04
  -10.1000004       1.06328836E-04
  -10.0900002       1.02780439E-04
  -10.0799999       9.94216971E-05
  -10.0699997       9.62999839E-05
  -10.0600004       9.34235868E-05
  -10.0500002       9.07604044E-05
  -10.0400000       8.82434615E-05
  -10.0299997       8.57819250E-05
  -10.0200005       8.32760779E-05
  -10.0100002       8.06338430E-05
  -10.0000000       7.77854293E-05
  -9.98999977       7.46937076E-05
  -9.97999954       7.13596746E-05
  -9.97000027       6.78222277E-05
  -9.96000004       6.41542065E-05
  -9.94999981       6.04562993E-05
  -9.93999958       5.68514079E-05
  -9.93000031       5.34791034E-05
  -9.92000008       5.04911768E-05
  -9.90999985       4.80472445E-05
  -9.89999962       4.63082615E-05
  -9.89000034       4.54274086E-05
  -9.88000011       4.55379159E-05
  -9.86999989       4.67389327E-05
  -9.85999966       4.90821367E-05
  -9.85000038       5.25617288E-05
  -9.84000015       5.71107630E-05
  -9.82999992       6.26059336E-05
  -9.81999969       6.88803484E-05
  -9.81000042       7.57435773E-05
  -9.80000019       8.30042991E-05
  -9.78999996       9.04928311E-05
  -9.77999973       9.80790574E-05
  -9.77000046       1.05681916E-04
  -9.76000023       1.13270420E-04
  -9.75000000       1.20855257E-04
  -9.73999977       1.28473243E-04
  -9.72999954       1.36168397E-04
  -9.72000027       1.43972487E-04
  -9.71000004       1.51889122E-04
  -9.69999981       1.59884119E-04
  -9.68999958       1.67883525E-04
  -9.68000031       1.75779816E-04
  -9.67000008       1.83444441E-04
  -9.65999985       1.90744686E-04
  -9.64999962       1.97561414E-04
  -9.64000034       2.03804113E-04
  -9.63000011       2.09420628E-04
  -9.61999989       2.14399697E-04
  -9.60999966       2.18765941E-04
  -9.60000038       2.22568837E-04
  -9.59000015       2.25867727E-04
  -9.57999992       2.28717079E-04
  -9.56999969       2.31153637E-04
  -9.56000042       2.33189334E-04
  -9.55000019       2.34810243E-04
  -9.53999996       2.35980391E-04
  -9.52999973       2.36649823E-04
  -9.52000046       2.36763837E-04
  -9.51000023       2.36270847E-04
  -9.50000000       2.35127838E-04
  -9.48999977       2.33302431E-04
  -9.47999954       2.30772304E-04
  -9.47000027       2.27522760E-04
  -9.46000004       2.23545198E-04
  -9.44999981       2.18836998E-04
  -9.43999958       2.13404404E-04
  -9.43000031       2.07267396E-04
  -9.42000008       2.00466486E-04
  -9.40999985       1.93069238E-04
  -9.39999962       1.85174067E-04
  -9.39000034       1.76911039E-04
  -9.38000011       1.68437546E-04
  -9.36999989       1.59930205E-04
  -9.35999966       1.51572865E-04
  -9.35000038       1.43544559E-04
  -9.34000015       1.36008253E-04
  -9.32999992       1.29103966E-04
  -9.31999969       1.22947109E-04
  -9.31000042       1.17632982E-04
  -9.30000019       1.13244838E-04
  -9.28999996       1.09863759E-04
  -9.27999973       1.07575746E-04
  -9.27000046       1.06473723E-04
  -9.26000023       1.06652187E-04
  -9.25000000       1.08194799E-04
  -9.23999977       1.11157256E-04
  -9.22999954       1.15549861E-04
  -9.22000027       1.21325575E-04
  -9.21000004       1.28375585E-04
  -9.19999981       1.36536415E-04
  -9.18999958       1.45606435E-04
  -9.18000031       1.55367539E-04
  -9.17000008       1.65607606E-04
  -9.15999985       1.76139423E-04
  -9.14999962       1.86809644E-04
  -9.14000034       1.97499947E-04
  -9.13000011       2.08120837E-04
  -9.11999989       2.18602465E-04
  -9.10999966       2.28886696E-04
  -9.10000038       2.38922861E-04
  -9.09000015       2.48668046E-04
  -9.07999992       2.58089567E-04
  -9.06999969       2.67166644E-04
  -9.06000042       2.75887316E-04
  -9.05000019       2.84239242E-04
  -9.03999996       2.92195764E-04
  -9.02999973       2.99702369E-04
  -9.02000046       3.06668488E-04
  -9.01000023       3.12967284E-04
  -9.00000000       3.18450038E-04
  -8.98999977       3.22967826E-04
  -8.97999954       3.26398702E-04
  -8.97000027       3.28669674E-04
  -8.96000004       3.29768693E-04
  -8.94999981       3.29741073E-04
  -8.93999958       3.28672613E-04
  -8.93000031       3.26662906E-04
  -8.92000008       3.23799381E-04
  -8.90999985       3.20140360E-04
  -8.89999962       3.15710990E-04
  -8.89000034       3.10515112E-04
  -8.88000011       3.04559013E-04
  -8.86999989       2.97876686E-04
  -8.85999966       2.90549680E-04
  -8.85000038       2.82716384E-04
  -8.84000015       2.74565391E-04
  -8.82999992       2.66318908E-04
  -8.81999969       2.58209941E-04
  -8.81000042       2.50463811E-04
  -8.80000019       2.43288101E-04
  -8.78999996       2.36872540E-04
  -8.77999973       2.31397251E-04
  -8.77000046       2.27045268E-04
  -8.76000023       2.24007759E-04
  -8.75000000       2.22482035E-04
  -8.73999977       2.22658244E-04
  -8.72999954       2.24698946E-04
  -8.72000027       2.28717035E-04
  -8.71000004       2.34758452E-04
  -8.69999981       2.42797440E-04
  -8.68999958       2.52742757E-04
  -8.68000031       2.64452945E-04
  -8.67000008       2.77757907E-04
  -8.65999985       2.92474084E-04
  -8.64999962       3.08416085E-04
  -8.64000034       3.25395929E-04
  -8.63000011       3.43215972E-04
  -8.61999989       3.61660699E-04
  -8.60999966       3.80491198E-04
  -8.60000038       3.99446493E-04
  -8.59000015       4.18254320E-04
  -8.57999992       4.36646951E-04
  -8.56999969       4.54379071E-04
  -8.56000042       4.71240957E-04
  -8.55000019       4.87064710E-04
  -8.53999996       5.01723960E-04
  -8.52999973       5.15126507E-04
  -8.52000046       5.27206983E-04
  -8.51000023       5.37924469E-04
  -8.50000000       5.47263480E-04
  -8.48999977       5.55245439E-04
  -8.47999954       5.61937515E-04
  -8.47000027       5.67459967E-04
  -8.46000004       5.71986602E-04
  -8.44999981       5.75730053E-04
  -8.43999958       5.78920648E-04
  -8.43000031       5.81776258E-04
  -8.42000008       5.84476395E-04
  -8.40999985       5.87143120E-04
  -8.39999962       5.89838310E-04
  -8.39000034       5.92575467E-04
  -8.38000011       5.95344987E-04
  -8.36999989       5.98140759E-04
  -8.35999966       6.00986416E-04
  -8.35000038       6.03948196E-04
  -8.34000015       6.07132912E-04
  -8.32999992       6.10670366E-04
  -8.31999969       6.14688499E-04
  -8.31000042       6.19285915E-04
  -8.30000019       6.24514127E-04
  -8.28999996       6.30370574E-04
  -8.27999973       6.36811135E-04
  -8.27000046       6.43771782E-04
  -8.26000023       6.51199312E-04
  -8.25000000       6.59076439E-04
  -8.23999977       6.67438726E-04
  -8.22999954       6.76374184E-04
  -8.22000027       6.86009938E-04
  -8.21000004       6.96487550E-04
  -8.19999981       7.07934611E-04
  -8.18999958       7.20440061E-04
  -8.18000031       7.34041212E-04
  -8.17000008       7.48721417E-04
  -8.15999985       7.64417287E-04
  -8.14999962       7.81030976E-04
  -8.14000034       7.98441819E-04
  -8.13000011       8.16507731E-04
  -8.11999989       8.35061597E-04
  -8.10999966       8.53898819E-04
  -8.10000038       8.72763281E-04
  -8.09000015       8.91342759E-04
  -8.07999992       9.09273513E-04
  -8.06999969       9.26161476E-04
  -8.06000042       9.41616308E-04
  -8.05000019       9.55289172E-04
  -8.03999996       9.66913474E-04
  -8.02999973       9.76327341E-04
  -8.02000046       9.83479898E-04
  -8.01000023       9.88418469E-04
  -8.00000000       9.91255161E-04
  -7.98999977       9.92129440E-04
  -7.98000002       9.91168316E-04
  -7.96999979       9.88459215E-04
  -7.96000004       9.84040787E-04
  -7.94999981       9.77909192E-04
  -7.94000006       9.70040739E-04
  -7.92999983       9.60419769E-04
  -7.92000008       9.49063106E-04
  -7.90999985       9.36039898E-04
  -7.90000010       9.21472092E-04
  -7.88999987       9.05527035E-04
  -7.88000011       8.88401701E-04
  -7.86999989       8.70302785E-04
  -7.86000013       8.51434132E-04
  -7.84999990       8.31989513E-04
  -7.84000015       8.12158163E-04
  -7.82999992       7.92135717E-04
  -7.82000017       7.72134517E-04
  -7.80999994       7.52396649E-04
  -7.80000019       7.33191206E-04
  -7.78999996       7.14808528E-04
  -7.78000021       6.97541225E-04
  -7.76999998       6.81662932E-04
  -7.76000023       6.67407876E-04
  -7.75000000       6.54956733E-04
  -7.73999977       6.44430867E-04
  -7.73000002       6.35897333E-04
  -7.71999979       6.29383081E-04
  -7.71000004       6.24892418E-04
  -7.69999981       6.22423366E-04
  -7.69000006       6.21981279E-04
  -7.67999983       6.23579137E-04
  -7.67000008       6.27238594E-04
  -7.65999985       6.32984797E-04
  -7.65000010       6.40839804E-04
  -7.63999987       6.50821486E-04
  -7.63000011       6.62943057E-04
  -7.61999989       6.77220640E-04
  -7.61000013       6.93675771E-04
  -7.59999990       7.12334935E-04
  -7.59000015       7.33225606E-04
  -7.57999992       7.56360183E-04
  -7.57000017       7.81719573E-04
  -7.55999994       8.09238292E-04
  -7.55000019       8.38795968E-04
  -7.53999996       8.70219606E-04
  -7.53000021       9.03301174E-04
  -7.51999998       9.37820761E-04
  -7.51000023       9.73571790E-04
  -7.50000000       1.01038138E-03
  -7.48999977       1.04811299E-03
  -7.48000002       1.08665484E-03
  -7.46999979       1.12589658E-03
  -7.46000004       1.16569886E-03
  -7.44999981       1.20587589E-03
  -7.44000006       1.24618842E-03