  -16.0000000       0.00000000    
  -15.9899998       0.00000000    
  -15.9799995       0.00000000    
  -15.9700003       0.00000000    
  -15.9600000       0.00000000    
  -15.9499998       0.00000000    
  -15.9399996       0.00000000    
  -15.9300003       0.00000000    
  -15.9200001       0.00000000    
  -15.9099998       0.00000000    
  -15.8999996       0.00000000    
  -15.8900003       0.00000000    
  -15.8800001       0.00000000    
  -15.8699999       1.40129846E-45
  -15.8599997      -2.94272678E-44
  -15.8500004       1.84270748E-42
  -15.8400002       1.10492384E-41
  -15.8299999      -5.02645759E-42
  -15.8199997      -1.22875518E-39
  -15.8100004      -1.71740113E-38
  -15.8000002      -1.50528333E-37
  -15.7900000      -1.00544694E-36
  -15.7799997      -5.50950665E-36
  -15.7700005      -2.57600576E-35
  -15.7600002      -1.05336761E-34
  -15.7500000      -3.83089270E-34
  -15.7399998      -1.25373939E-33
  -15.7299995      -3.72337872E-33
  -15.7200003      -1.00922934E-32
  -15.7100000      -2.50554476E-32
  -15.6999998      -5.70531943E-32
  -15.6899996      -1.19036259E-31
  -15.6800003      -2.26598588E-31
  -15.6700001      -3.89910395E-31
  -15.6599998      -5.95066509E-31
  -15.6499996      -7.72534511E-31
  -15.6400003      -7.58359319E-31
  -15.6300001      -2.69692681E-31
  -15.6199999       1.06227741E-30
  -15.6099997       3.54347562E-30
  -15.6000004       7.10684475E-30
  -15.5900002       1.08657890E-29
  -15.5799999       1.26980383E-29
  -15.5699997       9.21231725E-30
  -15.5600004      -3.42157592E-30
  -15.5500002      -2.73982613E-29
  -15.5400000      -6.00787767E-29
  -15.5299997      -9.07334305E-29
  -15.5200005      -9.94068741E-29
  -15.5100002      -6.07035845E-29
  -15.5000000       4.55043892E-29
  -15.4899998       2.17344613E-28
  -15.4799995       4.13802130E-28
  -15.4700003       5.47508757E-28
  -15.4600000       4.99255353E-28
  -15.4499998       1.60938085E-28
  -15.4399996      -4.99093767E-28
  -15.4300003      -1.37105364E-27
  -15.4200001      -2.17416479E-27
  -15.4099998      -2.49519439E-27
  -15.3999996      -1.90539202E-27
  -15.3900003      -1.29900400E-28
  -15.3800001       2.78647011E-27
  -15.3699999       6.37522370E-27
  -15.3599997       9.72411350E-27
  -15.3500004       1.15136553E-26
  -15.3400002       1.00741197E-26
  -15.3299999       3.51252798E-27
  -15.3199997      -9.86795736E-27
  -15.3100004      -3.04971438E-26
  -15.3000002      -5.55816233E-26
  -15.2900000      -7.66299298E-26
  -15.2799997      -7.78795287E-26
  -15.2700005      -3.81069059E-26
  -15.2600002       6.15432855E-26
  -15.2500000       2.22815710E-25
  -15.2399998       4.11861148E-25
  -15.2299995       5.45656814E-25
  -15.2200003       4.96283883E-25
  -15.2100000       1.25601460E-25
  -15.1999998      -6.45209088E-25
  -15.1899996      -1.74262648E-24
  -15.1800003      -2.85555716E-24
  -15.1700001      -3.40585963E-24
  -15.1599998      -2.62783511E-24
  -15.1499996       2.02023753E-25
  -15.1400003       5.37623340E-24
  -15.1300001       1.22545337E-23
  -15.1199999       1.87773792E-23
  -15.1099997       2.12339694E-23
  -15.1000004       1.46485112E-23
  -15.0900002      -5.77971051E-24
  -15.0799999      -4.18662335E-23
  -15.0699997      -8.84381611E-23
  -15.0600004      -1.29317501E-22
  -15.0500002      -1.35848765E-22
  -15.0400000      -7.16784767E-23
  -15.0299997       9.27129731E-23
  -15.0200005       3.55180520E-22
  -15.0100002       6.52674029E-22
  -15.0000000       8.42377734E-22
  -14.9899998       7.15492095E-22
  -14.9799995       6.53840861E-23
  -14.9700003      -1.18384116E-21
  -14.9600000      -2.81619496E-21
  -14.9499998      -4.20348105E-21
  -14.9399996      -4.33621446E-21
  -14.9300003      -2.11345818E-21
  -14.9200001       3.07458692E-21
  -14.9099998       1.05923167E-20
  -14.8999996       1.79555304E-20
  -14.8900003       2.08611138E-20
  -14.8800001       1.43151408E-20
  -14.8699999      -4.98689339E-21
  -14.8599997      -3.55097586E-20
  -14.8500004      -6.82481779E-20
  -14.8400002      -8.65263814E-20
  -14.8299999      -7.00629928E-20
  -14.8199997      -3.93619266E-21
  -14.8100004       1.09315989E-19
  -14.8000002       2.39227018E-19
  -14.7900000       3.25602303E-19
  -14.7799997       2.92174513E-19
  -14.7700005       7.82348134E-20
  -14.7600002      -3.17691587E-19
  -14.7500000      -7.98586995E-19
  -14.7399998      -1.15858567E-18
  -14.7299995      -1.12549089E-18
  -14.7200003      -4.66172782E-19
  -14.7100000       8.63222888E-19
  -14.6999998       2.57557159E-18
  -14.6899996       4.00064952E-18
  -14.6800003       4.20452928E-18
  -14.6700001       2.32042132E-18
  -14.6599998      -1.95710354E-18
  -14.6499996      -7.87562549E-18
  -14.6400003      -1.33818996E-17
  -14.6300001      -1.54038087E-17
  -14.6199999      -1.08144981E-17
  -14.6099997       2.02189639E-18
  -14.6000004       2.15719390E-17
  -14.5900002       4.20841272E-17
  -14.5799999       5.40347596E-17
  -14.5699997       4.66646200E-17
  -14.5600004       1.25014858E-17
  -14.5500002      -4.72528215E-17
  -14.5400000      -1.18589351E-16
  -14.5299997      -1.74427655E-16
  -14.5200005      -1.80338357E-16
  -14.5100002      -1.06639231E-16
  -14.5000000       5.55193105E-17
  -14.4899998       2.79465180E-16
  -14.4799995       4.97077103E-16
  -14.4700003       6.08548756E-16
  -14.4600000       5.11004495E-16
  -14.4499998       1.42216766E-16
  -14.4399996      -4.72735441E-16
  -14.4300003      -1.19085855E-15
  -14.4200001      -1.75724026E-15
  -14.4099998      -1.86156348E-15
  -14.3999996      -1.24352558E-15
  -14.3900003       1.75851385E-16
  -14.3800001       2.18085912E-15
  -14.3699999       4.22040265E-15
  -14.3599997       5.48740723E-15
  -14.3500004       5.13584452E-15
  -14.3400002       2.60381464E-15
  -14.3299999      -2.04439787E-15
  -14.3199997      -7.88635531E-15
  -14.3100004      -1.31550053E-14
  -14.3000002      -1.55879897E-14
  -14.2900000      -1.31053810E-14
  -14.2799997      -4.67774369E-15
  -14.2700005       8.87792935E-15
  -14.2600002       2.45049528E-14
  -14.2500000       3.72118006E-14
  -14.2399998       4.12115309E-14
  -14.2299995       3.17668899E-14
  -14.2200003       7.30469863E-15
  -14.2100000      -2.88841589E-14
  -14.1999998      -6.81206122E-14
  -14.1899996      -9.75746651E-14
  -14.1800003      -1.03404244E-13
  -14.1700001      -7.52995824E-14
  -14.1599998      -1.12798302E-14
  -14.1499996       7.88631245E-14
  -14.1400003       1.73099247E-13
  -14.1300001       2.40763220E-13
  -14.1199999       2.50233997E-13
  -14.1099997       1.79316373E-13
  -14.1000004       2.56147286E-14
  -14.0900002      -1.86577940E-13
  -14.0799999      -4.06190950E-13
  -14.0699997      -5.64069570E-13
  -14.0600004      -5.90109721E-13
  -14.0500002      -4.35601316E-13
  -14.0400000      -9.50533529E-14
  -14.0299997       3.79687547E-13
  -14.0200005       8.79547574E-13
  -14.0100002       1.25635852E-12
  -14.0000000       1.35807088E-12
  -13.9899998       1.07456025E-12
  -13.9799995       3.82639694E-13
  -13.9700003      -6.23686649E-13
  -13.9600000      -1.73059711E-12
  -13.9499998      -2.63706656E-12
  -13.9399996      -3.02158320E-12
  -13.9300003      -2.63142156E-12
  -13.9200001      -1.37362311E-12
  -13.9099998       6.18443773E-13
  -13.8999996       2.96782325E-12
  -13.8900003       5.10217259E-12
  -13.8800001       6.36847346E-12
  -13.8699999       6.19662524E-12
  -13.8599997       4.27686749E-12
  -13.8500004       7.04693519E-13
  -13.8400002      -3.95324875E-12
  -13.8299999      -8.70696484E-12
  -13.8199997      -1.23148254E-11
  -13.8100004      -1.35581641E-11
  -13.8000002      -1.15664665E-11
  -13.7900000      -6.11712894E-12
  -13.7799997       2.17289706E-12
  -13.7700005       1.18330328E-11
  -13.7600002       2.07388499E-11
  -13.7500000       2.65133280E-11
  -13.7399998       2.70646439E-11
  -13.7299995       2.11511347E-11
  -13.7200003       8.84053507E-12
  -13.7100000      -8.26409687E-12
  -13.6999998      -2.71214891E-11
  -13.6899996      -4.36993185E-11
  -13.6800003      -5.37207258E-11
  -13.6700001      -5.35848831E-11
  -13.6599998      -4.12839277E-11
  -13.6499996      -1.71157220E-11
  -13.6400003       1.59826735E-11
  -13.6300001       5.26025785E-11
  -13.6199999       8.55617729E-11
  -13.6099997       1.07068340E-10
  -13.6000004       1.10192390E-10
  -13.5900002       9.04144606E-11
  -13.5799999       4.69856376E-11
  -13.5699997      -1.61762045E-11
  -13.5600004      -9.02915590E-11
  -13.5500002      -1.62398983E-10
  -13.5400000      -2.16978380E-10
  -13.5299997      -2.38452147E-10
  -13.5200005      -2.14322643E-10
  -13.5100002      -1.38522346E-10
  -13.5000000      -1.43653978E-11
  -13.4899998       1.43637921E-10
  -13.4799995       3.09853837E-10
  -13.4700003       4.50071508E-10
  -13.4600000       5.26740707E-10
  -13.4499998       5.06527931E-10
  -13.4399996       3.69122427E-10
  -13.4300003       1.15542825E-10
  -13.4200001      -2.26268712E-10
  -13.4099998      -6.00754502E-10
  -13.3999996      -9.30576005E-10
  -13.3900003      -1.12936216E-09
  -13.3800001      -1.12005638E-09
  -13.3699999      -8.55725102E-10
  -13.3599997      -3.38167327E-10
  -13.3500004       3.70935893E-10
  -13.3400002       1.15099952E-09
  -13.3299999       1.83823468E-09
  -13.3199997       2.25545715E-09
  -13.3100004       2.25159669E-09
  -13.3000002       1.74299597E-09
  -13.2900000       7.46650242E-10
  -13.2799997      -6.04582662E-10
  -13.2700005      -2.07176765E-09
  -13.2600002      -3.34682482E-09
  -13.2500000      -4.11215817E-09
  -13.2399998      -4.11227807E-09
  -13.2299995      -3.22200600E-09
  -13.2200003      -1.49457313E-09
  -13.2100000       8.24439850E-10
  -13.1999998       3.32509842E-09
  -13.1899996       5.50157075E-09
  -13.1800003       6.85003299E-09
  -13.1700001       6.97711533E-09
  -13.1599998       5.69577630E-09
  -13.1499996       3.08665826E-09
  -13.1400003      -4.91115260E-10
  -13.1300001      -4.44556214E-09
  -13.1199999      -8.04801825E-09
  -13.1099997      -1.05633635E-08
  -13.1000004      -1.13900018E-08
  -13.0900002      -1.01832054E-08
  -13.0799999      -6.93792268E-09
  -13.0699997      -2.01460360E-09
  -13.0600004       3.89780030E-09
  -13.0500002       9.87706628E-09
  -13.0400000       1.49064103E-08
  -13.0299997       1.80350543E-08
  -13.0200005       1.85360722E-08
  -13.0100002       1.60366138E-08
  -13.0000000       1.05998001E-08
  -12.9899998       2.74434675E-09
  -12.9799995      -6.60400090E-09
  -12.9700003      -1.62238347E-08
  -12.9600000      -2.47575063E-08
  -12.9499998      -3.08943058E-08
  -12.9399996      -3.35484778E-08
  -12.9300003      -3.20025535E-08
  -12.9200001      -2.59932840E-08
  -12.9099998      -1.57315760E-08
  -12.8999996      -1.86204119E-09
  -12.8900003       1.46137475E-08
  -12.8800001       3.24183063E-08
  -12.8699999       5.00518595E-08
  -12.8599997       6.58023538E-08
  -12.8500004       7.77197542E-08
  -12.8400002       8.35958360E-08
  -12.8299999       8.10120611E-08
  -12.8199997       6.75301024E-08
  -12.8100004       4.10758467E-08
  -12.8000002       5.25107235E-10
  -12.7900000      -5.35711813E-08
  -12.7799997      -1.18260623E-07
  -12.7700005      -1.87658756E-07
  -12.7600002      -2.52830546E-07
  -12.7500000      -3.02269939E-07
  -12.7399998      -3.23073522E-07
  -12.7299995      -3.02756064E-07
  -12.7200003      -2.31522492E-07
  -12.7100000      -1.04641330E-07
  -12.6999998       7.54791003E-08
  -12.6899996       2.97950947E-07
  -12.6800003       5.43130511E-07
  -12.6700001       7.83575103E-07
  -12.6599998       9.86225814E-07
  -12.6499996       1.11558109E-06
  -12.6400003       1.13754174E-06
  -12.6300001       1.02348463E-06
  -12.6199999       7.54186601E-07
  -12.6099997       3.23290294E-07
  -12.6000004      -2.59906074E-07
  -12.5900002      -9.68481004E-07
  -12.5799999      -1.75685716E-06
  -12.5699997      -2.56088538E-06
  -12.5600004      -3.29930117E-06
  -12.5500002      -3.87690761E-06
  -12.5400000      -4.18981926E-06
  -12.5299997      -4.13302860E-06
  -12.5200005      -3.61029038E-06
  -12.5100002      -2.54595716E-06
  -12.5000000      -8.97984478E-07
  -12.4899998       1.32903904E-06
  -12.4799995       4.07222979E-06
  -12.4700003       7.20157414E-06
  -12.4600000       1.05151230E-05
  -12.4499998       1.37391835E-05
  -12.4399996       1.65338151E-05
  -12.4300003       1.85035697E-05
  -12.4200001       1.92131192E-05
  -12.4099998       1.82069707E-05
  -12.3999996       1.50324131E-05
  -12.3900003       9.26496068E-06
  -12.3800001       5.35643892E-07
  -12.3699999      -1.14409859E-05
  -12.3599997      -2.68389776E-05
  -12.3500004      -4.56948983E-05
  -12.3400002      -6.78847209E-05
  -12.3299999      -9.31058821E-05
  -12.3199997      -1.20868252E-04
  -12.3100004      -1.50492619E-04
  -12.3000002      -1.81120398E-04
  -12.2900000      -2.11737017E-04
  -12.2799997      -2.41202113E-04
  -12.2700005      -2.68293312E-04
  -12.2600002      -2.91755336E-04
  -12.2500000      -3.10353993E-04
  -12.2399998      -3.22932785E-04
  -12.2299995      -3.28467140E-04
  -12.2200003      -3.26110807E-04
  -12.2100000      -3.15240904E-04
  -12.1999998      -2.95484526E-04
  -12.1899996      -2.66736693E-04
  -12.1800003      -2.29161102E-04
  -12.1700001      -1.83174881E-04
  -12.1599998      -1.29417691E-04
  -12.1499996      -6.87034189E-05
  -12.1400003      -1.97424401E-06
  -12.1300001       6.97672513E-05
  -12.1199999       1.45507642E-04
  -12.1099997       2.24271062E-04
  -12.1000004       3.05150490E-04
  -12.0900002       3.87324020E-04
  -12.0799999       4.70048428E-04
  -12.0699997       5.52640762E-04
  -12.0600004       6.34450291E-04
  -12.0500002       7.14821974E-04
  -12.0400000       7.93067564E-04
  -12.0299997       8.68438277E-04
  -12.0200005       9.40114958E-04
  -12.0100002       1.00720185E-03
  -12.0000000       1.06873782E-03
  -11.9899998       1.12370669E-03
  -11.9799995       1.17105502E-03
  -11.9700003       1.20970502E-03
  -11.9600000       1.23857555E-03
  -11.9499998       1.25658908E-03
  -11.9399996       1.26269145E-03
  -11.9300003       1.25587068E-03
  -11.9200001       1.23517564E-03
  -11.9099998       1.19975477E-03
  -11.8999996       1.14888302E-03
  -11.8900003       1.08200265E-03
  -11.8800001       9.98760923E-04
  -11.8699999       8.99042177E-04
  -11.8599997       7.82985881E-04
  -11.8500004       6.51004841E-04
  -11.8400002       5.03781135E-04
  -11.8299999       3.42258514E-04
  -11.8199997       1.67614591E-04
  -11.8100004      -1.87672740E-05
  -11.8000002      -2.15339052E-04
  -11.7900000      -4.20427008E-04
  -11.7799997      -6.32284326E-04
  -11.7700005      -8.49125267E-04
  -11.7600002      -1.06916938E-03
  -11.7500000      -1.29067316E-03
  -11.7399998      -1.51194155E-03
  -11.7299995      -1.73133984E-03
  -11.7200003      -1.94728991E-03
  -11.7100000      -2.15824065E-03
  -11.6999998      -2.36265687E-03
  -11.6899996      -2.55898712E-03
  -11.6800003      -2.74564396E-03
  -11.6700001      -2.92099966E-03
  -11.6599998      -3.08338203E-03
  -11.6499996      -3.23108980E-03
  -11.6400003      -3.36242281E-03
  -11.6300001      -3.47570633E-03
  -11.6199999      -3.56931798E-03
  -11.6099997      -3.64172552E-03
  -11.6000004      -3.69150355E-03
  -11.5900002      -3.71735450E-03
  -11.5799999      -3.71811842E-03
  -11.5699997      -3.69278970E-03
  -11.5600004      -3.64053505E-03
  -11.5500002      -3.56069044E-03
  -11.5400000      -3.45277204E-03
  -11.5299997      -3.31647205E-03
  -11.5200005      -3.15162144E-03
  -11.5100002      -2.95817037E-03
  -11.5000000      -2.73613352E-03
  -11.4899998      -2.48552905E-03
  -11.4799995      -2.20633741E-03
  -11.4700003      -1.89846486E-03
  -11.4600000      -1.56174542E-03
  -11.4499998      -1.19597733E-03
  -11.4399996      -8.00984039E-04
  -11.4300003      -3.76724784E-04
  -11.4200001       7.65990335E-05
  -11.4099998       5.58457454E-04
  -11.3999996       1.06789032E-03
  -11.3900003       1.60349056E-03
  -11.3800001       2.16342229E-03
  -11.3699999       2.74548423E-03
  -11.3599997       3.34722362E-03
  -11.3500004       3.96608654E-03
  -11.3400002       4.59955074E-03
  -11.3299999       5.24525763E-03
  -11.3199997       5.90113504E-03
  -11.3100004       6.56544417E-03
  -11.3000002       7.23680947E-03
  -11.2900000       7.91417621E-03
  -11.2799997       8.59674998E-03
  -11.2700005       9.28391609E-03
  -11.2600002       9.97513253E-03
  -11.2500000       1.06698116E-02
  -11.2399998       1.13672661E-02
  -11.2299995       1.20666055E-02
  -11.2200003       1.27667543E-02
  -11.2100000       1.34664401E-02
  -11.1999998       1.41642662E-02
  -11.1899996       1.48587655E-02
  -11.1800003       1.55484965E-02
  -11.1700001       1.62321590E-02
  -11.1599998       1.69086084E-02
  -11.1499996       1.75769329E-02
  -11.1400003       1.82364602E-02
  -11.1300001       1.88866667E-02
  -11.1199999       1.95271652E-02
  -11.1099997       2.01576129E-02
  -11.1000004       2.07776241E-02
  -11.0900002       2.13867556E-02
  -11.0799999       2.19844691E-02
  -11.0699997       2.25701015E-02
  -11.0600004       2.31430214E-02
  -11.0500002       2.37025619E-02
  -11.0400000       2.42481455E-02
  -11.0299997       2.47792844E-02
  -11.0200005       2.52956562E-02
  -11.0100002       2.57970467E-02
  -11.0000000       2.62833592E-02
  -10.9899998       2.67545842E-02
  -10.9799995       2.72107422E-02
  -10.9700003       2.76518539E-02
  -10.9600000       2.80778613E-02
  -10.9499998       2.84886584E-02
  -10.9399996       2.88840178E-02
  -10.9300003       2.92636100E-02
  -10.9200001       2.96269581E-02
  -10.9099998       2.99734809E-02
  -10.8999996       3.03024668E-02
  -10.8900003       3.06131039E-02
  -10.8800001       3.09045408E-02
  -10.8699999       3.11759021E-02
  -10.8599997       3.14263478E-02
  -10.8500004       3.16551812E-02
  -10.8400002       3.18618454E-02
  -10.8299999       3.20460312E-02
  -10.8199997       3.22076231E-02
  -10.8100004       3.23468596E-02
  -10.8000002       3.24641392E-02
  -10.7900000       3.25601697E-02
  -10.7799997       3.26358117E-02
  -10.7700005       3.26920375E-02
  -10.7600002       3.27298343E-02
  -10.7500000       3.27501632E-02
  -10.7399998       3.27538289E-02
  -10.7299995       3.27414647E-02
  -10.7200003       3.27134132E-02
  -10.7100000       3.26699056E-02
  -10.6999998       3.26109901E-02
  -10.6899996       3.25367488E-02
  -10.6800003       3.24473567E-02
  -10.6700001       3.23433392E-02
  -10.6599998       3.22256796E-02
  -10.6499996       3.20958197E-02
  -10.6400003       3.19558084E-02
  -10.6300001       3.18081491E-02
  -10.6199999       3.16557772E-02
  -10.6099997       3.15017849E-02
  -10.6000004       3.13493870E-02
  -10.5900002       3.12015805E-02
  -10.5799999       3.10610253E-02
  -10.5699997       3.09300367E-02
  -10.5600004       3.08103152E-02
  -10.5500002       3.07031088E-02
  -10.5400000       3.06090880E-02
  -10.5299997       3.05286311E-02
  -10.5200005       3.04617323E-02
  -10.5100002       3.04082446E-02
  -10.5000000       3.03680357E-02
  -10.4899998       3.03411540E-02
  -10.4799995       3.03278342E-02
  -10.4700003       3.03286240E-02
  -10.4600000       3.03444695E-02
  -10.4499998       3.03763766E-02
  -10.4399996       3.04254759E-02
  -10.4300003       3.04927453E-02
  -10.4200001       3.05788666E-02
  -10.4099998       3.06839403E-02
  -10.3999996       3.08075491E-02
  -10.3900003       3.09486743E-02
  -10.3800001       3.11056990E-02
  -10.3699999       3.12767364E-02
  -10.3599997       3.14596556E-02
  -10.3500004       3.16523463E-02
  -10.3400002       3.18528637E-02
  -10.3299999       3.20595130E-02
  -10.3199997       3.22709307E-02
  -10.3100004       3.24859805E-02
  -10.3000002       3.27038094E-02
  -10.2900000       3.29236798E-02
  -10.2799997       3.31449620E-02
  -10.2700005       3.33671048E-02
  -10.2600002       3.35895345E-02
  -10.2500000       3.38116884E-02
  -10.2399998       3.40331420E-02
  -10.2299995       3.42536084E-02
  -10.2200003       3.44728790E-02
  -10.2100000       3.46909389E-02
  -10.1999998       3.49080041E-02
  -10.1899996       3.51244956E-02
  -10.1800003       3.53410989E-02
  -10.1700001       3.55586037E-02
  -10.1599998       3.57779749E-02
  -10.1499996       3.60002592E-02
  -10.1400003       3.62264812E-02
  -10.1300001       3.64576392E-02
  -10.1199999       3.66948657E-02
  -10.1099997       3.69389988E-02
  -10.1000004       3.71911190E-02
  -10.0900002       3.74524780E-02
  -10.0799999       3.77244763E-02
  -10.0699997       3.80087718E-02
  -10.0600004       3.83073203E-02
  -10.0500002       3.86223719E-02
  -10.0400000       3.89562435E-02
  -10.0299997       3.93113121E-02
  -10.0200005       3.96896675E-02
  -10.0100002       4.00933400E-02
  -10.0000000       4.05240469E-02
  -9.98999977       4.09831703E-02
  -9.97999954       4.14720885E-02
  -9.97000027       4.19919752E-02
  -9.96000004       4.25440893E-02
  -9.94999981       4.31296825E-02
  -9.93999958       4.37501445E-02
  -9.93000031       4.44066823E-02
  -9.92000008       4.51002941E-02
  -9.90999985       4.58319038E-02
  -9.89999962       4.66019921E-02
  -9.89000034       4.74106781E-02
  -9.88000011       4.82578464E-02
  -9.86999989       4.91431206E-02
  -9.85999966       5.00661321E-02
  -9.85000038       5.10265455E-02
  -9.84000015       5.20242006E-02
  -9.82999992       5.30591682E-02
  -9.81999969       5.41316271E-02
  -9.81000042       5.52419238E-02
  -9.80000019       5.63904904E-02
  -9.78999996       5.75778037E-02
  -9.77999973       5.88041432E-02
  -9.77000046       6.00698516E-02
  -9.76000023       6.13754652E-02
  -9.75000000       6.27213493E-02
  -9.73999977       6.41081408E-02
  -9.72999954       6.55365810E-02
  -9.72000027       6.70074075E-02
  -9.71000004       6.85218722E-02
  -9.69999981       7.00807199E-02
  -9.68999958       7.16847852E-02
  -9.68000031       7.33348131E-02
  -9.67000008       7.50308111E-02
  -9.65999985       7.67726898E-02
  -9.64999962       7.85597414E-02
  -9.64000034       8.03907663E-02
  -9.63000011       8.22642446E-02
  -9.61999989       8.41779038E-02
  -9.60999966       8.61293226E-02
  -9.60000038       8.81151557E-02
  -9.59000015       9.01317149E-02
  -9.57999992       9.21741202E-02
  -9.56999969       9.42366496E-02
  -9.56000042       9.63128731E-02
  -9.55000019       9.83949006E-02
  -9.53999996      0.100474171    
  -9.52999973      0.102541327    
  -9.52000046      0.104586698    
  -9.51000023      0.106600404    
  -9.50000000      0.108572841    
  -9.48999977      0.110494882    
  -9.47999954      0.112358585    
  -9.47000027      0.114156410    
  -9.46000004      0.115882270    
  -9.44999981      0.117531039    
  -9.43999958      0.119099073    
  -9.43000031      0.120583564    
  -9.42000008      0.121983543    
  -9.40999985      0.123299219    
  -9.39999962      0.124532573    
  -9.39000034      0.125687376    
  -9.38000011      0.126769170    
  -9.36999989      0.127784863    
  -9.35999966      0.128743902    
  -9.35000038      0.129656509    
  -9.34000015      0.130534545    
  -9.32999992      0.131391108    
  -9.31999969      0.132239848    
  -9.31000042      0.133095339    
  -9.30000019      0.133972332    
  -9.28999996      0.134885967    
  -9.27999973      0.135851383    
  -9.27000046      0.136883974    
  -9.26000023      0.137998343    
  -9.25000000      0.139209539    
  -9.23999977      0.140531734    
  -9.22999954      0.141978517    
  -9.22000027      0.143562540    
  -9.21000004      0.145295590    
  -9.19999981      0.147187993    
  -9.18999958      0.149248570    
  -9.18000031      0.151483938    
  -9.17000008      0.153899923    
  -9.15999985      0.156499982    
  -9.14999962      0.159286156    
  -9.14000034      0.162259236    
  -9.13000011      0.165418327    
  -9.11999989      0.168760955    
  -9.10999966      0.172283903    
  -9.10000038      0.175981626    
  -9.09000015      0.179847360    
  -9.07999992      0.183872163    
  -9.06999969      0.188045636    
  -9.06000042      0.192355648    
  -9.05000019      0.196787775    
  -9.03999996      0.201327011    
  -9.02999973      0.205956444    
  -9.02000046      0.210658461    
  -9.01000023      0.215413943    
  -9.00000000      0.220202878    
  -8.98999977      0.225005105    
  -8.97999954      0.229798943    
  -8.97000027      0.234561712    
  -8.96000004      0.239271298    
  -8.94999981      0.243904769    
  -8.93999958      0.248439446    
  -8.93000031      0.252853066    
  -8.92000008      0.257124364    
  -8.90999985      0.261233211    
  -8.89999962      0.265160680    
  -8.89000034      0.268889308    
  -8.88000011      0.272403508    
  -8.86999989      0.275689334    
  -8.85999966      0.278735608    
  -8.85000038      0.281532139    
  -8.84000015      0.284071922    
  -8.82999992      0.286349952    
  -8.81999969      0.288363457    
  -8.81000042      0.290111870    
  -8.80000019      0.291596085    
  -8.78999996      0.292818964    
  -8.77999973      0.293784231    
  -8.77000046      0.294498056    
  -8.76000023      0.294966012    
  -8.75000000      0.295195550    
  -8.73999977      0.295195073    
  -8.72999954      0.294973463    
  -8.72000027      0.294540077    
  -8.71000004      0.293906182    
  -8.69999981      0.293081820    
  -8.68999958      0.292079628    
  -8.68000031      0.290911287    
  -8.67000008      0.289589465    
  -8.65999985      0.288127333    
  -8.64999962      0.286538363    
  -8.64000034      0.284836322    
  -8.63000011      0.283034950    
  -8.61999989      0.281147987    
  -8.60999966      0.279189557    
  -8.60000038      0.277173012    
  -8.59000015      0.275111288    
  -8.57999992      0.273016036    
  -8.56999969      0.270899743    
  -8.56000042      0.268774569    
  -8.55000019      0.266650617    
  -8.53999996      0.264539987    
  -8.52999973      0.262453258    
  -8.52000046      0.260400087    
  -8.51000023      0.258391231    
  -8.50000000      0.256435394    
  -8.48999977      0.254540801    
  -8.47999954      0.252714783    
  -8.47000027      0.250964403    
  -8.46000004      0.249294713    
  -8.44999981      0.247712001    
  -8.43999958      0.246222094    
  -8.43000031      0.244829521    
  -8.42000008      0.243539631    
  -8.40999985      0.242358133    
  -8.39999962      0.241289824    
  -8.39000034      0.240339234    
  -8.38000011      0.239511937    
  -8.36999989      0.238811836    
  -8.35999966      0.238243192    
  -8.35000038      0.237809315    
  -8.34000015      0.237514377    
  -8.32999992      0.237361908    
  -8.31999969      0.237355158    
  -8.31000042      0.237499088    
  -8.30000019      0.237796664    
  -8.28999996      0.238251239    
  -8.27999973      0.238866806    
  -8.27000046      0.239646688    
  -8.26000023      0.240595579    
  -8.25000000      0.241716638    
  -8.23999977      0.243014812    
  -8.22999954      0.244494513    
  -8.22000027      0.246161819    
  -8.21000004      0.248023525    
  -8.19999981      0.250085622    
  -8.18999958      0.252355576    
  -8.18000031      0.254840851    
  -8.17000008      0.257548600    
  -8.15999985      0.260486335    
  -8.14999962      0.263662845    
  -8.14000034      0.267084897    
  -8.13000011      0.270762086    
  -8.11999989      0.274702370    
  -8.10999966      0.278914273    
  -8.10000038      0.283404171    
  -8.09000015      0.288180351    
  -8.07999992      0.293248117    
  -8.06999969      0.298612446    
  -8.06000042      0.304277092    
  -8.05000019      0.310243607    
  -8.03999996      0.316512942    
  -8.02999973      0.323084772    
  -8.02000046      0.329956532    
  -8.01000023      0.337124795    
  -8.00000000      0.344585001    
  -7.98999977      0.352329016    
  -7.98000002      0.360348612    
  -7.96999979      0.368634105    
  -7.96000004      0.377172172    
  -7.94999981      0.385948330    
  -7.94000006      0.394948453    
  -7.92999983      0.404156715    
  -7.92000008      0.413554937    
  -7.90999985      0.423127174    
  -7.90000010      0.432855278    
  -7.88999987      0.442722052    
  -7.88000011      0.452709436    
  -7.86999989      0.462798685    
  -7.86000013      0.472972929    
  -7.84999990      0.483214706    
  -7.84000015      0.493507892    
  -7.82999992      0.503835440    
  -7.82000017      0.514182508    
  -7.80999994      0.524535239    
  -7.80000019      0.534879088    
  -7.78999996      0.545202017    
  -7.78000021      0.555490375    
  -7.76999998      0.565732658    
  -7.76000023      0.575917780    
  -7.75000000      0.586036980    
  -7.73999977      0.596078098    
  -7.73000002      0.606035411    
  -7.71999979      0.615900993    
  -7.71000004      0.625670493    
  -7.69999981      0.635337949    
  -7.69000006      0.644901991    
  -7.67999983      0.654357910    
  -7.67000008      0.663704216    
  -7.65999985      0.672939718    
  -7.65000010      0.682063878    
  -7.63999987      0.691077232    
  -7.63000011      0.699982047    
  -7.61999989      0.708780408    
  -7.61000013      0.717477858    
  -7.59999990      0.726077735    
  -7.59000015      0.734586358    
  -7.57999992      0.743009567    
  -7.57000017      0.751354575    
  -7.55999994      0.759628594    
  -7.55000019      0.767839909    
  -7.53999996      0.775997579    
  -7.53000021      0.784111500    
  -7.51999998      0.792193949    
  -7.51000023      0.800254762    
  -7.50000000      0.808305144    
  -7.48999977      0.816358209    
  -7.48000002      0.824425578    
  -7.46999979      0.832519174    
  -7.46000004      0.840650380    
  -7.44999981      0.848827362    
  -7.44000006      0.857064843    