  -16.0000000       0.00000000    
  -15.9899998       0.00000000    
  -15.9799995       0.00000000    
  -15.9700003       0.00000000    
  -15.9600000       0.00000000    
  -15.9499998       0.00000000    
  -15.9399996       0.00000000    
  -15.9300003       0.00000000    
  -15.9200001       0.00000000    
  -15.9099998       0.00000000    
  -15.8999996       0.00000000    
  -15.8900003       0.00000000    
  -15.8800001       0.00000000    
  -15.8699999       0.00000000    
  -15.8599997      -0.00000000    
  -15.8500004       0.00000000    
  -15.8400002       1.68155816E-44
  -15.8299999       2.45227231E-43
  -15.8199997       2.22245936E-42
  -15.8100004       1.50499455E-41
  -15.8000002       8.24930393E-41
  -15.7900000       3.83234111E-40
  -15.7799997       1.55110288E-39
  -15.7700005       5.55796870E-39
  -15.7600002       1.77819366E-38
  -15.7500000       5.09524453E-38
  -15.7399998       1.30573731E-37
  -15.7299995       2.97348987E-37
  -15.7200003       5.93193675E-37
  -15.7100000       1.00497996E-36
  -15.6999998       1.33446177E-36
  -15.6899996       9.87427452E-37
  -15.6800003      -1.23957544E-36
  -15.6700001      -7.13971693E-36
  -15.6599998      -1.84302864E-35
  -15.6499996      -3.49665488E-35
  -15.6400003      -5.16084379E-35
  -15.6300001      -5.42283324E-35
  -15.6199999      -1.66147503E-35
  -15.6099997       9.79998505E-35
  -15.6000004       3.23994988E-34
  -15.5900002       6.58193634E-34
  -15.5799999       9.90370245E-34
  -15.5699997       1.00114999E-33
  -15.5600004       8.07002988E-35
  -15.5500002      -2.57077970E-33
  -15.5400000      -7.36934159E-33
  -15.5299997      -1.30104082E-32
  -15.5200005      -1.45192683E-32
  -15.5100002      -2.03521345E-33
  -15.5000000       3.65008393E-32
  -15.4899998       1.04412522E-31
  -15.4799995       1.75119259E-31
  -15.4700003       1.68188932E-31
  -15.4600000      -5.25630939E-32
  -15.4499998      -6.16560141E-31
  -15.4399996      -1.48073168E-30
  -15.4300003      -2.17779212E-30
  -15.4200001      -1.62481117E-30
  -15.4099998       1.69073892E-30
  -15.3999996       8.74447426E-30
  -15.3900003       1.80499764E-29
  -15.3800001       2.33560925E-29
  -15.3699999       1.28207215E-29
  -15.3599997      -2.72845923E-29
  -15.3500004      -1.01490189E-28
  -15.3400002      -1.87170178E-28
  -15.3299999      -2.17691858E-28
  -15.3199997      -8.44871642E-29
  -15.3100004       3.18255855E-28
  -15.3000002       9.91281150E-28
  -15.2900000       1.68904114E-27
  -15.2799997       1.81744193E-27
  -15.2700005       5.11163426E-28
  -15.2600002      -2.95371575E-27
  -15.2500000      -8.35818082E-27
  -15.2399998      -1.35648238E-26
  -15.2299995      -1.39825626E-26
  -15.2200003      -3.43006544E-27
  -15.2100000       2.26982014E-26
  -15.1999998       6.19067347E-26
  -15.1899996       9.84766622E-26
  -15.1800003       1.00896622E-25
  -15.1700001       2.86912347E-26
  -15.1599998      -1.46532848E-25
  -15.1499996      -4.06738507E-25
  -15.1400003      -6.51604679E-25
  -15.1300001      -6.86030865E-25
  -15.1199999      -2.63677251E-25
  -15.1099997       7.88944327E-25
  -15.1000004       2.37680990E-24
  -15.0900002       3.93710183E-24
  -15.0799999       4.37104554E-24
  -15.0699997       2.27726276E-24
  -15.0600004      -3.39086733E-24
  -15.0500002      -1.22950046E-23
  -15.0400000      -2.16535866E-23
  -15.0299997      -2.58240717E-23
  -15.0200005      -1.73623126E-23
  -15.0100002       9.83286325E-24
  -15.0000000       5.54911330E-23
  -14.9899998       1.07615420E-22
  -14.9799995       1.39854802E-22
  -14.9700003       1.15482004E-22
  -14.9600000       9.56270699E-25
  -14.9499998      -2.11361042E-22
  -14.9399996      -4.77595224E-22
  -14.9300003      -6.86709502E-22
  -14.9200001      -6.71733362E-22
  -14.9099998      -2.62026347E-22
  -14.8999996       6.22268830E-22
  -14.8900003       1.85566399E-21
  -14.8800001       3.02230712E-21
  -14.8699999       3.42962855E-21
  -14.8599997       2.28447737E-21
  -14.8500004      -9.48651964E-22
  -14.8400002      -6.07336241E-21
  -14.8299999      -1.17454857E-20
  -14.8199997      -1.53778563E-20
  -14.8100004      -1.36346184E-20
  -14.8000002      -3.65268903E-21
  -14.7900000       1.51610138E-20
  -14.7799997       3.93046468E-20
  -14.7700005       6.02438484E-20
  -14.7600002       6.54064764E-20
  -14.7500000       4.18353800E-20
  -14.7399998      -1.76551346E-20
  -14.7299995      -1.07312105E-19
  -14.7200003      -2.03161866E-19
  -14.7100000      -2.63323099E-19
  -14.6999998      -2.37108608E-19
  -14.6899996      -8.37519078E-20
  -14.6800003       2.02514106E-19
  -14.6700001       5.69175328E-19
  -14.6599998       8.95855732E-19
  -14.6499996       1.01059561E-18
  -14.6400003       7.38889732E-19
  -14.6300001      -1.88865529E-20
  -14.6199999      -1.20131782E-18
  -14.6099997      -2.52508917E-18
  -14.6000004      -3.48998916E-18
  -14.5900002      -3.48205029E-18
  -14.5799999      -1.98028983E-18
  -14.5699997       1.17013941E-18
  -14.5600004       5.50305932E-18
  -14.5500002       9.81319516E-18
  -14.5400000       1.22926260E-17
  -14.5299997       1.09877213E-17
  -14.5200005       4.53857334E-18
  -14.5100002      -6.97343448E-18
  -14.5000000      -2.13700109E-17
  -14.4899998      -3.42702648E-17
  -14.4799995      -3.98287928E-17
  -14.4700003      -3.23986264E-17
  -14.4600000      -8.86159583E-18
  -14.4499998       2.90107792E-17
  -14.4399996       7.30878194E-17
  -14.4300003       1.09259673E-16
  -14.4200001       1.20297260E-16
  -14.4099998       9.11134813E-17
  -14.3999996       1.53851872E-17
  -14.3900003      -9.84448690E-17
  -14.3800001      -2.24309121E-16
  -14.3699999      -3.21109979E-16
  -14.3599997      -3.41908820E-16
  -14.3500004      -2.48811799E-16
  -14.3400002      -3.02060221E-17
  -14.3299999       2.85094376E-16
  -14.3199997       6.23060389E-16
  -14.3100004       8.74108726E-16
  -14.3000002       9.18855412E-16
  -14.2900000       6.66401689E-16
  -14.2799997       9.59129420E-17
  -14.2700005      -7.11991702E-16
  -14.2600002      -1.56835773E-15
  -14.2500000      -2.20389714E-15
  -14.2399998      -2.33343770E-15
  -14.2299995      -1.74630665E-15
  -14.2200003      -4.00048923E-16
  -14.2100000       1.51306184E-15
  -14.1999998       3.55708522E-15
  -14.1899996       5.12091090E-15
  -14.1800003       5.56389262E-15
  -14.1700001       4.41269564E-15
  -14.1599998       1.55950306E-15
  -14.1499996      -2.60211994E-15
  -14.1400003      -7.16389296E-15
  -14.1300001      -1.08482042E-14
  -14.1199999      -1.23066061E-14
  -14.1099997      -1.05156811E-14
  -14.1000004      -5.17025269E-15
  -14.0900002       3.04888069E-15
  -14.0799999       1.24444912E-14
  -14.0699997       2.05730496E-14
  -14.0600004       2.47996356E-14
  -14.0500002       2.30309546E-14
  -14.0400000       1.44431569E-14
  -14.0299997      -1.45564151E-17
  -14.0200005      -1.75349406E-14
  -14.0100002      -3.38924005E-14
  -14.0000000      -4.43759375E-14
  -13.9899998      -4.50315783E-14
  -13.9799995      -3.39064917E-14
  -13.9700003      -1.19341174E-14
  -13.9600000       1.68539279E-14
  -13.9499998       4.59562130E-14
  -13.9399996       6.78173609E-14
  -13.9300003       7.57417404E-14
  -13.9200001       6.58293407E-14
  -13.9099998       3.83867539E-14
  -13.8999996      -1.65381415E-15
  -13.8900003      -4.55465879E-14
  -13.8800001      -8.26874783E-14
  -13.8699999      -1.03283294E-13
  -13.8599997      -1.01051119E-13
  -13.8500004      -7.51813908E-14
  -13.8400002      -3.09345275E-14
  -13.8299999       2.14219342E-14
  -13.8199997       6.91681684E-14
  -13.8100004       1.00553348E-13
  -13.8000002       1.08141374E-13
  -13.7900000       9.10757065E-14
  -13.7799997       5.54947933E-14
  -13.7700005       1.28251783E-14
  -13.7600002      -2.36880607E-14
  -13.7500000      -4.32673544E-14
  -13.7399998      -4.14038853E-14
  -13.7299995      -2.18854069E-14
  -13.7200003       3.81741995E-15
  -13.7100000       1.99296468E-14
  -13.6999998       1.17628143E-14
  -13.6899996      -2.83858105E-14
  -13.6800003      -9.67060972E-14
  -13.6700001      -1.76438684E-13
  -13.6599998      -2.40528002E-13
  -13.6499996      -2.58234135E-13
  -13.6400003      -2.04326166E-13
  -13.6300001      -6.84760679E-14
  -13.6199999       1.37951892E-13
  -13.6099997       3.80171345E-13
  -13.6000004       6.04639331E-13
  -13.5900002       7.49800233E-13
  -13.5799999       7.60829930E-13
  -13.5699997       6.04920736E-13
  -13.5600004       2.83090391E-13
  -13.5500002      -1.65002628E-13
  -13.5400000      -6.65227747E-13
  -13.5299997      -1.12193035E-12
  -13.5200005      -1.43713416E-12
  -13.5100002      -1.53168775E-12
  -13.5000000      -1.36331246E-12
  -13.4899998      -9.37110415E-13
  -13.4799995      -3.05922036E-13
  -13.4700003       4.39499240E-13
  -13.4600000       1.18788822E-12
  -13.4499998       1.82793581E-12
  -13.4399996       2.26670007E-12
  -13.4300003       2.44175296E-12
  -13.4200001       2.32503925E-12
  -13.4099998       1.91920091E-12
  -13.3999996       1.24961131E-12
  -13.3900003       3.56685276E-13
  -13.3800001      -7.07348405E-13
  -13.3699999      -1.87515194E-12
  -13.3599997      -3.05561370E-12
  -13.3500004      -4.12433672E-12
  -13.3400002      -4.91999150E-12
  -13.3299999      -5.25330864E-12
  -13.3199997      -4.93291692E-12
  -13.3100004      -3.80739797E-12
  -13.3000002      -1.81695219E-12
  -13.2900000       9.57317016E-13
  -13.2799997       4.26148656E-12
  -13.2700005       7.66842145E-12
  -13.2600002       1.06179562E-11
  -13.2500000       1.24979619E-11
  -13.2399998       1.27560445E-11
  -13.2299995       1.10220591E-11
  -13.2200003       7.21533553E-12
  -13.2100000       1.61020502E-12
  -13.1999998      -5.16061673E-12
  -13.1899996      -1.21734957E-11
  -13.1800003      -1.83458058E-11
  -13.1700001      -2.26111178E-11
  -13.1599998      -2.41053549E-11
  -13.1499996      -2.23274350E-11
  -13.1400003      -1.72419752E-11
  -13.1300001      -9.30311904E-12
  -13.1199999       6.04814701E-13
  -13.1099997       1.12967751E-11
  -13.1000004       2.14592562E-11
  -13.0900002       2.98309467E-11
  -13.0799999       3.53587576E-11
  -13.0699997       3.73056482E-11
  -13.0600004       3.53013556E-11
  -13.0500002       2.93424694E-11
  -13.0400000       1.97600582E-11
  -13.0299997       7.17757234E-12
  -13.0200005      -7.52278361E-12
  -13.0100002      -2.32183890E-11
  -13.0000000      -3.85575218E-11
  -12.9899998      -5.19853986E-11
  -12.9799995      -6.18128326E-11
  -12.9700003      -6.63514313E-11
  -12.9600000      -6.41237063E-11
  -12.9499998      -5.41333055E-11
  -12.9399996      -3.61545065E-11
  -12.9300003      -1.09793685E-11
  -12.9200001       1.94474350E-11
  -12.9099998       5.20675378E-11
  -12.8999996       8.29569954E-11
  -12.8900003       1.07778918E-10
  -12.8800001       1.22391042E-10
  -12.8699999       1.23517432E-10
  -12.8599997       1.09368452E-10
  -12.8500004       8.00901012E-11
  -12.8400002       3.79450221E-11
  -12.8299999      -1.28275871E-11
  -12.8199997      -6.64706207E-11
  -12.8100004      -1.16424509E-10
  -12.8000002      -1.56191449E-10
  -12.7900000      -1.80215107E-10
  -12.7799997      -1.84642024E-10
  -12.7700005      -1.67857159E-10
  -12.7600002      -1.30728470E-10
  -12.7500000      -7.65454020E-11
  -12.7399998      -1.06819657E-11
  -12.7299995       5.99539446E-11
  -12.7200003       1.27609465E-10
  -12.7100000       1.84442475E-10
  -12.6999998       2.23287625E-10
  -12.6899996       2.38390974E-10
  -12.6800003       2.26081959E-10
  -12.6700001       1.85346891E-10
  -12.6599998       1.18254476E-10
  -12.6499996       3.01631810E-11
  -12.6400003      -7.03739844E-11
  -12.6300001      -1.72088011E-10
  -12.6199999      -2.61907163E-10
  -12.6099997      -3.26298988E-10
  -12.6000004      -3.52954582E-10
  -12.5900002      -3.32642219E-10
  -12.5799999      -2.60981847E-10
  -12.5699997      -1.39852352E-10
  -12.5600004       2.18512135E-11
  -12.5500002       2.08327397E-10
  -12.5400000       3.97952865E-10
  -12.5299997       5.65304581E-10
  -12.5200005       6.83934409E-10
  -12.5100002       7.29584504E-10
  -12.5000000       6.83457679E-10
  -12.4899998       5.35138434E-10
  -12.4799995       2.84814866E-10
  -12.4700003      -5.54528680E-11
  -12.4600000      -4.61536531E-10
  -12.4499998      -8.98108365E-10
  -12.4399996      -1.32045452E-09
  -12.4300003      -1.67704872E-09
  -12.4200001      -1.91267135E-09
  -12.4099998      -1.97187200E-09
  -12.3999996      -1.80260484E-09
  -12.3900003      -1.35987899E-09
  -12.3800001      -6.09293838E-10
  -12.3699999       4.69707606E-10
  -12.3599997       1.88106131E-09
  -12.3500004       3.61001140E-09
  -12.3400002       5.62202151E-09
  -12.3299999       7.86289078E-09
  -12.3199997       1.02602655E-08
  -12.3100004       1.27265700E-08
  -12.3000002       1.51632111E-08
  -12.2900000       1.74657977E-08
  -12.2799997       1.95298338E-08
  -12.2700005       2.12563815E-08
  -12.2600002       2.25571064E-08
  -12.2500000       2.33581758E-08
  -12.2399998       2.36027198E-08
  -12.2299995       2.32517579E-08
  -12.2200003       2.22837020E-08
  -12.2100000       2.06926707E-08
  -12.1999998       1.84861353E-08
  -12.1899996       1.56823212E-08
  -12.1800003       1.23077584E-08
  -12.1700001       8.39526493E-09
  -12.1599998       3.98248323E-09
  -12.1499996      -8.88986884E-10
  -12.1400003      -6.17403018E-09
  -12.1300001      -1.18241257E-08
  -12.1199999      -1.77873432E-08
  -12.1099997      -2.40081857E-08
  -12.1000004      -3.04274153E-08
  -12.0900002      -3.69817528E-08
  -12.0799999      -4.36033716E-08
  -12.0699997      -5.02192137E-08
  -12.0600004      -5.67502028E-08
  -12.0500002      -6.31103632E-08
  -12.0400000      -6.92062301E-08
  -12.0299997      -7.49367572E-08
  -12.0200005      -8.01939919E-08
  -12.0100002      -8.48645527E-08
  -12.0000000      -8.88321310E-08
  -11.9899998      -9.19806951E-08
  -11.9799995      -9.41984410E-08
  -11.9700003      -9.53814947E-08
  -11.9600000      -9.54379402E-08
  -11.9499998      -9.42906908E-08
  -11.9399996      -9.18801106E-08
  -11.9300003      -8.81653932E-08
  -11.9200001      -8.31254994E-08
  -11.9099998      -7.67591928E-08
  -11.8999996      -6.90848339E-08
  -11.8900003      -6.01399037E-08
  -11.8800001      -4.99803186E-08
  -11.8699999      -3.86797083E-08
  -11.8599997      -2.63283297E-08
  -11.8500004      -1.30316327E-08
  -11.8400002       1.09160947E-09
  -11.8299999       1.59118052E-08
  -11.8199997       3.12916626E-08
  -11.8100004       4.70894541E-08
  -11.8000002       6.31623891E-08
  -11.7900000       7.93697836E-08
  -11.7799997       9.55756505E-08
  -11.7700005       1.11650323E-07
  -11.7600002       1.27471282E-07
  -11.7500000       1.42923142E-07
  -11.7399998       1.57896935E-07
  -11.7299995       1.72288779E-07
  -11.7200003       1.85998687E-07
  -11.7100000       1.98928859E-07
  -11.6999998       2.10982591E-07
  -11.6899996       2.22063079E-07
  -11.6800003       2.32072111E-07
  -11.6700001       2.40909429E-07
  -11.6599998       2.48471224E-07
  -11.6499996       2.54649592E-07
  -11.6400003       2.59331472E-07
  -11.6300001       2.62398714E-07
  -11.6199999       2.63728509E-07
  -11.6099997       2.63194835E-07
  -11.6000004       2.60671357E-07
  -11.5900002       2.56035435E-07
  -11.5799999       2.49172615E-07
  -11.5699997       2.39982739E-07
  -11.5600004       2.28384962E-07
  -11.5500002       2.14323222E-07
  -11.5400000       1.97770305E-07
  -11.5299997       1.78730943E-07
  -11.5200005       1.57243008E-07
  -11.5100002       1.33378137E-07
  -11.5000000       1.07240268E-07
  -11.4899998       7.89632537E-08
  -11.4799995       4.87083085E-08
  -11.4700003       1.66602980E-08
  -11.4600000      -1.69762071E-08
  -11.4499998      -5.19812353E-08
  -11.4399996      -8.81247360E-08
  -11.4300003      -1.25171653E-07
  -11.4200001      -1.62888711E-07
  -11.4099998      -2.01050199E-07
  -11.3999996      -2.39445313E-07
  -11.3900003      -2.77884311E-07
  -11.3800001      -3.16204165E-07
  -11.3699999      -3.54273055E-07
  -11.3599997      -3.91993183E-07
  -11.3500004      -4.29301309E-07
  -11.3400002      -4.66168217E-07
  -11.3299999      -5.02595469E-07
  -11.3199997      -5.38611062E-07
  -11.3100004      -5.74264277E-07
  -11.3000002      -6.09618724E-07
  -11.2900000      -6.44745967E-07
  -11.2799997      -6.79718255E-07
  -11.2700005      -7.14601413E-07
  -11.2600002      -7.49448247E-07
  -11.2500000      -7.84292354E-07
  -11.2399998      -8.19142542E-07
  -11.2299995      -8.53979316E-07
  -11.2200003      -8.88751572E-07
  -11.2100000      -9.23377570E-07
  -11.1999998      -9.57747147E-07
  -11.1899996      -9.91725869E-07
  -11.1800003      -1.02516208E-06
  -11.1700001      -1.05789536E-06
  -11.1599998      -1.08976769E-06
  -11.1499996      -1.12063276E-06
  -11.1400003      -1.15036630E-06
  -11.1300001      -1.17887589E-06
  -11.1199999      -1.20610639E-06
  -11.1099997      -1.23204688E-06
  -11.1000004      -1.25673296E-06
  -11.0900002      -1.28024635E-06
  -11.0799999      -1.30271303E-06
  -11.0699997      -1.32430000E-06
  -11.0600004      -1.34520951E-06
  -11.0500002      -1.36566905E-06
  -11.0400000      -1.38592509E-06
  -11.0299997      -1.40622888E-06
  -11.0200005      -1.42682927E-06
  -11.0100002      -1.44795797E-06
  -11.0000000      -1.46981756E-06
  -10.9899998      -1.49257301E-06
  -10.9799995      -1.51633799E-06
  -10.9700003      -1.54117186E-06
  -10.9600000      -1.56707335E-06
  -10.9499998      -1.59397780E-06
  -10.9399996      -1.62176104E-06
  -10.9300003      -1.65024278E-06
  -10.9200001      -1.67919302E-06
  -10.9099998      -1.70834210E-06
  -10.8999996      -1.73739045E-06
  -10.8900003      -1.76602157E-06
  -10.8800001      -1.79390690E-06
  -10.8699999      -1.82072313E-06
  -10.8599997      -1.84615567E-06
  -10.8500004      -1.86990985E-06
  -10.8400002      -1.89171203E-06
  -10.8299999      -1.91131812E-06
  -10.8199997      -1.92851394E-06
  -10.8100004      -1.94311929E-06
  -10.8000002      -1.95498274E-06
  -10.7900000      -1.96399105E-06
  -10.7799997      -1.97005988E-06
  -10.7700005      -1.97313784E-06
  -10.7600002      -1.97319923E-06
  -10.7500000      -1.97024451E-06
  -10.7399998      -1.96429028E-06
  -10.7299995      -1.95537109E-06
  -10.7200003      -1.94352447E-06
  -10.7100000      -1.92878497E-06
  -10.6999998      -1.91118306E-06
  -10.6899996      -1.89073091E-06
  -10.6800003      -1.86742523E-06
  -10.6700001      -1.84123905E-06
  -10.6599998      -1.81212135E-06
  -10.6499996      -1.78000107E-06
  -10.6400003      -1.74478475E-06
  -10.6300001      -1.70636451E-06
  -10.6199999      -1.66462235E-06
  -10.6099997      -1.61943319E-06
  -10.6000004      -1.57067257E-06
  -10.5900002      -1.51821996E-06
  -10.5799999      -1.46196658E-06
  -10.5699997      -1.40181749E-06
  -10.5600004      -1.33769777E-06
  -10.5500002      -1.26955456E-06
  -10.5400000      -1.19736455E-06
  -10.5299997      -1.12113230E-06
  -10.5200005      -1.04089872E-06
  -10.5100002      -9.56739882E-07
  -10.5000000      -8.68767984E-07
  -10.4899998      -7.77132470E-07
  -10.4799995      -6.82020243E-07
  -10.4700003      -5.83654526E-07
  -10.4600000      -4.82291568E-07
  -10.4499998      -3.78219539E-07
  -10.4399996      -2.71756164E-07
  -10.4300003      -1.63245190E-07
  -10.4200001      -5.30542401E-08
  -10.4099998       5.84300608E-08
  -10.3999996       1.70803958E-07
  -10.3900003       2.83653492E-07
  -10.3800001       3.96555834E-07
  -10.3699999       5.09089375E-07
  -10.3599997       6.20837682E-07
  -10.3500004       7.31398302E-07
  -10.3400002       8.40390385E-07
  -10.3299999       9.47463093E-07
  -10.3199997       1.05230299E-06
  -10.3100004       1.15464218E-06
  -10.3000002       1.25426163E-06
  -10.2900000       1.35099879E-06
  -10.2799997       1.44474734E-06
  -10.2700005       1.53546057E-06
  -10.2600002       1.62315041E-06
  -10.2500000       1.70788644E-06
  -10.2399998       1.78979326E-06
  -10.2299995       1.86904686E-06
  -10.2200003       1.94587210E-06
  -10.2100000       2.02053661E-06
  -10.1999998       2.09334644E-06
  -10.1899996       2.16463582E-06
  -10.1800003       2.23476445E-06
  -10.1700001       2.30410342E-06
  -10.1599998       2.37302629E-06
  -10.1499996       2.44189914E-06
  -10.1400003       2.51107008E-06
  -10.1300001       2.58085583E-06
  -10.1199999       2.65153517E-06
  -10.1099997       2.72333773E-06
  -10.1000004       2.79644337E-06
  -10.0900002       2.87097146E-06
  -10.0799999       2.94698566E-06
  -10.0699997       3.02448825E-06
  -10.0600004       3.10342830E-06
  -10.0500002       3.18370280E-06
  -10.0400000       3.26516374E-06
  -10.0299997       3.34762217E-06
  -10.0200005       3.43085389E-06
  -10.0100002       3.51460722E-06
  -10.0000000       3.59860951E-06
  -9.98999977       3.68257292E-06
  -9.97999954       3.76620051E-06
  -9.97000027       3.84919531E-06
  -9.96000004       3.93127129E-06
  -9.94999981       4.01216084E-06
  -9.93999958       4.09162294E-06
  -9.93000031       4.16946432E-06
  -9.92000008       4.24554446E-06
  -9.90999985       4.31977969E-06
  -9.89999962       4.39216774E-06
  -9.89000034       4.46277454E-06
  -9.88000011       4.53175244E-06
  -9.86999989       4.59932562E-06
  -9.85999966       4.66579831E-06
  -9.85000038       4.73153750E-06
  -9.84000015       4.79696473E-06
  -9.82999992       4.86255158E-06
  -9.81999969       4.92879371E-06
  -9.81000042       4.99621001E-06
  -9.80000019       5.06532115E-06
  -9.78999996       5.13664600E-06
  -9.77999973       5.21068523E-06
  -9.77000046       5.28791406E-06
  -9.76000023       5.36877633E-06
  -9.75000000       5.45366538E-06
  -9.73999977       5.54292546E-06
  -9.72999954       5.63683898E-06
  -9.72000027       5.73561647E-06
  -9.71000004       5.83938618E-06
  -9.69999981       5.94818630E-06
  -9.68999958       6.06197000E-06
  -9.68000031       6.18058129E-06
  -9.67000008       6.30377053E-06
  -9.65999985       6.43118665E-06
  -9.64999962       6.56238899E-06
  -9.64000034       6.69683777E-06
  -9.63000011       6.83391272E-06
  -9.61999989       6.97292080E-06
  -9.60999966       7.11309804E-06
  -9.60000038       7.25361178E-06
  -9.59000015       7.39359257E-06
  -9.57999992       7.53211907E-06
  -9.56999969       7.66825906E-06
  -9.56000042       7.80106257E-06
  -9.55000019       7.92958235E-06
  -9.53999996       8.05289801E-06
  -9.52999973       8.17011187E-06
  -9.52000046       8.28036445E-06
  -9.51000023       8.38286815E-06
  -9.50000000       8.47688989E-06
  -9.48999977       8.56178485E-06
  -9.47999954       8.63698642E-06
  -9.47000027       8.70203803E-06
  -9.46000004       8.75658952E-06
  -9.44999981       8.80041989E-06
  -9.43999958       8.83343182E-06
  -9.43000031       8.85569443E-06
  -9.42000008       8.86742964E-06
  -9.40999985       8.86902035E-06
  -9.39999962       8.86103953E-06
  -9.39000034       8.84423844E-06
  -9.38000011       8.81955657E-06
  -9.36999989       8.78813171E-06
  -9.35999966       8.75128353E-06
  -9.35000038       8.71051361E-06
  -9.34000015       8.66749178E-06
  -9.32999992       8.62403704E-06
  -9.31999969       8.58211752E-06
  -9.31000042       8.54381778E-06
  -9.30000019       8.51130062E-06
  -9.28999996       8.48683521E-06
  -9.27999973       8.47272076E-06
  -9.27000046       8.47127649E-06
  -9.26000023       8.48483251E-06
  -9.25000000       8.51566620E-06
  -9.23999977       8.56598945E-06
  -9.22999954       8.63791593E-06
  -9.22000027       8.73343743E-06
  -9.21000004       8.85435838E-06
  -9.19999981       9.00231680E-06
  -9.18999958       9.17873149E-06
  -9.18000031       9.38478115E-06
  -9.17000008       9.62140621E-06
  -9.15999985       9.88928969E-06
  -9.14999962       1.01887936E-05
  -9.14000034       1.05200188E-05
  -9.13000011       1.08827535E-05
  -9.11999989       1.12764592E-05
  -9.10999966       1.17002983E-05
  -9.10000038       1.21531166E-05
  -9.09000015       1.26334353E-05
  -9.07999992       1.31394881E-05
  -9.06999969       1.36692033E-05
  -9.06000042       1.42202125E-05
  -9.05000019       1.47899082E-05
  -9.03999996       1.53754499E-05
  -9.02999973       1.59737574E-05
  -9.02000046       1.65815691E-05
  -9.01000023       1.71954762E-05
  -9.00000000       1.78119226E-05
  -8.98999977       1.84272794E-05
  -8.97999954       1.90378705E-05
  -8.97000027       1.96399851E-05
  -8.96000004       2.02299198E-05
  -8.94999981       2.08040437E-05
  -8.93999958       2.13587664E-05
  -8.93000031       2.18906043E-05
  -8.92000008       2.23961924E-05
  -8.90999985       2.28723202E-05
  -8.89999962       2.33159317E-05
  -8.89000034       2.37241929E-05
  -8.88000011       2.40945101E-05
  -8.86999989       2.44245330E-05
  -8.85999966       2.47121443E-05
  -8.85000038       2.49555687E-05
  -8.84000015       2.51532947E-05
  -8.82999992       2.53041107E-05
  -8.81999969       2.54071329E-05
  -8.81000042       2.54617535E-05
  -8.80000019       2.54676852E-05
  -8.78999996       2.54249389E-05
  -8.77999973       2.53338167E-05
  -8.77000046       2.51949259E-05
  -8.76000023       2.50091198E-05
  -8.75000000       2.47775388E-05
  -8.73999977       2.45015599E-05
  -8.72999954       2.41827602E-05
  -8.72000027       2.38229204E-05
  -8.71000004       2.34240197E-05
  -8.69999981       2.29881607E-05
  -8.68999958       2.25175718E-05
  -8.68000031       2.20146103E-05
  -8.67000008       2.14817155E-05
  -8.65999985       2.09213522E-05
  -8.64999962       2.03360214E-05
  -8.64000034       1.97282388E-05
  -8.63000011       1.91004565E-05
  -8.61999989       1.84550772E-05
  -8.60999966       1.77944385E-05
  -8.60000038       1.71207012E-05
  -8.59000015       1.64360154E-05
  -8.57999992       1.57423092E-05
  -8.56999969       1.50414389E-05
  -8.56000042       1.43350990E-05
  -8.55000019       1.36248391E-05
  -8.53999996       1.29120754E-05
  -8.52999973       1.21980765E-05
  -8.52000046       1.14839731E-05
  -8.51000023       1.07707219E-05
  -8.50000000       1.00591433E-05
  -8.48999977       9.34997297E-06
  -8.47999954       8.64376671E-06
  -8.47000027       7.94101834E-06
  -8.46000004       7.24205984E-06
  -8.44999981       6.54721362E-06
  -8.43999958       5.85665930E-06
  -8.43000031       5.17052740E-06
  -8.42000008       4.48889932E-06
  -8.40999985       3.81182440E-06
  -8.39999962       3.13932537E-06
  -8.39000034       2.47140247E-06
  -8.38000011       1.80813015E-06
  -8.36999989       1.14956345E-06
  -8.35999966       4.95820473E-07
  -8.35000038      -1.52897158E-07
  -8.34000015      -7.96334405E-07
  -8.32999992      -1.43414138E-06
  -8.31999969      -2.06590744E-06
  -8.31000042      -2.69107136E-06
  -8.30000019      -3.30899616E-06
  -8.28999996      -3.91893718E-06
  -8.27999973      -4.52007089E-06
  -8.27000046      -5.11137932E-06
  -8.26000023      -5.69174426E-06
  -8.25000000      -6.25993925E-06
  -8.23999977      -6.81459915E-06
  -8.22999954      -7.35429330E-06
  -8.22000027      -7.87747013E-06
  -8.21000004      -8.38250799E-06
  -8.19999981      -8.86766338E-06
  -8.18999958      -9.33115552E-06
  -8.18000031      -9.77115269E-06
  -8.17000008      -1.01857559E-05
  -8.15999985      -1.05730633E-05
  -8.14999962      -1.09311286E-05
  -8.14000034      -1.12580901E-05
  -8.13000011      -1.15520907E-05
  -8.11999989      -1.18113358E-05
  -8.10999966      -1.20341710E-05
  -8.10000038      -1.22189940E-05
  -8.09000015      -1.23643904E-05
  -8.07999992      -1.24690760E-05
  -8.06999969      -1.25319193E-05
  -8.06000042      -1.25520073E-05
  -8.05000019      -1.25285696E-05
  -8.03999996      -1.24610788E-05
  -8.02999973      -1.23491945E-05
  -8.02000046      -1.21927742E-05
  -8.01000023      -1.19919559E-05
  -8.00000000      -1.17470436E-05
  -7.98999977      -1.14585373E-05
  -7.98000002      -1.11271702E-05
  -7.96999979      -1.07537971E-05
  -7.96000004      -1.03395005E-05
  -7.94999981      -9.88550437E-06
  -7.94000006      -9.39310939E-06
  -7.92999983      -8.86383714E-06
  -7.92000008      -8.29926557E-06
  -7.90999985      -7.70108545E-06
  -7.90000010      -7.07111303E-06
  -7.88999987      -6.41121505E-06
  -7.88000011      -5.72337012E-06
  -7.86999989      -5.00956776E-06
  -7.86000013      -4.27186751E-06
  -7.84999990      -3.51235371E-06
  -7.84000015      -2.73309365E-06
  -7.82999992      -1.93619780E-06
  -7.82000017      -1.12376949E-06
  -7.80999994      -2.97907434E-07
  -7.80000019       5.39328198E-07
  -7.78999996       1.38593646E-06
  -7.78000021       2.23995244E-06
  -7.76999998       3.09942266E-06
  -7.76000023       3.96253199E-06
  -7.75000000       4.82753012E-06
  -7.73999977       5.69275835E-06
  -7.73000002       6.55664553E-06
  -7.71999979       7.41776512E-06
  -7.71000004       8.27476651E-06
  -7.69999981       9.12640917E-06
  -7.69000006       9.97160805E-06
  -7.67999983       1.08094073E-05
  -7.67000008       1.16389556E-05
  -7.65999985       1.24595481E-05
  -7.65000010       1.32706646E-05
  -7.63999987       1.40718503E-05
  -7.63000011       1.48628742E-05
  -7.61999989       1.56436272E-05
  -7.61000013       1.64140856E-05
  -7.59999990       1.71744050E-05
  -7.59000015       1.79249255E-05
  -7.57999992       1.86660436E-05
  -7.57000017       1.93983687E-05
  -7.55999994       2.01225812E-05
  -7.55000019       2.08395049E-05
  -7.53999996       2.15500149E-05
  -7.53000021       2.22551698E-05
  -7.51999998       2.29560155E-05
  -7.51000023       2.36536998E-05
  -7.50000000       2.43493814E-05
  -7.48999977       2.50443718E-05
  -7.48000002       2.57399570E-05
  -7.46999979       2.64374012E-05
  -7.46000004       2.71379577E-05
  -7.44999981       2.78428688E-05
  -7.44000006       2.85533370E-05