  -16.0000000       0.00000000    
  -15.9899998       0.00000000    
  -15.9799995       0.00000000    
  -15.9700003       0.00000000    
  -15.9600000       0.00000000    
  -15.9499998       0.00000000    
  -15.9399996       0.00000000    
  -15.9300003       0.00000000    
  -15.9200001       0.00000000    
  -15.9099998       0.00000000    
  -15.8999996       0.00000000    
  -15.8900003       0.00000000    
  -15.8800001       0.00000000    
  -15.8699999      -0.00000000    
  -15.8599997      -0.00000000    
  -15.8500004       1.40129846E-45
  -15.8400002       2.38220739E-44
  -15.8299999       2.29812948E-43
  -15.8199997       1.80066853E-42
  -15.8100004       1.21296395E-41
  -15.8000002       7.03269660E-41
  -15.7900000       3.51039278E-40
  -15.7799997       1.51689157E-39
  -15.7700005       5.71357589E-39
  -15.7600002       1.88831316E-38
  -15.7500000       5.50250839E-38
  -15.7399998       1.41658887E-37
  -15.7299995       3.21478674E-37
  -15.7200003       6.37105750E-37
  -15.7100000       1.07634233E-36
  -15.6999998       1.45302822E-36
  -15.6899996       1.21694480E-36
  -15.6800003      -7.66883073E-37
  -15.6700001      -6.36585651E-36
  -15.6599998      -1.80968317E-35
  -15.6499996      -3.85820176E-35
  -15.6400003      -6.90197994E-35
  -15.6300001      -1.05250860E-34
  -15.6199999      -1.28440218E-34
  -15.6099997      -8.67960233E-35
  -15.6000004       1.29787261E-34
  -15.5900002       7.00377442E-34
  -15.5799999       1.80814541E-33
  -15.5699997       3.39765512E-33
  -15.5600004       4.66924429E-33
  -15.5500002       3.41269777E-33
  -15.5400000      -4.25907648E-33
  -15.5299997      -2.25608472E-32
  -15.5200005      -5.15001414E-32
  -15.5100002      -7.85862584E-32
  -15.5000000      -6.98292839E-32
  -15.4899998       3.04538260E-32
  -15.4799995       2.75043532E-31
  -15.4700003       6.49693753E-31
  -15.4600000       9.75084131E-31
  -15.4499998       8.27646576E-31
  -15.4399996      -4.04202760E-31
  -15.4300003      -3.17603640E-30
  -15.4200001      -7.07592153E-30
  -15.4099998      -9.93045214E-30
  -15.3999996      -7.37180155E-30
  -15.3900003       6.03368160E-30
  -15.3800001       3.30025550E-29
  -15.3699999       6.71032632E-29
  -15.3599997       8.62590679E-29
  -15.3500004       5.22757572E-29
  -15.3400002      -7.52074741E-29
  -15.3299999      -3.04536974E-28
  -15.3199997      -5.63051445E-28
  -15.3100004      -6.58922986E-28
  -15.3000002      -3.01369903E-28
  -15.2900000       7.67218701E-28
  -15.2799997       2.50759083E-27
  -15.2700005       4.25935277E-27
  -15.2600002       4.56148804E-27
  -15.2500000       1.43646795E-27
  -15.2399998      -6.56947877E-27
  -15.2299995      -1.85950000E-26
  -15.2200003      -2.95451274E-26
  -15.2100000      -2.94519339E-26
  -15.1999998      -6.01104537E-27
  -15.1899996       4.83039839E-26
  -15.1800003       1.25253461E-25
  -15.1700001       1.90395906E-25
  -15.1599998       1.81735791E-25
  -15.1499996       2.77370397E-26
  -15.1400003      -3.09239293E-25
  -15.1300001      -7.70854465E-25
  -15.1199999      -1.14910331E-24
  -15.1099997      -1.08799923E-24
  -15.1000004      -1.92597382E-25
  -15.0900002       1.72999701E-24
  -15.0799999       4.34275107E-24
  -15.0699997       6.51084770E-24
  -15.0600004       6.33266296E-24
  -15.0500002       1.71901508E-24
  -15.0400000      -8.37842304E-24
  -15.0299997      -2.23334174E-23
  -15.0200005      -3.45286722E-23
  -15.0100002      -3.54895237E-23
  -15.0000000      -1.46191971E-23
  -14.9899998       3.40191564E-23
  -14.9799995       1.03995489E-22
  -14.9700003       1.70129012E-22
  -14.9600000       1.88471353E-22
  -14.9499998       1.07793955E-22
  -14.9399996      -1.05264627E-22
  -14.9300003      -4.31828669E-22
  -14.9200001      -7.70576548E-22
  -14.9099998      -9.32791644E-22
  -14.8999996      -6.84774432E-22
  -14.8900003       1.51486247E-22
  -14.8800001       1.55416635E-21
  -14.8699999       3.16442952E-21
  -14.8599997       4.23894804E-21
  -14.8500004       3.78309397E-21
  -14.8400002       9.18772993E-22
  -14.8299999      -4.55148337E-21
  -14.8199997      -1.15566260E-20
  -14.8100004      -1.74476964E-20
  -14.8000002      -1.83217048E-20
  -14.7900000      -1.02299292E-20
  -14.7799997       8.78273798E-21
  -14.7700005       3.63326062E-20
  -14.7600002       6.40670513E-20
  -14.7500000       7.80462162E-20
  -14.7399998       6.22122280E-20
  -14.7299995       5.11427759E-21
  -14.7200003      -9.14838752E-20
  -14.7100000      -2.05259557E-19
  -14.6999998      -2.91646668E-19
  -14.6899996      -2.92010602E-19
  -14.6800003      -1.53507235E-19
  -14.6700001       1.42171810E-19
  -14.6599998       5.49842566E-19
  -14.6499996       9.45319685E-19
  -14.6400003       1.13823837E-18
  -14.6300001       9.22930387E-19
  -14.6199999       1.64576798E-19
  -14.6099997      -1.10000018E-18
  -14.6000004      -2.58523141E-18
  -14.5900002      -3.75098863E-18
  -14.5799999      -3.90798585E-18
  -14.5699997      -2.44466302E-18
  -14.5600004       8.63291958E-19
  -14.5500002       5.55570564E-18
  -14.5400000       1.03393317E-17
  -14.5299997       1.32257023E-17
  -14.5200005       1.20351603E-17
  -14.5100002       5.22685007E-18
  -14.5000000      -7.14395694E-18
  -14.4899998      -2.26860851E-17
  -14.4799995      -3.65610621E-17
  -14.4700003      -4.23333799E-17
  -14.4600000      -3.38641754E-17
  -14.4499998      -7.93508654E-18
  -14.4399996       3.31467385E-17
  -14.4300003       8.00248869E-17
  -14.4200001       1.16925871E-16
  -14.4099998       1.25104741E-16
  -14.3999996       8.89099846E-17
  -14.3900003       3.15663413E-18
  -14.3800001      -1.20542490E-16
  -14.3699999      -2.51360442E-16
  -14.3599997      -3.43226591E-16
  -14.3500004      -3.46146023E-16
  -14.3400002      -2.23379582E-16
  -14.3299999       2.97840673E-17
  -14.3199997       3.72105941E-16
  -14.3100004       7.14279062E-16
  -14.3000002       9.33657101E-16
  -14.2900000       9.06415780E-16
  -14.2799997       5.51526657E-16
  -14.2700005      -1.25292452E-16
  -14.2600002      -1.00345600E-15
  -14.2500000      -1.85053215E-15
  -14.2399998      -2.36557202E-15
  -14.2299995      -2.26051177E-15
  -14.2200003      -1.36330260E-15
  -14.2100000       2.86257537E-16
  -14.1999998       2.38326590E-15
  -14.1899996       4.37811425E-15
  -14.1800003       5.58545765E-15
  -14.1700001       5.37072718E-15
  -14.1599998       3.37380190E-15
  -14.1499996      -2.94296806E-16
  -14.1400003      -4.95417882E-15
  -14.1300001      -9.41920034E-15
  -14.1199999      -1.22369037E-14
  -14.1099997      -1.20792844E-14
  -14.1000004      -8.19398836E-15
  -14.0900002      -7.87202457E-16
  -14.0799999       8.80023695E-15
  -14.0699997       1.82285692E-14
  -14.0600004       2.46369121E-14
  -14.0500002       2.53922944E-14
  -14.0400000       1.89382794E-14
  -14.0299997       5.50342505E-15
  -14.0200005      -1.25773017E-14
  -14.0100002      -3.11064956E-14
  -14.0000000      -4.48746536E-14
  -13.9899998      -4.89809846E-14
  -13.9799995      -4.03201981E-14
  -13.9700003      -1.88237995E-14
  -13.9600000       1.19566095E-14
  -13.9499998       4.52131551E-14
  -13.9399996       7.22498843E-14
  -13.9300003       8.46249205E-14
  -13.9200001       7.65698879E-14
  -13.9099998       4.70298476E-14
  -13.8999996       6.75738374E-16
  -13.8900003      -5.25558465E-14
  -13.8800001      -9.94772908E-14
  -13.8699999      -1.26860667E-13
  -13.8599997      -1.25088430E-13
  -13.8500004      -9.12589299E-14
  -13.8400002      -3.07873098E-14
  -13.8299999       4.31441043E-14
  -13.8199997       1.12391779E-13
  -13.8100004       1.58376215E-13
  -13.8000002       1.67223955E-13
  -13.7900000       1.34111960E-13
  -13.7799997       6.54630159E-14
  -13.7700005      -2.18875465E-14
  -13.7600002      -1.04645967E-13
  -13.7500000      -1.59315622E-13
  -13.7399998      -1.69152940E-13
  -13.7299995      -1.29821785E-13
  -13.7200003      -5.18905800E-14
  -13.7100000       4.09634891E-14
  -13.6999998       1.18025896E-13
  -13.6899996       1.50576017E-13
  -13.6800003       1.21489272E-13
  -13.6700001       3.25223857E-14
  -13.6599998      -9.33030102E-14
  -13.6499996      -2.15681097E-13
  -13.6400003      -2.87110911E-13
  -13.6300001      -2.66954427E-13
  -13.6199999      -1.35812314E-13
  -13.6099997       9.40773406E-14
  -13.6000004       3.76173702E-13
  -13.5900002       6.36743533E-13
  -13.5799999       7.91234970E-13
  -13.5699997       7.66646946E-13
  -13.5600004       5.24442957E-13
  -13.5500002       7.76402529E-14
  -13.5400000      -5.03516499E-13
  -13.5299997      -1.10044276E-12
  -13.5200005      -1.56918901E-12
  -13.5100002      -1.77314305E-12
  -13.5000000      -1.61799328E-12
  -13.4899998      -1.08011787E-12
  -13.4799995      -2.20478854E-13
  -13.4700003       8.20760452E-13
  -13.4600000       1.84901356E-12
  -13.4499998       2.65453501E-12
  -13.4399996       3.05725540E-12
  -13.4300003       2.94648160E-12
  -13.4200001       2.30574978E-12
  -13.4099998       1.21680368E-12
  -13.3999996      -1.57912339E-13
  -13.3900003      -1.60921569E-12
  -13.3800001      -2.92230758E-12
  -13.3699999      -3.91421487E-12
  -13.3599997      -4.45838635E-12
  -13.3500004      -4.49181014E-12
  -13.3400002      -4.00599172E-12
  -13.3299999      -3.02868928E-12
  -13.3199997      -1.60657544E-12
  -13.3100004       2.01422497E-13
  -13.3000002       2.31458104E-12
  -13.2900000       4.60613145E-12
  -13.2799997       6.87355294E-12
  -13.2700005       8.81841301E-12
  -13.2600002       1.00521102E-11
  -13.2500000       1.01396331E-11
  -13.2399998       8.68365015E-12
  -13.2299995       5.43810483E-12
  -13.2200003       4.27477281E-13
  -13.2100000      -5.96106281E-12
  -13.1999998      -1.29465987E-11
  -13.1899996      -1.94101818E-11
  -13.1800003      -2.40456804E-11
  -13.1700001      -2.55910709E-11
  -13.1599998      -2.31019873E-11
  -13.1499996      -1.62114974E-11
  -13.1400003      -5.31376679E-12
  -13.1300001       8.38245879E-12
  -13.1199999       2.29619674E-11
  -13.1099997       3.60708338E-11
  -13.1000004       4.53051832E-11
  -13.0900002       4.86512809E-11
  -13.0799999       4.48893769E-11
  -13.0699997       3.38754753E-11
  -13.0600004       1.66368794E-11
  -13.0500002      -4.74492320E-12
  -13.0400000      -2.74449005E-11
  -13.0299997      -4.83374660E-11
  -13.0200005      -6.44824402E-11
  -13.0100002      -7.35577640E-11
  -13.0000000      -7.41593453E-11
  -12.9899998      -6.59245436E-11
  -12.9799995      -4.94809679E-11
  -12.9700003      -2.62649659E-11
  -12.9600000       1.71870645E-12
  -12.9499998       3.21206256E-11
  -12.9399996       6.23995439E-11
  -12.9300003       8.98898317E-11
  -12.9200001       1.11815071E-10
  -12.9099998       1.25316230E-10
  -12.8999996       1.27577116E-10
  -12.8900003       1.16112259E-10
  -12.8800001       8.92340646E-11
  -12.8699999       4.66487057E-11
  -12.8599997      -9.94035930E-12
  -12.8500004      -7.63910879E-11
  -12.8400002      -1.46025567E-10
  -12.8299999      -2.10018794E-10
  -12.8199997      -2.58329524E-10
  -12.8100004      -2.81110468E-10
  -12.8000002      -2.70407419E-10
  -12.7900000      -2.21857810E-10
  -12.7799997      -1.36047756E-10
  -12.7700005      -1.92107909E-11
  -12.7600002       1.16956250E-10
  -12.7500000       2.56428906E-10
  -12.7399998       3.80831422E-10
  -12.7299995       4.71972572E-10
  -12.7200003       5.14537191E-10
  -12.7100000       4.98485142E-10
  -12.6999998       4.20752433E-10
  -12.6899996       2.85972274E-10
  -12.6800003       1.06110114E-10
  -12.6700001      -1.00906256E-10
  -12.6599998      -3.13314902E-10
  -12.6499996      -5.08058207E-10
  -12.6400003      -6.63357869E-10
  -12.6300001      -7.61000041E-10
  -12.6199999      -7.88106636E-10
  -12.6099997      -7.38287986E-10
  -12.6000004      -6.12183748E-10
  -12.5900002      -4.17461732E-10
  -12.5799999      -1.68359340E-10
  -12.5699997       1.15181538E-10
  -12.5600004       4.08782647E-10
  -12.5500002       6.85342283E-10
  -12.5400000       9.17225129E-10
  -12.5299997       1.07890086E-09
  -12.5200005       1.14987908E-09
  -12.5100002       1.11763709E-09
  -12.5000000       9.80092563E-10
  -12.4899998       7.47104156E-10
  -12.4799995       4.40503939E-10
  -12.4700003       9.23269100E-11
  -12.4600000      -2.58822075E-10
  -12.4499998      -5.72979331E-10
  -12.4399996      -8.14973700E-10
  -12.4300003      -9.60598934E-10
  -12.4200001      -1.00176589E-09
  -12.4099998      -9.49654244E-10
  -12.3999996      -8.35150227E-10
  -12.3900003      -7.06279257E-10
  -12.3800001      -6.22852547E-10
  -12.3699999      -6.49024501E-10
  -12.3599997      -8.44832870E-10
  -12.3500004      -1.25795963E-09
  -12.3400002      -1.91689220E-09
  -12.3299999      -2.82639090E-09
  -12.3199997      -3.96575572E-09
  -12.3100004      -5.28990496E-09
  -12.3000002      -6.73284317E-09
  -12.2900000      -8.21284374E-09
  -12.2799997      -9.63851488E-09
  -12.2700005      -1.09150466E-08
  -12.2600002      -1.19501129E-08
  -12.2500000      -1.26591706E-08
  -12.2399998      -1.29701503E-08
  -12.2299995      -1.28276190E-08
  -12.2200003      -1.21964590E-08
  -12.2100000      -1.10650102E-08
  -12.1999998      -9.44728118E-09
  -12.1899996      -7.38378114E-09
  -12.1800003      -4.94034191E-09
  -12.1700001      -2.20436824E-09
  -12.1599998       7.21598614E-10
  -12.1499996       3.72876219E-09
  -12.1400003       6.71263045E-09
  -12.1300001       9.58379420E-09
  -12.1199999       1.22775115E-08
  -12.1099997       1.47603423E-08
  -12.1000004       1.70326349E-08
  -12.0900002       1.91261602E-08
  -12.0799999       2.10971027E-08
  -12.0699997       2.30152537E-08
  -12.0600004       2.49511807E-08
  -12.0500002       2.69632956E-08
  -12.0400000       2.90868662E-08
  -12.0299997       3.13265680E-08
  -12.0200005       3.36536203E-08
  -12.0100002       3.60075312E-08
  -12.0000000       3.83017671E-08
  -11.9899998       4.04322229E-08
  -11.9799995       4.22868212E-08
  -11.9700003       4.37546817E-08
  -11.9600000       4.47338238E-08
  -11.9499998       4.51367193E-08
  -11.9399996       4.48936248E-08
  -11.9300003       4.39540351E-08
  -11.9200001       4.22870556E-08
  -11.9099998       3.98811117E-08
  -11.8999996       3.67436357E-08
  -11.8900003       3.29005232E-08
  -11.8800001       2.83955348E-08
  -11.8699999       2.32887309E-08
  -11.8599997       1.76537061E-08
  -11.8500004       1.15733201E-08
  -11.8400002       5.13406517E-09
  -11.8299999      -1.58060487E-09
  -11.8199997      -8.49674286E-09
  -11.8100004      -1.55553206E-08
  -11.8000002      -2.27153958E-08
  -11.7900000      -2.99544283E-08
  -11.7799997      -3.72654938E-08
  -11.7700005      -4.46515180E-08
  -11.7600002      -5.21179437E-08
  -11.7500000      -5.96645719E-08
  -11.7399998      -6.72783926E-08
  -11.7299995      -7.49283444E-08
  -11.7200003      -8.25627566E-08
  -11.7100000      -9.01098289E-08
  -11.6999998      -9.74807577E-08
  -11.6899996      -1.04574418E-07
  -11.6800003      -1.11283157E-07
  -11.6700001      -1.17497947E-07
  -11.6599998      -1.23113082E-07
  -11.6499996      -1.28028915E-07
  -11.6400003      -1.32153900E-07
  -11.6300001      -1.35405358E-07
  -11.6199999      -1.37709904E-07
  -11.6099997      -1.39003944E-07
  -11.6000004      -1.39234487E-07
  -11.5900002      -1.38360178E-07
  -11.5799999      -1.36352327E-07
  -11.5699997      -1.33195357E-07
  -11.5600004      -1.28886143E-07
  -11.5500002      -1.23431960E-07
  -11.5400000      -1.16846707E-07
  -11.5299997      -1.09146590E-07
  -11.5200005      -1.00344401E-07
  -11.5100002      -9.04456385E-08
  -11.5000000      -7.94449662E-08
  -11.4899998      -6.73257077E-08
  -11.4799995      -5.40618927E-08
  -11.4700003      -3.96223889E-08
  -11.4600000      -2.39775790E-08
  -11.4499998      -7.10697368E-09
  -11.4399996       1.09933156E-08
  -11.4300003       3.03043102E-08
  -11.4200001       5.07796578E-08
  -11.4099998       7.23439939E-08
  -11.3999996       9.48936218E-08
  -11.3900003       1.18299283E-07
  -11.3800001       1.42410997E-07
  -11.3699999       1.67063760E-07
  -11.3599997       1.92084272E-07
  -11.3500004       2.17297327E-07
  -11.3400002       2.42532394E-07
  -11.3299999       2.67630014E-07
  -11.3199997       2.92447424E-07
  -11.3100004       3.16864231E-07
  -11.3000002       3.40786841E-07
  -11.2900000       3.64151305E-07
  -11.2799997       3.86924768E-07
  -11.2700005       4.09104359E-07
  -11.2600002       4.30713300E-07
  -11.2500000       4.51794563E-07
  -11.2399998       4.72402348E-07
  -11.2299995       4.92592562E-07
  -11.2200003       5.12412157E-07
  -11.2100000       5.31890862E-07
  -11.1999998       5.51033395E-07
  -11.1899996       5.69815370E-07
  -11.1800003       5.88183013E-07
  -11.1700001       6.06053845E-07
  -11.1599998       6.23323501E-07
  -11.1499996       6.39870279E-07
  -11.1400003       6.55564236E-07
  -11.1300001       6.70275767E-07
  -11.1199999       6.83881126E-07
  -11.1099997       6.96272025E-07
  -11.1000004       7.07359106E-07
  -11.0900002       7.17079104E-07
  -11.0799999       7.25396490E-07
  -11.0699997       7.32308649E-07
  -11.0600004       7.37846221E-07
  -11.0500002       7.42073269E-07
  -11.0400000       7.45090404E-07
  -11.0299997       7.47025638E-07
  -11.0200005       7.48034779E-07
  -11.0100002       7.48292734E-07
  -11.0000000       7.47985268E-07
  -10.9899998       7.47300135E-07
  -10.9799995       7.46419289E-07
  -10.9700003       7.45509510E-07
  -10.9600000       7.44715237E-07
  -10.9499998       7.44152146E-07
  -10.9399996       7.43905616E-07
  -10.9300003       7.44028512E-07
  -10.9200001       7.44545446E-07
  -10.9099998       7.45454258E-07
  -10.8999996       7.46731246E-07
  -10.8900003       7.48336504E-07
  -10.8800001       7.50219726E-07
  -10.8699999       7.52325263E-07
  -10.8599997       7.54598261E-07
  -10.8500004       7.56987447E-07
  -10.8400002       7.59446948E-07
  -10.8299999       7.61938281E-07
  -10.8199997       7.64431832E-07
  -10.8100004       7.66905941E-07
  -10.8000002       7.69344808E-07
  -10.7900000       7.71740190E-07
  -10.7799997       7.74084810E-07
  -10.7700005       7.76375884E-07
  -10.7600002       7.78610570E-07
  -10.7500000       7.80788639E-07
  -10.7399998       7.82909012E-07
  -10.7299995       7.84972826E-07
  -10.7200003       7.86984458E-07
  -10.7100000       7.88950956E-07
  -10.6999998       7.90884997E-07
  -10.6899996       7.92802325E-07
  -10.6800003       7.94729033E-07
  -10.6700001       7.96698600E-07
  -10.6599998       7.98756616E-07
  -10.6499996       8.00959185E-07
  -10.6400003       8.03373212E-07
  -10.6300001       8.06082198E-07
  -10.6199999       8.09178630E-07
  -10.6099997       8.12759140E-07
  -10.6000004       8.16925251E-07
  -10.5900002       8.21775359E-07
  -10.5799999       8.27392000E-07
  -10.5699997       8.33840204E-07
  -10.5600004       8.41155327E-07
  -10.5500002       8.49342143E-07
  -10.5400000       8.58367400E-07
  -10.5299997       8.68164989E-07
  -10.5200005       8.78635092E-07
  -10.5100002       8.89647936E-07
  -10.5000000       9.01057092E-07
  -10.4899998       9.12697715E-07
  -10.4799995       9.24404333E-07
  -10.4700003       9.36008803E-07
  -10.4600000       9.47347928E-07
  -10.4499998       9.58273517E-07
  -10.4399996       9.68650966E-07
  -10.4300003       9.78361413E-07
  -10.4200001       9.87310500E-07
  -10.4099998       9.95424784E-07
  -10.3999996       1.00265208E-06
  -10.3900003       1.00896523E-06
  -10.3800001       1.01435762E-06
  -10.3699999       1.01884063E-06
  -10.3599997       1.02243575E-06
  -10.3500004       1.02517117E-06
  -10.3400002       1.02707577E-06
  -10.3299999       1.02816716E-06
  -10.3199997       1.02845468E-06
  -10.3100004       1.02792387E-06
  -10.3000002       1.02654940E-06
  -10.2900000       1.02428487E-06
  -10.2799997       1.02107435E-06
  -10.2700005       1.01685634E-06
  -10.2600002       1.01156638E-06
  -10.2500000       1.00514876E-06
  -10.2399998       9.97561642E-07
  -10.2299995       9.88780243E-07
  -10.2200003       9.78795356E-07
  -10.2100000       9.67611413E-07
  -10.1999998       9.55247174E-07
  -10.1899996       9.41728615E-07
  -10.1800003       9.27078474E-07
  -10.1700001       9.11315681E-07
  -10.1599998       8.94452626E-07
  -10.1499996       8.76496301E-07
  -10.1400003       8.57448072E-07
  -10.1300001       8.37311518E-07
  -10.1199999       8.16097099E-07
  -10.1099997       7.93829429E-07
  -10.1000004       7.70549946E-07
  -10.0900002       7.46325554E-07
  -10.0799999       7.21241577E-07
  -10.0699997       6.95410620E-07
  -10.0600004       6.68965754E-07
  -10.0500002       6.42057387E-07
  -10.0400000       6.14855651E-07
  -10.0299997       5.87544775E-07
  -10.0200005       5.60321155E-07
  -10.0100002       5.33394598E-07
  -10.0000000       5.06981394E-07
  -9.98999977       4.81305449E-07
  -9.97999954       4.56588111E-07
  -9.97000027       4.33048143E-07
  -9.96000004       4.10892881E-07
  -9.94999981       3.90312181E-07
  -9.93999958       3.71480070E-07
  -9.93000031       3.54550252E-07
  -9.92000008       3.39661085E-07
  -9.90999985       3.26932110E-07
  -9.89999962       3.16473233E-07
  -9.89000034       3.08378105E-07
  -9.88000011       3.02732559E-07
  -9.86999989       2.99605034E-07
  -9.85999966       2.99042654E-07
  -9.85000038       3.01068582E-07
  -9.84000015       3.05670056E-07
  -9.82999992       3.12800381E-07
  -9.81999969       3.22375541E-07
  -9.81000042       3.34274944E-07
  -9.80000019       3.48353609E-07
  -9.78999996       3.64447942E-07
  -9.77999973       3.82387924E-07
  -9.77000046       4.02007146E-07
  -9.76000023       4.23150681E-07
  -9.75000000       4.45681337E-07
  -9.73999977       4.69478977E-07
  -9.72999954       4.94442531E-07
  -9.72000027       5.20483752E-07
  -9.71000004       5.47524905E-07
  -9.69999981       5.75493118E-07
  -9.68999958       6.04315233E-07
  -9.68000031       6.33911156E-07
  -9.67000008       6.64191305E-07
  -9.65999985       6.95049096E-07
  -9.64999962       7.26357143E-07
  -9.64000034       7.57964017E-07
  -9.63000011       7.89694070E-07
  -9.61999989       8.21350000E-07
  -9.60999966       8.52721257E-07
  -9.60000038       8.83592918E-07
  -9.59000015       9.13759379E-07
  -9.57999992       9.43038344E-07
  -9.56999969       9.71281906E-07
  -9.56000042       9.98386213E-07
  -9.55000019       1.02429033E-06
  -9.53999996       1.04897822E-06
  -9.52999973       1.07246979E-06
  -9.52000046       1.09481095E-06
  -9.51000023       1.11606266E-06
  -9.50000000       1.13629358E-06
  -9.48999977       1.15556759E-06
  -9.47999954       1.17394552E-06
  -9.47000027       1.19147762E-06
  -9.46000004       1.20820005E-06
  -9.44999981       1.22413564E-06
  -9.43999958       1.23928874E-06
  -9.43000031       1.25363999E-06
  -9.42000008       1.26714281E-06
  -9.40999985       1.27971703E-06
  -9.39999962       1.29124874E-06
  -9.39000034       1.30158969E-06
  -9.38000011       1.31056504E-06
  -9.36999989       1.31797594E-06
  -9.35999966       1.32360924E-06
  -9.35000038       1.32724961E-06
  -9.34000015       1.32868706E-06
  -9.32999992       1.32772368E-06
  -9.31999969       1.32418188E-06
  -9.31000042       1.31790819E-06
  -9.30000019       1.30877913E-06
  -9.28999996       1.29669650E-06
  -9.27999973       1.28159434E-06
  -9.27000046       1.26343457E-06
  -9.26000023       1.24220844E-06
  -9.25000000       1.21793391E-06
  -9.23999977       1.19065146E-06
  -9.22999954       1.16042236E-06
  -9.22000027       1.12732471E-06
  -9.21000004       1.09145037E-06
  -9.19999981       1.05290383E-06
  -9.18999958       1.01179955E-06
  -9.18000031       9.68258860E-07
  -9.17000008       9.22419417E-07
  -9.15999985       8.74422710E-07
  -9.14999962       8.24431538E-07
  -9.14000034       7.72620126E-07
  -9.13000011       7.19186403E-07
  -9.11999989       6.64349670E-07
  -9.10999966       6.08357595E-07
  -9.10000038       5.51491325E-07
  -9.09000015       4.94054461E-07
  -9.07999992       4.36384170E-07
  -9.06999969       3.78838962E-07
  -9.06000042       3.21784370E-07
  -9.05000019       2.65598885E-07
  -9.03999996       2.10650185E-07
  -9.02999973       1.57298714E-07
  -9.02000046       1.05879629E-07
  -9.01000023       5.67095846E-08
  -9.00000000       1.00879536E-08
  -8.98999977      -3.37009389E-08
  -8.97999954      -7.43766435E-08
  -8.97000027      -1.11653847E-07
  -8.96000004      -1.45234168E-07
  -8.94999981      -1.74798586E-07
  -8.93999958      -2.00003370E-07
  -8.93000031      -2.20485035E-07
  -8.92000008      -2.35866636E-07
  -8.90999985      -2.45752204E-07
  -8.89999962      -2.49750400E-07
  -8.89000034      -2.47470837E-07
  -8.88000011      -2.38531698E-07
  -8.86999989      -2.22565433E-07
  -8.85999966      -1.99222043E-07
  -8.85000038      -1.68169890E-07
  -8.84000015      -1.29101011E-07
  -8.82999992      -8.17304269E-08
  -8.81999969      -2.58080082E-08
  -8.81000042       3.88832184E-08
  -8.80000019       1.12524333E-07
  -8.78999996       1.95252568E-07
  -8.77999973       2.87174373E-07
  -8.77000046       3.88367567E-07
  -8.76000023       4.98888824E-07
  -8.75000000       6.18785805E-07
  -8.73999977       7.48103844E-07
  -8.72999954       8.86886141E-07
  -8.72000027       1.03517243E-06
  -8.71000004       1.19298841E-06
  -8.69999981       1.36032997E-06
  -8.68999958       1.53715291E-06
  -8.68000031       1.72335524E-06
  -8.67000008       1.91877325E-06
  -8.65999985       2.12317923E-06
  -8.64999962       2.33628202E-06
  -8.64000034       2.55774057E-06
  -8.63000011       2.78716493E-06
  -8.61999989       3.02412809E-06
  -8.60999966       3.26816530E-06
  -8.60000038       3.51877407E-06
  -8.59000015       3.77541119E-06
  -8.57999992       4.03748845E-06
  -8.56999969       4.30437285E-06
  -8.56000042       4.57539318E-06
  -8.55000019       4.84985412E-06
  -8.53999996       5.12704901E-06
  -8.52999973       5.40627934E-06
  -8.52000046       5.68687847E-06
  -8.51000023       5.96821610E-06
  -8.50000000       6.24970789E-06
  -8.48999977       6.53081906E-06
  -8.47999954       6.81105212E-06
  -8.47000027       7.08994958E-06
  -8.46000004       7.36708262E-06
  -8.44999981       7.64204287E-06
  -8.43999958       7.91444381E-06
  -8.43000031       8.18391527E-06
  -8.42000008       8.45011618E-06
  -8.40999985       8.71271641E-06
  -8.39999962       8.97142218E-06
  -8.39000034       9.22595791E-06
  -8.38000011       9.47606259E-06
  -8.36999989       9.72149974E-06
  -8.35999966       9.96204199E-06
  -8.35000038       1.01974820E-05
  -8.34000015       1.04276278E-05
  -8.32999992       1.06522975E-05
  -8.31999969       1.08713330E-05
  -8.31000042       1.10845776E-05
  -8.30000019       1.12919033E-05
  -8.28999996       1.14931854E-05
  -8.27999973       1.16883084E-05
  -8.27000046       1.18771495E-05
  -8.26000023       1.20595823E-05
  -8.25000000       1.22354641E-05
  -8.23999977       1.24046446E-05
  -8.22999954       1.25669494E-05
  -8.22000027       1.27221874E-05
  -8.21000004       1.28701495E-05
  -8.19999981       1.30106173E-05
  -8.18999958       1.31433608E-05
  -8.18000031       1.32681480E-05
  -8.17000008       1.33847379E-05
  -8.15999985       1.34928969E-05
  -8.14999962       1.35923829E-05
  -8.14000034       1.36829858E-05
  -8.13000011       1.37644820E-05
  -8.11999989       1.38366504E-05
  -8.10999966       1.38993018E-05
  -8.10000038       1.39522244E-05
  -8.09000015       1.39952463E-05
  -8.07999992       1.40281682E-05
  -8.06999969       1.40508218E-05
  -8.06000042       1.40630145E-05
  -8.05000019       1.40645725E-05
  -8.03999996       1.40553148E-05
  -8.02999973       1.40350840E-05
  -8.02000046       1.40037464E-05
  -8.01000023       1.39611548E-05
  -8.00000000       1.39072154E-05
  -7.98999977       1.38418800E-05
  -7.98000002       1.37651150E-05
  -7.96999979       1.36769222E-05
  -7.96000004       1.35773435E-05
  -7.94999981       1.34664297E-05
  -7.94000006       1.33442891E-05
  -7.92999983       1.32110627E-05
  -7.92000008       1.30669232E-05
  -7.90999985       1.29120945E-05
  -7.90000010       1.27468602E-05
  -7.88999987       1.25715196E-05
  -7.88000011       1.23864729E-05
  -7.86999989       1.21921175E-05
  -7.86000013       1.19889155E-05
  -7.84999990       1.17773543E-05
  -7.84000015       1.15579478E-05
  -7.82999992       1.13312553E-05
  -7.82000017       1.10978863E-05
  -7.80999994       1.08584654E-05
  -7.80000019       1.06137240E-05
  -7.78999996       1.03644143E-05
  -7.78000021       1.01113055E-05
  -7.76999998       9.85526458E-06
  -7.76000023       9.59708632E-06
  -7.75000000       9.33763749E-06
  -7.73999977       9.07772755E-06
  -7.73000002       8.81823416E-06
  -7.71999979       8.55995950E-06
  -7.71000004       8.30376484E-06
  -7.69999981       8.05053696E-06
  -7.69000006       7.80118262E-06
  -7.67999983       7.55664769E-06
  -7.67000008       7.31785849E-06
  -7.65999985       7.08572088E-06
  -7.65000010       6.86111298E-06
  -7.63999987       6.64484742E-06
  -7.63000011       6.43762769E-06
  -7.61999989       6.24011363E-06
  -7.61000013       6.05287551E-06
  -7.59999990       5.87643626E-06
  -7.59000015       5.71123110E-06
  -7.57999992       5.55770657E-06
  -7.57000017       5.41625150E-06
  -7.55999994       5.28725241E-06
  -7.55000019       5.17105036E-06
  -7.53999996       5.06793504E-06
  -7.53000021       4.97820201E-06
  -7.51999998       4.90205139E-06
  -7.51000023       4.83968461E-06
  -7.50000000       4.79124901E-06
  -7.48999977       4.75689649E-06
  -7.48000002       4.73669024E-06
  -7.46999979       4.73068349E-06
  -7.46000004       4.73887849E-06
  -7.44999981       4.76126252E-06
  -7.44000006       4.79772780E-06