  -16.0000000       0.00000000    
  -15.9899998       0.00000000    
  -15.9799995       0.00000000    
  -15.9700003       0.00000000    
  -15.9600000       0.00000000    
  -15.9499998       0.00000000    
  -15.9399996       0.00000000    
  -15.9300003       0.00000000    
  -15.9200001       0.00000000    
  -15.9099998       0.00000000    
  -15.8999996       0.00000000    
  -15.8900003       0.00000000    
  -15.8800001       0.00000000    
  -15.8699999       0.00000000    
  -15.8599997       0.00000000    
  -15.8500004      -0.00000000    
  -15.8400002      -1.40129846E-45
  -15.8299999      -1.12103877E-44
  -15.8199997      -8.12753109E-44
  -15.8100004      -4.94658358E-43
  -15.8000002      -2.52654113E-42
  -15.7900000      -1.10674553E-41
  -15.7799997      -4.22603591E-41
  -15.7700005      -1.42259820E-40
  -15.7600002      -4.24933950E-40
  -15.7500000      -1.12853292E-39
  -15.7399998      -2.65466045E-39
  -15.7299995      -5.45750401E-39
  -15.7200003      -9.47655412E-39
  -15.7100000      -1.25982659E-38
  -15.6999998      -7.61048139E-39
  -15.6899996       2.22257175E-38
  -15.6800003       1.06791947E-37
  -15.6700001       2.85761101E-37
  -15.6599998       5.87199391E-37
  -15.6499996       9.75185349E-37
  -15.6400003       1.26289071E-36
  -15.6300001       1.01829907E-36
  -15.6199999      -4.54720320E-37
  -15.6099997      -3.91575471E-36
  -15.6000004      -9.61273563E-36
  -15.5900002      -1.63091791E-35
  -15.5799999      -2.02428923E-35
  -15.5699997      -1.48764722E-35
  -15.5600004       7.27999493E-36
  -15.5500002       4.97611784E-35
  -15.5400000       1.04731737E-34
  -15.5299997       1.46654514E-34
  -15.5200005       1.33817978E-34
  -15.5100002       2.48842138E-35
  -15.5000000      -1.88495914E-34
  -15.4899998      -4.45908629E-34
  -15.4799995      -6.08613256E-34
  -15.4700003      -5.10163951E-34
  -15.4600000      -7.54258017E-35
  -15.4499998       5.47105652E-34
  -15.4399996       9.69121532E-34
  -15.4300003       8.05188835E-34
  -15.4200001       1.76508352E-34
  -15.4099998       1.51243098E-34
  -15.3999996       2.42975380E-33
  -15.3900003       7.56690987E-33
  -15.3800001       1.18727354E-32
  -15.3699999       5.05847802E-33
  -15.3599997      -2.70455742E-32
  -15.3500004      -8.99398469E-32
  -15.3400002      -1.57805814E-31
  -15.3299999      -1.51855062E-31
  -15.3199997       5.38038752E-32
  -15.3100004       5.63675825E-31
  -15.3000002       1.31119210E-30
  -15.2900000       1.86765288E-30
  -15.2799997       1.34673087E-30
  -15.2700005      -1.36754004E-30
  -15.2600002      -6.85139873E-30
  -15.2500000      -1.38407979E-29
  -15.2399998      -1.79145775E-29
  -15.2299995      -1.13368580E-29
  -15.2200003       1.43489274E-29
  -15.2100000       6.18555795E-29
  -15.1999998       1.18681087E-28
  -15.1899996       1.49025498E-28
  -15.1800003       9.53742356E-29
  -15.1700001      -1.00507597E-28
  -15.1599998      -4.52144410E-28
  -15.1499996      -8.67192906E-28
  -15.1400003      -1.10074013E-27
  -15.1300001      -7.73964367E-28
  -15.1199999       4.87335195E-28
  -15.1099997       2.77306602E-27
  -15.1000004       5.52845124E-27
  -15.0900002       7.29116786E-27
  -15.0799999       5.80825342E-27
  -15.0699997      -1.18109243E-27
  -15.0600004      -1.44020410E-26
  -15.0500002      -3.10776191E-26
  -15.0400000      -4.34724666E-26
  -15.0299997      -3.93827036E-26
  -15.0200005      -6.00206746E-27
  -15.0100002       6.23532484E-26
  -15.0000000       1.54252234E-25
  -14.9899998       2.33288282E-25
  -14.9799995       2.39113971E-25
  -14.9700003       1.04203238E-25
  -14.9600000      -2.10942441E-25
  -14.9499998      -6.70518211E-25
  -14.9399996      -1.12285446E-24
  -14.9300003      -1.29615832E-24
  -14.9200001      -8.61644466E-25
  -14.9099998       4.20577790E-25
  -14.8999996       2.49403345E-24
  -14.8900003       4.80940450E-24
  -14.8800001       6.25910838E-24
  -14.8699999       5.37658760E-24
  -14.8599997       8.81960001E-25
  -14.8500004      -7.47867196E-24
  -14.8400002      -1.80519206E-23
  -14.8299999      -2.68035498E-23
  -14.8199997      -2.77908029E-23
  -14.8100004      -1.49764138E-23
  -14.8000002       1.46683290E-23
  -14.7900000       5.75390537E-23
  -14.7799997       1.00795131E-22
  -14.7700005       1.22788219E-22
  -14.7600002       9.82573652E-23
  -14.7500000       8.68778195E-24
  -14.7399998      -1.44135048E-22
  -14.7299995      -3.26160915E-22
  -14.7200003      -4.67603928E-22
  -14.7100000      -4.74821513E-22
  -14.6999998      -2.60947337E-22
  -14.6899996       2.08440263E-22
  -14.6800003       8.67746693E-22
  -14.6700001       1.52344061E-21
  -14.6599998       1.87018791E-21
  -14.6499996       1.56829910E-21
  -14.6400003       3.80580554E-22
  -14.6300001      -1.66196882E-21
  -14.6199999      -4.12588561E-21
  -14.6099997      -6.15034635E-21
  -14.6000004      -6.60082051E-21
  -14.5900002      -4.42576605E-21
  -14.5799999       8.37447164E-22
  -14.5699997       8.55476006E-21
  -14.5600004       1.67075216E-20
  -14.5500002       2.20590991E-20
  -14.5400000       2.09271040E-20
  -14.5299997       1.05233110E-20
  -14.5200005      -9.43809686E-21
  -14.5100002      -3.54176992E-20
  -14.5000000      -5.97021937E-20
  -14.4899998      -7.16233462E-20
  -14.4799995      -6.05508228E-20
  -14.4700003      -2.02220521E-20
  -14.4600000       4.67697773E-20
  -14.4499998       1.26081519E-19
  -14.4399996       1.92171505E-19
  -14.4300003       2.13536378E-19
  -14.4200001       1.62510087E-19
  -14.4099998       2.76349669E-20
  -14.3999996      -1.75202502E-19
  -14.3900003      -3.97706138E-19
  -14.3800001      -5.64532105E-19
  -14.3699999      -5.91073849E-19
  -14.3599997      -4.11637023E-19
  -14.3500004      -1.12340183E-20
  -14.3400002       5.49645387E-19
  -14.3299999       1.12914207E-18
  -14.3199997       1.52601609E-18
  -14.3100004       1.53128140E-18
  -14.3000002       1.00086755E-18
  -14.2900000      -6.99969992E-20
  -14.2799997      -1.49709703E-18
  -14.2700005      -2.90837344E-18
  -14.2600002      -3.81211769E-18
  -14.2500000      -3.72949227E-18
  -14.2399998      -2.36479956E-18
  -14.2299995       2.34707070E-19
  -14.2200003       3.58852911E-18
  -14.2100000       6.81438875E-18
  -14.1999998       8.80636746E-18
  -14.1899996       8.54088302E-18
  -14.1800003       5.44217262E-18
  -14.1700001      -3.00260359E-19
  -14.1599998      -7.58251983E-18
  -14.1499996      -1.45004381E-17
  -14.1400003      -1.87576720E-17
  -14.1300001      -1.83075964E-17
  -14.1199999      -1.20755771E-17
  -14.1099997      -5.44253617E-19
  -14.1000004       1.40222202E-17
  -14.0900002       2.78724265E-17
  -14.0799999       3.66039696E-17
  -14.0699997       3.63941569E-17
  -14.0600004       2.53171894E-17
  -14.0500002       4.34688747E-18
  -14.0400000      -2.23383996E-17
  -14.0299997      -4.79859583E-17
  -14.0200005      -6.48203543E-17
  -14.0100002      -6.62080259E-17
  -14.0000000      -4.88746977E-17
  -13.9899998      -1.44970367E-17
  -13.9799995       2.99342304E-17
  -13.9700003       7.33023371E-17
  -13.9600000       1.02997248E-16
  -13.9499998       1.08420594E-16
  -13.9399996       8.44294384E-17
  -13.9300003       3.36605070E-17
  -13.9200001      -3.31369513E-17
  -13.9099998      -9.91459079E-17
  -13.8999996      -1.45616002E-16
  -13.8900003      -1.57119688E-16
  -13.8800001      -1.26490051E-16
  -13.8699999      -5.79099684E-17
  -13.8599997       3.30077424E-17
  -13.8500004       1.22536405E-16
  -13.8400002       1.84948347E-16
  -13.8299999       1.99903825E-16
  -13.8199997       1.59032567E-16
  -13.8100004       6.96350286E-17
  -13.8000002      -4.59257558E-17
  -13.7900000      -1.55419190E-16
  -13.7799997      -2.25445892E-16
  -13.7700005      -2.31382587E-16
  -13.7600002      -1.65702514E-16
  -13.7500000      -4.19936965E-17
  -13.7399998       1.06978011E-16
  -13.7299995       2.37190851E-16
  -13.7200003       3.05508611E-16
  -13.7100000       2.82837112E-16
  -13.6999998       1.64469473E-16
  -13.6899996      -2.57436441E-17
  -13.6800003      -2.39259517E-16
  -13.6700001      -4.14411134E-16
  -13.6599998      -4.93045914E-16
  -13.6499996      -4.37875006E-16
  -13.6400003      -2.45567398E-16
  -13.6300001       4.85903924E-17
  -13.6199999       3.76576687E-16
  -13.6099997       6.53317624E-16
  -13.6000004       7.98560746E-16
  -13.5900002       7.59276311E-16
  -13.5799999       5.26333091E-16
  -13.5699997       1.40362372E-16
  -13.5600004      -3.15586053E-16
  -13.5500002      -7.35408404E-16
  -13.5400000      -1.01667342E-15
  -13.5299997      -1.08767670E-15
  -13.5200005      -9.27274496E-16
  -13.5100002      -5.71585350E-16
  -13.5000000      -1.05084886E-16
  -13.4899998       3.62002559E-16
  -13.4799995       7.24023329E-16
  -13.4700003       9.09340797E-16
  -13.4600000       9.00116926E-16
  -13.4499998       7.36025521E-16
  -13.4399996       4.99991479E-16
  -13.4300003       2.89450137E-16
  -13.4200001       1.81389909E-16
  -13.4099998       2.02077630E-16
  -13.3999996       3.11894737E-16
  -13.3900003       4.11973426E-16
  -13.3800001       3.73144060E-16
  -13.3699999       8.07012295E-17
  -13.3599997      -5.17306791E-16
  -13.3500004      -1.37329325E-15
  -13.3400002      -2.32841141E-15
  -13.3299999      -3.13374281E-15
  -13.3199997      -3.50352182E-15
  -13.3100004      -3.19000252E-15
  -13.3000002      -2.06190223E-15
  -13.2900000      -1.64918082E-16
  -13.2799997       2.25494274E-15
  -13.2700005       4.77671822E-15
  -13.2600002       6.87821882E-15
  -13.2500000       8.04500035E-15
  -13.2399998       7.89087508E-15
  -13.2299995       6.26102995E-15
  -13.2200003       3.29077213E-15
  -13.2100000      -5.98047348E-16
  -13.1999998      -4.76651401E-15
  -13.1899996      -8.48147981E-15
  -13.1800003      -1.10653420E-14
  -13.1700001      -1.20384371E-14
  -13.1599998      -1.12201999E-14
  -13.1499996      -8.76419400E-15
  -13.1400003      -5.11785523E-15
  -13.1300001      -9.16171482E-16
  -13.1199999       3.16474104E-15
  -13.1099997       6.55770155E-15
  -13.1000004       8.92028439E-15
  -13.0900002       1.01868807E-14
  -13.0799999       1.05436052E-14
  -13.0699997       1.03330134E-14
  -13.0600004       9.91458418E-15
  -13.0500002       9.51995491E-15
  -13.0400000       9.14509964E-15
  -13.0299997       8.51391779E-15
  -13.0200005       7.13049191E-15
  -13.0100002       4.41443502E-15
  -13.0000000      -1.08877172E-16
  -12.9899998      -6.60853793E-15
  -12.9799995      -1.47908673E-14
  -12.9700003      -2.38310348E-14
  -12.9600000      -3.24225916E-14
  -12.9499998      -3.89485976E-14
  -12.9399996      -4.17503522E-14
  -12.9300003      -3.94460431E-14
  -12.9200001      -3.12376874E-14
  -12.9099998      -1.71435962E-14
  -12.8999996       1.89415498E-15
  -12.8900003       2.40545482E-14
  -12.8800001       4.68335189E-14
  -12.8699999       6.73614539E-14
  -12.8599997       8.27907350E-14
  -12.8500004       9.06909706E-14
  -12.8400002       8.93902939E-14
  -12.8299999       7.82130437E-14
  -12.8199997       5.75845320E-14
  -12.8100004       2.89953235E-14
  -12.8000002      -5.16049233E-15
  -12.7900000      -4.18437495E-14
  -12.7799997      -7.76871989E-14
  -12.7700005      -1.09331462E-13
  -12.7600002      -1.33744605E-13
  -12.7500000      -1.48497100E-13
  -12.7399998      -1.51971141E-13
  -12.7299995      -1.43491596E-13
  -12.7200003      -1.23370769E-13
  -12.7100000      -9.28646537E-14
  -12.6999998      -5.40440664E-14
  -12.6899996      -9.58964370E-15
  -12.6800003       3.74721209E-14
  -12.6700001       8.40672272E-14
  -12.6599998       1.27374809E-13
  -12.6499996       1.65092834E-13
  -12.6400003       1.95631448E-13
  -12.6300001       2.18198872E-13
  -12.6199999       2.32756441E-13
  -12.6099997       2.39831267E-13
  -12.6000004       2.40194231E-13
  -12.5900002       2.34433431E-13
  -12.5799999       2.22472878E-13
  -12.5699997       2.03109908E-13
  -12.5600004       1.73659996E-13
  -12.5500002       1.29806417E-13
  -12.5400000       6.57518270E-14
  -12.5299997      -2.52544195E-14
  -12.5200005      -1.49971168E-13
  -12.5100002      -3.13818036E-13
  -12.5000000      -5.19204796E-13
  -12.4899998      -7.63689134E-13
  -12.4799995      -1.03817096E-12
  -12.4700003      -1.32538121E-12
  -12.4600000      -1.59891794E-12
  -12.4499998      -1.82306253E-12
  -12.4399996      -1.95352848E-12
  -12.4300003      -1.93919728E-12
  -12.4200001      -1.72477766E-12
  -12.4099998      -1.25422231E-12
  -12.3999996      -4.74630101E-13
  -12.3900003       6.59669910E-13
  -12.3800001       2.18314342E-12
  -12.3699999       4.11548400E-12
  -12.3599997       6.45863311E-12
  -12.3500004       9.19455397E-12
  -12.3400002       1.22837938E-11
  -12.3299999       1.56649207E-11
  -12.3199997       1.92548703E-11
  -12.3100004       2.29502407E-11
  -12.3000002       2.66296690E-11
  -12.2900000       3.01573141E-11
  -12.2799997       3.33874872E-11
  -12.2700005       3.61703827E-11
  -12.2600002       3.83586253E-11
  -12.2500000       3.98142665E-11
  -12.2399998       4.04156396E-11
  -12.2299995       4.00634421E-11
  -12.2200003       3.86853188E-11
  -12.2100000       3.62385295E-11
  -12.1999998       3.27101853E-11
  -12.1899996       2.81153399E-11
  -12.1800003       2.24930144E-11
  -12.1700001       1.59010981E-11
  -12.1599998       8.41074172E-12
  -12.1499996       1.01384985E-13
  -12.1400003      -8.94297570E-12
  -12.1300001      -1.86355393E-11
  -12.1199999      -2.88866639E-11
  -12.1099997      -3.96019814E-11
  -12.1000004      -5.06794294E-11
  -12.0900002      -6.20061086E-11
  -12.0799999      -7.34556513E-11
  -12.0699997      -8.48869100E-11
  -12.0600004      -9.61443147E-11
  -12.0500002      -1.07060097E-10
  -12.0400000      -1.17457891E-10
  -12.0299997      -1.27157354E-10
  -12.0200005      -1.35979006E-10
  -12.0100002      -1.43748735E-10
  -12.0000000      -1.50301480E-10
  -11.9899998      -1.55483834E-10
  -11.9799995      -1.59156202E-10
  -11.9700003      -1.61193739E-10
  -11.9600000      -1.61487601E-10
  -11.9499998      -1.59946500E-10
  -11.9399996      -1.56498078E-10
  -11.9300003      -1.51091264E-10
  -11.9200001      -1.43698511E-10
  -11.9099998      -1.34317710E-10
  -11.8999996      -1.22973159E-10
  -11.8900003      -1.09715723E-10
  -11.8800001      -9.46209638E-11
  -11.8699999      -7.77863954E-11
  -11.8599997      -5.93273555E-11
  -11.8500004      -3.93728383E-11
  -11.8400002      -1.80610769E-11
  -11.8299999       4.46362131E-12
  -11.8199997       2.80527181E-11
  -11.8100004       5.25538259E-11
  -11.8000002       7.78094186E-11
  -11.7900000       1.03654689E-10
  -11.7799997       1.29914982E-10
  -11.7700005       1.56403168E-10
  -11.7600002       1.82918278E-10
  -11.7500000       2.09245496E-10
  -11.7399998       2.35157366E-10
  -11.7299995       2.60416938E-10
  -11.7200003       2.84781865E-10
  -11.7100000       3.08008979E-10
  -11.6999998       3.29859084E-10
  -11.6899996       3.50101309E-10
  -11.6800003       3.68516384E-10
  -11.6700001       3.84898835E-10
  -11.6599998       3.99058758E-10
  -11.6499996       4.10821793E-10
  -11.6400003       4.20029345E-10
  -11.6300001       4.26538582E-10
  -11.6199999       4.30221664E-10
  -11.6099997       4.30966207E-10
  -11.6000004       4.28675567E-10
  -11.5900002       4.23268698E-10
  -11.5799999       4.14680373E-10
  -11.5699997       4.02861605E-10
  -11.5600004       3.87778920E-10
  -11.5500002       3.69414388E-10
  -11.5400000       3.47764983E-10
  -11.5299997       3.22842086E-10
  -11.5200005       2.94671898E-10
  -11.5100002       2.63295830E-10
  -11.5000000       2.28771488E-10
  -11.4899998       1.91173286E-10
  -11.4799995       1.50594509E-10
  -11.4700003       1.07147055E-10
  -11.4600000       6.09621242E-11
  -11.4499998       1.21882374E-11
  -11.4399996      -3.90105968E-11
  -11.4300003      -9.24585061E-11
  -11.4200001      -1.47972010E-10
  -11.4099998      -2.05364392E-10
  -11.3999996      -2.64450045E-10
  -11.3900003      -3.25048294E-10
  -11.3800001      -3.86986970E-10
  -11.3699999      -4.50105758E-10
  -11.3599997      -5.14256970E-10
  -11.3500004      -5.79308546E-10
  -11.3400002      -6.45145215E-10
  -11.3299999      -7.11669779E-10
  -11.3199997      -7.78804798E-10
  -11.3100004      -8.46493153E-10
  -11.3000002      -9.14698817E-10
  -11.2900000      -9.83405690E-10
  -11.2799997      -1.05261744E-09
  -11.2700005      -1.12235521E-09
  -11.2600002      -1.19265342E-09
  -11.2500000      -1.26355859E-09
  -11.2399998      -1.33512346E-09
  -11.2299995      -1.40740408E-09
  -11.2200003      -1.48045520E-09
  -11.2100000      -1.55432900E-09
  -11.1999998      -1.62906955E-09
  -11.1899996      -1.70471148E-09
  -11.1800003      -1.78127979E-09
  -11.1700001      -1.85878613E-09
  -11.1599998      -1.93723393E-09
  -11.1499996      -2.01661887E-09
  -11.1400003      -2.09693374E-09
  -11.1300001      -2.17817497E-09
  -11.1199999      -2.26034658E-09
  -11.1099997      -2.34346675E-09
  -11.1000004      -2.42757281E-09
  -11.0900002      -2.51272292E-09
  -11.0799999      -2.59899480E-09
  -11.0699997      -2.68647904E-09
  -11.0600004      -2.77527734E-09
  -11.0500002      -2.86549096E-09
  -11.0400000      -2.95721758E-09
  -11.0299997      -3.05053960E-09
  -11.0200005      -3.14551940E-09
  -11.0100002      -3.24220073E-09
  -11.0000000      -3.34060557E-09
  -10.9899998      -3.44073503E-09
  -10.9799995      -3.54257623E-09
  -10.9700003      -3.64609365E-09
  -10.9600000      -3.75124243E-09
  -10.9499998      -3.85796017E-09
  -10.9399996      -3.96616295E-09
  -10.9300003      -4.07574774E-09
  -10.9200001      -4.18657864E-09
  -10.9099998      -4.29849356E-09
  -10.8999996      -4.41129533E-09
  -10.8900003      -4.52475613E-09
  -10.8800001      -4.63862282E-09
  -10.8699999      -4.75261297E-09
  -10.8599997      -4.86642504E-09
  -10.8500004      -4.97975350E-09
  -10.8400002      -5.09228881E-09
  -10.8299999      -5.20372989E-09
  -10.8199997      -5.31379207E-09
  -10.8100004      -5.42220802E-09
  -10.8000002      -5.52873791E-09
  -10.7900000      -5.63316638E-09
  -10.7799997      -5.73530823E-09
  -10.7700005      -5.83499693E-09
  -10.7600002      -5.93208815E-09
  -10.7500000      -6.02645533E-09
  -10.7399998      -6.11798745E-09
  -10.7299995      -6.20657614E-09
  -10.7200003      -6.29213570E-09
  -10.7100000      -6.37458752E-09
  -10.6999998      -6.45387388E-09
  -10.6899996      -6.52996723E-09
  -10.6800003      -6.60286403E-09
  -10.6700001      -6.67259803E-09
  -10.6599998      -6.73924383E-09
  -10.6499996      -6.80290846E-09
  -10.6400003      -6.86372514E-09
  -10.6300001      -6.92186441E-09
  -10.6199999      -6.97751235E-09
  -10.6099997      -7.03086256E-09
  -10.6000004      -7.08210957E-09
  -10.5900002      -7.13143233E-09
  -10.5799999      -7.17899029E-09
  -10.5699997      -7.22492066E-09
  -10.5600004      -7.26934024E-09
  -10.5500002      -7.31233074E-09
  -10.5400000      -7.35393968E-09
  -10.5299997      -7.39419503E-09
  -10.5200005      -7.43309725E-09
  -10.5100002      -7.47063034E-09
  -10.5000000      -7.50675877E-09
  -10.4899998      -7.54145901E-09
  -10.4799995      -7.57470264E-09
  -10.4700003      -7.60646923E-09
  -10.4600000      -7.63676677E-09
  -10.4499998      -7.66561215E-09
  -10.4399996      -7.69305242E-09
  -10.4300003      -7.71913466E-09
  -10.4200001      -7.74393349E-09
  -10.4099998      -7.76751108E-09
  -10.3999996      -7.78992870E-09
  -10.3900003      -7.81122633E-09
  -10.3800001      -7.83143594E-09
  -10.3699999      -7.85055487E-09
  -10.3599997      -7.86858401E-09
  -10.3500004      -7.88550469E-09
  -10.3400002      -7.90130716E-09
  -10.3299999      -7.91599852E-09
  -10.3199997      -7.92959831E-09
  -10.3100004      -7.94216337E-09
  -10.3000002      -7.95377009E-09
  -10.2900000      -7.96451616E-09
  -10.2799997      -7.97452149E-09
  -10.2700005      -7.98391042E-09
  -10.2600002      -7.99280109E-09
  -10.2500000      -8.00129563E-09
  -10.2399998      -8.00947930E-09
  -10.2299995      -8.01743383E-09
  -10.2200003      -8.02522138E-09
  -10.2100000      -8.03289080E-09
  -10.1999998      -8.04051581E-09
  -10.1899996      -8.04817635E-09
  -10.1800003      -8.05597455E-09
  -10.1700001      -8.06406764E-09
  -10.1599998      -8.07264033E-09
  -10.1499996      -8.08192180E-09
  -10.1400003      -8.09217671E-09
  -10.1300001      -8.10369727E-09
  -10.1199999      -8.11681655E-09
  -10.1099997      -8.13187739E-09
  -10.1000004      -8.14922529E-09
  -10.0900002      -8.16920487E-09
  -10.0799999      -8.19216162E-09
  -10.0699997      -8.21842949E-09
  -10.0600004      -8.24832913E-09
  -10.0500002      -8.28217050E-09
  -10.0400000      -8.32026359E-09
  -10.0299997      -8.36290415E-09
  -10.0200005      -8.41041636E-09
  -10.0100002      -8.46310400E-09
  -10.0000000      -8.52129300E-09
  -9.98999977      -8.58531291E-09
  -9.97999954      -8.65548788E-09
  -9.97000027      -8.73213946E-09
  -9.96000004      -8.81556517E-09
  -9.94999981      -8.90604213E-09
  -9.93999958      -9.00381014E-09
  -9.93000031      -9.10906195E-09
  -9.92000008      -9.22194321E-09
  -9.90999985      -9.34256850E-09
  -9.89999962      -9.47097512E-09
  -9.89000034      -9.60719060E-09
  -9.88000011      -9.75118297E-09
  -9.86999989      -9.90289539E-09
  -9.85999966      -1.00622248E-08
  -9.85000038      -1.02290363E-08
  -9.84000015      -1.04031868E-08
  -9.82999992      -1.05844897E-08
  -9.81999969      -1.07727605E-08
  -9.81000042      -1.09677920E-08
  -9.80000019      -1.11693819E-08
  -9.78999996      -1.13773302E-08
  -9.77999973      -1.15914451E-08
  -9.77000046      -1.18115544E-08
  -9.76000023      -1.20374883E-08
  -9.75000000      -1.22690702E-08
  -9.73999977      -1.25061250E-08
  -9.72999954      -1.27484645E-08
  -9.72000027      -1.29958799E-08
  -9.71000004      -1.32481306E-08
  -9.69999981      -1.35049563E-08
  -9.68999958      -1.37660754E-08
  -9.68000031      -1.40311887E-08
  -9.67000008      -1.42999879E-08
  -9.65999985      -1.45721444E-08
  -9.64999962      -1.48473083E-08
  -9.64000034      -1.51251331E-08
  -9.63000011      -1.54052735E-08
  -9.61999989      -1.56873448E-08
  -9.60999966      -1.59709419E-08
  -9.60000038      -1.62556386E-08
  -9.59000015      -1.65410050E-08
  -9.57999992      -1.68265810E-08
  -9.56999969      -1.71118995E-08
  -9.56000042      -1.73964896E-08
  -9.55000019      -1.76799002E-08
  -9.53999996      -1.79616908E-08
  -9.52999973      -1.82414244E-08
  -9.52000046      -1.85187474E-08
  -9.51000023      -1.87932958E-08
  -9.50000000      -1.90647942E-08
  -9.48999977      -1.93330045E-08
  -9.47999954      -1.95977776E-08
  -9.47000027      -1.98590122E-08
  -9.46000004      -2.01166692E-08
  -9.44999981      -2.03708002E-08
  -9.43999958      -2.06215010E-08
  -9.43000031      -2.08689688E-08
  -9.42000008      -2.11134736E-08
  -9.40999985      -2.13553832E-08
  -9.39999962      -2.15951683E-08
  -9.39000034      -2.18334506E-08
  -9.38000011      -2.20709886E-08
  -9.36999989      -2.23086793E-08
  -9.35999966      -2.25476029E-08
  -9.35000038      -2.27889476E-08
  -9.34000015      -2.30340920E-08
  -9.32999992      -2.32844908E-08
  -9.31999969      -2.35416646E-08
  -9.31000042      -2.38072175E-08
  -9.30000019      -2.40827465E-08
  -9.28999996      -2.43698768E-08
  -9.27999973      -2.46701894E-08
  -9.27000046      -2.49852441E-08
  -9.26000023      -2.53165418E-08
  -9.25000000      -2.56655284E-08
  -9.23999977      -2.60335575E-08
  -9.22999954      -2.64218940E-08
  -9.22000027      -2.68316782E-08
  -9.21000004      -2.72639333E-08
  -9.19999981      -2.77195014E-08
  -9.18999958      -2.81990573E-08
  -9.18000031      -2.87031128E-08
  -9.17000008      -2.92319928E-08
  -9.15999985      -2.97858076E-08
  -9.14999962      -3.03644789E-08
  -9.14000034      -3.09676871E-08
  -9.13000011      -3.15948903E-08
  -9.11999989      -3.22453211E-08
  -9.10999966      -3.29179919E-08
  -9.10000038      -3.36117019E-08
  -9.09000015      -3.43249624E-08
  -9.07999992      -3.50560931E-08
  -9.06999969      -3.58032608E-08
  -9.06000042      -3.65643587E-08
  -9.05000019      -3.73372941E-08
  -9.03999996      -3.81197438E-08
  -9.02999973      -3.89093486E-08
  -9.02000046      -3.97036501E-08
  -9.01000023      -4.05002289E-08
  -9.00000000      -4.12965520E-08
  -8.98999977      -4.20901785E-08
  -8.97999954      -4.28786144E-08
  -8.97000027      -4.36594689E-08
  -8.96000004      -4.44303581E-08
  -8.94999981      -4.51890010E-08
  -8.93999958      -4.59331311E-08
  -8.93000031      -4.66606096E-08
  -8.92000008      -4.73694364E-08
  -8.90999985      -4.80577285E-08
  -8.89999962      -4.87237202E-08
  -8.89000034      -4.93658447E-08
  -8.88000011      -4.99827451E-08
  -8.86999989      -5.05732523E-08
  -8.85999966      -5.11364426E-08
  -8.85000038      -5.16716128E-08
  -8.84000015      -5.21783221E-08
  -8.82999992      -5.26562900E-08
  -8.81999969      -5.31055200E-08
  -8.81000042      -5.35262785E-08
  -8.80000019      -5.39189848E-08
  -8.78999996      -5.42842535E-08
  -8.77999973      -5.46229550E-08
  -8.77000046      -5.49361481E-08
  -8.76000023      -5.52249908E-08
  -8.75000000      -5.54909008E-08
  -8.73999977      -5.57352990E-08
  -8.72999954      -5.59597915E-08
  -8.72000027      -5.61660656E-08
  -8.71000004      -5.63559475E-08
  -8.69999981      -5.65312455E-08
  -8.68999958      -5.66937963E-08
  -8.68000031      -5.68455896E-08
  -8.67000008      -5.69885117E-08
  -8.65999985      -5.71244918E-08
  -8.64999962      -5.72553844E-08
  -8.64000034      -5.73830263E-08
  -8.63000011      -5.75092365E-08
  -8.61999989      -5.76356953E-08
  -8.60999966      -5.77640513E-08
  -8.60000038      -5.78957540E-08
  -8.59000015      -5.80322386E-08
  -8.57999992      -5.81748480E-08
  -8.56999969      -5.83247370E-08
  -8.56000042      -5.84829820E-08
  -8.55000019      -5.86505031E-08
  -8.53999996      -5.88281495E-08
  -8.52999973      -5.90165712E-08
  -8.52000046      -5.92163190E-08
  -8.51000023      -5.94279186E-08
  -8.50000000      -5.96515974E-08
  -8.48999977      -5.98875758E-08
  -8.47999954      -6.01359389E-08
  -8.47000027      -6.03966939E-08
  -8.46000004      -6.06697412E-08
  -8.44999981      -6.09549318E-08
  -8.43999958      -6.12520736E-08
  -8.43000031      -6.15609679E-08
  -8.42000008      -6.18813374E-08
  -8.40999985      -6.22129477E-08
  -8.39999962      -6.25554719E-08
  -8.39000034      -6.29086898E-08
  -8.38000011      -6.32723243E-08
  -8.36999989      -6.36461124E-08
  -8.35999966      -6.40298978E-08
  -8.35000038      -6.44234532E-08
  -8.34000015      -6.48266507E-08
  -8.32999992      -6.52394618E-08
  -8.31999969      -6.56618440E-08
  -8.31000042      -6.60939534E-08
  -8.30000019      -6.65359536E-08
  -8.28999996      -6.69881359E-08
  -8.27999973      -6.74509693E-08
  -8.27000046      -6.79248799E-08
  -8.26000023      -6.84105927E-08
  -8.25000000      -6.89088964E-08
  -8.23999977      -6.94205866E-08
  -8.22999954      -6.99466867E-08
  -8.22000027      -7.04884044E-08
  -8.21000004      -7.10468697E-08
  -8.19999981      -7.16232691E-08
  -8.18999958      -7.22189455E-08
  -8.18000031      -7.28352063E-08
  -8.17000008      -7.34732666E-08
  -8.15999985      -7.41344408E-08
  -8.14999962      -7.48199511E-08
  -8.14000034      -7.55310623E-08
  -8.13000011      -7.62689183E-08
  -8.11999989      -7.70345494E-08
  -8.10999966      -7.78288367E-08
  -8.10000038      -7.86525760E-08
  -8.09000015      -7.95064992E-08
  -8.07999992      -8.03909828E-08
  -8.06999969      -8.13063536E-08
  -8.06000042      -8.22526971E-08
  -8.05000019      -8.32299492E-08
  -8.03999996      -8.42378327E-08
  -8.02999973      -8.52760067E-08
  -8.02000046      -8.63439240E-08
  -8.01000023      -8.74408670E-08
  -8.00000000      -8.85660683E-08
  -7.98999977      -8.97186396E-08
  -7.98000002      -9.08976077E-08
  -7.96999979      -9.21017786E-08
  -7.96000004      -9.33298665E-08
  -7.94999981      -9.45806420E-08
  -7.94000006      -9.58527622E-08
  -7.92999983      -9.71448770E-08
  -7.92000008      -9.84555228E-08
  -7.90999985      -9.97833780E-08
  -7.90000010      -1.01127078E-07
  -7.88999987      -1.02485274E-07
  -7.88000011      -1.03856642E-07
  -7.86999989      -1.05240041E-07
  -7.86000013      -1.06634175E-07
  -7.84999990      -1.08038030E-07
  -7.84000015      -1.09450497E-07
  -7.82999992      -1.10870687E-07
  -7.82000017      -1.12297649E-07
  -7.80999994      -1.13730778E-07
  -7.80000019      -1.15169520E-07
  -7.78999996      -1.16613265E-07
  -7.78000021      -1.18061500E-07
  -7.76999998      -1.19513928E-07
  -7.76000023      -1.20970313E-07
  -7.75000000      -1.22430606E-07
  -7.73999977      -1.23894594E-07
  -7.73000002      -1.25362405E-07
  -7.71999979      -1.26834209E-07
  -7.71000004      -1.28310049E-07
  -7.69999981      -1.29790180E-07
  -7.69000006      -1.31274930E-07
  -7.67999983      -1.32764640E-07
  -7.67000008      -1.34259608E-07
  -7.65999985      -1.35760388E-07
  -7.65000010      -1.37267492E-07
  -7.63999987      -1.38781346E-07
  -7.63000011      -1.40302618E-07
  -7.61999989      -1.41832118E-07
  -7.61000013      -1.43370613E-07
  -7.59999990      -1.44919028E-07
  -7.59000015      -1.46478200E-07
  -7.57999992      -1.48049210E-07
  -7.57000017      -1.49633024E-07
  -7.55999994      -1.51230964E-07
  -7.55000019      -1.52844038E-07
  -7.53999996      -1.54473625E-07
  -7.53000021      -1.56120706E-07
  -7.51999998      -1.57786616E-07
  -7.51000023      -1.59472521E-07
  -7.50000000      -1.61179585E-07
  -7.48999977      -1.62908833E-07
  -7.48000002      -1.64661344E-07
  -7.46999979      -1.66438426E-07
  -7.46000004      -1.68241201E-07
  -7.44999981      -1.70070678E-07
  -7.44000006      -1.71927709E-07