  -16.0000000       0.00000000    
  -15.9899998       0.00000000    
  -15.9799995       0.00000000    
  -15.9700003       0.00000000    
  -15.9600000       0.00000000    
  -15.9499998       0.00000000    
  -15.9399996       0.00000000    
  -15.9300003       0.00000000    
  -15.9200001       0.00000000    
  -15.9099998       0.00000000    
  -15.8999996       0.00000000    
  -15.8900003       0.00000000    
  -15.8800001      -8.40779079E-45
  -15.8699999      -4.41409016E-43
  -15.8599997      -1.18269590E-41
  -15.8500004      -1.90639650E-40
  -15.8400002      -2.11582896E-39
  -15.8299999      -1.76510707E-38
  -15.8199997      -1.17247225E-37
  -15.8100004      -6.45018087E-37
  -15.8000002      -3.02196323E-36
  -15.7900000      -1.23041757E-35
  -15.7799997      -4.41905778E-35
  -15.7700005      -1.41527913E-34
  -15.7600002      -4.07285696E-34
  -15.7500000      -1.05815917E-33
  -15.7399998      -2.48641355E-33
  -15.7299995      -5.27502576E-33
  -15.7200003      -1.00368762E-32
  -15.7100000      -1.68659709E-32
  -15.6999998      -2.41830765E-32
  -15.6899996      -2.69939788E-32
  -15.6800003      -1.52504670E-32
  -15.6700001       2.58452034E-32
  -15.6599998       1.10557994E-31
  -15.6499996       2.39319012E-31
  -15.6400003       3.77485302E-31
  -15.6300001       4.34102729E-31
  -15.6199999       2.60212672E-31
  -15.6099997      -3.04826962E-31
  -15.6000004      -1.31696293E-30
  -15.5900002      -2.55501032E-30
  -15.5799999      -3.37484202E-30
  -15.5699997      -2.74821740E-30
  -15.5600004       3.38736071E-31
  -15.5500002       6.07939874E-30
  -15.5400000       1.28993341E-29
  -15.5299997       1.70435682E-29
  -15.5200005       1.35845213E-29
  -15.5100002      -6.77838802E-31
  -15.5000000      -2.32614977E-29
  -15.4899998      -4.36941775E-29
  -15.4799995      -4.66705789E-29
  -15.4700003      -2.28809325E-29
  -15.4600000       1.60200312E-29
  -15.4499998       3.03283350E-29
  -15.4399996      -2.94953583E-29
  -15.4300003      -1.69080182E-28
  -15.4200001      -2.77754078E-28
  -15.4099998      -9.67121189E-29
  -15.3999996       6.81636970E-28
  -15.3900003       2.11771867E-27
  -15.3800001       3.59076811E-27
  -15.3699999       3.50113803E-27
  -15.3599997      -4.13352137E-28
  -15.3500004      -9.68948066E-27
  -15.3400002      -2.27013738E-26
  -15.3299999      -3.22059151E-26
  -15.3199997      -2.51057911E-26
  -15.3100004       1.28086005E-26
  -15.3000002       8.57160975E-26
  -15.2900000       1.72800215E-25
  -15.2799997       2.18038319E-25
  -15.2700005       1.38288525E-25
  -15.2600002      -1.37990717E-25
  -15.2500000      -6.01518076E-25
  -15.2399998      -1.08713888E-24
  -15.2299995      -1.24618665E-24
  -15.2200003      -6.33384852E-25
  -15.2100000       1.04969579E-24
  -15.1999998       3.59283149E-24
  -15.1899996       5.95889593E-24
  -15.1800003       6.28366562E-24
  -15.1700001       2.47637736E-24
  -15.1599998      -6.48786424E-24
  -15.1499996      -1.89132147E-23
  -15.1400003      -2.92318088E-23
  -15.1300001      -2.85871990E-23
  -15.1199999      -8.17905817E-24
  -15.1099997       3.46898459E-23
  -15.1000004       8.98320089E-23
  -15.0900002       1.30681700E-22
  -15.0799999       1.19022248E-22
  -15.0699997       2.11392335E-23
  -15.0600004      -1.66580261E-22
  -15.0500002      -3.92330921E-22
  -15.0400000      -5.40635939E-22
  -15.0299997      -4.59142391E-22
  -15.0200005      -2.87985380E-23
  -15.0100002       7.36211192E-22
  -15.0000000       1.60116994E-21
  -14.9899998       2.10044725E-21
  -14.9799995       1.66458143E-21
  -14.9700003      -9.90869061E-23
  -14.9600000      -3.04106470E-21
  -14.9499998      -6.18778718E-21
  -14.9399996      -7.77298956E-21
  -14.9300003      -5.77337615E-21
  -14.9200001       1.04174331E-21
  -14.9099998       1.18423942E-20
  -14.8999996       2.28708702E-20
  -14.8900003       2.77540098E-20
  -14.8800001       1.95681707E-20
  -14.8699999      -5.44440182E-21
  -14.8599997      -4.36450380E-20
  -14.8500004      -8.14018230E-20
  -14.8400002      -9.66528234E-20
  -14.8299999      -6.63014471E-20
  -14.8199997       2.12192200E-20
  -14.8100004       1.52228853E-19
  -14.8000002       2.80007746E-19
  -14.7900000       3.30873279E-19
  -14.7799997       2.28978767E-19
  -14.7700005      -6.29057220E-20
  -14.7600002      -4.99800259E-19
  -14.7500000      -9.30411202E-19
  -14.7399998      -1.11688956E-18
  -14.7299995      -8.12821843E-19
  -14.7200003       1.09494092E-19
  -14.7100000       1.52278026E-18
  -14.6999998       2.96678212E-18
  -14.6899996       3.70178792E-18
  -14.6800003       2.93763062E-18
  -14.6700001       2.14450257E-19
  -14.6599998      -4.17941649E-18
  -14.6499996      -8.94628258E-18
  -14.6400003      -1.18896675E-17
  -14.6300001      -1.05346290E-17
  -14.6199999      -3.21090979E-18
  -14.6099997       9.70156134E-18
  -14.6000004       2.48950891E-17
  -14.5900002       3.62360629E-17
  -14.5799999       3.62802376E-17
  -14.5699997       1.91640476E-17
  -14.5600004      -1.58403350E-17
  -14.5500002      -6.14671230E-17
  -14.5400000      -1.01960929E-16
  -14.5299997      -1.16269063E-16
  -14.5200005      -8.51436923E-17
  -14.5100002      -6.83458860E-19
  -14.5000000       1.24909791E-16
  -14.4899998       2.55628350E-16
  -14.4799995       3.36842821E-16
  -14.4700003       3.10889255E-16
  -14.4600000       1.40633741E-16
  -14.4499998      -1.65862842E-16
  -14.4399996      -5.39696148E-16
  -14.4300003      -8.54741000E-16
  -14.4200001      -9.56625246E-16
  -14.4099998      -7.14822063E-16
  -14.3999996      -8.51938658E-17
  -14.3900003       8.38636098E-16
  -14.3800001       1.80995313E-15
  -14.3699999       2.46877938E-15
  -14.3599997       2.44057551E-15
  -14.3500004       1.47552684E-15
  -14.3400002      -4.11821093E-16
  -14.3299999      -2.85596936E-15
  -14.3199997      -5.15692717E-15
  -14.3100004      -6.42622552E-15
  -14.3000002      -5.84853084E-15
  -14.2900000      -2.99817391E-15
  -14.2799997       1.88737364E-15
  -14.2700005       7.78665953E-15
  -14.2600002       1.30109512E-14
  -14.2500000       1.55824264E-14
  -14.2399998       1.38140122E-14
  -14.2299995       6.94837347E-15
  -14.2200003      -4.33932650E-15
  -14.2100000      -1.77697687E-14
  -14.1999998      -2.97501112E-14
  -14.1899996      -3.61410730E-14
  -14.1800003      -3.33723155E-14
  -14.1700001      -1.96503106E-14
  -14.1599998       4.07065611E-15
  -14.1499996       3.36756651E-14
  -14.1400003       6.22607367E-14
  -14.1300001       8.13485564E-14
  -14.1199999       8.28063272E-14
  -14.1099997       6.11287889E-14
  -14.1000004       1.56005190E-14
  -14.0900002      -4.82175132E-14
  -14.0799999      -1.18203624E-13
  -14.0699997      -1.76980677E-13
  -14.0600004      -2.04944067E-13
  -14.0500002      -1.84783544E-13
  -14.0400000      -1.06833752E-13
  -14.0299997       2.58597905E-14
  -14.0200005       1.94208473E-13
  -14.0100002       3.63013385E-13
  -14.0000000       4.85362347E-13
  -13.9899998       5.11860790E-13
  -13.9799995       4.03776269E-13
  -13.9700003       1.47650189E-13
  -13.9600000      -2.32422182E-13
  -13.9499998      -6.69304672E-13
  -13.9399996      -1.05808320E-12
  -13.9300003      -1.27409476E-12
  -13.9200001      -1.20250945E-12
  -13.9099998      -7.74345215E-13
  -13.8999996      -2.55236147E-16
  -13.8900003       1.00852475E-12
  -13.8800001       2.04196404E-12
  -13.8699999       2.82175715E-12
  -13.8599997       3.05983299E-12
  -13.8500004       2.53582875E-12
  -13.8400002       1.17671714E-12
  -13.8299999      -8.83081856E-13
  -13.8199997      -3.28274972E-12
  -13.8100004      -5.47284483E-12
  -13.8000002      -6.81368547E-12
  -13.7900000      -6.72283366E-12
  -13.7799997      -4.84441133E-12
  -13.7700005      -1.20085842E-12
  -13.7600002       3.71694385E-12
  -13.7500000       8.95968716E-12
  -13.7399998       1.32515995E-11
  -13.7299995       1.52402136E-11
  -13.7200003       1.38283499E-11
  -13.7100000       8.52288032E-12
  -13.6999998      -2.86137975E-13
  -13.6899996      -1.12063770E-11
  -13.6800003      -2.19562910E-11
  -13.6700001      -2.97399431E-11
  -13.6599998      -3.18513445E-11
  -13.6499996      -2.64057127E-11
  -13.6400003      -1.30331457E-11
  -13.6300001       6.66273937E-12
  -13.6199999       2.90653890E-11
  -13.6099997       4.90400220E-11
  -13.6000004       6.09557127E-11
  -13.5900002       6.00774014E-11
  -13.5799999       4.40251585E-11
  -13.5699997       1.39064307E-11
  -13.5600004      -2.52714377E-11
  -13.5500002      -6.51810758E-11
  -13.5400000      -9.57915483E-11
  -13.5299997      -1.07770202E-10
  -13.5200005      -9.51356285E-11
  -13.5100002      -5.74443132E-11
  -13.5000000      -7.93003141E-13
  -13.4899998       6.28645677E-11
  -13.4799995       1.18173235E-10
  -13.4700003       1.50172222E-10
  -13.4600000       1.48518281E-10
  -13.4499998       1.10942242E-10
  -13.4399996       4.47862233E-11
  -13.4300003      -3.41187911E-11
  -13.4200001      -1.05261425E-10
  -13.4099998      -1.49132734E-10
  -13.3999996      -1.53256421E-10
  -13.3900003      -1.16702162E-10
  -13.3800001      -5.14274422E-11
  -13.3699999       2.04290907E-11
  -13.3599997       7.29913352E-11
  -13.3500004       8.52423063E-11
  -13.3400002       4.92308555E-11
  -13.3299999      -2.49366552E-11
  -13.3199997      -1.09546781E-10
  -13.3100004      -1.65975636E-10
  -13.3000002      -1.56516952E-10
  -13.2900000      -5.83476531E-11
  -13.2799997       1.24590574E-10
  -13.2700005       3.56097873E-10
  -13.2600002       5.71648451E-10
  -13.2500000       6.92354118E-10
  -13.2399998       6.46547205E-10
  -13.2299995       3.93804100E-10
  -13.2200003      -5.54018185E-11
  -13.2100000      -6.31074748E-10
  -13.1999998      -1.21060639E-09
  -13.1899996      -1.64194092E-09
  -13.1800003      -1.77917359E-09
  -13.1700001      -1.52268698E-09
  -13.1599998      -8.53523641E-10
  -13.1499996       1.48143497E-10
  -13.1400003       1.30760081E-09
  -13.1300001       2.38511011E-09
  -13.1199999       3.12581161E-09
  -13.1099997       3.31956129E-09
  -13.1000004       2.85649437E-09
  -13.0900002       1.76369763E-09
  -13.0799999       2.11783688E-10
  -13.0699997      -1.51318957E-09
  -13.0600004      -3.06848857E-09
  -13.0500002      -4.13193302E-09
  -13.0400000      -4.47941773E-09
  -13.0299997      -4.04283318E-09
  -13.0200005      -2.93173152E-09
  -13.0100002      -1.41004031E-09
  -13.0000000       1.69813053E-10
  -12.9899998       1.46129808E-09
  -12.9799995       2.22336838E-09
  -12.9700003       2.39765852E-09
  -12.9600000       2.13837459E-09
  -12.9499998       1.77972992E-09
  -12.9399996       1.74108905E-09
  -12.9300003       2.38762188E-09
  -12.9200001       3.87994836E-09
  -12.9099998       6.05526518E-09
  -12.8999996       8.38153991E-09
  -12.8900003       1.00137054E-08
  -12.8800001       9.95799443E-09
  -12.8699999       7.32187022E-09
  -12.8599997       1.59912106E-09
  -12.8500004      -7.07957959E-09
  -12.8400002      -1.78043216E-08
  -12.8299999      -2.89103159E-08
  -12.8199997      -3.81939742E-08
  -12.8100004      -4.32999840E-08
  -12.8000002      -4.22110702E-08
  -12.7900000      -3.37354784E-08
  -12.7799997      -1.78733490E-08
  -12.7700005       4.04100087E-09
  -12.7600002       2.94777731E-08
  -12.7500000       5.51213972E-08
  -12.7399998       7.74687123E-08
  -12.7299995       9.34754425E-08
  -12.7200003       1.01085824E-07
  -12.7100000       9.95000278E-08
  -12.6999998       8.90980587E-08
  -12.6899996       7.10341652E-08
  -12.6800003       4.66189292E-08
  -12.6700001       1.66863732E-08
  -12.6599998      -1.88245597E-08
  -12.6499996      -6.08785982E-08
  -12.6400003      -1.10845100E-07
  -12.6300001      -1.69535141E-07
  -12.6199999      -2.35970589E-07
  -12.6099997      -3.06198586E-07
  -12.6000004      -3.72515103E-07
  -12.5900002      -4.23418186E-07
  -12.5799999      -4.44479781E-07
  -12.5699997      -4.20131954E-07
  -12.5600004      -3.36151373E-07
  -12.5500002      -1.82451501E-07
  -12.5400000       4.43007977E-08
  -12.5299997       3.38714273E-07
  -12.5200005       6.85697159E-07
  -12.5100002       1.06063476E-06
  -12.5000000       1.43066291E-06
  -12.4899998       1.75679702E-06
  -12.4799995       1.99656893E-06
  -12.4700003       2.10681537E-06
  -12.4600000       2.04633898E-06
  -12.4499998       1.77829577E-06
  -12.4399996       1.27229089E-06
  -12.4300003       5.06260221E-07
  -12.4200001      -5.31775754E-07
  -12.4099998      -1.84205123E-06
  -12.3999996      -3.41156829E-06
  -12.3900003      -5.21297216E-06
  -12.3800001      -7.20404978E-06
  -12.3699999      -9.32811054E-06
  -12.3599997      -1.15154116E-05
  -12.3500004      -1.36856597E-05
  -12.3400002      -1.57514278E-05
  -12.3299999      -1.76222165E-05
  -12.3199997      -1.92088028E-05
  -12.3100004      -2.04275439E-05
  -12.3000002      -2.12043869E-05
  -12.2900000      -2.14784141E-05
  -12.2799997      -2.12048781E-05
  -12.2700005      -2.03577001E-05
  -12.2600002      -1.89312959E-05
  -12.2500000      -1.69416362E-05
  -12.2399998      -1.44262713E-05
  -12.2299995      -1.14430522E-05
  -12.2200003      -8.06743355E-06
  -12.2100000      -4.38832149E-06
  -12.1999998      -5.02826140E-07
  -12.1899996       3.48957701E-06
  -12.1800003       7.49274113E-06
  -12.1700001       1.14186632E-05
  -12.1599998       1.51908689E-05
  -12.1499996       1.87461446E-05
  -12.1400003       2.20347210E-05
  -12.1300001       2.50194444E-05
  -12.1199999       2.76745104E-05
  -12.1099997       2.99843159E-05
  -12.1000004       3.19428655E-05
  -12.0900002       3.35534933E-05
  -12.0799999       3.48285903E-05
  -12.0699997       3.57886529E-05
  -12.0600004       3.64600673E-05
  -12.0500002       3.68713700E-05
  -12.0400000       3.70483103E-05
  -12.0299997       3.70084417E-05
  -12.0200005       3.67565262E-05
  -12.0100002       3.62819483E-05
  -12.0000000       3.55592347E-05
  -11.9899998       3.45517947E-05
  -11.9799995       3.32185555E-05
  -11.9700003       3.15219913E-05
  -11.9600000       2.94359470E-05
  -11.9499998       2.69513330E-05
  -11.9399996       2.40784157E-05
  -11.9300003       2.08451929E-05
  -11.9200001       1.72924501E-05
  -11.9099998       1.34667407E-05
  -11.8999996       9.41335657E-06
  -11.8900003       5.17102990E-06
  -11.8800001       7.69780002E-07
  -11.8699999      -3.76767730E-06
  -11.8599997      -8.42133522E-06
  -11.8500004      -1.31675461E-05
  -11.8400002      -1.79724975E-05
  -11.8299999      -2.27872169E-05
  -11.8199997      -2.75453240E-05
  -11.8100004      -3.21640327E-05
  -11.8000002      -3.65481937E-05
  -11.7900000      -4.05966384E-05
  -11.7799997      -4.42099263E-05
  -11.7700005      -4.72982465E-05
  -11.7600002      -4.97889414E-05
  -11.7500000      -5.16327891E-05
  -11.7399998      -5.28086857E-05
  -11.7299995      -5.33262501E-05
  -11.7200003      -5.32258236E-05
  -11.7100000      -5.25754695E-05
  -11.6999998      -5.14645944E-05
  -11.6899996      -4.99945309E-05
  -11.6800003      -4.82667456E-05
  -11.6700001      -4.63703545E-05
  -11.6599998      -4.43709796E-05
  -11.6499996      -4.23031670E-05
  -11.6400003      -4.01681609E-05
  -11.6300001      -3.79376725E-05
  -11.6199999      -3.55632656E-05
  -11.6099997      -3.29892464E-05
  -11.6000004      -3.01664350E-05
  -11.5900002      -2.70633409E-05
  -11.5799999      -2.36725136E-05
  -11.5699997      -2.00105005E-05
  -11.5600004      -1.61119096E-05
  -11.5500002      -1.20195318E-05
  -11.5400000      -7.77350670E-06
  -11.5299997      -3.40273618E-06
  -11.5200005       1.07890423E-06
  -11.5100002       5.67063580E-06
  -11.5000000       1.03776802E-05
  -11.4899998       1.52012863E-05
  -11.4799995       2.01288167E-05
  -11.4700003       2.51268702E-05
  -11.4600000       3.01393047E-05
  -11.4499998       3.50907321E-05
  -11.4399996       3.98942793E-05
  -11.4300003       4.44614634E-05
  -11.4200001       4.87114448E-05
  -11.4099998       5.25775613E-05
  -11.3999996       5.60100198E-05
  -11.3900003       5.89751617E-05
  -11.3800001       6.14525852E-05
  -11.3699999       6.34324024E-05
  -11.3599997       6.49141584E-05
  -11.3500004       6.59084035E-05
  -11.3400002       6.64404797E-05
  -11.3299999       6.65548505E-05
  -11.3199997       6.63177998E-05
  -11.3100004       6.58163699E-05
  -11.3000002       6.51522714E-05
  -11.2900000       6.44311367E-05
  -11.2799997       6.37488774E-05
  -11.2700005       6.31777584E-05
  -11.2600002       6.27557311E-05
  -11.2500000       6.24812310E-05
  -11.2399998       6.23151864E-05
  -11.2299995       6.21896615E-05
  -11.2200003       6.20213250E-05
  -11.2100000       6.17271580E-05
  -11.1999998       6.12391232E-05
  -11.1899996       6.05152600E-05
  -11.1800003       5.95457786E-05
  -11.1700001       5.83539295E-05
  -11.1599998       5.69921831E-05
  -11.1499996       5.55351471E-05
  -11.1400003       5.40704641E-05
  -11.1300001       5.26889853E-05
  -11.1199999       5.14746534E-05
  -11.1099997       5.04949166E-05
  -11.1000004       4.97918591E-05
  -11.0900002       4.93752959E-05
  -11.0799999       4.92189902E-05
  -11.0699997       4.92613472E-05
  -11.0600004       4.94119195E-05
  -11.0500002       4.95637723E-05
  -11.0400000       4.96107459E-05
  -11.0299997       4.94669002E-05
  -11.0200005       4.90845559E-05
  -11.0100002       4.84668599E-05
  -11.0000000       4.76714522E-05
  -10.9899998       4.68035287E-05
  -10.9799995       4.59986950E-05
  -10.9700003       4.53985122E-05
  -10.9600000       4.51231972E-05
  -10.9499998       4.52467248E-05
  -10.9399996       4.57792339E-05
  -10.9300003       4.66600577E-05
  -10.9200001       4.77622343E-05
  -10.9099998       4.89077283E-05
  -10.8999996       4.98901863E-05
  -10.8900003       5.05014468E-05
  -10.8800001       5.05579010E-05
  -10.8699999       4.99231719E-05
  -10.8599997       4.85248129E-05
  -10.8500004       4.63636497E-05
  -10.8400002       4.35149013E-05
  -10.8299999       4.01209945E-05
  -10.8199997       3.63764775E-05
  -10.8100004       3.25056972E-05
  -10.8000002       2.87353723E-05
  -10.7900000       2.52646423E-05
  -10.7799997       2.22369381E-05
  -10.7700005       1.97181380E-05
  -10.7600002       1.76857084E-05
  -10.7500000       1.60321943E-05
  -10.7399998       1.45836866E-05
  -10.7299995       1.31317292E-05
  -10.7200003       1.14734321E-05
  -10.7100000       9.45326883E-06
  -10.6999998       6.99828524E-06
  -10.6899996       4.14052829E-06
  -10.6800003       1.02182457E-06
  -10.6700001      -2.12005853E-06
  -10.6599998      -4.98126292E-06
  -10.6499996      -7.23280300E-06
  -10.6400003      -8.56554652E-06
  -10.6300001      -8.73188219E-06
  -10.6199999      -7.57810903E-06
  -10.6099997      -5.06312290E-06
  -10.6000004      -1.26152941E-06
  -10.5900002       3.64872130E-06
  -10.5799999       9.41148937E-06
  -10.5699997       1.57269478E-05
  -10.5600004       2.22903327E-05
  -10.5500002       2.88296214E-05
  -10.5400000       3.51370218E-05
  -10.5299997       4.10895154E-05
  -10.5200005       4.66556376E-05
  -10.5100002       5.18872439E-05
  -10.5000000       5.68986106E-05
  -10.4899998       6.18360282E-05
  -10.4799995       6.68441935E-05
  -10.4700003       7.20356184E-05
  -10.4600000       7.74684158E-05
  -10.4499998       8.31359721E-05
  -10.4399996       8.89688235E-05
  -10.4300003       9.48465968E-05
  -10.4200001       1.00616322E-04
  -10.4099998       1.06111584E-04
  -10.3999996       1.11170004E-04
  -10.3900003       1.15645962E-04
  -10.3800001       1.19419754E-04
  -10.3699999       1.22403653E-04
  -10.3599997       1.24547281E-04
  -10.3500004       1.25842911E-04
  -10.3400002       1.26329280E-04
  -10.3299999       1.26092069E-04
  -10.3199997       1.25257808E-04
  -10.3100004       1.23978811E-04
  -10.3000002       1.22410143E-04
  -10.2900000       1.20681681E-04
  -10.2799997       1.18871227E-04
  -10.2700005       1.16986426E-04
  -10.2600002       1.14961411E-04
  -10.2500000       1.12671674E-04
  -10.2399998       1.09965142E-04
  -10.2299995       1.06703621E-04
  -10.2200003       1.02804865E-04
  -10.2100000       9.82747661E-05
  -10.1999998       9.32211624E-05
  -10.1899996       8.78459105E-05
  -10.1800003       8.24158269E-05
  -10.1700001       7.72202038E-05
  -10.1599998       7.25240243E-05
  -10.1499996       6.85281702E-05
  -10.1400003       6.53447205E-05
  -10.1300001       6.29916030E-05
  -10.1199999       6.14062665E-05
  -10.1099997       6.04740417E-05
  -10.1000004       6.00631683E-05
  -10.0900002       6.00583262E-05
  -10.0799999       6.03866756E-05
  -10.0699997       6.10308598E-05
  -10.0600004       6.20282663E-05
  -10.0500002       6.34571115E-05
  -10.0400000       6.54148462E-05
  -10.0299997       6.79912191E-05
  -10.0200005       7.12440160E-05
  -10.0100002       7.51805856E-05
  -10.0000000       7.97495231E-05
  -9.98999977       8.48436903E-05
  -9.97999954       9.03141772E-05
  -9.97000027       9.59919853E-05
  -9.96000004       1.01712700E-04
  -9.94999981       1.07337997E-04
  -9.93999958       1.12769500E-04
  -9.93000031       1.17951589E-04
  -9.92000008       1.22862766E-04
  -9.90999985       1.27499472E-04
  -9.89999962       1.31857727E-04
  -9.89000034       1.35919778E-04
  -9.88000011       1.39650598E-04
  -9.86999989       1.43008059E-04
  -9.85999966       1.45963873E-04
  -9.85000038       1.48531049E-04
  -9.84000015       1.50789187E-04
  -9.82999992       1.52899709E-04
  -9.81999969       1.55104819E-04
  -9.81000042       1.57709379E-04
  -9.80000019       1.61047166E-04
  -9.78999996       1.65439546E-04
  -9.77999973       1.71155261E-04
  -9.77000046       1.78380258E-04
  -9.76000023       1.87202779E-04
  -9.75000000       1.97616828E-04
  -9.73999977       2.09540463E-04
  -9.72999954       2.22843169E-04
  -9.72000027       2.37375323E-04
  -9.71000004       2.52991507E-04
  -9.69999981       2.69563083E-04
  -9.68999958       2.86978146E-04
  -9.68000031       3.05129535E-04
  -9.67000008       3.23895219E-04
  -9.65999985       3.43116233E-04
  -9.64999962       3.62577644E-04
  -9.64000034       3.81996710E-04
  -9.63000011       4.01021651E-04
  -9.61999989       4.19240765E-04
  -9.60999966       4.36200469E-04
  -9.60000038       4.51428670E-04
  -9.59000015       4.64459299E-04
  -9.57999992       4.74853499E-04
  -9.56999969       4.82215837E-04
  -9.56000042       4.86202800E-04
  -9.55000019       4.86525561E-04
  -9.53999996       4.82949166E-04
  -9.52999973       4.75291803E-04
  -9.52000046       4.63425647E-04
  -9.51000023       4.47283150E-04
  -9.50000000       4.26865357E-04
  -9.48999977       4.02253645E-04
  -9.47999954       3.73619347E-04
  -9.47000027       3.41230945E-04
  -9.46000004       3.05455498E-04
  -9.44999981       2.66756804E-04
  -9.43999958       2.25690179E-04
  -9.43000031       1.82895019E-04
  -9.42000008       1.39087337E-04
  -9.40999985       9.50496178E-05
  -9.39999962       5.16160981E-05
  -9.39000034       9.65053187E-06
  -9.38000011      -2.99851781E-05
  -9.36999989      -6.64704785E-05
  -9.35999966      -9.90680564E-05
  -9.35000038      -1.27159816E-04
  -9.34000015      -1.50270018E-04
  -9.32999992      -1.68067767E-04
  -9.31999969      -1.80348594E-04
  -9.31000042      -1.86999052E-04
  -9.30000019      -1.87955302E-04
  -9.28999996      -1.83168901E-04
  -9.27999973      -1.72589935E-04
  -9.27000046      -1.56174807E-04
  -9.26000023      -1.33914451E-04
  -9.25000000      -1.05874387E-04
  -9.23999977      -7.22322220E-05
  -9.22999954      -3.32981363E-05
  -9.22000027       1.04905939E-05
  -9.21000004       5.85996240E-05
  -9.19999981       1.10445893E-04
  -9.18999958       1.65446996E-04
  -9.18000031       2.23059207E-04
  -9.17000008       2.82790017E-04
  -9.15999985       3.44184606E-04
  -9.14999962       4.06793202E-04
  -9.14000034       4.70131432E-04
  -9.13000011       5.33651502E-04
  -9.11999989       5.96732367E-04
  -9.10999966       6.58698322E-04
  -9.10000038       7.18855881E-04
  -9.09000015       7.76539557E-04
  -9.07999992       8.31153186E-04
  -9.06999969       8.82191758E-04
  -9.06000042       9.29244386E-04
  -9.05000019       9.71977192E-04
  -9.03999996       1.01010967E-03
  -9.02999973       1.04339398E-03
  -9.02000046       1.07160734E-03
  -9.01000023       1.09456002E-03
  -9.00000000       1.11211312E-03
  -8.98999977       1.12419808E-03
  -8.97999954       1.13082572E-03
  -8.97000027       1.13207905E-03
  -8.96000004       1.12808822E-03
  -8.94999981       1.11899804E-03
  -8.93999958       1.10493461E-03
  -8.93000031       1.08598766E-03
  -8.92000008       1.06221228E-03
  -8.90999985       1.03365234E-03
  -8.89999962       1.00037816E-03
  -8.89000034       9.62523627E-04
  -8.88000011       9.20316612E-04
  -8.86999989       8.74086225E-04
  -8.85999966       8.24253366E-04
  -8.85000038       7.71306339E-04
  -8.84000015       7.15773145E-04
  -8.82999992       6.58201170E-04
  -8.81999969       5.99150138E-04
  -8.81000042       5.39198110E-04
  -8.80000019       4.78956325E-04
  -8.78999996       4.19081305E-04
  -8.77999973       3.60277016E-04
  -8.77000046       3.03279026E-04
  -8.76000023       2.48827942E-04
  -8.75000000       1.97632529E-04
  -8.73999977       1.50338659E-04
  -8.72999954       1.07510205E-04
  -8.72000027       6.96255738E-05
  -8.71000004       3.70929411E-05
  -8.69999981       1.02665845E-05
  -8.68999958      -1.05371792E-05
  -8.68000031      -2.50402973E-05
  -8.67000008      -3.30206240E-05
  -8.65999985      -3.43446591E-05
  -8.64999962      -2.90058724E-05
  -8.64000034      -1.71583961E-05
  -8.63000011       8.67204960E-07
  -8.61999989       2.45690590E-05
  -8.60999966       5.33010898E-05
  -8.60000038       8.63118912E-05
  -8.59000015       1.22784899E-04
  -8.57999992       1.61868709E-04
  -8.56999969       2.02695010E-04
  -8.56000042       2.44381896E-04
  -8.55000019       2.86035240E-04
  -8.53999996       3.26751528E-04
  -8.52999973       3.65639338E-04
  -8.52000046       4.01857251E-04
  -8.51000023       4.34664194E-04
  -8.50000000       4.63476055E-04
  -8.48999977       4.87908896E-04
  -8.47999954       5.07800316E-04
  -8.47000027       5.23200957E-04
  -8.46000004       5.34339284E-04
  -8.44999981       5.41570596E-04
  -8.43999958       5.45323361E-04
  -8.43000031       5.46059804E-04
  -8.42000008       5.44255774E-04
  -8.40999985       5.40403882E-04
  -8.39999962       5.35029685E-04
  -8.39000034       5.28707518E-04
  -8.38000011       5.22063463E-04
  -8.36999989       5.15756139E-04
  -8.35999966       5.10436948E-04
  -8.35000038       5.06696291E-04
  -8.34000015       5.05011762E-04
  -8.32999992       5.05710603E-04
  -8.31999969       5.08957717E-04
  -8.31000042       5.14769752E-04
  -8.30000019       5.23047405E-04
  -8.28999996       5.33614424E-04
  -8.27999973       5.46252297E-04
  -8.27000046       5.60715387E-04
  -8.26000023       5.76734776E-04
  -8.25000000       5.94011566E-04
  -8.23999977       6.12211123E-04
  -8.22999954       6.30971917E-04
  -8.22000027       6.49933470E-04
  -8.21000004       6.68776338E-04
  -8.19999981       6.87269785E-04
  -8.18999958       7.05312006E-04
  -8.18000031       7.22944038E-04
  -8.17000008       7.40341842E-04
  -8.15999985       7.57783186E-04
  -8.14999962       7.75603577E-04
  -8.14000034       7.94154475E-04
  -8.13000011       8.13779188E-04
  -8.11999989       8.34807055E-04
  -8.10999966       8.57564039E-04
  -8.10000038       8.82389431E-04
  -8.09000015       9.09638358E-04
  -8.07999992       9.39665362E-04
  -8.06999969       9.72784706E-04
  -8.06000042       1.00921770E-03
  -8.05000019       1.04904000E-03
  -8.03999996       1.09214964E-03
  -8.02999973       1.13826618E-03
  -8.02000046       1.18696352E-03
  -8.01000023       1.23772235E-03
  -8.00000000       1.28998456E-03
  -7.98999977       1.34319381E-03
  -7.98000002       1.39680412E-03
  -7.96999979       1.45026203E-03
  -7.96000004       1.50297268E-03
  -7.94999981       1.55426725E-03
  -7.94000006       1.60339882E-03
  -7.92999983       1.64957426E-03
  -7.92000008       1.69202022E-03
  -7.90999985       1.73006859E-03
  -7.90000010       1.76323229E-03
  -7.88999987       1.79125217E-03
  -7.88000011       1.81409298E-03
  -7.86999989       1.83189707E-03
  -7.86000013       1.84490718E-03
  -7.84999990       1.85338571E-03
  -7.84000015       1.85755931E-03
  -7.82999992       1.85760763E-03
  -7.82000017       1.85369246E-03
  -7.80999994       1.84600847E-03
  -7.80000019       1.83484296E-03
  -7.78999996       1.82060024E-03
  -7.78000021       1.80378975E-03
  -7.76999998       1.78497110E-03
  -7.76000023       1.76467758E-03
  -7.75000000       1.74333819E-03
  -7.73999977       1.72123767E-03
  -7.73000002       1.69851549E-03
  -7.71999979       1.67521823E-03
  -7.71000004       1.65137555E-03
  -7.69999981       1.62708038E-03
  -7.69000006       1.60253351E-03
  -7.67999983       1.57805206E-03
  -7.67000008       1.55402313E-03
  -7.65999985       1.53083273E-03
  -7.65000010       1.50879752E-03
  -7.63999987       1.48811471E-03
  -7.63000011       1.46886020E-03
  -7.61999989       1.45103631E-03
  -7.61000013       1.43464026E-03
  -7.59999990       1.41974038E-03
  -7.59000015       1.40652340E-03
  -7.57999992       1.39530259E-03
  -7.57000017       1.38648099E-03
  -7.55999994       1.38048059E-03
  -7.55000019       1.37767347E-03
  -7.53999996       1.37832738E-03
  -7.53000021       1.38258887E-03
  -7.51999998       1.39050139E-03
  -7.51000023       1.40204804E-03
  -7.50000000       1.41719321E-03
  -7.48999977       1.43591384E-03
  -7.48000002       1.45818922E-03
  -7.46999979       1.48396706E-03
  -7.46000004       1.51311303E-03
  -7.44999981       1.54537137E-03
  -7.44000006       1.58035080E-03