  -16.0000000       0.00000000    
  -15.9899998       0.00000000    
  -15.9799995       0.00000000    
  -15.9700003       0.00000000    
  -15.9600000       0.00000000    
  -15.9499998       0.00000000    
  -15.9399996       0.00000000    
  -15.9300003       0.00000000    
  -15.9200001       0.00000000    
  -15.9099998       0.00000000    
  -15.8999996       0.00000000    
  -15.8900003       0.00000000    
  -15.8800001       0.00000000    
  -15.8699999       0.00000000    
  -15.8599997       0.00000000    
  -15.8500004       0.00000000    
  -15.8400002       0.00000000    
  -15.8299999      -0.00000000    
  -15.8199997      -1.40129846E-45
  -15.8100004      -8.40779079E-45
  -15.8000002      -5.60519386E-44
  -15.7900000      -2.83062290E-43
  -15.7799997      -1.25696472E-42
  -15.7700005      -4.92416280E-42
  -15.7600002      -1.72639971E-41
  -15.7500000      -5.46660544E-41
  -15.7399998      -1.57318173E-40
  -15.7299995      -4.13195273E-40
  -15.7200003      -9.92571932E-40
  -15.7100000      -2.18015977E-39
  -15.6999998      -4.36404699E-39
  -15.6899996      -7.89711138E-39
  -15.6800003      -1.27044283E-38
  -15.6700001      -1.75185584E-38
  -15.6599998      -1.87698618E-38
  -15.6499996      -9.53684498E-39
  -15.6400003       2.04099486E-38
  -15.6300001       8.17615054E-38
  -15.6199999       1.78156311E-37
  -15.6099997       2.93405195E-37
  -15.6000004       3.76425627E-37
  -15.5900002       3.32664892E-37
  -15.5799999       3.67425782E-38
  -15.5699997      -6.17697116E-37
  -15.5600004      -1.62488561E-36
  -15.5500002      -2.75025805E-36
  -15.5400000      -3.44781017E-36
  -15.5299997      -2.90217620E-36
  -15.5200005      -2.84264268E-37
  -15.5100002       4.75861121E-36
  -15.5000000       1.14988882E-35
  -15.4899998       1.77055766E-35
  -15.4799995       1.98000817E-35
  -15.4700003       1.38969089E-35
  -15.4600000      -2.32877097E-36
  -15.4499998      -2.75601223E-35
  -15.4399996      -5.56293116E-35
  -15.4300003      -7.62618031E-35
  -15.4200001      -7.81187857E-35
  -15.4099998      -5.31849434E-35
  -15.3999996      -4.23996235E-37
  -15.3900003       7.33366532E-35
  -15.3800001       1.55625235E-34
  -15.3699999       2.31445838E-34
  -15.3599997       2.83989815E-34
  -15.3500004       2.92264285E-34
  -15.3400002       2.31016851E-34
  -15.3299999       8.25400507E-35
  -15.3199997      -1.36573066E-34
  -15.3100004      -3.53425027E-34
  -15.3000002      -4.70669040E-34
  -15.2900000      -5.05557804E-34
  -15.2799997      -8.23221010E-34
  -15.2700005      -2.29284655E-33
  -15.2600002      -6.00309684E-33
  -15.2500000      -1.21241237E-32
  -15.2399998      -1.78589933E-32
  -15.2299995      -1.53634437E-32
  -15.2200003       8.15945453E-33
  -15.2100000       6.50790172E-32
  -15.1999998       1.54489051E-31
  -15.1899996       2.43872501E-31
  -15.1800003       2.54772249E-31
  -15.1700001       7.01456388E-32
  -15.1599998      -4.16302641E-31
  -15.1499996      -1.19982088E-30
  -15.1400003      -2.03550106E-30
  -15.1300001      -2.34973685E-30
  -15.1199999      -1.30487612E-30
  -15.1099997       1.86805688E-30
  -15.1000004       7.23467007E-30
  -15.0900002       1.33723681E-29
  -15.0799999       1.68434656E-29
  -15.0699997       1.25463924E-29
  -15.0600004      -4.45534966E-30
  -15.0500002      -3.54738722E-29
  -15.0400000      -7.39034811E-29
  -15.0299997      -1.02148231E-28
  -15.0200005      -9.28358960E-29
  -15.0100002      -1.72919003E-29
  -15.0000000       1.37793667E-28
  -14.9899998       3.48869161E-28
  -14.9799995       5.38265834E-28
  -14.9700003       5.75027744E-28
  -14.9600000       3.07937637E-28
  -14.9499998      -3.62971157E-28
  -14.9399996      -1.38754605E-27
  -14.9300003      -2.47457442E-27
  -14.9200001      -3.06609742E-27
  -14.9099998      -2.44060834E-27
  -14.8999996       1.56150503E-29
  -14.8900003       4.39293488E-27
  -14.8800001       9.81725302E-27
  -14.8699999       1.42002374E-26
  -14.8599997       1.44495067E-26
  -14.8500004       7.35460569E-27
  -14.8400002      -8.83485156E-27
  -14.8299999      -3.24666491E-26
  -14.8199997      -5.69136334E-26
  -14.8100004      -7.04193142E-26
  -14.8000002      -5.84050304E-26
  -14.7900000      -8.76359754E-27
  -14.7799997       8.04564229E-26
  -14.7700005       1.93131047E-25
  -14.7600002       2.90606423E-25
  -14.7500000       3.15164994E-25
  -14.7399998       2.04994171E-25
  -14.7299995      -7.89249234E-26
  -14.7200003      -5.18995682E-25
  -14.7100000      -1.01176874E-24
  -14.6999998      -1.36012114E-24
  -14.6899996      -1.30443574E-24
  -14.6800003      -6.03389155E-25
  -14.6700001       8.41497255E-25
  -14.6599998       2.84763266E-24
  -14.6499996       4.85505194E-24
  -14.6400003       5.94333012E-24
  -14.6300001       5.02543564E-24
  -14.6199999       1.24030066E-24
  -14.6099997      -5.51239513E-24
  -14.6000004      -1.40521671E-23
  -14.5900002      -2.16590045E-23
  -14.5799999      -2.43536760E-23
  -14.5699997      -1.79169244E-23
  -14.5600004       3.68283806E-25
  -14.5500002       2.96047854E-23
  -14.5400000       6.35276692E-23
  -14.5299997       9.01031625E-23
  -14.5200005       9.34439821E-23
  -14.5100002       5.85266760E-23
  -14.5000000      -2.17718116E-23
  -14.4899998      -1.39097458E-22
  -14.4799995      -2.64507838E-22
  -14.4700003      -3.49412597E-22
  -14.4600000      -3.35463516E-22
  -14.4499998      -1.73987703E-22
  -14.4399996       1.48247841E-22
  -14.4300003       5.84551434E-22
  -14.4200001       1.01612817E-21
  -14.4099998       1.26369772E-21
  -14.3999996       1.13020236E-21
  -14.3900003       4.72537376E-22
  -14.3800001      -7.12872370E-22
  -14.3699999      -2.21899742E-21
  -14.3599997      -3.60773693E-21
  -14.3500004      -4.27269281E-21
  -14.3400002      -3.59936173E-21
  -14.3299999      -1.20416979E-21
  -14.3199997       2.80643055E-21
  -14.3100004       7.65028329E-21
  -14.3000002       1.18634106E-20
  -14.2900000       1.35557325E-20
  -14.2799997       1.09442102E-20
  -14.2700005       3.07775670E-21
  -14.2600002      -9.44207444E-21
  -14.2500000      -2.40209938E-20
  -14.2399998      -3.61954332E-20
  -14.2299995      -4.05040684E-20
  -14.2200003      -3.20839093E-20
  -14.2100000      -8.68752174E-21
  -14.1999998       2.74563250E-20
  -14.1899996       6.86796495E-20
  -14.1800003       1.02500893E-19
  -14.1700001       1.14209267E-19
  -14.1599998       9.12041007E-20
  -14.1499996       2.81842568E-20
  -14.1400003      -6.83412422E-20
  -14.1300001      -1.78041515E-19
  -14.1199999      -2.68815113E-19
  -14.1099997      -3.03577818E-19
  -14.1000004      -2.51043396E-19
  -14.0900002      -9.81393316E-20
  -14.0799999       1.39610006E-19
  -14.0699997       4.13860122E-19
  -14.0600004       6.48706314E-19
  -14.0500002       7.56590053E-19
  -14.0400000       6.62833060E-19
  -14.0299997       3.33355907E-19
  -14.0200005      -2.02439944E-19
  -14.0100002      -8.42322205E-19
  -14.0000000      -1.42212262E-18
  -13.9899998      -1.74893630E-18
  -13.9799995      -1.65216765E-18
  -13.9700003      -1.04124162E-18
  -13.9600000       4.60584731E-20
  -13.9499998       1.42166612E-18
  -13.9399996       2.76472567E-18
  -13.9300003       3.68255846E-18
  -13.9200001       3.80701233E-18
  -13.9099998       2.90576824E-18
  -13.8999996       9.79476247E-19
  -13.8900003      -1.68632617E-18
  -13.8800001      -4.53862049E-18
  -13.8699999      -6.85250109E-18
  -13.8599997      -7.89323947E-18
  -13.8500004      -7.11227261E-18
  -13.8400002      -4.32942528E-18
  -13.8299999       1.50509416E-19
  -13.8199997       5.52904851E-18
  -13.8100004       1.06327111E-17
  -13.8000002       1.41474487E-17
  -13.7900000       1.49248711E-17
  -13.7799997       1.22918121E-17
  -13.7700005       6.28539516E-18
  -13.7600002      -2.25420448E-18
  -13.7500000      -1.17725635E-17
  -13.7399998      -2.02692900E-17
  -13.7299995      -2.56996066E-17
  -13.7200003      -2.64270011E-17
  -13.7100000      -2.16268671E-17
  -13.6999998      -1.15465480E-17
  -13.6899996       2.44431189E-18
  -13.6800003       1.80343439E-17
  -13.6700001       3.23526881E-17
  -13.6599998       4.24800390E-17
  -13.6499996       4.59897234E-17
  -13.6400003       4.14165759E-17
  -13.6300001       2.85709606E-17
  -13.6199999       8.65005100E-18
  -13.6099997      -1.58614132E-17
  -13.6000004      -4.14745315E-17
  -13.5900002      -6.41169729E-17
  -13.5799999      -7.96397251E-17
  -13.5699997      -8.43656264E-17
  -13.5600004      -7.56450979E-17
  -13.5500002      -5.23869165E-17
  -13.5400000      -1.55199415E-17
  -13.5299997       3.16843096E-17
  -13.5200005       8.35288769E-17
  -13.5100002       1.32167329E-16
  -13.5000000       1.68344940E-16
  -13.4899998       1.82651895E-16
  -13.4799995       1.67227531E-16
  -13.4700003       1.17710025E-16
  -13.4600000       3.50798364E-17
  -13.4499998      -7.30609791E-17
  -13.4399996      -1.92247773E-16
  -13.4300003      -3.02318870E-16
  -13.4200001      -3.80120964E-16
  -13.4099998      -4.03547010E-16
  -13.3999996      -3.56323759E-16
  -13.3900003      -2.32643608E-16
  -13.3800001      -4.05646130E-17
  -13.3699999       1.96840120E-16
  -13.3599997       4.43281776E-16
  -13.3500004       6.54152481E-16
  -13.3400002       7.83986379E-16
  -13.3299999       7.95283575E-16
  -13.3199997       6.67015629E-16
  -13.3100004       4.00973751E-16
  -13.3000002       2.43700991E-17
  -13.2900000      -4.12245747E-16
  -13.2799997      -8.41775255E-16
  -13.2700005      -1.19107973E-15
  -13.2600002      -1.39337015E-15
  -13.2500000      -1.40015552E-15
  -13.2399998      -1.19044721E-15
  -13.2299995      -7.75444422E-16
  -13.2200003      -1.97866036E-16
  -13.2100000       4.73798096E-16
  -13.1999998       1.15483180E-15
  -13.1899996       1.75568225E-15
  -13.1800003       2.19310637E-15
  -13.1700001       2.39936567E-15
  -13.1599998       2.32854905E-15
  -13.1499996       1.96003530E-15
  -13.1400003       1.29988408E-15
  -13.1300001       3.81294369E-16
  -13.1199999      -7.34934595E-16
  -13.1099997      -1.95971936E-15
  -13.1000004      -3.17560995E-15
  -13.0900002      -4.23907676E-15
  -13.0799999      -4.98747314E-15
  -13.0699997      -5.25273506E-15
  -13.0600004      -4.88273032E-15
  -13.0500002      -3.76925215E-15
  -13.0400000      -1.87933191E-15
  -13.0299997       7.15636432E-16
  -13.0200005       3.81986702E-15
  -13.0100002       7.10925595E-15
  -13.0000000       1.01490293E-14
  -12.9899998       1.24353983E-14
  -12.9799995       1.34593722E-14
  -12.9700003       1.27862800E-14
  -12.9600000       1.01403244E-14
  -12.9499998       5.48066612E-15
  -12.9399996      -9.45162455E-16
  -12.9300003      -8.58307040E-15
  -12.9200001      -1.65979697E-14
  -12.9099998      -2.39456316E-14
  -12.8999996      -2.94865857E-14
  -12.8900003      -3.21307820E-14
  -12.8800001      -3.09961170E-14
  -12.8699999      -2.55600205E-14
  -12.8599997      -1.57823312E-14
  -12.8500004      -2.17955723E-15
  -12.8400002       1.41647583E-14
  -12.8299999       3.16614139E-14
  -12.8199997       4.83480308E-14
  -12.8100004       6.20825277E-14
  -12.8000002       7.07786829E-14
  -12.7900000       7.26581610E-14
  -12.7799997       6.64893420E-14
  -12.7700005       5.17831492E-14
  -12.7600002       2.89199579E-14
  -12.7500000      -8.10696716E-16
  -12.7399998      -3.52656035E-14
  -12.7299995      -7.15945654E-14
  -12.7200003      -1.06463341E-13
  -12.7100000      -1.36329370E-13
  -12.6999998      -1.57741414E-13
  -12.6899996      -1.67634800E-13
  -12.6800003      -1.63596838E-13
  -12.6700001      -1.44084994E-13
  -12.6599998      -1.08587991E-13
  -12.6499996      -5.77279178E-14
  -12.6400003       6.69361053E-15
  -12.6300001       8.16996685E-14
  -12.6199999       1.63188121E-13
  -12.6099997       2.46025720E-13
  -12.6000004       3.24187996E-13
  -12.5900002       3.90948856E-13
  -12.5799999       4.39124919E-13
  -12.5699997       4.61379741E-13
  -12.5600004       4.50592146E-13
  -12.5500002       4.00291372E-13
  -12.5400000       3.05164314E-13
  -12.5299997       1.61639379E-13
  -12.5200005      -3.14453968E-14
  -12.5100002      -2.72090401E-13
  -12.5000000      -5.54303782E-13
  -12.4899998      -8.67220737E-13
  -12.4799995      -1.19422777E-12
  -12.4700003      -1.51218111E-12
  -12.4600000      -1.79084080E-12
  -12.4499998      -1.99266493E-12
  -12.4399996      -2.07312379E-12
  -12.4300003      -1.98166136E-12
  -12.4200001      -1.66340661E-12
  -12.4099998      -1.06165998E-12
  -12.3999996      -1.21093307E-13
  -12.3900003       1.20846833E-12
  -12.3800001       2.96791888E-12
  -12.3699999       5.18465956E-12
  -12.3599997       7.86863717E-12
  -12.3500004       1.10089160E-11
  -12.3400002       1.45710839E-11
  -12.3299999       1.84956894E-11
  -12.3199997       2.26978974E-11
  -12.3100004       2.70684638E-11
  -12.3000002       3.14759503E-11
  -12.2900000       3.57702756E-11
  -12.2799997       3.97873505E-11
  -12.2700005       4.33546879E-11
  -12.2600002       4.62977191E-11
  -12.2500000       4.84464933E-11
  -12.2399998       4.96424672E-11
  -12.2299995       4.97449165E-11
  -12.2200003       4.86366884E-11
  -12.2100000       4.62289443E-11
  -12.1999998       4.24644694E-11
  -12.1899996       3.73195502E-11
  -12.1800003       3.08042168E-11
  -12.1700001       2.29610393E-11
  -12.1599998       1.38624563E-11
  -12.1499996       3.60716773E-12
  -12.1400003      -7.68425861E-12
  -12.1300001      -1.98740503E-11
  -12.1199999      -3.28119441E-11
  -12.1099997      -4.63392970E-11
  -12.1000004      -6.02925904E-11
  -12.0900002      -7.45060472E-11
  -12.0799999      -8.88130056E-11
  -12.0699997      -1.03046592E-10
  -12.0600004      -1.17039295E-10
  -12.0500002      -1.30622166E-10
  -12.0400000      -1.43623544E-10
  -12.0299997      -1.55868346E-10
  -12.0200005      -1.67177397E-10
  -12.0100002      -1.77368009E-10
  -12.0000000      -1.86255275E-10
  -11.9899998      -1.93654717E-10
  -11.9799995      -1.99385480E-10
  -11.9700003      -2.03274481E-10
  -11.9600000      -2.05160541E-10
  -11.9499998      -2.04898862E-10
  -11.9399996      -2.02364750E-10
  -11.9300003      -1.97456634E-10
  -11.9200001      -1.90098715E-10
  -11.9099998      -1.80242404E-10
  -11.8999996      -1.67867414E-10
  -11.8900003      -1.52981933E-10
  -11.8800001      -1.35622527E-10
  -11.8699999      -1.15853868E-10
  -11.8599997      -9.37677158E-11
  -11.8500004      -6.94818786E-11
  -11.8400002      -4.31386663E-11
  -11.8299999      -1.49031724E-11
  -11.8199997       1.50389666E-11
  -11.8100004       4.64835531E-11
  -11.8000002       7.92104576E-11
  -11.7900000       1.12985697E-10
  -11.7799997       1.47563531E-10
  -11.7700005       1.82688240E-10
  -11.7600002       2.18095528E-10
  -11.7500000       2.53514126E-10
  -11.7399998       2.88666563E-10
  -11.7299995       3.23271021E-10
  -11.7200003       3.57042590E-10
  -11.7100000       3.89695137E-10
  -11.6999998       4.20942808E-10
  -11.6899996       4.50501997E-10
  -11.6800003       4.78093454E-10
  -11.6700001       5.03443898E-10
  -11.6599998       5.26287347E-10
  -11.6499996       5.46366674E-10
  -11.6400003       5.63434854E-10
  -11.6300001       5.77255743E-10
  -11.6199999       5.87604798E-10
  -11.6099997       5.94270189E-10
  -11.6000004       5.97052907E-10
  -11.5900002       5.95766603E-10
  -11.5799999       5.90238747E-10
  -11.5699997       5.80310189E-10
  -11.5600004       5.65835545E-10
  -11.5500002       5.46683587E-10
  -11.5400000       5.22740462E-10
  -11.5299997       4.93910080E-10
  -11.5200005       4.60119109E-10
  -11.5100002       4.21320340E-10
  -11.5000000       3.77497672E-10
  -11.4899998       3.28670424E-10
  -11.4799995       2.74895634E-10
  -11.4700003       2.16271751E-10
  -11.4600000       1.52936178E-10
  -11.4499998       8.50641016E-11
  -11.4399996       1.28625669E-11
  -11.4300003      -6.34353542E-11
  -11.4200001      -1.43578982E-10
  -11.4099998      -2.27306757E-10
  -11.3999996      -3.14354431E-10
  -11.3900003      -4.04459938E-10
  -11.3800001      -4.97367481E-10
  -11.3699999      -5.92831229E-10
  -11.3599997      -6.90613455E-10
  -11.3500004      -7.90486621E-10
  -11.3400002      -8.92229679E-10
  -11.3299999      -9.95627136E-10
  -11.3199997      -1.10046749E-09
  -11.3100004      -1.20654076E-09
  -11.3000002      -1.31363687E-09
  -11.2900000      -1.42154677E-09
  -11.2799997      -1.53005852E-09
  -11.2700005      -1.63895897E-09
  -11.2600002      -1.74803372E-09
  -11.2500000      -1.85706583E-09
  -11.2399998      -1.96583860E-09
  -11.2299995      -2.07413575E-09
  -11.2200003      -2.18174390E-09
  -11.2100000      -2.28845565E-09
  -11.1999998      -2.39407072E-09
  -11.1899996      -2.49840038E-09
  -11.1800003      -2.60127009E-09
  -11.1700001      -2.70252110E-09
  -11.1599998      -2.80201129E-09
  -11.1499996      -2.89961877E-09
  -11.1400003      -2.99523650E-09
  -11.1300001      -3.08877746E-09
  -11.1199999      -3.18016902E-09
  -11.1099997      -3.26935545E-09
  -11.1000004      -3.35629324E-09
  -11.0900002      -3.44095463E-09
  -11.0799999      -3.52332563E-09
  -11.0699997      -3.60340557E-09
  -11.0600004      -3.68120534E-09
  -11.0500002      -3.75675091E-09
  -11.0400000      -3.83008159E-09
  -11.0299997      -3.90124155E-09
  -11.0200005      -3.97028987E-09
  -11.0100002      -4.03728473E-09
  -11.0000000      -4.10228651E-09
  -10.9899998      -4.16535162E-09
  -10.9799995      -4.22652713E-09
  -10.9700003      -4.28584723E-09
  -10.9600000      -4.34332748E-09
  -10.9499998      -4.39896652E-09
  -10.9399996      -4.45274662E-09
  -10.9300003      -4.50462467E-09
  -10.9200001      -4.55454474E-09
  -10.9099998      -4.60243621E-09
  -10.8999996      -4.64821825E-09
  -10.8900003      -4.69180650E-09
  -10.8800001      -4.73310813E-09
  -10.8699999      -4.77202899E-09
  -10.8599997      -4.80848295E-09
  -10.8500004      -4.84238249E-09
  -10.8400002      -4.87363971E-09
  -10.8299999      -4.90217111E-09
  -10.8199997      -4.92790520E-09
  -10.8100004      -4.95076735E-09
  -10.8000002      -4.97069452E-09
  -10.7900000      -4.98763564E-09
  -10.7799997      -5.00155073E-09
  -10.7700005      -5.01241448E-09
  -10.7600002      -5.02021580E-09
  -10.7500000      -5.02497821E-09
  -10.7399998      -5.02672970E-09
  -10.7299995      -5.02552133E-09
  -10.7200003      -5.02142905E-09
  -10.7100000      -5.01454256E-09
  -10.6999998      -5.00495645E-09
  -10.6899996      -4.99277863E-09
  -10.6800003      -4.97812858E-09
  -10.6700001      -4.96113284E-09
  -10.6599998      -4.94191799E-09
  -10.6499996      -4.92061636E-09
  -10.6400003      -4.89737539E-09
  -10.6300001      -4.87233809E-09
  -10.6199999      -4.84567808E-09
  -10.6099997      -4.81757922E-09
  -10.6000004      -4.78823159E-09
  -10.5900002      -4.75785544E-09
  -10.5799999      -4.72668438E-09
  -10.5699997      -4.69496575E-09
  -10.5600004      -4.66294114E-09
  -10.5500002      -4.63087391E-09
  -10.5400000      -4.59901228E-09
  -10.5299997      -4.56759341E-09
  -10.5200005      -4.53683580E-09
  -10.5100002      -4.50694948E-09
  -10.5000000      -4.47811299E-09
  -10.4899998      -4.45048975E-09
  -10.4799995      -4.42422809E-09
  -10.4700003      -4.39945058E-09
  -10.4600000      -4.37627401E-09
  -10.4499998      -4.35479253E-09
  -10.4399996      -4.33511316E-09
  -10.4300003      -4.31731895E-09
  -10.4200001      -4.30149294E-09
  -10.4099998      -4.28771640E-09
  -10.3999996      -4.27607239E-09
  -10.3900003      -4.26663060E-09
  -10.3800001      -4.25947899E-09
  -10.3699999      -4.25466240E-09
  -10.3599997      -4.25224123E-09
  -10.3500004      -4.25223901E-09
  -10.3400002      -4.25466640E-09
  -10.3299999      -4.25951052E-09
  -10.3199997      -4.26673319E-09
  -10.3100004      -4.27626867E-09
  -10.3000002      -4.28804681E-09
  -10.2900000      -4.30198410E-09
  -10.2799997      -4.31798952E-09
  -10.2700005      -4.33598935E-09
  -10.2600002      -4.35592407E-09
  -10.2500000      -4.37774972E-09
  -10.2399998      -4.40145964E-09
  -10.2299995      -4.42705561E-09
  -10.2200003      -4.45459136E-09
  -10.2100000      -4.48412285E-09
  -10.1999998      -4.51573268E-09
  -10.1899996      -4.54952254E-09
  -10.1800003      -4.58559102E-09
  -10.1700001      -4.62407312E-09
  -10.1599998      -4.66508032E-09
  -10.1499996      -4.70872985E-09
  -10.1400003      -4.75515494E-09
  -10.1300001      -4.80448570E-09
  -10.1199999      -4.85686247E-09
  -10.1099997      -4.91242425E-09
  -10.1000004      -4.97135533E-09
  -10.0900002      -5.03383202E-09
  -10.0799999      -5.10005060E-09
  -10.0699997      -5.17023757E-09
  -10.0600004      -5.24463495E-09
  -10.0500002      -5.32347721E-09
  -10.0400000      -5.40701661E-09
  -10.0299997      -5.49551471E-09
  -10.0200005      -5.58919666E-09
  -10.0100002      -5.68831648E-09
  -10.0000000      -5.79308868E-09
  -9.98999977      -5.90371441E-09
  -9.97999954      -6.02035666E-09
  -9.97000027      -6.14316420E-09
  -9.96000004      -6.27222851E-09
  -9.94999981      -6.40764419E-09
  -9.93999958      -6.54944898E-09
  -9.93000031      -6.69765221E-09
  -9.92000008      -6.85225032E-09
  -9.90999985      -7.01323044E-09
  -9.89999962      -7.18052995E-09
  -9.89000034      -7.35410444E-09
  -9.88000011      -7.53388907E-09
  -9.86999989      -7.71979281E-09
  -9.85999966      -7.91174770E-09
  -9.85000038      -8.10965872E-09
  -9.84000015      -8.31341662E-09
  -9.82999992      -8.52291127E-09
  -9.81999969      -8.73803963E-09
  -9.81000042      -8.95866403E-09
  -9.80000019      -9.18464416E-09
  -9.78999996      -9.41584677E-09
  -9.77999973      -9.65215374E-09
  -9.77000046      -9.89340698E-09
  -9.76000023      -1.01395132E-08
  -9.75000000      -1.03903215E-08
  -9.73999977      -1.06457314E-08
  -9.72999954      -1.09056320E-08
  -9.72000027      -1.11699121E-08
  -9.71000004      -1.14384688E-08
  -9.69999981      -1.17112053E-08
  -9.68999958      -1.19880079E-08
  -9.68000031      -1.22687762E-08
  -9.67000008      -1.25533903E-08
  -9.65999985      -1.28417170E-08
  -9.64999962      -1.31336098E-08
  -9.64000034      -1.34288802E-08
  -9.63000011      -1.37272869E-08
  -9.61999989      -1.40285801E-08
  -9.60999966      -1.43324632E-08
  -9.60000038      -1.46385819E-08
  -9.59000015      -1.49465631E-08
  -9.57999992      -1.52559458E-08
  -9.56999969      -1.55662470E-08
  -9.56000042      -1.58769353E-08
  -9.55000019      -1.61874372E-08
  -9.53999996      -1.64971308E-08
  -9.52999973      -1.68053518E-08
  -9.52000046      -1.71114447E-08
  -9.51000023      -1.74146599E-08
  -9.50000000      -1.77143278E-08
  -9.48999977      -1.80097359E-08
  -9.47999954      -1.83002093E-08
  -9.47000027      -1.85851246E-08
  -9.46000004      -1.88639184E-08
  -9.44999981      -1.91361149E-08
  -9.43999958      -1.94013410E-08
  -9.43000031      -1.96593231E-08
  -9.42000008      -1.99099119E-08
  -9.40999985      -2.01530561E-08
  -9.39999962      -2.03889012E-08
  -9.39000034      -2.06176782E-08
  -9.38000011      -2.08397832E-08
  -9.36999989      -2.10557456E-08
  -9.35999966      -2.12662279E-08
  -9.35000038      -2.14720277E-08
  -9.34000015      -2.16740954E-08
  -9.32999992      -2.18734524E-08
  -9.31999969      -2.20712959E-08
  -9.31000042      -2.22688623E-08
  -9.30000019      -2.24675123E-08
  -9.28999996      -2.26686563E-08
  -9.27999973      -2.28737456E-08
  -9.27000046      -2.30842598E-08
  -9.26000023      -2.33016557E-08
  -9.25000000      -2.35274165E-08
  -9.23999977      -2.37629045E-08
  -9.22999954      -2.40095286E-08
  -9.22000027      -2.42685196E-08
  -9.21000004      -2.45410341E-08
  -9.19999981      -2.48281271E-08
  -9.18999958      -2.51306975E-08
  -9.18000031      -2.54494985E-08
  -9.17000008      -2.57851287E-08
  -9.15999985      -2.61380304E-08
  -9.14999962      -2.65084168E-08
  -9.14000034      -2.68963962E-08
  -9.13000011      -2.73018248E-08
  -9.11999989      -2.77244165E-08
  -9.10999966      -2.81636900E-08
  -9.10000038      -2.86189756E-08
  -9.09000015      -2.90894899E-08
  -9.07999992      -2.95742772E-08
  -9.06999969      -3.00722789E-08
  -9.06000042      -3.05822851E-08
  -9.05000019      -3.11029993E-08
  -9.03999996      -3.16330429E-08
  -9.02999973      -3.21708491E-08
  -9.02000046      -3.27149223E-08
  -9.01000023      -3.32636318E-08
  -9.00000000      -3.38153150E-08
  -8.98999977      -3.43682807E-08
  -8.97999954      -3.49208875E-08
  -8.97000027      -3.54713983E-08
  -8.96000004      -3.60182355E-08
  -8.94999981      -3.65597934E-08
  -8.93999958      -3.70944200E-08
  -8.93000031      -3.76206835E-08
  -8.92000008      -3.81370491E-08
  -8.90999985      -3.86420993E-08
  -8.89999962      -3.91345338E-08
  -8.89000034      -3.96131163E-08
  -8.88000011      -4.00767490E-08
  -8.86999989      -4.05243910E-08
  -8.85999966      -4.09552463E-08
  -8.85000038      -4.13685370E-08
  -8.84000015      -4.17637906E-08
  -8.82999992      -4.21404422E-08
  -8.81999969      -4.24983106E-08
  -8.81000042      -4.28372537E-08
  -8.80000019      -4.31572218E-08
  -8.78999996      -4.34584315E-08
  -8.77999973      -4.37411813E-08
  -8.77000046      -4.40059615E-08
  -8.76000023      -4.42533192E-08
  -8.75000000      -4.44841000E-08
  -8.73999977      -4.46992274E-08
  -8.72999954      -4.48996751E-08
  -8.72000027      -4.50866473E-08
  -8.71000004      -4.52614017E-08
  -8.69999981      -4.54253168E-08
  -8.68999958      -4.55798528E-08
  -8.68000031      -4.57266260E-08
  -8.67000008      -4.58670897E-08
  -8.65999985      -4.60028886E-08
  -8.64999962      -4.61357104E-08
  -8.64000034      -4.62670151E-08
  -8.63000011      -4.63984442E-08
  -8.61999989      -4.65315111E-08
  -8.60999966      -4.66676937E-08
  -8.60000038      -4.68082710E-08
  -8.59000015      -4.69545434E-08
  -8.57999992      -4.71076227E-08
  -8.56999969      -4.72685358E-08
  -8.56000042      -4.74382276E-08
  -8.55000019      -4.76174193E-08
  -8.53999996      -4.78068856E-08
  -8.52999973      -4.80071201E-08
  -8.52000046      -4.82186167E-08
  -8.51000023      -4.84416134E-08
  -8.50000000      -4.86764478E-08
  -8.48999977      -4.89231446E-08
  -8.47999954      -4.91818852E-08
  -8.47000027      -4.94525096E-08
  -8.46000004      -4.97349255E-08
  -8.44999981      -5.00289836E-08
  -8.43999958      -5.03345596E-08
  -8.43000031      -5.06515292E-08
  -8.42000008      -5.09796330E-08
  -8.40999985      -5.13187111E-08
  -8.39999962      -5.16688168E-08
  -8.39000034      -5.20299182E-08
  -8.38000011      -5.24020294E-08
  -8.36999989      -5.27853281E-08
  -8.35999966      -5.31799778E-08
  -8.35000038      -5.35863087E-08
  -8.34000015      -5.40048504E-08
  -8.32999992      -5.44360859E-08
  -8.31999969      -5.48805232E-08
  -8.31000042      -5.53388944E-08
  -8.30000019      -5.58118529E-08
  -8.28999996      -5.63001166E-08
  -8.27999973      -5.68045913E-08
  -8.27000046      -5.73261048E-08
  -8.26000023      -5.78654671E-08
  -8.25000000      -5.84234989E-08
  -8.23999977      -5.90010245E-08
  -8.22999954      -5.95987260E-08
  -8.22000027      -6.02174381E-08
  -8.21000004      -6.08577295E-08
  -8.19999981      -6.15203248E-08
  -8.18999958      -6.22055083E-08
  -8.18000031      -6.29139478E-08
  -8.17000008      -6.36457571E-08
  -8.15999985      -6.44012701E-08
  -8.14999962      -6.51807071E-08
  -8.14000034      -6.59841248E-08
  -8.13000011      -6.68114311E-08
  -8.11999989      -6.76625262E-08
  -8.10999966      -6.85370836E-08
  -8.10000038      -6.94348330E-08
  -8.09000015      -7.03552985E-08
  -8.07999992      -7.12979897E-08
  -8.06999969      -7.22622602E-08
  -8.06000042      -7.32475485E-08
  -8.05000019      -7.42530375E-08
  -8.03999996      -7.52779670E-08
  -8.02999973      -7.63215411E-08
  -8.02000046      -7.73828361E-08
  -8.01000023      -7.84607224E-08
  -8.00000000      -7.95543045E-08
  -7.98999977      -8.06626304E-08
  -7.98000002      -8.17844068E-08
  -7.96999979      -8.29184970E-08
  -7.96000004      -8.40637639E-08
  -7.94999981      -8.52188649E-08
  -7.94000006      -8.63826415E-08
  -7.92999983      -8.75538930E-08
  -7.92000008      -8.87313476E-08
  -7.90999985      -8.99137618E-08
  -7.90000010      -9.10999916E-08
  -7.88999987      -9.22887935E-08
  -7.88000011      -9.34790449E-08
  -7.86999989      -9.46697298E-08
  -7.86000013      -9.58598108E-08
  -7.84999990      -9.70483782E-08
  -7.84000015      -9.82345014E-08
  -7.82999992      -9.94175053E-08
  -7.82000017      -1.00596644E-07
  -7.80999994      -1.01771235E-07
  -7.80000019      -1.02940632E-07
  -7.78999996      -1.04104508E-07
  -7.78000021      -1.05262352E-07
  -7.76999998      -1.06413786E-07
  -7.76000023      -1.07558733E-07
  -7.75000000      -1.08696725E-07
  -7.73999977      -1.09828164E-07
  -7.73000002      -1.10952556E-07
  -7.71999979      -1.12069962E-07
  -7.71000004      -1.13180761E-07
  -7.69999981      -1.14284830E-07
  -7.69000006      -1.15382711E-07
  -7.67999983      -1.16474610E-07
  -7.67000008      -1.17560909E-07
  -7.65999985      -1.18642447E-07
  -7.65000010      -1.19719843E-07
  -7.63999987      -1.20793814E-07
  -7.63000011      -1.21865469E-07
  -7.61999989      -1.22935603E-07
  -7.61000013      -1.24005808E-07
  -7.59999990      -1.25076866E-07
  -7.59000015      -1.26150240E-07
  -7.57999992      -1.27227622E-07
  -7.57000017      -1.28310447E-07
  -7.55999994      -1.29400348E-07
  -7.55000019      -1.30498861E-07
  -7.53999996      -1.31607806E-07
  -7.53000021      -1.32728957E-07
  -7.51999998      -1.33864020E-07
  -7.51000023      -1.35014915E-07
  -7.50000000      -1.36183431E-07
  -7.48999977      -1.37371259E-07
  -7.48000002      -1.38580305E-07
  -7.46999979      -1.39811874E-07
  -7.46000004      -1.41067758E-07
  -7.44999981      -1.42349563E-07
  -7.44000006      -1.43658440E-07