  -16.0000000       0.00000000    
  -15.9899998       0.00000000    
  -15.9799995       0.00000000    
  -15.9700003       0.00000000    
  -15.9600000       0.00000000    
  -15.9499998       0.00000000    
  -15.9399996       0.00000000    
  -15.9300003       0.00000000    
  -15.9200001       0.00000000    
  -15.9099998       0.00000000    
  -15.8999996       0.00000000    
  -15.8900003       0.00000000    
  -15.8800001       2.93092784E-40
  -15.8699999       3.27994925E-39
  -15.8599997       9.68637754E-39
  -15.8500004      -6.44181949E-38
  -15.8400002      -7.93025966E-37
  -15.8299999      -4.13361039E-36
  -15.8199997      -1.32065441E-35
  -15.8100004      -2.42113753E-35
  -15.8000002       7.11191167E-37
  -15.7900000       1.75599697E-34
  -15.7799997       6.84113514E-34
  -15.7700005       1.58780744E-33
  -15.7600002       2.39934817E-33
  -15.7500000       1.84391295E-33
  -15.7399998      -1.16961265E-33
  -15.7299995      -5.13736251E-33
  -15.7200003      -6.17399314E-33
  -15.7100000      -1.07447729E-32
  -15.6999998      -6.41267551E-32
  -15.6899996      -2.52896913E-31
  -15.6800003      -5.52151561E-31
  -15.6700001      -3.53051829E-31
  -15.6599998       2.21417639E-30
  -15.6499996       1.01448405E-29
  -15.6400003       2.42572893E-29
  -15.6300001       3.41860510E-29
  -15.6199999       5.53223866E-30
  -15.6099997      -1.22649261E-28
  -15.6000004      -3.98457259E-28
  -15.5900002      -7.39775788E-28
  -15.5799999      -7.47514945E-28
  -15.5699997       4.12370297E-28
  -15.5600004       3.72510597E-27
  -15.5500002       9.20260403E-27
  -15.5400000       1.37861748E-26
  -15.5299997       9.22588775E-27
  -15.5200005      -1.72708692E-26
  -15.5100002      -7.52436362E-26
  -15.5000000      -1.52771308E-25
  -15.4899998      -1.91619392E-25
  -15.4799995      -7.38736067E-26
  -15.4700003       3.44955389E-25
  -15.4600000       1.11719645E-24
  -15.4499998       1.99210966E-24
  -15.4399996       2.19572412E-24
  -15.4300003       4.19663007E-25
  -15.4200001      -4.65554980E-24
  -15.4099998      -1.30459813E-23
  -15.3999996      -2.15209538E-23
  -15.3900003      -2.20282418E-23
  -15.3800001      -2.49075692E-24
  -15.3699999       4.75642862E-23
  -15.3599997       1.25287937E-22
  -15.3500004       1.99304925E-22
  -15.3400002       1.99964312E-22
  -15.3299999       3.02869450E-23
  -15.3199997      -3.86324572E-22
  -15.3100004      -1.01722788E-21
  -15.3000002      -1.61490738E-21
  -15.2900000      -1.66046340E-21
  -15.2799997      -4.57195356E-22
  -15.2700005       2.53077746E-21
  -15.2600002       7.08601041E-21
  -15.2500000       1.15663995E-20
  -15.2399998       1.25735678E-20
  -15.2299995       5.56164174E-21
  -15.2200003      -1.30868301E-20
  -15.2100000      -4.25183953E-20
  -15.1999998      -7.34418188E-20
  -15.1899996      -8.60890355E-20
  -15.1800003      -5.33742782E-20
  -15.1700001       4.79431815E-20
  -15.1599998       2.18076191E-19
  -15.1499996       4.12310813E-19
  -15.1400003       5.28257495E-19
  -15.1300001       4.18708228E-19
  -15.1199999      -5.54822930E-20
  -15.1099997      -9.31022489E-19
  -15.1000004      -2.02960220E-18
  -15.0900002      -2.88116520E-18
  -15.0799999      -2.75975101E-18
  -15.0699997      -9.02860194E-19
  -15.0600004       3.06773661E-18
  -15.0500002       8.61101635E-18
  -15.0400000       1.38398475E-17
  -15.0299997       1.55328290E-17
  -15.0200005       9.91436017E-18
  -15.0100002      -5.65736573E-18
  -15.0000000      -3.03622368E-17
  -14.9899998      -5.77689374E-17
  -14.9799995      -7.51731153E-17
  -14.9700003      -6.58467730E-17
  -14.9600000      -1.50447196E-17
  -14.9499998       8.08135077E-17
  -14.9399996       2.04446013E-16
  -14.9300003       3.12210097E-16
  -14.9200001       3.38454619E-16
  -14.9099998       2.13990672E-16
  -14.8999996      -1.01509560E-16
  -14.8900003      -5.80539124E-16
  -14.8800001      -1.09746787E-15
  -14.8699999      -1.42732167E-15
  -14.8599997      -1.29214230E-15
  -14.8500004      -4.61372441E-16
  -14.8400002       1.10958733E-15
  -14.8299999       3.14608662E-15
  -14.8199997       4.99222246E-15
  -14.8100004       5.69019158E-15
  -14.8000002       4.24441645E-15
  -14.7900000       5.23561156E-17
  -14.7799997      -6.60252780E-15
  -14.7700005      -1.41848212E-14
  -14.7600002      -1.99005953E-14
  -14.7500000      -2.02434166E-14
  -14.7399998      -1.21405029E-14
  -14.7299995       5.49364351E-15
  -14.7200003       3.02635622E-14
  -14.7100000       5.55318934E-14
  -14.6999998       7.10770689E-14
  -14.6899996       6.55798996E-14
  -14.6800003       3.07696678E-14
  -14.6700001      -3.37154485E-14
  -14.6599998      -1.16430818E-13
  -14.6499996      -1.93228842E-13
  -14.6400003      -2.31079235E-13
  -14.6300001      -1.97155538E-13
  -14.6199999      -7.18475640E-14
  -14.6099997       1.37782716E-13
  -14.6000004       3.89217819E-13
  -14.5900002       6.05751506E-13
  -14.5799999       6.91422830E-13
  -14.5699997       5.59363645E-13
  -14.5600004       1.68030669E-13
  -14.5500002      -4.45351465E-13
  -14.5400000      -1.14778120E-12
  -14.5299997      -1.72241702E-12
  -14.5200005      -1.91569221E-12
  -14.5100002      -1.51499364E-12
  -14.5000000      -4.39394804E-13
  -14.4899998       1.18487446E-12
  -14.4799995       2.99654724E-12
  -14.4700003       4.44486722E-12
  -14.4600000       4.91646264E-12
  -14.4499998       3.92499618E-12
  -14.4399996       1.31713249E-12
  -14.4300003      -2.57149488E-12
  -14.4200001      -6.87885643E-12
  -14.4099998      -1.03450503E-11
  -14.3999996      -1.16105580E-11
  -14.3900003      -9.63117433E-12
  -14.3800001      -4.10271817E-12
  -14.3699999       4.24255769E-12
  -14.3599997       1.35981573E-11
  -14.3500004       2.13806906E-11
  -14.3400002       2.48466317E-11
  -14.3299999       2.19042562E-11
  -14.3199997       1.19050958E-11
  -14.3100004      -3.84097181E-12
  -14.3000002      -2.20471124E-11
  -14.2900000      -3.80327887E-11
  -14.2799997      -4.68425264E-11
  -14.2700005      -4.46517059E-11
  -14.2600002      -3.00764205E-11
  -14.2500000      -4.97037307E-12
  -14.2399998       2.56135876E-11
  -14.2299995       5.44068991E-11
  -14.2200003       7.36835384E-11
  -14.2100000       7.73591191E-11
  -14.1999998       6.28370828E-11
  -14.1899996       3.20203482E-11
  -14.1800003      -8.89173717E-12
  -14.1700001      -5.08540363E-11
  -14.1599998      -8.43128692E-11
  -14.1499996      -1.01756492E-10
  -14.1400003      -9.96898744E-11
  -14.1300001      -7.93875243E-11
  -14.1199999      -4.61572169E-11
  -14.1099997      -7.35299408E-12
  -14.1000004       3.01582509E-11
  -14.0900002       6.21226265E-11
  -14.0799999       8.77484960E-11
  -14.0699997       1.08840700E-10
  -14.0600004       1.27445263E-10
  -14.0500002       1.42905646E-10
  -14.0400000       1.49662324E-10
  -14.0299997       1.37102843E-10
  -14.0200005       9.22140975E-11
  -14.0100002       4.80913313E-12
  -14.0000000      -1.26017655E-10
  -13.9899998      -2.86424134E-10
  -13.9799995      -4.45812387E-10
  -13.9700003      -5.60159585E-10
  -13.9600000      -5.81172332E-10
  -13.9499998      -4.69861705E-10
  -13.9399996      -2.11302517E-10
  -13.9300003       1.73817322E-10
  -13.9200001       6.25222762E-10
  -13.9099998       1.04959819E-09
  -13.8999996       1.33798861E-09
  -13.8900003       1.39121148E-09
  -13.8800001       1.14757104E-09
  -13.8699999       6.05546946E-10
  -13.8599997      -1.65586933E-10
  -13.8500004      -1.03188469E-09
  -13.8400002      -1.81823268E-09
  -13.8299999      -2.34516495E-09
  -13.8199997      -2.47082377E-09
  -13.8100004      -2.12765872E-09
  -13.8000002      -1.34391875E-09
  -13.7900000      -2.43271153E-10
  -13.7799997       9.78712666E-10
  -13.7700005       2.09630291E-09
  -13.7600002       2.90348057E-09
  -13.7500000       3.25915539E-09
  -13.7399998       3.11576853E-09
  -13.7299995       2.52360755E-09
  -13.7200003       1.60991032E-09
  -13.7100000       5.39181866E-10
  -13.6999998      -5.33068922E-10
  -13.6899996      -1.49861001E-09
  -13.6800003      -2.31428077E-09
  -13.6700001      -2.99298186E-09
  -13.6599998      -3.57029095E-09
  -13.6499996      -4.05788825E-09
  -13.6400003      -4.40101688E-09
  -13.6300001      -4.45824178E-09
  -13.6199999      -4.01690059E-09
  -13.6099997      -2.84762702E-09
  -13.6000004      -7.88615506E-10
  -13.5900002       2.16155005E-09
  -13.5799999       5.77088421E-09
  -13.5699997       9.54889590E-09
  -13.5600004       1.27887789E-08
  -13.5500002       1.46804036E-08
  -13.5400000       1.44782843E-08
  -13.5299997       1.16909487E-08
  -13.5200005       6.24708152E-09
  -13.5100002      -1.40664380E-09
  -13.5000000      -1.03095905E-08
  -13.4899998      -1.91051779E-08
  -13.4799995      -2.62582418E-08
  -13.4700003      -3.03319609E-08
  -13.4600000      -3.02674792E-08
  -13.4499998      -2.56057788E-08
  -13.4399996      -1.66025700E-08
  -13.4300003      -4.21084900E-09
  -13.4200001       1.00636068E-08
  -13.4099998       2.43993252E-08
  -13.3999996       3.69346793E-08
  -13.3900003       4.60227803E-08
  -13.3800001       5.04182722E-08
  -13.3699999       4.93729218E-08
  -13.3599997       4.26463878E-08
  -13.3500004       3.04641006E-08
  -13.3400002       1.34663303E-08
  -13.3299999      -7.31287653E-09
  -13.3199997      -3.04209173E-08
  -13.3100004      -5.39331566E-08
  -13.3000002      -7.54201892E-08
  -13.2900000      -9.20044485E-08
  -13.2799997      -1.00570496E-07
  -13.2700005      -9.81623529E-08
  -13.2600002      -8.25474373E-08
  -13.2500000      -5.28633599E-08
  -13.2399998      -1.02084687E-08
  -13.2299995       4.19908552E-08
  -13.2200003       9.79908634E-08
  -13.2100000       1.50215200E-07
  -13.1999998       1.90214536E-07
  -13.1899996       2.09988983E-07
  -13.1800003       2.03457077E-07
  -13.1700001       1.67789210E-07
  -13.1599998       1.04316634E-07
  -13.1499996       1.87873326E-08
  -13.1400003      -7.91413655E-08
  -13.1300001      -1.77129692E-07
  -13.1199999      -2.61906933E-07
  -13.1099997      -3.21237849E-07
  -13.1000004      -3.45747225E-07
  -13.0900002      -3.30279306E-07
  -13.0799999      -2.74573182E-07
  -13.0699997      -1.83187780E-07
  -13.0600004      -6.47666027E-08
  -13.0500002       6.91417696E-08
  -13.0400000       2.05436820E-07
  -13.0299997       3.30740221E-07
  -13.0200005       4.32430085E-07
  -13.0100002       4.99398766E-07
  -13.0000000       5.22618620E-07
  -12.9899998       4.95671770E-07
  -12.9799995       4.15392435E-07
  -12.9700003       2.82687836E-07
  -12.9600000       1.03455776E-07
  -12.9499998      -1.10636165E-07
  -12.9399996      -3.41858765E-07
  -12.9300003      -5.66985761E-07
  -12.9200001      -7.58984754E-07
  -12.9099998      -8.89888156E-07
  -12.8999996      -9.34614718E-07
  -12.8900003      -8.75215676E-07
  -12.8800001      -7.04805188E-07
  -12.8699999      -4.30356437E-07
  -12.8599997      -7.36512931E-08
  -12.8500004       3.30046987E-07
  -12.8400002       7.35620858E-07
  -12.8299999       1.09359780E-06
  -12.8199997       1.35670689E-06
  -12.8100004       1.48643858E-06
  -12.8000002       1.45853323E-06
  -12.7900000       1.26650968E-06
  -12.7799997       9.22724894E-07
  -12.7700005       4.56910414E-07
  -12.7600002      -8.74232455E-08
  -12.7500000      -6.57992700E-07
  -12.7399998      -1.19929905E-06
  -12.7299995      -1.65793517E-06
  -12.7200003      -1.98707085E-06
  -12.7100000      -2.14985721E-06
  -12.6999998      -2.12179839E-06
  -12.6899996      -1.89233299E-06
  -12.6800003      -1.46591594E-06
  -12.6700001      -8.62763557E-07
  -12.6599998      -1.19190453E-07
  -12.6499996       7.12787880E-07
  -12.6400003       1.56709643E-06
  -12.6300001       2.36700066E-06
  -12.6199999       3.03057891E-06
  -12.6099997       3.47818946E-06
  -12.6000004       3.64135803E-06
  -12.5900002       3.47201217E-06
  -12.5799999       2.95067366E-06
  -12.5699997       2.09212203E-06
  -12.5600004       9.47299156E-07
  -12.5500002      -3.99248620E-07
  -12.5400000      -1.83636814E-06
  -12.5299997      -3.23693666E-06
  -12.5200005      -4.47069442E-06
  -12.5100002      -5.41744839E-06
  -12.5000000      -5.97880853E-06
  -12.4899998      -6.08694927E-06
  -12.4799995      -5.70950669E-06
  -12.4700003      -4.85044711E-06
  -12.4600000      -3.54744975E-06
  -12.4499998      -1.86680541E-06
  -12.4399996       1.02967796E-07
  -12.4300003       2.25774056E-06
  -12.4200001       4.48396349E-06
  -12.4099998       6.66423784E-06
  -12.3999996       8.68255302E-06
  -12.3900003       1.04296505E-05
  -12.3800001       1.18089902E-05
  -12.3699999       1.27433786E-05
  -12.3599997       1.31818915E-05
  -12.3500004       1.31061324E-05
  -12.3400002       1.25344768E-05
  -12.3299999       1.15229814E-05
  -12.3199997       1.01618280E-05
  -12.3100004       8.56700353E-06
  -12.3000002       6.86773001E-06
  -12.2900000       5.19113291E-06
  -12.2799997       3.64637185E-06
  -12.2700005       2.31072681E-06
  -12.2600002       1.21998278E-06
  -12.2500000       3.64720393E-07
  -12.2399998      -3.06924193E-07
  -12.2299995      -8.80619154E-07
  -12.2200003      -1.46297657E-06
  -12.2100000      -2.16674448E-06
  -12.1999998      -3.09649795E-06
  -12.1899996      -4.33685682E-06
  -12.1800003      -5.94450785E-06
  -12.1700001      -7.94430071E-06
  -12.1599998      -1.03288112E-05
  -12.1499996      -1.30601929E-05
  -12.1400003      -1.60729815E-05
  -12.1300001      -1.92768020E-05
  -12.1199999      -2.25585954E-05
  -12.1099997      -2.57846878E-05
  -12.1000004      -2.88035644E-05
  -12.0900002      -3.14506105E-05
  -12.0799999      -3.35556906E-05
  -12.0699997      -3.49538859E-05
  -12.0600004      -3.54989861E-05
  -12.0500002      -3.50781083E-05
  -12.0400000      -3.36254634E-05
  -12.0299997      -3.11328513E-05
  -12.0200005      -2.76549417E-05
  -12.0100002      -2.33079300E-05
  -12.0000000      -1.82616659E-05
  -11.9899998      -1.27260737E-05
  -11.9799995      -6.93394304E-06
  -11.9700003      -1.12253110E-06
  -11.9600000       4.48359788E-06
  -11.9499998       9.68652421E-06
  -11.9399996       1.43246853E-05
  -11.9300003       1.82781987E-05
  -11.9200001       2.14705215E-05
  -11.9099998       2.38675730E-05
  -11.8999996       2.54755723E-05
  -11.8900003       2.63384281E-05
  -11.8800001       2.65350081E-05
  -11.8699999       2.61760124E-05
  -11.8599997       2.53997150E-05
  -11.8500004       2.43657687E-05
  -11.8400002       2.32464954E-05
  -11.8299999       2.22157287E-05
  -11.8199997       2.14357296E-05
  -11.8100004       2.10436210E-05
  -11.8000002       2.11388597E-05
  -11.7900000       2.17734269E-05
  -11.7799997       2.29461148E-05
  -11.7700005       2.46015061E-05
  -11.7600002       2.66337101E-05
  -11.7500000       2.88941046E-05
  -11.7399998       3.12020748E-05
  -11.7299995       3.33573880E-05
  -11.7200003       3.51531780E-05
  -11.7100000       3.63886356E-05
  -11.6999998       3.68809851E-05
  -11.6899996       3.64764383E-05
  -11.6800003       3.50599767E-05
  -11.6700001       3.25636502E-05
  -11.6599998       2.89729833E-05
  -11.6499996       2.43306331E-05
  -11.6400003       1.87367586E-05
  -11.6300001       1.23453392E-05
  -11.6199999       5.35636218E-06
  -11.6099997      -1.99580063E-06
  -11.6000004      -9.45687134E-06
  -11.5900002      -1.67685266E-05
  -11.5799999      -2.36840569E-05
  -11.5699997      -2.99822004E-05
  -11.5600004      -3.54779731E-05
  -11.5500002      -4.00298959E-05
  -11.5400000      -4.35435650E-05
  -11.5299997      -4.59721377E-05
  -11.5200005      -4.73145119E-05
  -11.5100002      -4.76119712E-05
  -11.5000000      -4.69440347E-05
  -11.4899998      -4.54237706E-05
  -11.4799995      -4.31924891E-05
  -11.4700003      -4.04137500E-05
  -11.4600000      -3.72661780E-05
  -11.4499998      -3.39351900E-05
  -11.4399996      -3.06037182E-05
  -11.4300003      -2.74423710E-05
  -11.4200001      -2.46000782E-05
  -11.4099998      -2.21958362E-05
  -11.3999996      -2.03126874E-05
  -11.3900003      -1.89943275E-05
  -11.3800001      -1.82447311E-05
  -11.3699999      -1.80305833E-05
  -11.3599997      -1.82860458E-05
  -11.3500004      -1.89191469E-05
  -11.3400002      -1.98189700E-05
  -11.3299999      -2.08630045E-05
  -11.3199997      -2.19240210E-05
  -11.3100004      -2.28761401E-05
  -11.3000002      -2.35999632E-05
  -11.2900000      -2.39867895E-05
  -11.2799997      -2.39419933E-05
  -11.2700005      -2.33877563E-05
  -11.2600002      -2.22653198E-05
  -11.2500000      -2.05368469E-05
  -11.2399998      -1.81869891E-05
  -11.2299995      -1.52242383E-05
  -11.2200003      -1.16819629E-05
  -11.2100000      -7.61905403E-06
  -11.1999998      -3.11998156E-06
  -11.1899996       1.70601231E-06
  -11.1800003       6.72690931E-06
  -11.1700001       1.17913687E-05
  -11.1599998       1.67339167E-05
  -11.1499996       2.13818257E-05
  -11.1400003       2.55635259E-05
  -11.1300001       2.91179531E-05
  -11.1199999       3.19041646E-05
  -11.1099997       3.38102473E-05
  -11.1000004       3.47605310E-05
  -11.0900002       3.47204150E-05
  -11.0799999       3.36981830E-05
  -11.0699997       3.17437662E-05
  -11.0600004       2.89447689E-05
  -11.0500002       2.54203005E-05
  -11.0400000       2.13135590E-05
  -11.0299997       1.67839771E-05
  -11.0200005       1.19996848E-05
  -11.0100002       7.13071813E-06
  -11.0000000       2.34314803E-06
  -10.9899998      -2.20596507E-06
  -10.9799995      -6.37314633E-06
  -10.9700003      -1.00328225E-05
  -10.9600000      -1.30816170E-05
  -10.9499998      -1.54425106E-05
  -10.9399996      -1.70685980E-05
  -10.9300003      -1.79458093E-05
  -10.9200001      -1.80939987E-05
  -10.9099998      -1.75657624E-05
  -10.8999996      -1.64425619E-05
  -10.8900003      -1.48281997E-05
  -10.8800001      -1.28400907E-05
  -10.8699999      -1.05992722E-05
  -10.8599997      -8.22055335E-06
  -10.8500004      -5.80423648E-06
  -10.8400002      -3.43077454E-06
  -10.8299999      -1.15937974E-06
  -10.8199997       9.69326493E-07
  -10.8100004       2.92717982E-06
  -10.8000002       4.69040333E-06
  -10.7900000       6.23170217E-06
  -10.7799997       7.51480229E-06
  -10.7700005       8.49324351E-06
  -10.7600002       9.11458665E-06
  -10.7500000       9.32960666E-06
  -10.7399998       9.10503604E-06
  -10.7299995       8.43704584E-06
  -10.7200003       7.36239872E-06
  -10.7100000       5.96418386E-06
  -10.6999998       4.37023209E-06
  -10.6899996       2.74376771E-06
  -10.6800003       1.26754026E-06
  -10.6700001       1.24328750E-07
  -10.6599998      -5.22489756E-07
  -10.6499996      -5.44697912E-07
  -10.6400003       1.41544660E-07
  -10.6300001       1.57422880E-06
  -10.6199999       3.75119998E-06
  -10.6099997       6.64083973E-06
  -10.6000004       1.01945798E-05
  -10.5900002       1.43578691E-05
  -10.5799999       1.90771298E-05
  -10.5699997       2.43013328E-05
  -10.5600004       2.99786279E-05
  -10.5500002       3.60495433E-05
  -10.5400000       4.24394384E-05
  -10.5299997       4.90525999E-05
  -10.5200005       5.57699168E-05
  -10.5100002       6.24511158E-05
  -10.5000000       6.89406806E-05
  -10.4899998       7.50766922E-05
  -10.4799995       8.06996686E-05
  -10.4700003       8.56602492E-05
  -10.4600000       8.98237195E-05
  -10.4499998       9.30712631E-05
  -10.4399996       9.52986447E-05
  -10.4300003       9.64136125E-05
  -10.4200001       9.63339917E-05
  -10.4099998       9.49882888E-05
  -10.3999996       9.23197586E-05
  -10.3900003       8.82940076E-05
  -10.3800001       8.29089258E-05
  -10.3699999       7.62051204E-05
  -10.3599997       6.82736136E-05
  -10.3500004       5.92591532E-05
  -10.3400002       4.93564403E-05
  -10.3299999       3.87997316E-05
  -10.3199997       2.78462521E-05
  -10.3100004       1.67566814E-05
  -10.3000002       5.77586798E-06
  -10.2900000      -4.88216619E-06
  -10.2799997      -1.50418646E-05
  -10.2700005      -2.45650263E-05
  -10.2600002      -3.33413918E-05
  -10.2500000      -4.12735535E-05
  -10.2399998      -4.82603209E-05
  -10.2299995      -5.41833360E-05
  -10.2200003      -5.89010415E-05
  -10.2100000      -6.22524603E-05
  -10.1999998      -6.40710059E-05
  -10.1899996      -6.42060768E-05
  -10.1800003      -6.25479370E-05
  -10.1700001      -5.90510499E-05
  -10.1599998      -5.37505948E-05
  -10.1499996      -4.67688551E-05
  -10.1400003      -3.83101033E-05
  -10.1300001      -2.86452359E-05
  -10.1199999      -1.80892093E-05
  -10.1099997      -6.97590076E-06
  -10.1000004       4.36522032E-06
  -10.0900002       1.56270034E-05
  -10.0799999       2.65348899E-05
  -10.0699997       3.68494657E-05
  -10.0600004       4.63627875E-05
  -10.0500002       5.48906610E-05
  -10.0400000       6.22644948E-05
  -10.0299997       6.83248800E-05
  -10.0200005       7.29188978E-05
  -10.0100002       7.59028262E-05
  -10.0000000       7.71492560E-05
  -9.98999977       7.65586883E-05
  -9.97999954       7.40735195E-05
  -9.97000027       6.96930074E-05
  -9.96000004       6.34865646E-05
  -9.94999981       5.56038540E-05
  -9.93999958       4.62797761E-05
  -9.93000031       3.58325851E-05
  -9.92000008       2.46550917E-05
  -9.90999985       1.31988218E-05
  -9.89999962       1.95265943E-06
  -9.89000034      -8.58240310E-06
  -9.88000011      -1.79191284E-05
  -9.86999989      -2.56085550E-05
  -9.85999966      -3.12601514E-05
  -9.85000038      -3.45569315E-05
  -9.84000015      -3.52643110E-05
  -9.82999992      -3.32337222E-05
  -9.81999969      -2.84019497E-05
  -9.81000042      -2.07875655E-05
  -9.80000019      -1.04853170E-05
  -9.78999996       2.34055619E-06
  -9.77999973       1.74645866E-05
  -9.77000046       3.46099514E-05
  -9.76000023       5.34603278E-05
  -9.75000000       7.36741349E-05
  -9.73999977       9.48992310E-05
  -9.72999954       1.16787298E-04
  -9.72000027       1.39004827E-04
  -9.71000004       1.61239252E-04
  -9.69999981       1.83198412E-04
  -9.68999958       2.04603421E-04
  -9.68000031       2.25177093E-04
  -9.67000008       2.44629598E-04
  -9.65999985       2.62647256E-04
  -9.64999962       2.78886117E-04
  -9.64000034       2.92974379E-04
  -9.63000011       3.04523914E-04
  -9.61999989       3.13150318E-04
  -9.60999966       3.18497972E-04
  -9.60000038       3.20265885E-04
  -9.59000015       3.18231352E-04
  -9.57999992       3.12265445E-04
  -9.56999969       3.02340224E-04
  -9.56000042       2.88526557E-04
  -9.55000019       2.70984194E-04
  -9.53999996       2.49946053E-04
  -9.52999973       2.25701224E-04
  -9.52000046       1.98578389E-04
  -9.51000023       1.68932296E-04
  -9.50000000       1.37135125E-04
  -9.48999977       1.03571947E-04
  -9.47999954       6.86405256E-05
  -9.47000027       3.27539492E-05
  -9.46000004      -3.65506321E-06
  -9.44999981      -4.01303550E-05
  -9.43999958      -7.61893680E-05
  -9.43000031      -1.11324000E-04
  -9.42000008      -1.45004655E-04
  -9.40999985      -1.76689486E-04
  -9.39999962      -2.05838063E-04
  -9.39000034      -2.31927988E-04
  -9.38000011      -2.54473940E-04
  -9.36999989      -2.73045647E-04
  -9.35999966      -2.87282717E-04
  -9.35000038      -2.96905433E-04
  -9.34000015      -3.01718974E-04
  -9.32999992      -3.01612454E-04
  -9.31999969      -2.96554208E-04
  -9.31000042      -2.86584691E-04
  -9.30000019      -2.71809520E-04
  -9.28999996      -2.52392929E-04
  -9.27999973      -2.28553574E-04
  -9.27000046      -2.00560549E-04
  -9.26000023      -1.68728977E-04
  -9.25000000      -1.33413472E-04
  -9.23999977      -9.49997848E-05
  -9.22999954      -5.38943423E-05
  -9.22000027      -1.05135114E-05
  -9.21000004       3.47250461E-05
  -9.19999981       8.14068262E-05
  -9.18999958       1.29120555E-04
  -9.18000031       1.77453170E-04
  -9.17000008       2.25983196E-04
  -9.15999985       2.74274382E-04
  -9.14999962       3.21873114E-04
  -9.14000034       3.68312409E-04
  -9.13000011       4.13120841E-04
  -9.11999989       4.55837260E-04
  -9.10999966       4.96026711E-04
  -9.10000038       5.33294049E-04
  -9.09000015       5.67293493E-04
  -9.07999992       5.97731094E-04
  -9.06999969       6.24361448E-04
  -9.06000042       6.46981294E-04
  -9.05000019       6.65420434E-04
  -9.03999996       6.79536723E-04
  -9.02999973       6.89212582E-04
  -9.02000046       6.94355695E-04
  -9.01000023       6.94902788E-04
  -9.00000000       6.90823363E-04
  -8.98999977       6.82121958E-04
  -8.97999954       6.68840541E-04
  -8.97000027       6.51056645E-04
  -8.96000004       6.28883659E-04
  -8.94999981       6.02471409E-04
  -8.93999958       5.72009943E-04
  -8.93000031       5.37733780E-04
  -8.92000008       4.99929651E-04
  -8.90999985       4.58939961E-04
  -8.89999962       4.15164483E-04
  -8.89000034       3.69054760E-04
  -8.88000011       3.21104686E-04
  -8.86999989       2.71836674E-04
  -8.85999966       2.21786293E-04
  -8.85000038       1.71489766E-04
  -8.84000015       1.21474586E-04
  -8.82999992       7.22549157E-05
  -8.81999969       2.43302948E-05
  -8.81000042      -2.18147252E-05
  -8.80000019      -6.57121054E-05
  -8.78999996      -1.06914646E-04
  -8.77999973      -1.45003520E-04
  -8.77000046      -1.79597439E-04
  -8.76000023      -2.10360871E-04
  -8.75000000      -2.37009590E-04
  -8.73999977      -2.59312423E-04
  -8.72999954      -2.77088693E-04
  -8.72000027      -2.90205033E-04
  -8.71000004      -2.98573112E-04
  -8.69999981      -3.02151835E-04
  -8.68999958      -3.00954416E-04
  -8.68000031      -2.95060250E-04
  -8.67000008      -2.84627167E-04
  -8.65999985      -2.69901328E-04
  -8.64999962      -2.51219171E-04
  -8.64000034      -2.28999401E-04
  -8.63000011      -2.03724994E-04
  -8.61999989      -1.75916706E-04
  -8.60999966      -1.46104794E-04
  -8.60000038      -1.14801645E-04
  -8.59000015      -8.24826711E-05
  -8.57999992      -4.95773165E-05
  -8.56999969      -1.64697740E-05
  -8.56000042       1.64913363E-05
  -8.55000019       4.89795602E-05
  -8.53999996       8.06759199E-05
  -8.52999973       1.11258661E-04
  -8.52000046       1.40397970E-04
  -8.51000023       1.67756996E-04
  -8.50000000       1.92997672E-04
  -8.48999977       2.15790162E-04
  -8.47999954       2.35824235E-04
  -8.47000027       2.52820348E-04
  -8.46000004       2.66540359E-04
  -8.44999981       2.76797276E-04
  -8.43999958       2.83462898E-04
  -8.43000031       2.86475115E-04
  -8.42000008       2.85842543E-04
  -8.40999985       2.81647168E-04
  -8.39999962       2.74044141E-04
  -8.39000034       2.63258233E-04
  -8.38000011       2.49577512E-04
  -8.36999989       2.33343570E-04
  -8.35999966       2.14941858E-04
  -8.35000038       1.94788285E-04
  -8.34000015       1.73318593E-04
  -8.32999992       1.50977328E-04
  -8.31999969       1.28210115E-04
  -8.31000042       1.05457366E-04
  -8.30000019       8.31505240E-05
  -8.28999996       6.17097685E-05
  -8.27999973       4.15420400E-05
  -8.27000046       2.30401274E-05
  -8.26000023       6.57863848E-06
  -8.25000000      -7.48985030E-06
  -8.23999977      -1.88403392E-05
  -8.22999954      -2.71819008E-05
  -8.22000027      -3.22625601E-05
  -8.21000004      -3.38730206E-05
  -8.19999981      -3.18477141E-05
  -8.18999958      -2.60641409E-05
  -8.18000031      -1.64425001E-05
  -8.17000008      -2.94580309E-06
  -8.15999985       1.44174955E-05
  -8.14999962       3.55865450E-05
  -8.14000034       6.04409943E-05
  -8.13000011       8.87935021E-05
  -8.11999989       1.20386321E-04
  -8.10999966       1.54894864E-04
  -8.10000038       1.91939340E-04
  -8.09000015       2.31101745E-04
  -8.07999992       2.71947123E-04
  -8.06999969       3.14041856E-04
  -8.06000042       3.56966309E-04
  -8.05000019       4.00316407E-04
  -8.03999996       4.43698140E-04
  -8.02999973       4.86716337E-04
  -8.02000046       5.28963923E-04
  -8.01000023       5.70019300E-04
  -8.00000000       6.09452371E-04
  -7.98999977       6.46844390E-04
  -7.98000002       6.81814214E-04
  -7.96999979       7.14043388E-04
  -7.96000004       7.43294833E-04
  -7.94999981       7.69418140E-04
  -7.94000006       7.92338513E-04
  -7.92999983       8.12034355E-04
  -7.92000008       8.28509859E-04
  -7.90999985       8.41769390E-04
  -7.90000010       8.51803634E-04
  -7.88999987       8.58589425E-04
  -7.88000011       8.62101384E-04
  -7.86999989       8.62330256E-04
  -7.86000013       8.59300490E-04
  -7.84999990       8.53080768E-04
  -7.84000015       8.43780872E-04
  -7.82999992       8.31541664E-04
  -7.82000017       8.16519838E-04
  -7.80999994       7.98873894E-04
  -7.80000019       7.78759015E-04
  -7.78999996       7.56333058E-04
  -7.78000021       7.31769542E-04
  -7.76999998       7.05272949E-04
  -7.76000023       6.77091011E-04
  -7.75000000       6.47514360E-04
  -7.73999977       6.16867619E-04
  -7.73000002       5.85488335E-04
  -7.71999979       5.53708058E-04
  -7.71000004       5.21834474E-04
  -7.69999981       4.90148726E-04
  -7.69000006       4.58912051E-04
  -7.67999983       4.28382860E-04
  -7.67000008       3.98834964E-04
  -7.65999985       3.70570022E-04
  -7.65000010       3.43916588E-04
  -7.63999987       3.19216109E-04
  -7.63000011       2.96799757E-04
  -7.61999989       2.76961393E-04
  -7.61000013       2.59937689E-04
  -7.59999990       2.45900301E-04
  -7.59000015       2.34960928E-04
  -7.57999992       2.27187105E-04
  -7.57000017       2.22622461E-04
  -7.55999994       2.21301525E-04
  -7.55000019       2.23252020E-04
  -7.53999996       2.28488629E-04
  -7.53000021       2.36994470E-04
  -7.51999998       2.48700817E-04
  -7.51000023       2.63474212E-04
  -7.50000000       2.81113695E-04
  -7.48999977       3.01361550E-04
  -7.48000002       3.23926826E-04
  -7.46999979       3.48511327E-04
  -7.46000004       3.74832161E-04
  -7.44999981       4.02636768E-04
  -7.44000006       4.31700522E-04