  -16.0000000       0.00000000    
  -15.9899998       0.00000000    
  -15.9799995       0.00000000    
  -15.9700003       0.00000000    
  -15.9600000       0.00000000    
  -15.9499998       0.00000000    
  -15.9399996       0.00000000    
  -15.9300003       0.00000000    
  -15.9200001       0.00000000    
  -15.9099998       0.00000000    
  -15.8999996       0.00000000    
  -15.8900003       0.00000000    
  -15.8800001       0.00000000    
  -15.8699999      -2.38220739E-44
  -15.8599997      -2.05990874E-43
  -15.8500004       7.96638177E-42
  -15.8400002       2.18881419E-40
  -15.8299999       2.76914373E-39
  -15.8199997       2.40366015E-38
  -15.8100004       1.61906507E-37
  -15.8000002       9.00481568E-37
  -15.7900000       4.28541697E-36
  -15.7799997       1.78273146E-35
  -15.7700005       6.57453589E-35
  -15.7600002       2.16866218E-34
  -15.7500000       6.43370833E-34
  -15.7399998       1.72138254E-33
  -15.7299995       4.15403504E-33
  -15.7200003       9.01138451E-33
  -15.7100000       1.74212877E-32
  -15.6999998       2.94532394E-32
  -15.6899996       4.16861154E-32
  -15.6800003       4.33785010E-32
  -15.6700001       1.24603283E-32
  -15.6599998      -8.51655414E-32
  -15.6499996      -2.87024734E-31
  -15.6400003      -6.09454983E-31
  -15.6300001      -1.00420188E-30
  -15.6199999      -1.30433935E-30
  -15.6099997      -1.18468352E-30
  -15.6000004      -1.79177559E-31
  -15.5900002       2.19443862E-30
  -15.5799999       6.16334935E-30
  -15.5699997       1.12769608E-29
  -15.5600004       1.58873166E-29
  -15.5500002       1.66832282E-29
  -15.5400000       8.59618217E-30
  -15.5299997      -1.43319732E-29
  -15.5200005      -5.62180215E-29
  -15.5100002      -1.13815671E-28
  -15.5000000      -1.68250901E-28
  -15.4899998      -1.76875143E-28
  -15.4799995      -7.29900967E-29
  -15.4700003       2.13796087E-28
  -15.4600000       7.03855750E-28
  -15.4499998       1.28071269E-27
  -15.4399996       1.60325993E-27
  -15.4300003       1.09529321E-27
  -15.4200001      -8.74240750E-28
  -15.4099998      -4.53082685E-27
  -15.3999996      -9.00030512E-27
  -15.3900003      -1.16912499E-26
  -15.3800001      -8.37330168E-27
  -15.3699999       5.29259107E-27
  -15.3599997       3.03680880E-26
  -15.3500004       6.00791966E-26
  -15.3400002       7.64866098E-26
  -15.3299999       5.23858430E-26
  -15.3199997      -3.74968576E-26
  -15.3100004      -1.95055744E-25
  -15.3000002      -3.73141513E-25
  -15.2900000      -4.60996754E-25
  -15.2799997      -3.02720787E-25
  -15.2700005       2.32893581E-25
  -15.2600002       1.13344570E-24
  -15.2500000       2.11512660E-24
  -15.2399998       2.56942725E-24
  -15.2299995       1.68936121E-24
  -15.2200003      -1.15328901E-24
  -15.2100000      -5.82090088E-24
  -15.1999998      -1.08333503E-23
  -15.1899996      -1.31995110E-23
  -15.1800003      -9.10812411E-24
  -15.1700001       4.27588564E-24
  -15.1599998       2.61923530E-23
  -15.1499996       4.98827800E-23
  -15.1400003       6.21025951E-23
  -15.1300001       4.63194038E-23
  -15.1199999      -9.62892535E-24
  -15.1099997      -1.02850561E-22
  -15.1000004      -2.06022069E-22
  -15.0900002      -2.65930363E-22
  -15.0799999      -2.16398052E-22
  -15.0699997      -7.89281210E-24
  -15.0600004       3.52190851E-22
  -15.0500002       7.64897709E-22
  -15.0400000       1.03451588E-21
  -15.0299997       9.15079155E-22
  -15.0200005       2.15563020E-22
  -15.0100002      -1.05815686E-21
  -15.0000000      -2.58087864E-21
  -14.9899998      -3.68536630E-21
  -14.9799995      -3.51320368E-21
  -14.9700003      -1.36255186E-21
  -14.9600000       2.83758594E-21
  -14.9499998       8.10644109E-21
  -14.9399996       1.23008639E-20
  -14.9300003       1.25559603E-20
  -14.9200001       6.36623483E-21
  -14.9099998      -6.88772132E-21
  -14.8999996      -2.45025373E-20
  -14.8900003      -3.98980907E-20
  -14.8800001      -4.37332296E-20
  -14.8699999      -2.70751191E-20
  -14.8599997       1.38061760E-20
  -14.8500004       7.24918858E-20
  -14.8400002       1.29681421E-19
  -14.8299999       1.55266454E-19
  -14.8199997       1.16935434E-19
  -14.8100004      -5.16068896E-21
  -14.8000002      -2.01258510E-19
  -14.7900000      -4.19125747E-19
  -14.7799997      -5.64044947E-19
  -14.7700005      -5.19057127E-19
  -14.7600002      -1.87703424E-19
  -14.7500000       4.47559926E-19
  -14.7399998       1.26928115E-18
  -14.7299995       1.99858168E-18
  -14.7200003       2.22822046E-18
  -14.7100000       1.53527793E-18
  -14.6999998      -3.30816333E-19
  -14.6899996      -3.22617499E-18
  -14.6800003      -6.43799675E-18
  -14.6700001      -8.66657973E-18
  -14.6599998      -8.26701840E-18
  -14.6499996      -3.79592066E-18
  -14.6400003       5.20311743E-18
  -14.6300001       1.73927661E-17
  -14.6199999       2.91702331E-17
  -14.6099997       3.49483577E-17
  -14.6000004       2.85076979E-17
  -14.5900002       5.43617184E-18
  -14.5799999      -3.38172676E-17
  -14.5699997      -8.13042442E-17
  -14.5600004      -1.20793185E-16
  -14.5500002      -1.30253894E-16
  -14.5400000      -8.83478260E-17
  -14.5299997       1.57408020E-17
  -14.5200005       1.71671000E-16
  -14.5100002       3.40804077E-16
  -14.5000000       4.57624796E-16
  -14.4899998       4.43698992E-16
  -14.4799995       2.34695254E-16
  -14.4700003      -1.84478297E-16
  -14.4600000      -7.47529075E-16
  -14.4499998      -1.29305498E-15
  -14.4399996      -1.58448842E-15
  -14.4300003      -1.37201190E-15
  -14.4200001      -4.90735314E-16
  -14.4099998       1.02878896E-15
  -14.3999996       2.87842188E-15
  -14.3900003       4.46652882E-15
  -14.3800001       5.02660818E-15
  -14.3699999       3.84835020E-15
  -14.3599997       5.91875654E-16
  -14.3500004      -4.40617815E-15
  -14.3400002      -9.96322081E-15
  -14.3299999      -1.41464463E-14
  -14.3199997      -1.47103009E-14
  -14.3100004      -9.84676564E-15
  -14.3000002       9.18218337E-16
  -14.2900000       1.59760477E-14
  -14.2799997       3.13893978E-14
  -14.2700005       4.14498487E-14
  -14.2600002       4.01436629E-14
  -14.2500000       2.33191050E-14
  -14.2399998      -9.00282944E-15
  -14.2299995      -5.10015173E-14
  -14.2200003      -9.09885706E-14
  -14.2100000      -1.13509740E-13
  -14.1999998      -1.03632028E-13
  -14.1899996      -5.26182627E-14
  -14.1800003       3.66080592E-14
  -14.1700001       1.46287699E-13
  -14.1599998       2.44901918E-13
  -14.1499996       2.93575955E-13
  -14.1400003       2.57324950E-13
  -14.1300001       1.18745007E-13
  -14.1199999      -1.09897815E-13
  -14.1099997      -3.80968071E-13
  -14.1000004      -6.16206142E-13
  -14.0900002      -7.23586989E-13
  -14.0799999      -6.24270058E-13
  -14.0699997      -2.83514802E-13
  -14.0600004       2.63755272E-13
  -14.0500002       9.02983363E-13
  -14.0400000       1.45357034E-12
  -14.0299997       1.70837281E-12
  -14.0200005       1.49349088E-12
  -14.0100002       7.34469939E-13
  -14.0000000      -4.90867600E-13
  -13.9899998      -1.93372380E-12
  -13.9799995      -3.20503780E-12
  -13.9700003      -3.85898084E-12
  -13.9600000      -3.51673530E-12
  -13.9499998      -2.00210248E-12
  -13.9399996       5.50285566E-13
  -13.9300003       3.65451809E-12
  -13.9200001       6.52990639E-12
  -13.9099998       8.26076620E-12
  -13.8999996       8.03584890E-12
  -13.8900003       5.41432220E-12
  -13.8800001       5.45098959E-13
  -13.8699999      -5.73597073E-12
  -13.8599997      -1.19867814E-11
  -13.8500004      -1.64330667E-11
  -13.8400002      -1.73980119E-11
  -13.8299999      -1.37968361E-11
  -13.8199997      -5.56859767E-12
  -13.8100004       6.08958934E-12
  -13.8000002       1.87902142E-11
  -13.7900000       2.93644831E-11
  -13.7799997       3.45628560E-11
  -13.7700005       3.19075877E-11
  -13.7600002       2.04926996E-11
  -13.7500000       1.50571363E-12
  -13.7399998      -2.17124738E-11
  -13.7299995      -4.41581806E-11
  -13.7200003      -6.01587738E-11
  -13.7100000      -6.46825163E-11
  -13.6999998      -5.46704210E-11
  -13.6899996      -3.00550557E-11
  -13.6800003       5.82357686E-12
  -13.6700001       4.65701679E-11
  -13.6599998       8.38372219E-11
  -13.6499996       1.08976994E-10
  -13.6400003       1.14890132E-10
  -13.6300001       9.76625170E-11
  -13.6199999       5.76221362E-11
  -13.6099997      -4.13001773E-13
  -13.6000004      -6.77362402E-11
  -13.5900002      -1.33052402E-10
  -13.5799999      -1.84201432E-10
  -13.5699997      -2.09990580E-10
  -13.5600004      -2.01882566E-10
  -13.5500002      -1.55396682E-10
  -13.5400000      -7.11949250E-11
  -13.5299997       4.41399139E-11
  -13.5200005       1.77680592E-10
  -13.5100002       3.10288600E-10
  -13.5000000       4.17671953E-10
  -13.4899998       4.72813400E-10
  -13.4799995       4.50093879E-10
  -13.4700003       3.31048577E-10
  -13.4600000       1.11074476E-10
  -13.4499998      -1.94320351E-10
  -13.4399996      -5.45691659E-10
  -13.4300003      -8.80408024E-10
  -13.4200001      -1.11961751E-09
  -13.4099998      -1.18189070E-09
  -13.3999996      -1.00219277E-09
  -13.3900003      -5.52849766E-10
  -13.3800001       1.38507178E-10
  -13.3699999       9.79688219E-10
  -13.3599997       1.81840687E-09
  -13.3500004       2.46306331E-09
  -13.3400002       2.71883671E-09
  -13.3299999       2.43369747E-09
  -13.3199997       1.54504787E-09
  -13.3100004       1.15380802E-10
  -13.3000002      -1.65444847E-09
  -13.2900000      -3.44246676E-09
  -13.2799997      -4.85542362E-09
  -13.2700005      -5.50555601E-09
  -13.2600002      -5.10085751E-09
  -13.2500000      -3.52966678E-09
  -13.2399998      -9.18407850E-10
  -13.2299995       2.35564945E-09
  -13.2200003       5.70696601E-09
  -13.2100000       8.43819148E-09
  -13.1999998       9.87634241E-09
  -13.1899996       9.52306323E-09
  -13.1800003       7.18675031E-09
  -13.1700001       3.06447534E-09
  -13.1599998      -2.25069208E-09
  -13.1499996      -7.84695509E-09
  -13.1400003      -1.26476456E-08
  -13.1300001      -1.56156403E-08
  -13.1199999      -1.59687570E-08
  -13.1099997      -1.33606388E-08
  -13.1000004      -7.98626942E-09
  -13.0900002      -5.84782944E-10
  -13.0799999       7.66687958E-09
  -13.0699997       1.53525530E-08
  -13.0600004       2.10704680E-08
  -13.0500002       2.36917561E-08
  -13.0400000       2.25721859E-08
  -13.0299997       1.76750614E-08
  -13.0200005       9.58247171E-09
  -13.0100002      -6.03452566E-10
  -13.0000000      -1.14451497E-08
  -12.9899998      -2.13989839E-08
  -12.9799995      -2.90427344E-08
  -12.9700003      -3.32602603E-08
  -12.9600000      -3.33584147E-08
  -12.9499998      -2.91109572E-08
  -12.9399996      -2.07438688E-08
  -12.9300003      -8.88738239E-09
  -12.9200001       5.47812151E-09
  -12.9099998       2.10670130E-08
  -12.8999996       3.63247921E-08
  -12.8900003       4.94767107E-08
  -12.8800001       5.86198965E-08
  -12.8699999       6.18896081E-08
  -12.8599997       5.77119224E-08
  -12.8500004       4.51251552E-08
  -12.8400002       2.41171527E-08
  -12.8299999      -4.10514200E-09
  -12.8199997      -3.70068882E-08
  -12.8100004      -7.08550374E-08
  -12.8000002      -1.01119227E-07
  -12.7900000      -1.23111604E-07
  -12.7799997      -1.32760789E-07
  -12.7700005      -1.27361133E-07
  -12.7600002      -1.06115003E-07
  -12.7500000      -7.03182366E-08
  -12.7399998      -2.31119444E-08
  -12.7299995       3.11610968E-08
  -12.7200003       8.78384014E-08
  -12.7100000       1.42813661E-07
  -12.6999998       1.93124691E-07
  -12.6899996       2.37033788E-07
  -12.6800003       2.73502252E-07
  -12.6700001       3.01153705E-07
  -12.6599998       3.17009267E-07
  -12.6499996       3.15423478E-07
  -12.6400003       2.87694064E-07
  -12.6300001       2.22726285E-07
  -12.6199999       1.08922471E-07
  -12.6099997      -6.28414085E-08
  -12.6000004      -2.95615393E-07
  -12.5900002      -5.82847235E-07
  -12.5799999      -9.05771742E-07
  -12.5699997      -1.23245536E-06
  -12.5600004      -1.51901224E-06
  -12.5500002      -1.71307511E-06
  -12.5400000      -1.75924254E-06
  -12.5299997      -1.60578645E-06
  -12.5200005      -1.21174764E-06
  -12.5100002      -5.53511597E-07
  -12.5000000       3.69870065E-07
  -12.4899998       1.53298163E-06
  -12.4799995       2.88203705E-06
  -12.4700003       4.33429568E-06
  -12.4600000       5.77859055E-06
  -12.4499998       7.07666140E-06
  -12.4399996       8.06520347E-06
  -12.4300003       8.55905728E-06
  -12.4200001       8.35581432E-06
  -12.4099998       7.24284246E-06
  -12.3999996       5.00687202E-06
  -12.3900003       1.44682417E-06
  -12.3800001      -3.61096272E-06
  -12.3699999      -1.02954991E-05
  -12.3599997      -1.86740799E-05
  -12.3500004      -2.87358162E-05
  -12.3400002      -4.03794838E-05
  -12.3299999      -5.34051796E-05
  -12.3199997      -6.75124684E-05
  -12.3100004      -8.23046284E-05
  -12.3000002      -9.72995476E-05
  -12.2900000      -1.11945490E-04
  -12.2799997      -1.25642211E-04
  -12.2700005      -1.37765062E-04
  -12.2600002      -1.47690400E-04
  -12.2500000      -1.54822352E-04
  -12.2399998      -1.58618292E-04
  -12.2299995      -1.58609822E-04
  -12.2200003      -1.54424226E-04
  -12.2100000      -1.45797268E-04
  -12.1999998      -1.32581801E-04
  -12.1899996      -1.14752205E-04
  -12.1800003      -9.23996049E-05
  -12.1700001      -6.57260607E-05
  -12.1599998      -3.50315531E-05
  -12.1499996      -7.00130272E-07
  -12.1400003       3.68175679E-05
  -12.1300001       7.70188562E-05
  -12.1199999       1.19365723E-04
  -12.1099997       1.63298580E-04
  -12.1000004       2.08248544E-04
  -12.0900002       2.53647420E-04
  -12.0799999       2.98934145E-04
  -12.0699997       3.43560503E-04
  -12.0600004       3.86992004E-04
  -12.0500002       4.28706582E-04
  -12.0400000       4.68192622E-04
  -12.0299997       5.04940166E-04
  -12.0200005       5.38435532E-04
  -12.0100002       5.68155723E-04
  -12.0000000       5.93561446E-04
  -11.9899998       6.14099321E-04
  -11.9799995       6.29204034E-04
  -11.9700003       6.38308004E-04
  -11.9600000       6.40856626E-04
  -11.9499998       6.36327371E-04
  -11.9399996       6.24248758E-04
  -11.9300003       6.04225323E-04
  -11.9200001       5.75956074E-04
  -11.9099998       5.39250206E-04
  -11.8999996       4.94039734E-04
  -11.8900003       4.40386997E-04
  -11.8800001       3.78484343E-04
  -11.8699999       3.08649673E-04
  -11.8599997       2.31316051E-04
  -11.8500004       1.47020401E-04
  -11.8400002       5.63879221E-05
  -11.8299999      -3.98872617E-05
  -11.8199997      -1.41057244E-04
  -11.8100004      -2.46336102E-04
  -11.8000002      -3.54914955E-04
  -11.7900000      -4.65970283E-04
  -11.7799997      -5.78670937E-04
  -11.7700005      -6.92180358E-04
  -11.7600002      -8.05656426E-04
  -11.7500000      -9.18253616E-04
  -11.7399998      -1.02912122E-03
  -11.7299995      -1.13740924E-03
  -11.7200003      -1.24226953E-03
  -11.7100000      -1.34286645E-03
  -11.6999998      -1.43837847E-03
  -11.6899996      -1.52800279E-03
  -11.6800003      -1.61094603E-03
  -11.6700001      -1.68641517E-03
  -11.6599998      -1.75359356E-03
  -11.6499996      -1.81162602E-03
  -11.6400003      -1.85959181E-03
  -11.6300001      -1.89650350E-03
  -11.6199999      -1.92131067E-03
  -11.6099997      -1.93292566E-03
  -11.6000004      -1.93026976E-03
  -11.5900002      -1.91233226E-03
  -11.5799999      -1.87822653E-03
  -11.5699997      -1.82725443E-03
  -11.5600004      -1.75893761E-03
  -11.5500002      -1.67303625E-03
  -11.5400000      -1.56953780E-03
  -11.5299997      -1.44862488E-03
  -11.5200005      -1.31063454E-03
  -11.5100002      -1.15600135E-03
  -11.5000000      -9.85225779E-04
  -11.4899998      -7.98841647E-04
  -11.4799995      -5.97407168E-04
  -11.4700003      -3.81510035E-04
  -11.4600000      -1.51779896E-04
  -11.4499998       9.10981034E-05
  -11.4399996       3.46379384E-04
  -11.4300003       6.13253214E-04
  -11.4200001       8.90852127E-04
  -11.4099998       1.17826171E-03
  -11.3999996       1.47451879E-03
  -11.3900003       1.77861564E-03
  -11.3800001       2.08948227E-03
  -11.3699999       2.40597199E-03
  -11.3599997       2.72684544E-03
  -11.3500004       3.05076037E-03
  -11.3400002       3.37628950E-03
  -11.3299999       3.70194577E-03
  -11.3199997       4.02623415E-03
  -11.3100004       4.34771460E-03
  -11.3000002       4.66506276E-03
  -11.2900000       4.97713266E-03
  -11.2799997       5.28299110E-03
  -11.2700005       5.58193726E-03
  -11.2600002       5.87349059E-03
  -11.2500000       6.15737215E-03
  -11.2399998       6.43344689E-03
  -11.2299995       6.70167059E-03
  -11.2200003       6.96202973E-03
  -11.2100000       7.21446611E-03
  -11.1999998       7.45882979E-03
  -11.1899996       7.69481855E-03
  -11.1800003       7.92195555E-03
  -11.1700001       8.13957024E-03
  -11.1599998       8.34683049E-03
  -11.1499996       8.54278076E-03
  -11.1400003       8.72643199E-03
  -11.1300001       8.89685471E-03
  -11.1199999       9.05327033E-03
  -11.1099997       9.19514056E-03
  -11.1000004       9.32223257E-03
  -11.0900002       9.43462644E-03
  -11.0799999       9.53272171E-03
  -11.0699997       9.61716939E-03
  -11.0600004       9.68881883E-03
  -11.0500002       9.74863581E-03
  -11.0400000       9.79762990E-03
  -11.0299997       9.83680412E-03
  -11.0200005       9.86708701E-03
  -11.0100002       9.88931488E-03
  -11.0000000       9.90419276E-03
  -10.9899998       9.91227292E-03
  -10.9799995       9.91393905E-03
  -10.9700003       9.90940351E-03
  -10.9600000       9.89871286E-03
  -10.9499998       9.88178235E-03
  -10.9399996       9.85842943E-03
  -10.9300003       9.82842967E-03
  -10.9200001       9.79158469E-03
  -10.9099998       9.74774361E-03
  -10.8999996       9.69683006E-03
  -10.8900003       9.63884778E-03
  -10.8800001       9.57385823E-03
  -10.8699999       9.50194150E-03
  -10.8599997       9.42317396E-03
  -10.8500004       9.33760777E-03
  -10.8400002       9.24524758E-03
  -10.8299999       9.14603844E-03
  -10.8199997       9.03986208E-03
  -10.8100004       8.92650243E-03
  -10.8000002       8.80560279E-03
  -10.7900000       8.67665838E-03
  -10.7799997       8.53897072E-03
  -10.7700005       8.39165132E-03
  -10.7600002       8.23369157E-03
  -10.7500000       8.06405395E-03
  -10.7399998       7.88178947E-03
  -10.7299995       7.68619357E-03
  -10.7200003       7.47692399E-03
  -10.7100000       7.25406175E-03
  -10.6999998       7.01811165E-03
  -10.6899996       6.76993653E-03
  -10.6800003       6.51063770E-03
  -10.6700001       6.24141889E-03
  -10.6599998       5.96346380E-03
  -10.6499996       5.67785930E-03
  -10.6400003       5.38557814E-03
  -10.6300001       5.08748135E-03
  -10.6199999       4.78437031E-03
  -10.6099997       4.47701942E-03
  -10.6000004       4.16619191E-03
  -10.5900002       3.85264819E-03
  -10.5799999       3.53709422E-03
  -10.5699997       3.22017516E-03
  -10.5600004       2.90246611E-03
  -10.5500002       2.58450070E-03
  -10.5400000       2.26681540E-03
  -10.5299997       1.95003464E-03
  -10.5200005       1.63490721E-03
  -10.5100002       1.32231682E-03
  -10.5000000       1.01324683E-03
  -10.4899998       7.08680542E-04
  -10.4799995       4.09495871E-04
  -10.4700003       1.16362629E-04
  -10.4600000      -1.70312604E-04
  -10.4499998      -4.50388150E-04
  -10.4399996      -7.23906734E-04
  -10.4300003      -9.91002889E-04
  -10.4200001      -1.25179649E-03
  -10.4099998      -1.50634162E-03
  -10.3999996      -1.75460370E-03
  -10.3900003      -1.99650903E-03
  -10.3800001      -2.23205495E-03
  -10.3699999      -2.46138847E-03
  -10.3599997      -2.68489169E-03
  -10.3500004      -2.90321140E-03
  -10.3400002      -3.11720418E-03
  -10.3299999      -3.32790334E-03
  -10.3199997      -3.53641529E-03
  -10.3100004      -3.74385738E-03
  -10.3000002      -3.95131251E-03
  -10.2900000      -4.15979233E-03
  -10.2799997      -4.37020278E-03
  -10.2700005      -4.58333362E-03
  -10.2600002      -4.79975063E-03
  -10.2500000      -5.01973461E-03
  -10.2399998      -5.24320593E-03
  -10.2299995      -5.46968076E-03
  -10.2200003      -5.69833443E-03
  -10.2100000      -5.92811592E-03
  -10.1999998      -6.15796074E-03
  -10.1899996      -6.38700975E-03
  -10.1800003      -6.61481172E-03
  -10.1700001      -6.84139179E-03
  -10.1599998      -7.06721703E-03
  -10.1499996      -7.29301199E-03
  -10.1400003      -7.51946587E-03
  -10.1300001      -7.74696376E-03
  -10.1199999      -7.97531474E-03
  -10.1099997      -8.20367411E-03
  -10.1000004      -8.43054987E-03
  -10.0900002      -8.65400769E-03
  -10.0799999      -8.87193158E-03
  -10.0699997      -9.08226985E-03
  -10.0600004      -9.28328279E-03
  -10.0500002      -9.47362743E-03
  -10.0400000      -9.65234730E-03
  -10.0299997      -9.81879141E-03
  -10.0200005      -9.97247454E-03
  -10.0100002      -1.01129739E-02
  -10.0000000      -1.02398498E-02
  -9.98999977      -1.03526497E-02
  -9.97999954      -1.04509480E-02
  -9.97000027      -1.05343964E-02
  -9.96000004      -1.06027592E-02
  -9.94999981      -1.06558949E-02
  -9.93999958      -1.06937233E-02
  -9.93000031      -1.07161282E-02
  -9.92000008      -1.07228952E-02
  -9.90999985      -1.07136462E-02
  -9.89999962      -1.06878281E-02
  -9.89000034      -1.06447553E-02
  -9.88000011      -1.05836084E-02
  -9.86999989      -1.05035435E-02
  -9.85999966      -1.04037058E-02
  -9.85000038      -1.02832988E-02
  -9.84000015      -1.01416400E-02
  -9.82999992      -9.97821335E-03
  -9.81999969      -9.79278702E-03
  -9.81000042      -9.58548766E-03
  -9.80000019      -9.35689546E-03
  -9.78999996      -9.10808332E-03
  -9.77999973      -8.84059165E-03
  -9.77000046      -8.55634268E-03
  -9.76000023      -8.25746637E-03
  -9.75000000      -7.94610288E-03
  -9.73999977      -7.62424571E-03
  -9.72999954      -7.29364762E-03
  -9.72000027      -6.95578614E-03
  -9.71000004      -6.61198236E-03
  -9.69999981      -6.26350753E-03
  -9.68999958      -5.91174839E-03
  -9.68000031      -5.55828447E-03
  -9.67000008      -5.20492718E-03
  -9.65999985      -4.85361135E-03
  -9.64999962      -4.50627552E-03
  -9.64000034      -4.16469574E-03
  -9.63000011      -3.83031578E-03
  -9.61999989      -3.50423926E-03
  -9.60999966      -3.18720215E-03
  -9.60000038      -2.87968153E-03
  -9.59000015      -2.58199801E-03
  -9.57999992      -2.29436788E-03
  -9.56999969      -2.01696926E-03
  -9.56000042      -1.74983928E-03
  -9.55000019      -1.49279018E-03
  -9.53999996      -1.24529528E-03
  -9.52999973      -1.00637495E-03
  -9.52000046      -7.74625863E-04
  -9.51000023      -5.48298238E-04
  -9.50000000      -3.25440225E-04
  -9.48999977      -1.04148829E-04
  -9.47999954       1.17235759E-04
  -9.47000027       3.39979655E-04
  -9.46000004       5.64879214E-04
  -9.44999981       7.92268082E-04
  -9.43999958       1.02208904E-03
  -9.43000031       1.25399127E-03
  -9.42000008       1.48739025E-03
  -9.40999985       1.72151765E-03
  -9.39999962       1.95537996E-03
  -9.39000034       2.18768325E-03
  -9.38000011       2.41675787E-03
  -9.36999989       2.64045503E-03
  -9.35999966       2.85611791E-03
  -9.35000038       3.06060654E-03
  -9.34000015       3.25036305E-03
  -9.32999992       3.42154107E-03
  -9.31999969       3.57014686E-03
  -9.31000042       3.69219715E-03
  -9.30000019       3.78381391E-03
  -9.28999996       3.84137104E-03
  -9.27999973       3.86148691E-03
  -9.27000046       3.84109817E-03
  -9.26000023       3.77742830E-03
  -9.25000000       3.66798392E-03
  -9.23999977       3.51055246E-03
  -9.22999954       3.30315717E-03
  -9.22000027       3.04405368E-03
  -9.21000004       2.73171393E-03
  -9.19999981       2.36482103E-03
  -9.18999958       1.94224867E-03
  -9.18000031       1.46306190E-03
  -9.17000008       9.26527835E-04
  -9.15999985       3.32126394E-04
  -9.14999962      -3.20424879E-04
  -9.14000034      -1.03112590E-03
  -9.13000011      -1.79964642E-03
  -9.11999989      -2.62529240E-03
  -9.10999966      -3.50697292E-03
  -9.10000038      -4.44318587E-03
  -9.09000015      -5.43200085E-03
  -9.07999992      -6.47105230E-03
  -9.06999969      -7.55755231E-03
  -9.06000042      -8.68824404E-03
  -9.05000019      -9.85934865E-03
  -9.03999996      -1.10665401E-02
  -9.02999973      -1.23048760E-02
  -9.02000046      -1.35687757E-02
  -9.01000023      -1.48520488E-02
  -9.00000000      -1.61479861E-02
  -8.98999977      -1.74494851E-02
  -8.97999954      -1.87492222E-02
  -8.97000027      -2.00397968E-02
  -8.96000004      -2.13138666E-02
  -8.94999981      -2.25641709E-02
  -8.93999958      -2.37835385E-02
  -8.93000031      -2.49647759E-02
  -8.92000008      -2.61006188E-02
  -8.90999985      -2.71836296E-02
  -8.89999962      -2.82062348E-02
  -8.89000034      -2.91608293E-02
  -8.88000011      -3.00398972E-02
  -8.86999989      -3.08362562E-02
  -8.85999966      -3.15432027E-02
  -8.85000038      -3.21546905E-02
  -8.84000015      -3.26653458E-02
  -8.82999992      -3.30704898E-02
  -8.81999969      -3.33660692E-02
  -8.81000042      -3.35486382E-02
  -8.80000019      -3.36153358E-02
  -8.78999996      -3.35639566E-02
  -8.77999973      -3.33929844E-02
  -8.77000046      -3.31017338E-02
  -8.76000023      -3.26903425E-02
  -8.75000000      -3.21597159E-02
  -8.73999977      -3.15113887E-02
  -8.72999954      -3.07472982E-02
  -8.72000027      -2.98695620E-02
  -8.71000004      -2.88802590E-02
  -8.69999981      -2.77813096E-02
  -8.68999958      -2.65744887E-02
  -8.68000031      -2.52614859E-02
  -8.67000008      -2.38440167E-02
  -8.65999985      -2.23239437E-02
  -8.64999962      -2.07033306E-02
  -8.64000034      -1.89844258E-02
  -8.63000011      -1.71695910E-02
  -8.61999989      -1.52612645E-02
  -8.60999966      -1.32619143E-02
  -8.60000038      -1.11740986E-02
  -8.59000015      -9.00060311E-03
  -8.57999992      -6.74459664E-03
  -8.56999969      -4.40982776E-03
  -8.56000042      -2.00069952E-03
  -8.55000019       4.77676571E-04
  -8.53999996       3.01960227E-03
  -8.52999973       5.61890239E-03
  -8.52000046       8.26909114E-03
  -8.51000023       1.09634772E-02
  -8.50000000       1.36952270E-02
  -8.48999977       1.64573342E-02
  -8.47999954       1.92426164E-02
  -8.47000027       2.20437068E-02
  -8.46000004       2.48531494E-02
  -8.44999981       2.76635699E-02
  -8.43999958       3.04679219E-02
  -8.43000031       3.32597531E-02
  -8.42000008       3.60333882E-02
  -8.40999985       3.87840532E-02
  -8.39999962       4.15077768E-02
  -8.39000034       4.42013219E-02
  -8.38000011       4.68618907E-02
  -8.36999989       4.94869947E-02
  -8.35999966       5.20742573E-02
  -8.35000038       5.46214283E-02
  -8.34000015       5.71263805E-02
  -8.32999992       5.95871806E-02
  -8.31999969       6.20021075E-02
  -8.31000042       6.43696710E-02
  -8.30000019       6.66885227E-02
  -8.28999996       6.89573064E-02
  -8.27999973       7.11745545E-02
  -8.27000046       7.33386576E-02
  -8.26000023       7.54477531E-02
  -8.25000000       7.74998739E-02
  -8.23999977       7.94930086E-02
  -8.22999954       8.14250410E-02
  -8.22000027       8.32938626E-02
  -8.21000004       8.50971043E-02
  -8.19999981       8.68320763E-02
  -8.18999958       8.84955004E-02
  -8.18000031       9.00833756E-02
  -8.17000008       9.15910751E-02
  -8.15999985       9.30132270E-02
  -8.14999962       9.43440050E-02
  -8.14000034       9.55773890E-02
  -8.13000011       9.67071280E-02
  -8.11999989       9.77270529E-02
  -8.10999966       9.86308977E-02
  -8.10000038       9.94123667E-02
  -8.09000015      0.100065015    
  -8.07999992      0.100582324    
  -8.06999969      0.100957729    
  -8.06000042      0.101184934    
  -8.05000019      0.101258002    
  -8.03999996      0.101171710    
  -8.02999973      0.100921541    
  -8.02000046      0.100503787    
  -8.01000023       9.99154374E-02
  -8.00000000       9.91540179E-02
  -7.98999977       9.82175320E-02
  -7.98000002       9.71043259E-02
  -7.96999979       9.58132222E-02
  -7.96000004       9.43436250E-02
  -7.94999981       9.26956385E-02
  -7.94000006       9.08702537E-02
  -7.92999983       8.88692141E-02
  -7.92000008       8.66951048E-02
  -7.90999985       8.43511596E-02
  -7.90000010       8.18409547E-02
  -7.88999987       7.91684389E-02
  -7.88000011       7.63378367E-02
  -7.86999989       7.33537897E-02
  -7.86000013       7.02215210E-02
  -7.84999990       6.69470131E-02
  -7.84000015       6.35371059E-02
  -7.82999992       5.99995553E-02
  -7.82000017       5.63428551E-02
  -7.80999994       5.25760539E-02
  -7.80000019       4.87084873E-02
  -7.78999996       4.47496213E-02
  -7.78000021       4.07089218E-02
  -7.76999998       3.65959294E-02
  -7.76000023       3.24202962E-02
  -7.75000000       2.81919520E-02
  -7.73999977       2.39210539E-02
  -7.73000002       1.96180288E-02
  -7.71999979       1.52934138E-02
  -7.71000004       1.09576248E-02
  -7.69999981       6.62079826E-03
  -7.69000006       2.29267473E-03
  -7.67999983      -2.01746169E-03
  -7.67000008      -6.30051875E-03
  -7.65999985      -1.05475979E-02
  -7.65000010      -1.47496574E-02
  -7.63999987      -1.88974515E-02
  -7.63000011      -2.29815282E-02
  -7.61999989      -2.69923434E-02
  -7.61000013      -3.09204776E-02
  -7.59999990      -3.47569101E-02
  -7.59000015      -3.84932570E-02
  -7.57999992      -4.21219021E-02
  -7.57000017      -4.56360653E-02
  -7.55999994      -4.90297340E-02
  -7.55000019      -5.22976108E-02
  -7.53999996      -5.54350354E-02
  -7.53000021      -5.84379509E-02
  -7.51999998      -6.13029897E-02
  -7.51000023      -6.40275851E-02
  -7.50000000      -6.66100681E-02
  -7.48999977      -6.90497980E-02
  -7.48000002      -7.13472068E-02
  -7.46999979      -7.35036358E-02
  -7.46000004      -7.55211711E-02
  -7.44999981      -7.74024129E-02
  -7.44000006      -7.91502893E-02