  -16.0000000       0.00000000    
  -15.9899998       0.00000000    
  -15.9799995       0.00000000    
  -15.9700003       0.00000000    
  -15.9600000       0.00000000    
  -15.9499998       0.00000000    
  -15.9399996       0.00000000    
  -15.9300003       0.00000000    
  -15.9200001       0.00000000    
  -15.9099998       0.00000000    
  -15.8999996       0.00000000    
  -15.8900003       0.00000000    
  -15.8800001      -1.63951920E-43
  -15.8699999      -1.34832938E-41
  -15.8599997      -3.37464900E-40
  -15.8500004      -4.66835577E-39
  -15.8400002      -4.39096818E-38
  -15.8299999      -3.11298297E-37
  -15.8199997      -1.76667280E-36
  -15.8100004      -8.33860135E-36
  -15.8000002      -3.35665684E-35
  -15.7900000      -1.17136084E-34
  -15.7799997      -3.57747540E-34
  -15.7700005      -9.59264553E-34
  -15.7600002      -2.24821762E-33
  -15.7500000      -4.52840538E-33
  -15.7399998      -7.49292572E-33
  -15.7299995      -8.80902095E-33
  -15.7200003      -1.70180927E-33
  -15.7100000       2.76457493E-32
  -15.6999998       9.98986821E-32
  -15.6899996       2.33676075E-31
  -15.6800003       4.20570203E-31
  -15.6700001       5.81161445E-31
  -15.6599998       5.14744650E-31
  -15.6499996      -1.16781238E-31
  -15.6400003      -1.70124012E-30
  -15.6300001      -4.41139633E-30
  -15.6199999      -7.74796426E-30
  -15.6099997      -1.00181045E-29
  -15.6000004      -8.07964325E-30
  -15.5900002       2.14848563E-30
  -15.5799999       2.39090405E-29
  -15.5699997       5.63528667E-29
  -15.5600004       9.02325443E-29
  -15.5500002       1.03962505E-28
  -15.5400000       6.29202637E-29
  -15.5299997      -7.31182132E-29
  -15.5200005      -3.27525957E-28
  -15.5100002      -6.63298314E-28
  -15.5000000      -9.22268435E-28
  -15.4899998      -7.77589208E-28
  -15.4799995       2.25886714E-28
  -15.4700003       2.42990094E-27
  -15.4600000       5.53298257E-27
  -15.4499998       7.86492551E-27
  -15.4399996       5.94006291E-27
  -15.4300003      -4.76058644E-27
  -15.4200001      -2.66571846E-26
  -15.4099998      -5.42768535E-26
  -15.3999996      -6.78844576E-26
  -15.3900003      -3.23888970E-26
  -15.3800001       8.95164165E-26
  -15.3699999       3.02755275E-25
  -15.3599997       5.28147356E-25
  -15.3500004       5.61048476E-25
  -15.3400002       9.51358117E-26
  -15.3299999      -1.12358287E-24
  -15.3199997      -2.98596455E-24
  -15.3100004      -4.63825048E-24
  -15.3000002      -4.29045669E-24
  -15.2900000       3.72673299E-25
  -15.2799997       1.07991729E-23
  -15.2700005       2.52254288E-23
  -15.2600002       3.62708967E-23
  -15.2500000       3.04526626E-23
  -15.2399998      -7.74929858E-24
  -15.2299995      -8.54623001E-23
  -15.2200003      -1.86017832E-22
  -15.2100000      -2.55506468E-22
  -15.1999998      -2.04115891E-22
  -15.1899996       6.29781992E-23
  -15.1800003       5.77951609E-22
  -15.1700001       1.21947486E-21
  -15.1599998       1.64356082E-21
  -15.1499996       1.30960301E-21
  -15.1400003      -3.22948825E-22
  -15.1300001      -3.40325853E-21
  -15.1199999      -7.19664662E-21
  -15.1099997      -9.74499541E-21
  -15.1000004      -8.06256740E-21
  -15.0900002       7.72295836E-22
  -15.0799999       1.75606599E-20
  -15.0699997       3.84894991E-20
  -15.0600004       5.34899413E-20
  -15.0500002       4.72897605E-20
  -15.0400000       4.80597065E-21
  -15.0299997      -7.89186785E-20
  -15.0200005      -1.86803335E-19
  -15.0100002      -2.71801416E-19
  -15.0000000      -2.61261119E-19
  -14.9899998      -8.08588177E-20
  -14.9799995       3.00984736E-19
  -14.9700003       8.19203386E-19
  -14.9600000       1.27404839E-18
  -14.9499998       1.34414988E-18
  -14.9399996       6.82054049E-19
  -14.9300003      -9.01816706E-19
  -14.9200001      -3.20843900E-18
  -14.9099998      -5.47213393E-18
  -14.8999996      -6.37618030E-18
  -14.8900003      -4.39302926E-18
  -14.8800001       1.51162253E-18
  -14.8699999       1.09489257E-17
  -14.8599997       2.13105102E-17
  -14.8500004       2.76363111E-17
  -14.8400002       2.36710620E-17
  -14.8299999       4.33713129E-18
  -14.8199997      -3.07620661E-17
  -14.8100004      -7.39963748E-17
  -14.8000002      -1.08390214E-16
  -14.7900000      -1.10323613E-16
  -14.7799997      -5.74016030E-17
  -14.7700005       5.93193584E-17
  -14.7600002       2.22295194E-16
  -14.7500000       3.79760975E-16
  -14.7399998       4.50404423E-16
  -14.7299995       3.45545026E-16
  -14.7200003       8.20141223E-18
  -14.7100000      -5.40261331E-16
  -14.6999998      -1.16425716E-15
  -14.6899996      -1.61238683E-15
  -14.6800003      -1.57025710E-15
  -14.6700001      -7.72937470E-16
  -14.6599998       8.43195888E-16
  -14.6499996       2.99897203E-15
  -14.6400003       5.01274649E-15
  -14.6300001       5.89367219E-15
  -14.6199999       4.62560754E-15
  -14.6099997       6.11547094E-16
  -14.6000004      -5.83980852E-15
  -14.5900002      -1.31821916E-14
  -14.5799999      -1.86799649E-14
  -14.5699997      -1.90032807E-14
  -14.5600004      -1.13767172E-14
  -14.5500002       4.95162883E-15
  -14.5400000       2.74029134E-14
  -14.5299997       4.95599181E-14
  -14.5200005       6.20476638E-14
  -14.5100002       5.50677295E-14
  -14.5000000       2.22716776E-14
  -14.4899998      -3.50427356E-14
  -14.4799995      -1.05008646E-13
  -14.4700003      -1.65299537E-13
  -14.4600000      -1.87533528E-13
  -14.4499998      -1.46012325E-13
  -14.4399996      -2.90944467E-14
  -14.4300003       1.50258034E-13
  -14.4200001       3.49287846E-13
  -14.4099998       4.99813515E-13
  -14.3999996       5.24255877E-13
  -14.3900003       3.61650217E-13
  -14.3800001      -2.54451514E-15
  -14.3699999      -5.12840638E-13
  -14.3599997      -1.03765369E-12
  -14.3500004      -1.38957064E-12
  -14.3400002      -1.37395108E-12
  -14.3299999      -8.57900936E-13
  -14.3199997       1.58758504E-13
  -14.3100004       1.49598964E-12
  -14.3000002       2.79497974E-12
  -14.2900000       3.58458142E-12
  -14.2799997       3.41043361E-12
  -14.2700005       2.00099355E-12
  -14.2600002      -5.76787966E-13
  -14.2500000      -3.83059339E-12
  -14.2399998      -6.87675264E-12
  -14.2299995      -8.62044464E-12
  -14.2200003      -8.06372503E-12
  -14.2100000      -4.67309394E-12
  -14.1999998       1.30200451E-12
  -14.1899996       8.68233610E-12
  -14.1800003       1.54817791E-11
  -14.1700001       1.93333405E-11
  -14.1599998       1.81583585E-11
  -14.1499996       1.09215362E-11
  -14.1400003      -1.75484551E-12
  -14.1300001      -1.73550913E-11
  -14.1199999      -3.17846929E-11
  -14.1099997      -4.02692775E-11
  -14.1000004      -3.86896730E-11
  -14.0900002      -2.50289806E-11
  -14.0799999      -4.97485896E-13
  -14.0699997       3.00935353E-11
  -14.0600004       5.89932408E-11
  -14.0500002       7.72252401E-11
  -14.0400000       7.70449260E-11
  -14.0299997       5.45335513E-11
  -14.0200005       1.15596126E-11
  -14.0100002      -4.36177587E-11
  -14.0000000      -9.75480460E-11
  -13.9899998      -1.34566386E-10
  -13.9799995      -1.40976300E-10
  -13.9700003      -1.09397616E-10
  -13.9600000      -4.20099511E-11
  -13.9499998       4.84595003E-11
  -13.9399996       1.40666284E-10
  -13.9300003       2.09393808E-10
  -13.9200001       2.32152381E-10
  -13.9099998       1.95978331E-10
  -13.8999996       1.02473086E-10
  -13.8900003      -3.06363546E-11
  -13.8800001      -1.72348830E-10
  -13.8699999      -2.85415136E-10
  -13.8599997      -3.36040917E-10
  -13.8500004      -3.03794240E-10
  -13.8400002      -1.88869781E-10
  -13.8299999      -1.42937572E-11
  -13.8199997       1.78158252E-10
  -13.8100004       3.37856187E-10
  -13.8000002       4.18792334E-10
  -13.7900000       3.93104826E-10
  -13.7799997       2.60710176E-10
  -13.7700005       5.18212903E-11
  -13.7600002      -1.79122148E-10
  -13.7500000      -3.67206682E-10
  -13.7399998      -4.55206539E-10
  -13.7299995      -4.11225665E-10
  -13.7200003      -2.40525738E-10
  -13.7100000       1.25870651E-11
  -13.6999998       2.74419959E-10
  -13.6899996       4.61428978E-10
  -13.6800003       5.04836839E-10
  -13.6700001       3.73499343E-10
  -13.6599998       8.79630466E-11
  -13.6499996      -2.79495038E-10
  -13.6400003      -6.20461571E-10
  -13.6300001      -8.18768442E-10
  -13.6199999      -7.84716847E-10
  -13.6099997      -4.85708307E-10
  -13.6000004       3.61385262E-11
  -13.5900002       6.66026123E-10
  -13.5799999       1.23981148E-09
  -13.5699997       1.58429780E-09
  -13.5600004       1.56481261E-09
  -13.5500002       1.12736265E-09
  -13.5400000       3.22971733E-10
  -13.5299997      -6.94302060E-10
  -13.5200005      -1.69751702E-09
  -13.5100002      -2.43927234E-09
  -13.5000000      -2.71384359E-09
  -13.4899998      -2.41284348E-09
  -13.4799995      -1.55893165E-09
  -13.4700003      -3.07207010E-10
  -13.4600000       1.08767850E-09
  -13.4499998       2.33126674E-09
  -13.4399996       3.16065618E-09
  -13.4300003       3.40841377E-09
  -13.4200001       3.04145331E-09
  -13.4099998       2.16394702E-09
  -13.3999996       9.83405801E-10
  -13.3900003      -2.50147819E-10
  -13.3800001      -1.31380773E-09
  -13.3699999      -2.06908668E-09
  -13.3599997      -2.48906074E-09
  -13.3500004      -2.64668998E-09
  -13.3400002      -2.66785993E-09
  -13.3299999      -2.66474331E-09
  -13.3199997      -2.67275158E-09
  -13.3100004      -2.61513367E-09
  -13.3000002      -2.31214381E-09
  -13.2900000      -1.53824897E-09
  -13.2799997      -1.14650671E-10
  -13.2700005       1.98965799E-09
  -13.2600002       4.58227634E-09
  -13.2500000       7.22859195E-09
  -13.2399998       9.30824040E-09
  -13.2299995       1.01446318E-08
  -13.2200003       9.18280119E-09
  -13.2100000       6.17189677E-09
  -13.1999998       1.30065247E-09
  -13.1899996      -4.76049911E-09
  -13.1800003      -1.09371676E-08
  -13.1700001      -1.59458189E-08
  -13.1599998      -1.85704305E-08
  -13.1499996      -1.79595450E-08
  -13.1400003      -1.38700429E-08
  -13.1300001      -6.78996059E-09
  -13.1199999       2.10216533E-09
  -13.1099997       1.11458816E-08
  -13.1000004       1.85370350E-08
  -13.0900002       2.27217658E-08
  -13.0799999       2.27535555E-08
  -13.0699997       1.85248350E-08
  -13.0600004       1.08121236E-08
  -13.0500002       1.11802601E-09
  -13.0400000      -8.65572680E-09
  -13.0299997      -1.66261547E-08
  -13.0200005      -2.13362945E-08
  -13.0100002      -2.20511129E-08
  -13.0000000      -1.88707308E-08
  -12.9899998      -1.26379289E-08
  -12.9799995      -4.67168082E-09
  -12.9700003       3.59349417E-09
  -12.9600000       1.09581819E-08
  -12.9499998       1.66979870E-08
  -12.9399996       2.06251372E-08
  -12.9300003       2.29588490E-08
  -12.9200001       2.40504541E-08
  -12.9099998       2.40578597E-08
  -12.8999996       2.26863790E-08
  -12.8900003       1.91002147E-08
  -12.8800001       1.20650432E-08
  -12.8699999       3.16080773E-10
  -12.8599997      -1.69253216E-08
  -12.8500004      -3.94156032E-08
  -12.8400002      -6.54885355E-08
  -12.8299999      -9.19246972E-08
  -12.8199997      -1.14172146E-07
  -12.8100004      -1.26920995E-07
  -12.8000002      -1.24948315E-07
  -12.7900000      -1.04085302E-07
  -12.7799997      -6.21251814E-08
  -12.7700005       4.99866037E-10
  -12.7600002       8.03966671E-08
  -12.7500000       1.71292399E-07
  -12.7399998       2.64492172E-07
  -12.7299995       3.49623491E-07
  -12.7200003       4.15545628E-07
  -12.7100000       4.51313099E-07
  -12.6999998       4.47111859E-07
  -12.6899996       3.95140319E-07
  -12.6800003       2.90444007E-07
  -12.6700001       1.31733458E-07
  -12.6599998      -7.78097373E-08
  -12.6499996      -3.29784314E-07
  -12.6400003      -6.09990707E-07
  -12.6300001      -8.98202074E-07
  -12.6199999      -1.16849515E-06
  -12.6099997      -1.39032738E-06
  -12.6000004      -1.53048279E-06
  -12.5900002      -1.55586281E-06
  -12.5799999      -1.43696718E-06
  -12.5699997      -1.15174305E-06
  -12.5600004      -6.89384194E-07
  -12.5500002      -5.36027223E-08
  -12.5400000       7.35066010E-07
  -12.5299997       1.63827565E-06
  -12.5200005       2.60040179E-06
  -12.5100002       3.55062070E-06
  -12.5000000       4.40640679E-06
  -12.4899998       5.07819504E-06
  -12.4799995       5.47485342E-06
  -12.4700003       5.50959021E-06
  -12.4600000       5.10590189E-06
  -12.4499998       4.20318702E-06
  -12.4399996       2.76167134E-06
  -12.4300003       7.66331084E-07
  -12.4200001      -1.77049935E-06
  -12.4099998      -4.80805284E-06
  -12.3999996      -8.27776694E-06
  -12.3900003      -1.20856894E-05
  -12.3800001      -1.61165226E-05
  -12.3699999      -2.02390620E-05
  -12.3599997      -2.43125887E-05
  -12.3500004      -2.81936173E-05
  -12.3400002      -3.17424492E-05
  -12.3299999      -3.48288704E-05
  -12.3199997      -3.73366056E-05
  -12.3100004      -3.91662143E-05
  -12.3000002      -4.02365004E-05
  -12.2900000      -4.04846251E-05
  -12.2799997      -3.98652774E-05
  -12.2700005      -3.83495644E-05
  -12.2600002      -3.59239930E-05
  -12.2500000      -3.25899746E-05
  -12.2399998      -2.83640184E-05
  -12.2299995      -2.32786515E-05
  -12.2200003      -1.73837489E-05
  -12.2100000      -1.07479855E-05
  -12.1999998      -3.45990406E-06
  -12.1899996       4.37169456E-06
  -12.1800003       1.26183786E-05
  -12.1700001       2.11338793E-05
  -12.1599998       2.97569804E-05
  -12.1499996       3.83154329E-05
  -12.1400003       4.66307283E-05
  -12.1300001       5.45235162E-05
  -12.1199999       6.18195627E-05
  -12.1099997       6.83560065E-05
  -12.1000004       7.39879106E-05
  -12.0900002       7.85946904E-05
  -12.0799999       8.20861751E-05
  -12.0699997       8.44077440E-05
  -12.0600004       8.55438630E-05
  -12.0500002       8.55193866E-05
  -12.0400000       8.43980743E-05
  -12.0299997       8.22778238E-05
  -12.0200005       7.92829451E-05
  -12.0100002       7.55536385E-05
  -12.0000000       7.12340407E-05
  -11.9899998       6.64599502E-05
  -11.9799995       6.13476514E-05
  -11.9700003       5.59855980E-05
  -11.9600000       5.04296586E-05
  -11.9499998       4.47026177E-05
  -11.9399996       3.87978143E-05
  -11.9300003       3.26860900E-05
  -11.9200001       2.63249785E-05
  -11.9099998       1.96685905E-05
  -11.8999996       1.26768537E-05
  -11.8900003       5.32320701E-06
  -11.8800001      -2.40008899E-06
  -11.8699999      -1.04790115E-05
  -11.8599997      -1.88768408E-05
  -11.8500004      -2.75349266E-05
  -11.8400002      -3.63743602E-05
  -11.8299999      -4.52983877E-05
  -11.8199997      -5.41952722E-05
  -11.8100004      -6.29416827E-05
  -11.8000002      -7.14070193E-05
  -11.7900000      -7.94584193E-05
  -11.7799997      -8.69667929E-05
  -11.7700005      -9.38131925E-05
  -11.7600002      -9.98949399E-05
  -11.7500000      -1.05130530E-04
  -11.7399998      -1.09462468E-04
  -11.7299995      -1.12857371E-04
  -11.7200003      -1.15303272E-04
  -11.7100000      -1.16804535E-04
  -11.6999998      -1.17375217E-04
  -11.6899996      -1.17032512E-04
  -11.6800003      -1.15791154E-04
  -11.6700001      -1.13660353E-04
  -11.6599998      -1.10643407E-04
  -11.6499996      -1.06740270E-04
  -11.6400003      -1.01951860E-04
  -11.6300001      -9.62857084E-05
  -11.6199999      -8.97607824E-05
  -11.6099997      -8.24112867E-05
  -11.6000004      -7.42879856E-05
  -11.5900002      -6.54576579E-05
  -11.5799999      -5.60005683E-05
  -11.5699997      -4.60070660E-05
  -11.5600004      -3.55740340E-05
  -11.5500002      -2.48018769E-05
  -11.5400000      -1.37923553E-05
  -11.5299997      -2.64735513E-06
  -11.5200005       8.53218080E-06
  -11.5100002       1.96475139E-05
  -11.5000000       3.06041693E-05
  -11.4899998       4.13150592E-05
  -11.4799995       5.17045046E-05
  -11.4700003       6.17122932E-05
  -11.4600000       7.12972978E-05
  -11.4499998       8.04391748E-05
  -11.4399996       8.91378004E-05
  -11.4300003       9.74098220E-05
  -11.4200001       1.05282706E-04
  -11.4099998       1.12786911E-04
  -11.3999996       1.19947508E-04
  -11.3900003       1.26776635E-04
  -11.3800001       1.33267749E-04
  -11.3699999       1.39392941E-04
  -11.3599997       1.45103390E-04
  -11.3500004       1.50332664E-04
  -11.3400002       1.55002403E-04
  -11.3299999       1.59029063E-04
  -11.3199997       1.62330281E-04
  -11.3100004       1.64831145E-04
  -11.3000002       1.66467929E-04
  -11.2900000       1.67191130E-04
  -11.2799997       1.66966915E-04
  -11.2700005       1.65777819E-04
  -11.2600002       1.63623816E-04
  -11.2500000       1.60523472E-04
  -11.2399998       1.56515758E-04
  -11.2299995       1.51661952E-04
  -11.2200003       1.46047198E-04
  -11.2100000       1.39780081E-04
  -11.1999998       1.32990695E-04
  -11.1899996       1.25825536E-04
  -11.1800003       1.18440097E-04
  -11.1700001       1.10989626E-04
  -11.1599998       1.03619306E-04
  -11.1499996       9.64553183E-05
  -11.1400003       8.95981721E-05
  -11.1300001       8.31193538E-05
  -11.1199999       7.70613915E-05
  -11.1099997       7.14414782E-05
  -11.1000004       6.62569073E-05
  -11.0900002       6.14914752E-05
  -11.0799999       5.71211494E-05
  -11.0699997       5.31179103E-05
  -11.0600004       4.94513552E-05
  -11.0500002       4.60882038E-05
  -11.0400000       4.29907777E-05
  -11.0299997       4.01153520E-05
  -11.0200005       3.74117080E-05
  -11.0100002       3.48251597E-05
  -11.0000000       3.23007807E-05
  -10.9899998       2.97897386E-05
  -10.9799995       2.72567104E-05
  -10.9700003       2.46866930E-05
  -10.9600000       2.20898473E-05
  -10.9499998       1.95030934E-05
  -10.9399996       1.69877767E-05
  -10.9300003       1.46233660E-05
  -10.9200001       1.24978487E-05
  -10.9099998       1.06963416E-05
  -10.8999996       9.28909685E-06
  -10.8900003       8.32085334E-06
  -10.8800001       7.80285063E-06
  -10.8699999       7.70838960E-06
  -10.8599997       7.97275061E-06
  -10.8500004       8.49710068E-06
  -10.8400002       9.15590681E-06
  -10.8299999       9.80686855E-06
  -10.8199997       1.03021475E-05
  -10.8100004       1.04993769E-05
  -10.8000002       1.02713211E-05
  -10.7900000       9.51315178E-06
  -10.7799997       8.14690156E-06
  -10.7700005       6.12319991E-06
  -10.7600002       3.42052454E-06
  -10.7500000       4.29734826E-08
  -10.7399998      -3.98251404E-06
  -10.7299995      -8.60868386E-06
  -10.7200003      -1.37698016E-05
  -10.7100000      -1.93825763E-05
  -10.6999998      -2.53466915E-05
  -10.6899996      -3.15455545E-05
  -10.6800003      -3.78479672E-05
  -10.6700001      -4.41112352E-05
  -10.6599998      -5.01859759E-05
  -10.6499996      -5.59220280E-05
  -10.6400003      -6.11748037E-05
  -10.6300001      -6.58112185E-05
  -10.6199999      -6.97137366E-05
  -10.6099997      -7.27826846E-05
  -10.6000004      -7.49360697E-05
  -10.5900002      -7.61079209E-05
  -10.5799999      -7.62460695E-05
  -10.5699997      -7.53104832E-05
  -10.5600004      -7.32732151E-05
  -10.5500002      -7.01207464E-05
  -10.5400000      -6.58584322E-05
  -10.5299997      -6.05161149E-05
  -10.5200005      -5.41539303E-05
  -10.5100002      -4.68661710E-05
  -10.5000000      -3.87819346E-05
  -10.4899998      -3.00616048E-05
  -10.4799995      -2.08887323E-05
  -10.4700003      -1.14580916E-05
  -10.4600000      -1.96143310E-06
  -10.4499998       7.42711882E-06
  -10.4399996       1.65632719E-05
  -10.4300003       2.53409344E-05
  -10.4200001       3.36946832E-05
  -10.4099998       4.15963150E-05
  -10.3999996       4.90461316E-05
  -10.3900003       5.60604713E-05
  -10.3800001       6.26584660E-05
  -10.3699999       6.88505461E-05
  -10.3599997       7.46314035E-05
  -10.3500004       7.99790723E-05
  -10.3400002       8.48604686E-05
  -10.3299999       8.92423777E-05
  -10.3199997       9.31051472E-05
  -10.3100004       9.64559731E-05
  -10.3000002       9.93380891E-05
  -10.2900000       1.01833080E-04
  -10.2799997       1.04054940E-04
  -10.2700005       1.06135827E-04
  -10.2600002       1.08206288E-04
  -10.2500000       1.10372770E-04
  -10.2399998       1.12697540E-04
  -10.2299995       1.15184368E-04
  -10.2200003       1.17773568E-04
  -10.2100000       1.20347337E-04
  -10.1999998       1.22744299E-04
  -10.1899996       1.24781654E-04
  -10.1800003       1.26280298E-04
  -10.1700001       1.27089210E-04
  -10.1599998       1.27105814E-04
  -10.1499996       1.26288331E-04
  -10.1400003       1.24660466E-04
  -10.1300001       1.22307305E-04
  -10.1199999       1.19364166E-04
  -10.1099997       1.16000287E-04
  -10.1000004       1.12400041E-04
  -10.0900002       1.08743945E-04
  -10.0799999       1.05191502E-04
  -10.0699997       1.01867954E-04
  -10.0600004       9.88558822E-05
  -10.0500002       9.61922342E-05
  -10.0400000       9.38711601E-05
  -10.0299997       9.18510705E-05
  -10.0200005       9.00652594E-05
  -10.0100002       8.84340261E-05
  -10.0000000       8.68759380E-05
  -9.98999977       8.53173769E-05
  -9.97999954       8.36992622E-05
  -9.97000027       8.19804263E-05
  -9.96000004       8.01392962E-05
  -9.94999981       7.81742201E-05
  -9.93999958       7.61047631E-05
  -9.93000031       7.39735406E-05
  -9.92000008       7.18488445E-05
  -9.90999985       6.98261065E-05
  -9.89999962       6.80269222E-05
  -9.89000034       6.65926345E-05
  -9.88000011       6.56724806E-05
  -9.86999989       6.54066316E-05
  -9.85999966       6.59067737E-05
  -9.85000038       6.72383030E-05
  -9.84000015       6.94089103E-05
  -9.82999992       7.23667690E-05
  -9.81999969       7.60104231E-05
  -9.81000042       8.02092909E-05
  -9.80000019       8.48298296E-05
  -9.78999996       8.97619684E-05
  -9.77999973       9.49397509E-05
  -9.77000046       1.00349447E-04
  -9.76000023       1.06024847E-04
  -9.75000000       1.12029236E-04
  -9.73999977       1.18429452E-04
  -9.72999954       1.25268882E-04
  -9.72000027       1.32545625E-04
  -9.71000004       1.40201329E-04
  -9.69999981       1.48123916E-04
  -9.68999958       1.56161652E-04
  -9.68000031       1.64145778E-04
  -9.67000008       1.71914871E-04
  -9.65999985       1.79335999E-04
  -9.64999962       1.86318066E-04
  -9.64000034       1.92815118E-04
  -9.63000011       1.98821654E-04
  -9.61999989       2.04361058E-04
  -9.60999966       2.09471982E-04
  -9.60000038       2.14194879E-04
  -9.59000015       2.18561632E-04
  -9.57999992       2.22588264E-04
  -9.56999969       2.26270597E-04
  -9.56000042       2.29582467E-04
  -9.55000019       2.32475693E-04
  -9.53999996       2.34882216E-04
  -9.52999973       2.36718523E-04
  -9.52000046       2.37893953E-04
  -9.51000023       2.38321212E-04
  -9.50000000       2.37928922E-04
  -9.48999977       2.36674052E-04
  -9.47999954       2.34550622E-04
  -9.47000027       2.31591781E-04
  -9.46000004       2.27865530E-04
  -9.44999981       2.23463547E-04
  -9.43999958       2.18486268E-04
  -9.43000031       2.13028106E-04
  -9.42000008       2.07167410E-04
  -9.40999985       2.00963535E-04
  -9.39999962       1.94461769E-04
  -9.39000034       1.87704514E-04
  -9.38000011       1.80744770E-04
  -9.36999989       1.73657303E-04
  -9.35999966       1.66543061E-04
  -9.35000038       1.59526215E-04
  -9.34000015       1.52744266E-04
  -9.32999992       1.46334103E-04
  -9.31999969       1.40419608E-04
  -9.31000042       1.35104958E-04
  -9.30000019       1.30475484E-04
  -9.28999996       1.26606057E-04
  -9.27999973       1.23573933E-04
  -9.27000046       1.21470221E-04
  -9.26000023       1.20406359E-04
  -9.25000000       1.20509314E-04
  -9.23999977       1.21907935E-04
  -9.22999954       1.24710685E-04
  -9.22000027       1.28981148E-04
  -9.21000004       1.34717775E-04
  -9.19999981       1.41843644E-04
  -9.18999958       1.50208652E-04
  -9.18000031       1.59604489E-04
  -9.17000008       1.69788138E-04
  -9.15999985       1.80510135E-04
  -9.14999962       1.91537983E-04
  -9.14000034       2.02673182E-04
  -9.13000011       2.13757565E-04
  -9.11999989       2.24670657E-04
  -9.10999966       2.35320957E-04
  -9.10000038       2.45635892E-04
  -9.09000015       2.55553314E-04
  -9.07999992       2.65017763E-04
  -9.06999969       2.73980870E-04
  -9.06000042       2.82404537E-04
  -9.05000019       2.90262949E-04
  -9.03999996       2.97542079E-04
  -9.02999973       3.04235349E-04
  -9.02000046       3.10336909E-04
  -9.01000023       3.15832964E-04
  -9.00000000       3.20697087E-04
  -8.98999977       3.24890309E-04
  -8.97999954       3.28365975E-04
  -8.97000027       3.31077725E-04
  -8.96000004       3.32989090E-04
  -8.94999981       3.34079959E-04
  -8.93999958       3.34346696E-04
  -8.93000031       3.33795819E-04
  -8.92000008       3.32434778E-04
  -8.90999985       3.30262439E-04
  -8.89999962       3.27263493E-04
  -8.89000034       3.23411659E-04
  -8.88000011       3.18681414E-04
  -8.86999989       3.13065248E-04
  -8.85999966       3.06591886E-04
  -8.85000038       2.99341627E-04
  -8.84000015       2.91448785E-04
  -8.82999992       2.83095898E-04
  -8.81999969       2.74497230E-04
  -8.81000042       2.65878276E-04
  -8.80000019       2.57458916E-04
  -8.78999996       2.49444449E-04
  -8.77999973       2.42028415E-04
  -8.77000046       2.35404179E-04
  -8.76000023       2.29780955E-04
  -8.75000000       2.25395022E-04
  -8.73999977       2.22511342E-04
  -8.72999954       2.21408554E-04
  -8.72000027       2.22351751E-04
  -8.71000004       2.25555923E-04
  -8.69999981       2.31152953E-04
  -8.68999958       2.39168832E-04
  -8.68000031       2.49518082E-04
  -8.67000008       2.62018817E-04
  -8.65999985       2.76420120E-04
  -8.64999962       2.92437937E-04
  -8.64000034       3.09785741E-04
  -8.63000011       3.28193331E-04
  -8.61999989       3.47411697E-04
  -8.60999966       3.67203786E-04
  -8.60000038       3.87328706E-04
  -8.59000015       4.07528481E-04
  -8.57999992       4.27523657E-04
  -8.56999969       4.47021041E-04
  -8.56000042       4.65735269E-04
  -8.55000019       4.83411888E-04
  -8.53999996       4.99852642E-04
  -8.52999973       5.14928659E-04
  -8.52000046       5.28579811E-04
  -8.51000023       5.40804642E-04
  -8.50000000       5.51640056E-04
  -8.48999977       5.61143213E-04
  -8.47999954       5.69377677E-04
  -8.47000027       5.76409628E-04
  -8.46000004       5.82313864E-04
  -8.44999981       5.87181828E-04
  -8.43999958       5.91132208E-04
  -8.43000031       5.94309822E-04
  -8.42000008       5.96880796E-04
  -8.40999985       5.99016726E-04
  -8.39999962       6.00879604E-04
  -8.39000034       6.02608547E-04
  -8.38000011       6.04316767E-04
  -8.36999989       6.06095826E-04
  -8.35999966       6.08030183E-04
  -8.35000038       6.10210467E-04
  -8.34000015       6.12744247E-04
  -8.32999992       6.15754165E-04
  -8.31999969       6.19367464E-04
  -8.31000042       6.23697182E-04
  -8.30000019       6.28823065E-04
  -8.28999996       6.34777127E-04
  -8.27999973       6.41543185E-04
  -8.27000046       6.49070425E-04
  -8.26000023       6.57296274E-04
  -8.25000000       6.66171836E-04
  -8.23999977       6.75684074E-04
  -8.22999954       6.85861625E-04
  -8.22000027       6.96767296E-04
  -8.21000004       7.08477513E-04
  -8.19999981       7.21053686E-04
  -8.18999958       7.34516885E-04
  -8.18000031       7.48836086E-04
  -8.17000008       7.63927179E-04
  -8.15999985       7.79670198E-04
  -8.14999962       7.95931614E-04
  -8.14000034       8.12588434E-04
  -8.13000011       8.29540950E-04
  -8.11999989       8.46714422E-04
  -8.10999966       8.64043133E-04
  -8.10000038       8.81446816E-04
  -8.09000015       8.98806320E-04
  -8.07999992       9.15947487E-04
  -8.06999969       9.32638592E-04
  -8.06000042       9.48605244E-04
  -8.05000019       9.63557803E-04
  -8.03999996       9.77223623E-04
  -8.02999973       9.89375985E-04
  -8.02000046       9.99848824E-04
  -8.01000023       1.00853911E-03
  -8.00000000       1.01539202E-03
  -7.98999977       1.02038065E-03
  -7.98000002       1.02348137E-03
  -7.96999979       1.02466054E-03
  -7.96000004       1.02387124E-03
  -7.94999981       1.02106319E-03
  -7.94000006       1.01620145E-03
  -7.92999983       1.00928580E-03
  -7.92000008       1.00036454E-03
  -7.90999985       9.89538035E-04
  -7.90000010       9.76947718E-04
  -7.88999987       9.62758495E-04
  -7.88000011       9.47138353E-04
  -7.86999989       9.30241833E-04
  -7.86000013       9.12207062E-04
  -7.84999990       8.93164484E-04
  -7.84000015       8.73256591E-04
  -7.82999992       8.52665340E-04
  -7.82000017       8.31628335E-04
  -7.80999994       8.10450700E-04
  -7.80000019       7.89495010E-04
  -7.78999996       7.69159291E-04
  -7.78000021       7.49840925E-04
  -7.76999998       7.31900334E-04
  -7.76000023       7.15631875E-04
  -7.75000000       7.01249926E-04
  -7.73999977       6.88888889E-04
  -7.73000002       6.78617798E-04
  -7.71999979       6.70467678E-04
  -7.71000004       6.64451916E-04
  -7.69999981       6.60584657E-04
  -7.69000006       6.58885168E-04
  -7.67999983       6.59368816E-04
  -7.67000008       6.62035309E-04
  -7.65999985       6.66855252E-04
  -7.65000010       6.73763570E-04
  -7.63999987       6.82664337E-04
  -7.63000011       6.93445443E-04
  -7.61999989       7.06000777E-04
  -7.61000013       7.20250653E-04
  -7.59999990       7.36156187E-04
  -7.59000015       7.53717031E-04
  -7.57999992       7.72959262E-04
  -7.57000017       7.93917454E-04
  -7.55999994       8.16608605E-04
  -7.55000019       8.41018511E-04
  -7.53999996       8.67098453E-04
  -7.53000021       8.94774275E-04
  -7.51999998       9.23966989E-04
  -7.51000023       9.54611634E-04
  -7.50000000       9.86672705E-04
  -7.48999977       1.02013862E-03
  -7.48000002       1.05500699E-03
  -7.46999979       1.09125546E-03
  -7.46000004       1.12880592E-03
  -7.44999981       1.16750586E-03
  -7.44000006       1.20712176E-03