  -16.0000000       0.00000000    
  -15.9899998       0.00000000    
  -15.9799995       0.00000000    
  -15.9700003       0.00000000    
  -15.9600000       0.00000000    
  -15.9499998       0.00000000    
  -15.9399996       0.00000000    
  -15.9300003       0.00000000    
  -15.9200001       0.00000000    
  -15.9099998       0.00000000    
  -15.8999996       0.00000000    
  -15.8900003       0.00000000    
  -15.8800001       0.00000000    
  -15.8699999      -0.00000000    
  -15.8599997      -0.00000000    
  -15.8500004      -2.80259693E-45
  -15.8400002      -2.10194770E-44
  -15.8299999      -1.44333742E-43
  -15.8199997      -7.55299872E-43
  -15.8100004      -3.18375011E-42
  -15.8000002      -1.08894904E-41
  -15.7900000      -2.93810249E-41
  -15.7799997      -5.53288686E-41
  -15.7700005      -2.41836089E-41
  -15.7600002       3.53932960E-40
  -15.7500000       1.97817941E-39
  -15.7399998       7.01399347E-39
  -15.7299995       1.95239033E-38
  -15.7200003       4.48740161E-38
  -15.7100000       8.53405170E-38
  -15.6999998       1.28609648E-37
  -15.6899996       1.28632832E-37
  -15.6800003      -1.17055029E-38
  -15.6700001      -4.29305519E-37
  -15.6599998      -1.22141228E-36
  -15.6499996      -2.28068612E-36
  -15.6400003      -3.12152403E-36
  -15.6300001      -2.93428813E-36
  -15.6199999      -1.19775737E-36
  -15.6099997       1.09869163E-36
  -15.6000004       5.59923217E-37
  -15.5900002      -6.67901483E-36
  -15.5799999      -1.69175376E-35
  -15.5699997      -4.57834064E-36
  -15.5600004       8.81969451E-35
  -15.5500002       3.30926019E-34
  -15.5400000       7.14440120E-34
  -15.5299997       9.73851611E-34
  -15.5200005       3.98441984E-34
  -15.5100002      -2.12934851E-33
  -15.5000000      -7.45400070E-33
  -15.4899998      -1.44604892E-32
  -15.4799995      -1.76071906E-32
  -15.4700003      -5.27360304E-33
  -15.4600000       3.76293198E-32
  -15.4499998       1.18337439E-31
  -15.4399996       2.14109314E-31
  -15.4300003       2.45669668E-31
  -15.4200001       6.75544437E-32
  -15.4099998      -4.87635024E-31
  -15.3999996      -1.47266685E-30
  -15.3900003      -2.59339388E-30
  -15.3800001      -2.96614201E-30
  -15.3699999      -1.08240930E-30
  -15.3599997       4.69094092E-30
  -15.3500004       1.47899608E-29
  -15.3400002       2.63811025E-29
  -15.3299999       3.13674525E-29
  -15.3199997       1.63090847E-29
  -15.3100004      -3.32101492E-29
  -15.3000002      -1.21812650E-28
  -15.2900000      -2.28084706E-28
  -15.2799997      -2.89352750E-28
  -15.2700005      -2.00820074E-28
  -15.2600002       1.53395878E-28
  -15.2500000       8.24452187E-28
  -15.2399998       1.68498494E-27
  -15.2299995       2.32009000E-27
  -15.2200003       2.00864671E-27
  -15.2100000      -9.40175263E-29
  -15.1999998      -4.48929532E-27
  -15.1899996      -1.06171765E-26
  -15.1800003      -1.61286479E-26
  -15.1700001      -1.66387451E-26
  -15.1599998      -6.60614155E-27
  -15.1499996       1.81447453E-26
  -15.1400003       5.63388928E-26
  -15.1300001       9.67804757E-26
  -15.1199999       1.16014790E-25
  -15.1099997       8.15770553E-26
  -15.1000004      -3.61329017E-26
  -15.0900002      -2.42993318E-25
  -15.0799999      -4.96185571E-25
  -15.0699997      -6.86665996E-25
  -15.0600004      -6.45984982E-25
  -15.0500002      -1.94009653E-25
  -15.0400000       7.66305696E-25
  -15.0299997       2.12335915E-24
  -15.0200005       3.44758800E-24
  -15.0100002       3.97342769E-24
  -15.0000000       2.75466757E-24
  -14.9899998      -9.58159034E-25
  -14.9799995      -7.15543305E-24
  -14.9700003      -1.44870755E-23
  -14.9600000      -1.99610460E-23
  -14.9499998      -1.92886305E-23
  -14.9399996      -8.16432067E-24
  -14.9300003       1.55184859E-23
  -14.9200001       4.90006852E-23
  -14.9099998       8.25914207E-23
  -14.8999996       9.96650654E-23
  -14.8900003       8.01242424E-23
  -14.8800001       7.92727822E-24
  -14.8699999      -1.18345531E-22
  -14.8599997      -2.75068654E-22
  -14.8500004      -4.08429540E-22
  -14.8400002      -4.40390322E-22
  -14.8299999      -2.89874727E-22
  -14.8199997       9.13907539E-23
  -14.8100004       6.76180367E-22
  -14.8000002       1.32785076E-21
  -14.7900000       1.79596683E-21
  -14.7799997       1.76075794E-21
  -14.7700005       9.34561520E-22
  -14.7600002      -7.92611339E-22
  -14.7500000      -3.20306891E-21
  -14.7399998      -5.66040501E-21
  -14.7299995      -7.14927761E-21
  -14.7200003      -6.49930226E-21
  -14.7100000      -2.79503784E-21
  -14.6999998       4.10450897E-21
  -14.6899996       1.30989155E-20
  -14.6800003       2.16535576E-20
  -14.6700001       2.60982883E-20
  -14.6599998       2.25379656E-20
  -14.6499996       8.30217916E-21
  -14.6400003      -1.63923125E-20
  -14.6300001      -4.71316333E-20
  -14.6199999      -7.50316664E-20
  -14.6099997      -8.80850353E-20
  -14.6000004      -7.43334290E-20
  -14.5900002      -2.64473213E-20
  -14.5799999       5.34315378E-20
  -14.5699997       1.50318957E-19
  -14.5600004       2.36387436E-19
  -14.5500002       2.75741278E-19
  -14.5400000       2.34148362E-19
  -14.5299997       9.21326885E-20
  -14.5200005      -1.42037548E-19
  -14.5100002      -4.24228831E-19
  -14.5000000      -6.75979958E-19
  -14.4899998      -7.98779521E-19
  -14.4799995      -7.00715916E-19
  -14.4700003      -3.30599508E-19
  -14.4600000       2.89713625E-19
  -14.4499998       1.04662356E-18
  -14.4399996       1.74080346E-18
  -14.4300003       2.12415328E-18
  -14.4200001       1.96532344E-18
  -14.4099998       1.13097448E-18
  -14.3999996      -3.39363021E-19
  -14.3900003      -2.19154141E-18
  -14.3800001      -3.97178298E-18
  -14.3699999      -5.11012950E-18
  -14.3599997      -5.06497661E-18
  -14.3500004      -3.49939379E-18
  -14.3400002      -4.41814122E-19
  -14.3299999       3.62367312E-18
  -14.3199997       7.78371001E-18
  -14.3100004       1.08595191E-17
  -14.3000002       1.16908637E-17
  -14.2900000       9.48132947E-18
  -14.2799997       4.11405267E-18
  -14.2700005      -3.66344273E-18
  -14.2600002      -1.22677064E-17
  -14.2500000      -1.95552412E-17
  -14.2399998      -2.33118621E-17
  -14.2299995      -2.18515508E-17
  -14.2200003      -1.45701992E-17
  -14.2100000      -2.28772618E-18
  -14.1999998       1.27512489E-17
  -14.1899996       2.72666391E-17
  -14.1800003       3.76629858E-17
  -14.1700001       4.09175643E-17
  -14.1599998       3.54065231E-17
  -14.1499996       2.14334921E-17
  -14.1400003       1.29075899E-18
  -14.1300001      -2.11934112E-17
  -14.1199999      -4.15195864E-17
  -14.1099997      -5.55640842E-17
  -14.1000004      -6.05139991E-17
  -14.0900002      -5.54224080E-17
  -14.0799999      -4.12319658E-17
  -14.0699997      -2.02891440E-17
  -14.0600004       4.45206886E-18
  -14.0500002       3.02224631E-17
  -14.0400000       5.49048675E-17
  -14.0299997       7.69752771E-17
  -14.0200005       9.49336726E-17
  -14.0100002       1.06486977E-16
  -14.0000000       1.07930917E-16
  -13.9899998       9.42146277E-17
  -13.9799995       6.00165459E-17
  -13.9700003       1.82514155E-18
  -13.9600000      -7.94105498E-17
  -13.9499998      -1.75885280E-16
  -13.9399996      -2.71818934E-16
  -13.9300003      -3.44527184E-16
  -13.9200001      -3.68136189E-16
  -13.9099998      -3.19661235E-16
  -13.8999996      -1.86331115E-16
  -13.8900003       2.76576639E-17
  -13.8800001       2.97079177E-16
  -13.8699999       5.76172034E-16
  -13.8599997       8.04685906E-16
  -13.8500004       9.19143933E-16
  -13.8400002       8.67479899E-16
  -13.8299999       6.23931457E-16
  -13.8199997       2.00427001E-16
  -13.8100004      -3.49034220E-16
  -13.8000002      -9.33271913E-16
  -13.7900000      -1.43832187E-15
  -13.7799997      -1.74921579E-15
  -13.7700005      -1.77489592E-15
  -13.7600002      -1.47074058E-15
  -13.7500000      -8.53164936E-16
  -13.7399998      -2.16198294E-18
  -13.7299995       9.49776456E-16
  -13.7200003       1.84073918E-15
  -13.7100000       2.50986238E-15
  -13.6999998       2.82856827E-15
  -13.6899996       2.72553158E-15
  -13.6800003       2.19971936E-15
  -13.6700001       1.31873300E-15
  -13.6599998       2.03386560E-16
  -13.6499996      -9.97046929E-16
  -13.6400003      -2.13218183E-15
  -13.6300001      -3.07332522E-15
  -13.6199999      -3.72634823E-15
  -13.6099997      -4.03264382E-15
  -13.6000004      -3.96036565E-15
  -13.5900002      -3.49168834E-15
  -13.5799999      -2.61363260E-15
  -13.5699997      -1.31917928E-15
  -13.5600004       3.78063495E-16
  -13.5500002       2.41769016E-15
  -13.5400000       4.66251276E-15
  -13.5299997       6.87663317E-15
  -13.5200005       8.72442157E-15
  -13.5100002       9.80020932E-15
  -13.5000000       9.69148332E-15
  -13.4899998       8.06887482E-15
  -13.4799995       4.78654719E-15
  -13.4700003      -3.04551887E-17
  -13.4600000      -5.93730921E-15
  -13.4499998      -1.21798594E-14
  -13.4399996      -1.77745239E-14
  -13.4300003      -2.16527456E-14
  -13.4200001      -2.28490051E-14
  -13.4099998      -2.06984156E-14
  -13.3999996      -1.50036233E-14
  -13.3900003      -6.13311231E-15
  -13.3800001       4.97549779E-15
  -13.3699999       1.69153869E-14
  -13.3599997       2.80008611E-14
  -13.3500004       3.65164137E-14
  -13.3400002       4.09807381E-14
  -13.3299999       4.03790567E-14
  -13.3199997       3.43250920E-14
  -13.3100004       2.31293290E-14
  -13.3000002       7.76974598E-15
  -13.2900000      -1.02206536E-14
  -13.2799997      -2.89229429E-14
  -13.2700005      -4.62279615E-14
  -13.2600002      -6.00334059E-14
  -13.2500000      -6.84281868E-14
  -13.2399998      -6.98616580E-14
  -13.2299995      -6.33033529E-14
  -13.2200003      -4.83988290E-14
  -13.2100000      -2.56179999E-14
  -13.1999998       3.62316649E-15
  -13.1899996       3.69037415E-14
  -13.1800003       7.08484852E-14
  -13.1700001       1.01333045E-13
  -13.1599998       1.23869908E-13
  -13.1499996       1.34166997E-13
  -13.1400003       1.28805793E-13
  -13.1300001       1.05941480E-13
  -13.1199999       6.58957142E-14
  -13.1099997       1.15041338E-14
  -13.1000004      -5.18968583E-14
  -13.0900002      -1.16906417E-13
  -13.0799999      -1.74905988E-13
  -13.0699997      -2.17219716E-13
  -13.0600004      -2.36418713E-13
  -13.0500002      -2.27554005E-13
  -13.0400000      -1.89098235E-13
  -13.0299997      -1.23416658E-13
  -13.0200005      -3.66658472E-14
  -13.0100002       6.18804934E-14
  -13.0000000       1.60974803E-13
  -12.9899998       2.48824670E-13
  -12.9799995       3.14578496E-13
  -12.9700003       3.49642976E-13
  -12.9600000       3.48655810E-13
  -12.9499998       3.10013246E-13
  -12.9399996       2.35943128E-13
  -12.9300003       1.32188260E-13
  -12.9200001       7.41331706E-15
  -12.9099998      -1.27544907E-13
  -12.8999996      -2.60489384E-13
  -12.8900003      -3.78692574E-13
  -12.8800001      -4.69750107E-13
  -12.8699999      -5.22492910E-13
  -12.8599997      -5.27991062E-13
  -12.8500004      -4.80636256E-13
  -12.8400002      -3.79223481E-13
  -12.8299999      -2.27867394E-13
  -12.8199997      -3.65343369E-14
  -12.8100004       1.79043073E-13
  -12.8000002       3.98253018E-13
  -12.7900000       5.97363521E-13
  -12.7799997       7.52060198E-13
  -12.7700005       8.40494829E-13
  -12.7600002       8.46425577E-13
  -12.7500000       7.61945303E-13
  -12.7399998       5.89298521E-13
  -12.7299995       3.41405615E-13
  -12.7200003       4.09053420E-14
  -12.7100000      -2.82223003E-13
  -12.6999998      -5.94144092E-13
  -12.6899996      -8.61247651E-13
  -12.6800003      -1.05421347E-12
  -12.6700001      -1.15146022E-12
  -12.6599998      -1.14150063E-12
  -12.6499996      -1.02394005E-12
  -12.6400003      -8.09090587E-13
  -12.6300001      -5.16403272E-13
  -12.6199999      -1.72074201E-13
  -12.6099997       1.93755046E-13
  -12.6000004       5.49810902E-13
  -12.5900002       8.66236661E-13
  -12.5799999       1.11673062E-12
  -12.5699997       1.28026300E-12
  -12.5600004       1.34242736E-12
  -12.5500002       1.29650186E-12
  -12.5400000       1.14422241E-12
  -12.5299997       8.96184385E-13
  -12.5200005       5.71698721E-13
  -12.5100002       1.97882943E-13
  -12.5000000      -1.92184864E-13
  -12.4899998      -5.62295219E-13
  -12.4799995      -8.76769794E-13
  -12.4700003      -1.10458745E-12
  -12.4600000      -1.22343162E-12
  -12.4499998      -1.22302168E-12
  -12.4399996      -1.10714389E-12
  -12.4300003      -8.93961391E-13
  -12.4200001      -6.14477978E-13
  -12.4099998      -3.09338167E-13
  -12.3999996      -2.44631890E-14
  -12.3900003       1.93808674E-13
  -12.3800001       3.03333015E-13
  -12.3699999       2.69909231E-13
  -12.3599997       6.97832905E-14
  -12.3500004      -3.09172718E-13
  -12.3400002      -8.67381850E-13
  -12.3299999      -1.59417726E-12
  -12.3199997      -2.46861060E-12
  -12.3100004      -3.46011002E-12
  -12.3000002      -4.52880181E-12
  -12.2900000      -5.62561846E-12
  -12.2799997      -6.69259656E-12
  -12.2700005      -7.66386347E-12
  -12.2600002      -8.46783754E-12
  -12.2500000      -9.03094266E-12
  -12.2399998      -9.28280543E-12
  -12.2299995      -9.16253011E-12
  -12.2200003      -8.62531227E-12
  -12.2100000      -7.64832381E-12
  -12.1999998      -6.23495396E-12
  -12.1899996      -4.41648237E-12
  -12.1800003      -2.25081737E-12
  -12.1700001       1.81673632E-13
  -12.1599998       2.78477979E-12
  -12.1499996       5.45447368E-12
  -12.1400003       8.08737799E-12
  -12.1300001       1.05884902E-11
  -12.1199999       1.28773641E-11
  -12.1099997       1.48922732E-11
  -12.1000004       1.65921738E-11
  -12.0900002       1.79568218E-11
  -12.0799999       1.89855284E-11
  -12.0699997       1.96949419E-11
  -12.0600004       2.01165265E-11
  -12.0500002       2.02937060E-11
  -12.0400000       2.02788775E-11
  -12.0299997       2.01299515E-11
  -12.0200005       1.99063301E-11
  -12.0100002       1.96641124E-11
  -12.0000000       1.94506945E-11
  -11.9899998       1.92991612E-11
  -11.9799995       1.92229514E-11
  -11.9700003       1.92118647E-11
  -11.9600000       1.92299406E-11
  -11.9499998       1.92161044E-11
  -11.9399996       1.90876585E-11
  -11.9300003       1.87463933E-11
  -11.9200001       1.80870319E-11
  -11.9099998       1.70069549E-11
  -11.8999996       1.54157208E-11
  -11.8900003       1.32440838E-11
  -11.8800001       1.04504851E-11
  -11.8699999       7.02560709E-12
  -11.8599997       2.99370034E-12
  -11.8500004      -1.58840584E-12
  -11.8400002      -6.63466591E-12
  -11.8299999      -1.20349052E-11
  -11.8199997      -1.76608190E-11
  -11.8100004      -2.33727968E-11
  -11.8000002      -2.90268799E-11
  -11.7900000      -3.44816363E-11
  -11.7799997      -3.96049200E-11
  -11.7700005      -4.42800970E-11
  -11.7600002      -4.84115248E-11
  -11.7500000      -5.19289611E-11
  -11.7399998      -5.47905610E-11
  -11.7299995      -5.69838968E-11
  -11.7200003      -5.85249071E-11
  -11.7100000      -5.94546565E-11
  -11.6999998      -5.98340266E-11
  -11.6899996      -5.97372429E-11
  -11.6800003      -5.92443247E-11
  -11.6700001      -5.84339452E-11
  -11.6599998      -5.73767839E-11
  -11.6499996      -5.61306730E-11
  -11.6400003      -5.47370656E-11
  -11.6300001      -5.32198244E-11
  -11.6199999      -5.15847677E-11
  -11.6099997      -4.98208384E-11
  -11.6000004      -4.79014849E-11
  -11.5900002      -4.57863192E-11
  -11.5799999      -4.34234766E-11
  -11.5699997      -4.07513051E-11
  -11.5600004      -3.77007418E-11
  -11.5500002      -3.41987896E-11
  -11.5400000      -3.01724166E-11
  -11.5299997      -2.55534604E-11
  -11.5200005      -2.02841372E-11
  -11.5100002      -1.43230592E-11
  -11.5000000      -7.64987986E-12
  -11.4899998      -2.69723398E-13
  -11.4799995       7.78508508E-12
  -11.4700003       1.64554256E-11
  -11.4600000       2.56575976E-11
  -11.4499998       3.52879080E-11
  -11.4399996       4.52289005E-11
  -11.4300003       5.53555118E-11
  -11.4200001       6.55419816E-11
  -11.4099998       7.56677082E-11
  -11.3999996       8.56217319E-11
  -11.3900003       9.53069151E-11
  -11.3800001       1.04641823E-10
  -11.3699999       1.13562298E-10
  -11.3599997       1.22022059E-10
  -11.3500004       1.29993058E-10
  -11.3400002       1.37464692E-10
  -11.3299999       1.44443332E-10
  -11.3199997       1.50951085E-10
  -11.3100004       1.57023977E-10
  -11.3000002       1.62709693E-10
  -11.2900000       1.68065048E-10
  -11.2799997       1.73152881E-10
  -11.2700005       1.78039111E-10
  -11.2600002       1.82789256E-10
  -11.2500000       1.87465793E-10
  -11.2399998       1.92125413E-10
  -11.2299995       1.96816299E-10
  -11.2200003       2.01575590E-10
  -11.2100000       2.06428014E-10
  -11.1999998       2.11382967E-10
  -11.1899996       2.16433468E-10
  -11.1800003       2.21554955E-10
  -11.1700001       2.26706084E-10
  -11.1599998       2.31829431E-10
  -11.1499996       2.36855396E-10
  -11.1400003       2.41706377E-10
  -11.1300001       2.46302034E-10
  -11.1199999       2.50564486E-10
  -11.1099997       2.54426313E-10
  -11.1000004       2.57832866E-10
  -11.0900002       2.60746702E-10
  -11.0799999       2.63148503E-10
  -11.0699997       2.65036881E-10
  -11.0600004       2.66426353E-10
  -11.0500002       2.67345368E-10
  -11.0400000       2.67831229E-10
  -11.0299997       2.67931455E-10
  -11.0200005       2.67695949E-10
  -11.0100002       2.67182776E-10
  -11.0000000       2.66450612E-10
  -10.9899998       2.65562128E-10
  -10.9799995       2.64579220E-10
  -10.9700003       2.63564004E-10
  -10.9600000       2.62569438E-10
  -10.9499998       2.61644428E-10
  -10.9399996       2.60822253E-10
  -10.9300003       2.60123839E-10
  -10.9200001       2.59548633E-10
  -10.9099998       2.59079286E-10
  -10.8999996       2.58680244E-10
  -10.8900003       2.58303740E-10
  -10.8800001       2.57889016E-10
  -10.8699999       2.57368682E-10
  -10.8599997       2.56672822E-10
  -10.8500004       2.55730825E-10
  -10.8400002       2.54477633E-10
  -10.8299999       2.52852628E-10
  -10.8199997       2.50803489E-10
  -10.8100004       2.48285170E-10
  -10.8000002       2.45266168E-10
  -10.7900000       2.41724946E-10
  -10.7799997       2.37653314E-10
  -10.7700005       2.33054048E-10
  -10.7600002       2.27946009E-10
  -10.7500000       2.22364294E-10
  -10.7399998       2.16352450E-10
  -10.7299995       2.09967030E-10
  -10.7200003       2.03273398E-10
  -10.7100000       1.96339250E-10
  -10.6999998       1.89235960E-10
  -10.6899996       1.82037288E-10
  -10.6800003       1.74809972E-10
  -10.6700001       1.67618919E-10
  -10.6599998       1.60520708E-10
  -10.6499996       1.53565702E-10
  -10.6400003       1.46798018E-10
  -10.6300001       1.40253989E-10
  -10.6199999       1.33966671E-10
  -10.6099997       1.27953342E-10
  -10.6000004       1.22235430E-10
  -10.5900002       1.16825383E-10
  -10.5799999       1.11729681E-10
  -10.5699997       1.06956381E-10
  -10.5600004       1.02512318E-10
  -10.5500002       9.83995455E-11
  -10.5400000       9.46275211E-11
  -10.5299997       9.12069795E-11
  -10.5200005       8.81525131E-11
  -10.5100002       8.54818924E-11
  -10.5000000       8.32167807E-11
  -10.4899998       8.13750942E-11
  -10.4799995       7.99784267E-11
  -10.4700003       7.90405241E-11
  -10.4600000       7.85606927E-11
  -10.4499998       7.85348869E-11
  -10.4399996       7.89377036E-11
  -10.4300003       7.97221247E-11
  -10.4200001       8.08270811E-11
  -10.4099998       8.21688065E-11
  -10.3999996       8.36518285E-11
  -10.3900003       8.51617318E-11
  -10.3800001       8.65813185E-11
  -10.3699999       8.77910800E-11
  -10.3599997       8.86782661E-11
  -10.3500004       8.91413263E-11
  -10.3400002       8.91001023E-11
  -10.3299999       8.84925119E-11
  -10.3199997       8.72757908E-11
  -10.3100004       8.54313981E-11
  -10.3000002       8.29728231E-11
  -10.2900000       7.99215694E-11
  -10.2799997       7.63206512E-11
  -10.2700005       7.22228735E-11
  -10.2600002       6.76849340E-11
  -10.2500000       6.27771446E-11
  -10.2399998       5.75702264E-11
  -10.2299995       5.21344252E-11
  -10.2200003       4.65448964E-11
  -10.2100000       4.08816175E-11
  -10.1999998       3.52216936E-11
  -10.1899996       2.96453383E-11
  -10.1800003       2.42395062E-11
  -10.1700001       1.90902519E-11
  -10.1599998       1.42767673E-11
  -10.1499996       9.87840539E-12
  -10.1400003       5.96185384E-12
  -10.1300001       2.58171978E-12
  -10.1199999      -2.24242540E-13
  -10.1099997      -2.43436673E-12
  -10.1000004      -4.04490764E-12
  -10.0900002      -5.07463602E-12
  -10.0799999      -5.55217157E-12
  -10.0699997      -5.51697967E-12
  -10.0600004      -5.03132432E-12
  -10.0500002      -4.15029469E-12
  -10.0400000      -2.93475964E-12
  -10.0299997      -1.44395325E-12
  -10.0200005       2.66465533E-13
  -10.0100002       2.15403693E-12
  -10.0000000       4.18359401E-12
  -9.98999977       6.34523814E-12
  -9.97999954       8.63404834E-12
  -9.97000027       1.10676433E-11
  -9.96000004       1.36826019E-11
  -9.94999981       1.65229445E-11
  -9.93999958       1.96407023E-11
  -9.93000031       2.30882362E-11
  -9.92000008       2.69354608E-11
  -9.90999985       3.12372732E-11
  -9.89999962       3.60427903E-11
  -9.89000034       4.13943185E-11
  -9.88000011       4.73273261E-11
  -9.86999989       5.38711749E-11
  -9.85999966       6.10479653E-11
  -9.85000038       6.88651289E-11
  -9.84000015       7.73340697E-11
  -9.82999992       8.64535596E-11
  -9.81999969       9.62290386E-11
  -9.81000042       1.06652069E-10
  -9.80000019       1.17710508E-10
  -9.78999996       1.29387404E-10
  -9.77999973       1.41671064E-10
  -9.77000046       1.54553190E-10
  -9.76000023       1.68010578E-10
  -9.75000000       1.82039148E-10
  -9.73999977       1.96623509E-10
  -9.72999954       2.11753240E-10
  -9.72000027       2.27419431E-10
  -9.71000004       2.43598947E-10
  -9.69999981       2.60264005E-10
  -9.68999958       2.77369044E-10
  -9.68000031       2.94854974E-10
  -9.67000008       3.12651099E-10
  -9.65999985       3.30647482E-10
  -9.64999962       3.48738455E-10
  -9.64000034       3.66780412E-10
  -9.63000011       3.84637516E-10
  -9.61999989       4.02154005E-10
  -9.60999966       4.19174806E-10
  -9.60000038       4.35546321E-10
  -9.59000015       4.51114091E-10
  -9.57999992       4.65721350E-10
  -9.56999969       4.79216111E-10
  -9.56000042       4.91457208E-10
  -9.55000019       5.02301478E-10
  -9.53999996       5.11586662E-10
  -9.52999973       5.19183141E-10
  -9.52000046       5.24956134E-10
  -9.51000023       5.28786015E-10
  -9.50000000       5.30564426E-10
  -9.48999977       5.30223809E-10
  -9.47999954       5.27721311E-10
  -9.47000027       5.23057320E-10
  -9.46000004       5.16274024E-10
  -9.44999981       5.07456743E-10
  -9.43999958       4.96723329E-10
  -9.43000031       4.84255414E-10
  -9.42000008       4.70236905E-10
  -9.40999985       4.54887683E-10
  -9.39999962       4.38452191E-10
  -9.39000034       4.21190915E-10
  -9.38000011       4.03373723E-10
  -9.36999989       3.85273063E-10
  -9.35999966       3.67199021E-10
  -9.35000038       3.49443086E-10
  -9.34000015       3.32295469E-10
  -9.32999992       3.16059207E-10
  -9.31999969       3.01024483E-10
  -9.31000042       2.87480928E-10
  -9.30000019       2.75687834E-10
  -9.28999996       2.65902883E-10
  -9.27999973       2.58357058E-10
  -9.27000046       2.53253307E-10
  -9.26000023       2.50782922E-10
  -9.25000000       2.51125953E-10
  -9.23999977       2.54435834E-10
  -9.22999954       2.60829663E-10
  -9.22000027       2.70424100E-10
  -9.21000004       2.83293750E-10
  -9.19999981       2.99459790E-10
  -9.18999958       3.18973237E-10
  -9.18000031       3.41763756E-10
  -9.17000008       3.67776531E-10
  -9.15999985       3.96897903E-10
  -9.14999962       4.28972580E-10
  -9.14000034       4.63827116E-10
  -9.13000011       5.01236774E-10
  -9.11999989       5.40970935E-10
  -9.10999966       5.82736137E-10
  -9.10000038       6.26226182E-10
  -9.09000015       6.71101952E-10
  -9.07999992       7.16999959E-10
  -9.06999969       7.63495323E-10
  -9.06000042       8.10175260E-10
  -9.05000019       8.56606674E-10
  -9.03999996       9.02301067E-10
  -9.02999973       9.46787981E-10
  -9.02000046       9.89611171E-10
  -9.01000023       1.03026554E-09
  -9.00000000       1.06831199E-09
  -8.98999977       1.10328169E-09
  -8.97999954       1.13473286E-09
  -8.97000027       1.16227739E-09
  -8.96000004       1.18548971E-09
  -8.94999981       1.20399801E-09
  -8.93999958       1.21750543E-09
  -8.93000031       1.22570321E-09
  -8.92000008       1.22834432E-09
  -8.90999985       1.22525812E-09
  -8.89999962       1.21627386E-09
  -8.89000034       1.20131360E-09
  -8.88000011       1.18033883E-09
  -8.86999989       1.15337329E-09
  -8.85999966       1.12045040E-09
  -8.85000038       1.08167919E-09
  -8.84000015       1.03724940E-09
  -8.82999992       9.87344539E-10
  -8.81999969       9.32209532E-10
  -8.81000042       8.72147743E-10
  -8.80000019       8.07536205E-10
  -8.78999996       7.38731576E-10
  -8.77999973       6.66157240E-10
  -8.77000046       5.90228089E-10
  -8.76000023       5.11438336E-10
  -8.75000000       4.30230074E-10
  -8.73999977       3.47080920E-10
  -8.72999954       2.62463884E-10
  -8.72000027       1.76845996E-10
  -8.71000004       9.06526798E-11
  -8.69999981       4.28913502E-12
  -8.68999958      -8.18645915E-11
  -8.68000031      -1.67435926E-10
  -8.67000008      -2.52113191E-10
  -8.65999985      -3.35615646E-10
  -8.64999962      -4.17680002E-10
  -8.64000034      -4.98083574E-10
  -8.63000011      -5.76613868E-10
  -8.61999989      -6.53080978E-10
  -8.60999966      -7.27331861E-10
  -8.60000038      -7.99221911E-10
  -8.59000015      -8.68649319E-10
  -8.57999992      -9.35462596E-10
  -8.56999969      -9.99616390E-10
  -8.56000042      -1.06106013E-09
  -8.55000019      -1.11975984E-09
  -8.53999996      -1.17570143E-09
  -8.52999973      -1.22890065E-09
  -8.52000046      -1.27938193E-09
  -8.51000023      -1.32722278E-09
  -8.50000000      -1.37243916E-09
  -8.48999977      -1.41510537E-09
  -8.47999954      -1.45532708E-09
  -8.47000027      -1.49314650E-09
  -8.46000004      -1.52871149E-09
  -8.44999981      -1.56210656E-09
  -8.43999958      -1.59344560E-09
  -8.43000031      -1.62288583E-09
  -8.42000008      -1.65052350E-09
  -8.40999985      -1.67658287E-09
  -8.39999962      -1.70117842E-09
  -8.39000034      -1.72441239E-09
  -8.38000011      -1.74648995E-09
  -8.36999989      -1.76753046E-09
  -8.35999966      -1.78766069E-09
  -8.35000038      -1.80695248E-09
  -8.34000015      -1.82544480E-09
  -8.32999992      -1.84316606E-09
  -8.31999969      -1.86012061E-09
  -8.31000042      -1.87625737E-09
  -8.30000019      -1.89150229E-09
  -8.28999996      -1.90578042E-09
  -8.27999973      -1.91893834E-09
  -8.27000046      -1.93083904E-09
  -8.26000023      -1.94136662E-09
  -8.25000000      -1.95033700E-09
  -8.23999977      -1.95755234E-09
  -8.22999954      -1.96293803E-09
  -8.22000027      -1.96622119E-09
  -8.21000004      -1.96725458E-09
  -8.19999981      -1.96584660E-09
  -8.18999958      -1.96185179E-09
  -8.18000031      -1.95508720E-09
  -8.17000008      -1.94544425E-09
  -8.15999985      -1.93279615E-09
  -8.14999962      -1.91710203E-09
  -8.14000034      -1.89830796E-09
  -8.13000011      -1.87639504E-09
  -8.11999989      -1.85140481E-09
  -8.10999966      -1.82334481E-09
  -8.10000038      -1.79231030E-09
  -8.09000015      -1.75841786E-09
  -8.07999992      -1.72178283E-09
  -8.06999969      -1.68263103E-09
  -8.06000042      -1.64109126E-09
  -8.05000019      -1.59746150E-09
  -8.03999996      -1.55193014E-09
  -8.02999973      -1.50478263E-09
  -8.02000046      -1.45627155E-09
  -8.01000023      -1.40671308E-09
  -8.00000000      -1.35631173E-09
  -7.98999977      -1.30541877E-09
  -7.98000002      -1.25424626E-09
  -7.96999979      -1.20312993E-09
  -7.96000004      -1.15231380E-09
  -7.94999981      -1.10219123E-09
  -7.94000006      -1.05301845E-09
  -7.92999983      -1.00509212E-09
  -7.92000008      -9.58687019E-10
  -7.90999985      -9.14145204E-10
  -7.90000010      -8.71759553E-10
  -7.88999987      -8.31819280E-10
  -7.88000011      -7.94585786E-10
  -7.86999989      -7.60298213E-10
  -7.86000013      -7.29301119E-10
  -7.84999990      -7.01761149E-10
  -7.84000015      -6.78017753E-10
  -7.82999992      -6.58313404E-10
  -7.82000017      -6.42809472E-10
  -7.80999994      -6.31703467E-10
  -7.80000019      -6.25138108E-10
  -7.78999996      -6.23241181E-10
  -7.78000021      -6.26094898E-10
  -7.76999998      -6.33747499E-10
  -7.76000023      -6.46247555E-10
  -7.75000000      -6.63468724E-10
  -7.73999977      -6.85439538E-10
  -7.73000002      -7.12005066E-10
  -7.71999979      -7.42999717E-10
  -7.71000004      -7.78286602E-10
  -7.69999981      -8.17621248E-10
  -7.69000006      -8.60711058E-10
  -7.67999983      -9.07290909E-10
  -7.67000008      -9.56999369E-10
  -7.65999985      -1.00946285E-09
  -7.65000010      -1.06447051E-09
  -7.63999987      -1.12161047E-09
  -7.63000011      -1.18053012E-09
  -7.61999989      -1.24088084E-09
  -7.61000013      -1.30225242E-09
  -7.59999990      -1.36437350E-09
  -7.59000015      -1.42693179E-09
  -7.57999992      -1.48966095E-09
  -7.57000017      -1.55218038E-09
  -7.55999994      -1.61422953E-09
  -7.55000019      -1.67556635E-09
  -7.53999996      -1.73601000E-09
  -7.53000021      -1.79523307E-09
  -7.51999998      -1.85307669E-09
  -7.51000023      -1.90931959E-09
  -7.50000000      -1.96375449E-09
  -7.48999977      -2.01622763E-09
  -7.48000002      -2.06669526E-09
  -7.46999979      -2.11498641E-09
  -7.46000004      -2.16088814E-09
  -7.44999981      -2.20442775E-09
  -7.44000006      -2.24548780E-09