  -16.0000000       0.00000000    
  -15.9899998       0.00000000    
  -15.9799995       0.00000000    
  -15.9700003       0.00000000    
  -15.9600000       0.00000000    
  -15.9499998       0.00000000    
  -15.9399996       0.00000000    
  -15.9300003       0.00000000    
  -15.9200001       0.00000000    
  -15.9099998       0.00000000    
  -15.8999996       0.00000000    
  -15.8900003       0.00000000    
  -15.8800001       0.00000000    
  -15.8699999      -0.00000000    
  -15.8599997      -1.40129846E-45
  -15.8500004      -2.38220739E-44
  -15.8400002      -2.59240216E-43
  -15.8299999      -2.12997367E-42
  -15.8199997      -1.44361768E-41
  -15.8100004      -8.30549600E-41
  -15.8000002      -4.12050412E-40
  -15.7900000      -1.78038894E-39
  -15.7799997      -6.75091650E-39
  -15.7700005      -2.26056992E-38
  -15.7600002      -6.71823514E-38
  -15.7500000      -1.77812724E-37
  -15.7399998      -4.19682702E-37
  -15.7299995      -8.81928466E-37
  -15.7200003      -1.63977821E-36
  -15.7100000      -2.65769361E-36
  -15.6999998      -3.62582502E-36
  -15.6899996      -3.76848393E-36
  -15.6800003      -1.72129835E-36
  -15.6700001       4.41009980E-36
  -15.6599998       1.67757580E-35
  -15.6499996       3.73871029E-35
  -15.6400003       6.76394660E-35
  -15.6300001       1.07204442E-34
  -15.6199999       1.50693336E-34
  -15.6099997       1.80258225E-34
  -15.6000004       1.55675619E-34
  -15.5900002       1.30904311E-35
  -15.5799999      -3.03114535E-34
  -15.5699997      -7.48189848E-34
  -15.5600004      -1.03319507E-33
  -15.5500002      -5.37003931E-34
  -15.5400000       1.47380405E-33
  -15.5299997       4.99126656E-33
  -15.5200005       7.68395825E-33
  -15.5100002       3.28699922E-33
  -15.5000000      -1.79753422E-32
  -15.4899998      -6.36359450E-32
  -15.4799995      -1.25166321E-31
  -15.4700003      -1.58072369E-31
  -15.4600000      -6.81722777E-32
  -15.4499998       2.70240274E-31
  -15.4399996       9.31562910E-31
  -15.4300003       1.77499064E-30
  -15.4200001       2.24139595E-30
  -15.4099998       1.25580601E-30
  -15.3999996      -2.50901502E-30
  -15.3900003      -9.73086336E-30
  -15.3800001      -1.88347101E-29
  -15.3699999      -2.41958295E-29
  -15.3599997      -1.55431559E-29
  -15.3500004       1.92373017E-29
  -15.3400002       8.58113013E-29
  -15.3299999       1.69660429E-28
  -15.3199997       2.21805042E-28
  -15.3100004       1.55688566E-28
  -15.3000002      -1.27816026E-28
  -15.2900000      -6.73025656E-28
  -15.2799997      -1.36354896E-27
  -15.2700005      -1.81857514E-27
  -15.2600002      -1.37922873E-27
  -15.2500000       6.96363786E-28
  -15.2399998       4.74044275E-27
  -15.2299995       9.93184662E-27
  -15.2200003       1.35992856E-26
  -15.2100000       1.11679416E-26
  -15.1999998      -2.49180167E-27
  -15.1899996      -2.98005365E-26
  -15.1800003      -6.56783588E-26
  -15.1700001      -9.31739269E-26
  -15.1599998      -8.31941709E-26
  -15.1499996      -2.80866876E-27
  -15.1400003       1.65073878E-25
  -15.1300001       3.93244129E-25
  -15.1199999       5.84380221E-25
  -15.1099997       5.68678536E-25
  -15.1000004       1.49450524E-25
  -15.0900002      -7.88586382E-25
  -15.0799999      -2.12275370E-24
  -15.0699997      -3.34824911E-24
  -15.0600004      -3.55454413E-24
  -15.0500002      -1.64824627E-24
  -15.0400000       3.10160110E-24
  -15.0299997       1.02635955E-23
  -15.0200005       1.74817209E-23
  -15.0100002       2.02710494E-23
  -15.0000000       1.29800207E-23
  -14.9899998      -8.69557274E-24
  -14.9799995      -4.39115447E-23
  -14.9700003      -8.28669919E-23
  -14.9600000      -1.05310949E-22
  -14.9499998      -8.41392857E-23
  -14.9399996       4.01663005E-24
  -14.9300003       1.62002142E-22
  -14.9200001       3.54235049E-22
  -14.9099998       4.97307406E-22
  -14.8999996       4.71022611E-22
  -14.8900003       1.58883629E-22
  -14.8800001      -4.83184448E-22
  -14.8699999      -1.34803914E-21
  -14.8599997      -2.12538222E-21
  -14.8500004      -2.32487956E-21
  -14.8400002      -1.41483811E-21
  -14.8299999       9.18461185E-22
  -14.8199997       4.44806317E-21
  -14.8100004       8.15079219E-21
  -14.8000002       1.02011177E-20
  -14.7900000       8.38484391E-21
  -14.7799997       9.92944194E-22
  -14.7700005      -1.19567334E-20
  -14.7600002      -2.75909034E-20
  -14.7500000      -3.97855619E-20
  -14.7399998      -4.01701071E-20
  -14.7299995      -2.08982852E-20
  -14.7200003       2.11125153E-20
  -14.7100000       7.96901278E-20
  -14.6999998       1.36734700E-19
  -14.6899996       1.63765722E-19
  -14.6800003       1.29431471E-19
  -14.6700001       1.28335553E-20
  -14.6599998      -1.80371437E-19
  -14.6499996      -4.05181447E-19
  -14.6400003      -5.75693977E-19
  -14.6300001      -5.81796191E-19
  -14.6199999      -3.26395363E-19
  -14.6099997       2.22826534E-19
  -14.6000004       9.83077068E-19
  -14.5900002       1.73124518E-18
  -14.5799999       2.12849329E-18
  -14.5699997       1.80954403E-18
  -14.5600004       5.30144087E-19
  -14.5500002      -1.66299906E-18
  -14.5400000      -4.30325039E-18
  -14.5299997      -6.49270317E-18
  -14.5200005      -7.07117497E-18
  -14.5100002      -4.98029358E-18
  -14.5000000       2.39345848E-19
  -14.4899998       7.96582623E-18
  -14.4799995       1.62384554E-17
  -14.4700003       2.19367389E-17
  -14.4600000       2.15206587E-17
  -14.4499998       1.22800454E-17
  -14.4399996      -6.19175170E-18
  -14.4300003      -3.08002190E-17
  -14.4200001      -5.46308689E-17
  -14.4099998      -6.80134039E-17
  -14.3999996      -6.11297656E-17
  -14.3900003      -2.77803877E-17
  -14.3800001       3.06917558E-17
  -14.3699999       1.02782803E-16
  -14.3599997       1.67050197E-16
  -14.3500004       1.96212946E-16
  -14.3400002       1.65078264E-16
  -14.3299999       6.07665738E-17
  -14.3199997      -1.07735437E-16
  -14.3100004      -3.04507815E-16
  -14.3000002      -4.69642288E-16
  -14.2900000      -5.32025259E-16
  -14.2799997      -4.30806807E-16
  -14.2700005      -1.40832859E-16
  -14.2600002       3.05731725E-16
  -14.2500000       8.10614713E-16
  -14.2399998       1.22091117E-15
  -14.2299995       1.36348058E-15
  -14.2200003       1.09770578E-15
  -14.2100000       3.74189060E-16
  -14.1999998      -7.18964054E-16
  -14.1899996      -1.94192658E-15
  -14.1800003      -2.93557776E-15
  -14.1700001      -3.30358011E-15
  -14.1599998      -2.73124037E-15
  -14.1499996      -1.11228513E-15
  -14.1400003       1.35593479E-15
  -14.1300001       4.14869665E-15
  -14.1199999       6.48873104E-15
  -14.1099997       7.52179741E-15
  -14.1000004       6.56319371E-15
  -14.0900002       3.35518200E-15
  -14.0799999      -1.74290624E-15
  -14.0699997      -7.70764407E-15
  -14.0600004      -1.29963238E-14
  -14.0500002      -1.58838058E-14
  -14.0400000      -1.49324590E-14
  -14.0299997      -9.48268631E-15
  -14.0200005      -2.13796641E-17
  -14.0100002       1.17068432E-14
  -14.0000000       2.29309454E-14
  -13.9899998       3.04275478E-14
  -13.9799995       3.13372544E-14
  -13.9700003       2.40335688E-14
  -13.9600000       8.80640335E-15
  -13.9499998      -1.18649487E-14
  -13.9399996      -3.35939738E-14
  -13.9300003      -5.09349236E-14
  -13.9200001      -5.86501876E-14
  -13.9099998      -5.31136245E-14
  -13.8999996      -3.34909509E-14
  -13.8900003      -2.35339931E-15
  -13.8800001       3.45069127E-14
  -13.8699999       6.91036516E-14
  -13.8599997       9.29497026E-14
  -13.8500004       9.90507454E-14
  -13.8400002       8.37241314E-14
  -13.8299999       4.77770628E-14
  -13.8199997      -3.28764086E-15
  -13.8100004      -6.01426800E-14
  -13.8000002      -1.11425016E-13
  -13.7900000      -1.46053146E-13
  -13.7799997      -1.55551597E-13
  -13.7700005      -1.35862987E-13
  -13.7600002      -8.82608196E-14
  -13.7500000      -1.92039733E-14
  -13.7399998       6.07746207E-14
  -13.7299995       1.38844584E-13
  -13.7200003       2.01916107E-13
  -13.7100000       2.38554131E-13
  -13.6999998       2.40504312E-13
  -13.6899996       2.03734856E-13
  -13.6800003       1.29040252E-13
  -13.6700001       2.23162045E-14
  -13.6599998      -1.05435937E-13
  -13.6499996      -2.38442621E-13
  -13.6400003      -3.57045123E-13
  -13.6300001      -4.39428929E-13
  -13.6199999      -4.64407863E-13
  -13.6099997      -4.15222734E-13
  -13.6000004      -2.83920240E-13
  -13.5900002      -7.54552874E-14
  -13.5799999       1.89642952E-13
  -13.5699997       4.75225436E-13
  -13.5600004       7.32945117E-13
  -13.5500002       9.09293474E-13
  -13.5400000       9.55468126E-13
  -13.5299997       8.38355481E-13
  -13.5200005       5.50262635E-13
  -13.5100002       1.14889652E-13
  -13.5000000      -4.12441321E-13
  -13.4899998      -9.51180974E-13
  -13.4799995      -1.40795177E-12
  -13.4700003      -1.69284541E-12
  -13.4600000      -1.73640909E-12
  -13.4499998      -1.50377464E-12
  -13.4399996      -1.00288842E-12
  -13.4300003      -2.85124544E-13
  -13.4200001       5.61674730E-13
  -13.4099998       1.42600818E-12
  -13.3999996       2.18845103E-12
  -13.3900003       2.73714254E-12
  -13.3800001       2.98050040E-12
  -13.3699999       2.85601664E-12
  -13.3599997       2.33552002E-12
  -13.3500004       1.42844341E-12
  -13.3400002       1.84784750E-13
  -13.3299999      -1.30141134E-12
  -13.3199997      -2.88904968E-12
  -13.3100004      -4.39043897E-12
  -13.3000002      -5.57953336E-12
  -13.2900000      -6.21212500E-12
  -13.2799997      -6.06004353E-12
  -13.2700005      -4.95742943E-12
  -13.2600002      -2.85226248E-12
  -13.2500000       1.48163098E-13
  -13.2399998       3.75162401E-12
  -13.2299995       7.48790960E-12
  -13.2200003       1.07561468E-11
  -13.2100000       1.29118565E-11
  -13.1999998       1.33828018E-11
  -13.1899996       1.17932669E-11
  -13.1800003       8.07029183E-12
  -13.1700001       2.50519223E-12
  -13.1599998      -4.24980927E-12
  -13.1499996      -1.12575773E-11
  -13.1400003      -1.74364238E-11
  -13.1300001      -2.17408435E-11
  -13.1199999      -2.33474524E-11
  -13.1099997      -2.18073302E-11
  -13.1000004      -1.71320510E-11
  -13.0900002      -9.79490447E-12
  -13.0799999      -6.48426137E-13
  -13.0699997       9.22065636E-12
  -13.0600004       1.86637737E-11
  -13.0500002       2.66294573E-11
  -13.0400000       3.22749258E-11
  -13.0299997       3.50126109E-11
  -13.0200005       3.44961074E-11
  -13.0100002       3.05703136E-11
  -13.0000000       2.32239766E-11
  -12.9899998       1.25819459E-11
  -12.9799995      -1.03983196E-12
  -12.9700003      -1.70202585E-11
  -12.9600000      -3.42935125E-11
  -12.9499998      -5.12430202E-11
  -12.9399996      -6.56979540E-11
  -12.9300003      -7.50895249E-11
  -12.9200001      -7.67914621E-11
  -12.9099998      -6.86185275E-11
  -12.8999996      -4.94027111E-11
  -12.8900003      -1.95221513E-11
  -12.8800001       1.87606233E-11
  -12.8699999       6.12793566E-11
  -12.8599997       1.02337916E-10
  -12.8500004       1.35470760E-10
  -12.8400002       1.54490740E-10
  -12.8299999       1.54642119E-10
  -12.8199997       1.33627942E-10
  -12.8100004       9.22819529E-11
  -12.8000002       3.47107516E-11
  -12.7900000      -3.21678760E-11
  -12.7799997      -9.96352376E-11
  -12.7700005      -1.58555127E-10
  -12.7600002      -2.00864242E-10
  -12.7500000      -2.20873611E-10
  -12.7399998      -2.16121607E-10
  -12.7299995      -1.87618740E-10
  -12.7200003      -1.39458251E-10
  -12.7100000      -7.79115036E-11
  -12.6999998      -1.02340697E-11
  -12.6899996       5.65346901E-11
  -12.6800003       1.16520557E-10
  -12.6700001       1.65538167E-10
  -12.6599998       2.01142270E-10
  -12.6499996       2.22293781E-10
  -12.6400003       2.28829344E-10
  -12.6300001       2.20963303E-10
  -12.6199999       1.99017469E-10
  -12.6099997       1.63478300E-10
  -12.6000004       1.15355579E-10
  -12.5900002       5.66840186E-11
  -12.5799999      -9.05703117E-12
  -12.5699997      -7.68430319E-11
  -12.5600004      -1.40484110E-10
  -12.5500002      -1.93503449E-10
  -12.5400000      -2.30370251E-10
  -12.5299997      -2.47804832E-10
  -12.5200005      -2.45794413E-10
  -12.5100002      -2.27986449E-10
  -12.5000000      -2.01237416E-10
  -12.4899998      -1.74297687E-10
  -12.4799995      -1.55826199E-10
  -12.4700003      -1.52119373E-10
  -12.4600000      -1.65046213E-10
  -12.4499998      -1.90663846E-10
  -12.4399996      -2.18852797E-10
  -12.4300003      -2.34094966E-10
  -12.4200001      -2.17253132E-10
  -12.4099998      -1.47974952E-10
  -12.3999996      -7.21624279E-12
  -12.3900003       2.20643420E-10
  -12.3800001       5.46479861E-10
  -12.3699999       9.76060455E-10
  -12.3599997       1.51051083E-09
  -12.3500004       2.14724105E-09
  -12.3400002       2.88080360E-09
  -12.3299999       3.70315956E-09
  -12.3199997       4.60299976E-09
  -12.3100004       5.56403457E-09
  -12.3000002       6.56257138E-09
  -12.2900000       7.56497354E-09
  -12.2799997       8.52587601E-09
  -12.2700005       9.38795885E-09
  -12.2600002       1.00839221E-08
  -12.2500000       1.05409734E-08
  -12.2399998       1.06874660E-08
  -12.2299995       1.04608491E-08
  -12.2200003       9.81581216E-09
  -12.2100000       8.73103989E-09
  -12.1999998       7.21330062E-09
  -12.1899996       5.29804156E-09
  -12.1800003       3.04605829E-09
  -12.1700001       5.36586942E-10
  -12.1599998      -2.14189044E-09
  -12.1499996      -4.90171015E-09
  -12.1400003      -7.66530217E-09
  -12.1300001      -1.03720241E-08
  -12.1199999      -1.29816478E-08
  -12.1099997      -1.54742583E-08
  -12.1000004      -1.78469328E-08
  -12.0900002      -2.01083754E-08
  -12.0799999      -2.22727135E-08
  -12.0699997      -2.43538931E-08
  -12.0600004      -2.63616542E-08
  -12.0500002      -2.82992971E-08
  -12.0400000      -3.01632781E-08
  -12.0299997      -3.19435713E-08
  -12.0200005      -3.36240937E-08
  -12.0100002      -3.51822678E-08
  -12.0000000      -3.65873589E-08
  -11.9899998      -3.77977898E-08
  -11.9799995      -3.87581096E-08
  -11.9700003      -3.93972606E-08
  -11.9600000      -3.96287341E-08
  -11.9499998      -3.93544148E-08
  -11.9399996      -3.84715264E-08
  -11.9300003      -3.68832325E-08
  -11.9200001      -3.45102542E-08
  -11.9099998      -3.13027186E-08
  -11.8999996      -2.72493530E-08
  -11.8900003      -2.23824159E-08
  -11.8800001      -1.67775536E-08
  -11.8699999      -1.05477245E-08
  -11.8599997      -3.83248366E-09
  -11.8500004       3.21579763E-09
  -11.8400002       1.04465014E-08
  -11.8299999       1.77244690E-08
  -11.8199997       2.49399790E-08
  -11.8100004       3.20153113E-08
  -11.8000002       3.89057000E-08
  -11.7900000       4.55965719E-08
  -11.7799997       5.20966061E-08
  -11.7700005       5.84293964E-08
  -11.7600002       6.46236913E-08
  -11.7500000       7.07037699E-08
  -11.7399998       7.66813884E-08
  -11.7299995       8.25493203E-08
  -11.7200003       8.82770905E-08
  -11.7100000       9.38096179E-08
  -11.6999998       9.90679467E-08
  -11.6899996       1.03952694E-07
  -11.6800003       1.08349674E-07
  -11.6700001       1.12137123E-07
  -11.6599998       1.15193750E-07
  -11.6499996       1.17406998E-07
  -11.6400003       1.18680333E-07
  -11.6300001       1.18938907E-07
  -11.6199999       1.18132753E-07
  -11.6099997       1.16237253E-07
  -11.6000004       1.13251822E-07
  -11.5900002       1.09195746E-07
  -11.5799999       1.04102718E-07
  -11.5699997       9.80156187E-08
  -11.5600004       9.09804285E-08
  -11.5500002       8.30418898E-08
  -11.5400000       7.42393738E-08
  -11.5299997       6.46040519E-08
  -11.5200005       5.41587788E-08
  -11.5100002       4.29165077E-08
  -11.5000000       3.08825427E-08
  -11.4899998       1.80557773E-08
  -11.4799995       4.43145298E-09
  -11.4700003      -9.99559902E-09
  -11.4600000      -2.52264041E-08
  -11.4499998      -4.12530987E-08
  -11.4399996      -5.80537822E-08
  -11.4300003      -7.55879626E-08
  -11.4200001      -9.37929627E-08
  -11.4099998      -1.12579912E-07
  -11.3999996      -1.31834142E-07
  -11.3900003      -1.51416856E-07
  -11.3800001      -1.71168452E-07
  -11.3699999      -1.90916296E-07
  -11.3599997      -2.10483009E-07
  -11.3500004      -2.29696596E-07
  -11.3400002      -2.48401619E-07
  -11.3299999      -2.66468760E-07
  -11.3199997      -2.83802478E-07
  -11.3100004      -3.00347182E-07
  -11.3000002      -3.16088574E-07
  -11.2900000      -3.31052433E-07
  -11.2799997      -3.45300805E-07
  -11.2700005      -3.58923558E-07
  -11.2600002      -3.72030371E-07
  -11.2500000      -3.84740389E-07
  -11.2399998      -3.97171164E-07
  -11.2299995      -4.09428225E-07
  -11.2200003      -4.21595786E-07
  -11.2100000      -4.33726370E-07
  -11.1999998      -4.45833706E-07
  -11.1899996      -4.57887637E-07
  -11.1800003      -4.69808526E-07
  -11.1700001      -4.81468533E-07
  -11.1599998      -4.92697438E-07
  -11.1499996      -5.03289016E-07
  -11.1400003      -5.13017824E-07
  -11.1300001      -5.21653760E-07
  -11.1199999      -5.28981786E-07
  -11.1099997      -5.34823073E-07
  -11.1000004      -5.39045459E-07
  -11.0900002      -5.41579482E-07
  -11.0799999      -5.42419173E-07
  -11.0699997      -5.41623706E-07
  -11.0600004      -5.39305063E-07
  -11.0500002      -5.35614731E-07
  -11.0400000      -5.30732621E-07
  -11.0299997      -5.24849895E-07
  -11.0200005      -5.18153570E-07
  -11.0100002      -5.10819348E-07
  -11.0000000      -5.03007925E-07
  -10.9899998      -4.94860785E-07
  -10.9799995      -4.86500312E-07
  -10.9700003      -4.78034565E-07
  -10.9600000      -4.69555175E-07
  -10.9499998      -4.61138200E-07
  -10.9399996      -4.52841505E-07
  -10.9300003      -4.44701897E-07
  -10.9200001      -4.36725600E-07
  -10.9099998      -4.28881208E-07
  -10.8999996      -4.21094455E-07
  -10.8900003      -4.13251911E-07
  -10.8800001      -4.05192168E-07
  -10.8699999      -3.96712181E-07
  -10.8599997      -3.87580769E-07
  -10.8500004      -3.77545092E-07
  -10.8400002      -3.66343954E-07
  -10.8299999      -3.53727984E-07
  -10.8199997      -3.39479470E-07
  -10.8100004      -3.23418163E-07
  -10.8000002      -3.05415881E-07
  -10.7900000      -2.85413137E-07
  -10.7799997      -2.63411579E-07
  -10.7700005      -2.39484365E-07
  -10.7600002      -2.13764025E-07
  -10.7500000      -1.86445206E-07
  -10.7399998      -1.57762784E-07
  -10.7299995      -1.27997367E-07
  -10.7200003      -9.74470211E-08
  -10.7100000      -6.64214639E-08
  -10.6999998      -3.52111584E-08
  -10.6899996      -4.08196899E-09
  -10.6800003       2.67526588E-08
  -10.6700001       5.71483874E-08
  -10.6599998       8.70452368E-08
  -10.6499996       1.16473849E-07
  -10.6400003       1.45537413E-07
  -10.6300001       1.74423803E-07
  -10.6199999       2.03361381E-07
  -10.6099997       2.32603611E-07
  -10.6000004       2.62390074E-07
  -10.5900002       2.92924113E-07
  -10.5799999       3.24352271E-07
  -10.5699997       3.56749439E-07
  -10.5600004       3.90127212E-07
  -10.5500002       4.24440401E-07
  -10.5400000       4.59625142E-07
  -10.5299997       4.95593326E-07
  -10.5200005       5.32265403E-07
  -10.5100002       5.69580322E-07
  -10.5000000       6.07497554E-07
  -10.4899998       6.46001183E-07
  -10.4799995       6.85067903E-07
  -10.4700003       7.24669746E-07
  -10.4600000       7.64747881E-07
  -10.4499998       8.05212437E-07
  -10.4399996       8.45933812E-07
  -10.4300003       8.86715043E-07
  -10.4200001       9.27334270E-07
  -10.4099998       9.67526603E-07
  -10.3999996       1.00700072E-06
  -10.3900003       1.04545302E-06
  -10.3800001       1.08258689E-06
  -10.3699999       1.11811335E-06
  -10.3599997       1.15178307E-06
  -10.3500004       1.18337698E-06
  -10.3400002       1.21272353E-06
  -10.3299999       1.23969858E-06
  -10.3199997       1.26421833E-06
  -10.3100004       1.28624117E-06
  -10.3000002       1.30575847E-06
  -10.2900000       1.32278217E-06
  -10.2799997       1.33735466E-06
  -10.2700005       1.34953791E-06
  -10.2600002       1.35943060E-06
  -10.2500000       1.36716892E-06
  -10.2399998       1.37292841E-06
  -10.2299995       1.37693132E-06
  -10.2200003       1.37943675E-06
  -10.2100000       1.38072687E-06
  -10.1999998       1.38109067E-06
  -10.1899996       1.38079611E-06
  -10.1800003       1.38007988E-06
  -10.1700001       1.37912571E-06
  -10.1599998       1.37806342E-06
  -10.1499996       1.37697157E-06
  -10.1400003       1.37589154E-06
  -10.1300001       1.37484324E-06
  -10.1199999       1.37384257E-06
  -10.1099997       1.37291499E-06
  -10.1000004       1.37210577E-06
  -10.0900002       1.37147947E-06
  -10.0799999       1.37111454E-06
  -10.0699997       1.37109703E-06
  -10.0600004       1.37150596E-06
  -10.0500002       1.37240795E-06
  -10.0400000       1.37384836E-06
  -10.0299997       1.37584664E-06
  -10.0200005       1.37839913E-06
  -10.0100002       1.38147436E-06
  -10.0000000       1.38501673E-06
  -9.98999977       1.38895143E-06
  -9.97999954       1.39318024E-06
  -9.97000027       1.39758163E-06
  -9.96000004       1.40201723E-06
  -9.94999981       1.40633449E-06
  -9.93999958       1.41036492E-06
  -9.93000031       1.41395049E-06
  -9.92000008       1.41693454E-06
  -9.90999985       1.41919622E-06
  -9.89999962       1.42066028E-06
  -9.89000034       1.42131285E-06
  -9.88000011       1.42121598E-06
  -9.86999989       1.42052875E-06
  -9.85999966       1.41949545E-06
  -9.85000038       1.41845169E-06
  -9.84000015       1.41780242E-06
  -9.82999992       1.41800285E-06
  -9.81999969       1.41952717E-06
  -9.81000042       1.42283443E-06
  -9.80000019       1.42832516E-06
  -9.78999996       1.43633690E-06
  -9.77999973       1.44711191E-06
  -9.77000046       1.46081766E-06
  -9.76000023       1.47753428E-06
  -9.75000000       1.49730124E-06
  -9.73999977       1.52013422E-06
  -9.72999954       1.54604345E-06
  -9.72000027       1.57506236E-06
  -9.71000004       1.60723516E-06
  -9.69999981       1.64261610E-06
  -9.68999958       1.68123916E-06
  -9.68000031       1.72308592E-06
  -9.67000008       1.76806202E-06
  -9.65999985       1.81597738E-06
  -9.64999962       1.86651334E-06
  -9.64000034       1.91926688E-06
  -9.63000011       1.97372174E-06
  -9.61999989       2.02931824E-06
  -9.60999966       2.08545202E-06
  -9.60000038       2.14151828E-06
  -9.59000015       2.19693106E-06
  -9.57999992       2.25115355E-06
  -9.56999969       2.30369824E-06
  -9.56000042       2.35411926E-06
  -9.55000019       2.40203326E-06
  -9.53999996       2.44710145E-06
  -9.52999973       2.48902074E-06
  -9.52000046       2.52752352E-06
  -9.51000023       2.56238263E-06
  -9.50000000       2.59338890E-06
  -9.48999977       2.62037361E-06
  -9.47999954       2.64318851E-06
  -9.47000027       2.66172469E-06
  -9.46000004       2.67591849E-06
  -9.44999981       2.68575695E-06
  -9.43999958       2.69130373E-06
  -9.43000031       2.69270117E-06
  -9.42000008       2.69016914E-06
  -9.40999985       2.68400481E-06
  -9.39999962       2.67456585E-06
  -9.39000034       2.66226675E-06
  -9.38000011       2.64755249E-06
  -9.36999989       2.63088373E-06
  -9.35999966       2.61271430E-06
  -9.35000038       2.59351941E-06
  -9.34000015       2.57379816E-06
  -9.32999992       2.55412033E-06
  -9.31999969       2.53511803E-06
  -9.31000042       2.51751158E-06
  -9.30000019       2.50209678E-06
  -9.28999996       2.48975061E-06
  -9.27999973       2.48141919E-06
  -9.27000046       2.47804610E-06
  -9.26000023       2.48057790E-06
  -9.25000000       2.48990818E-06
  -9.23999977       2.50688754E-06
  -9.22999954       2.53232247E-06
  -9.22000027       2.56691465E-06
  -9.21000004       2.61134983E-06
  -9.19999981       2.66621078E-06
  -9.18999958       2.73198975E-06
  -9.18000031       2.80908603E-06
  -9.17000008       2.89773880E-06
  -9.15999985       2.99804287E-06
  -9.14999962       3.10990208E-06
  -9.14000034       3.23305630E-06
  -9.13000011       3.36708558E-06
  -9.11999989       3.51142239E-06
  -9.10999966       3.66543031E-06
  -9.10000038       3.82839562E-06
  -9.09000015       3.99950659E-06
  -9.07999992       4.17796491E-06
  -9.06999969       4.36286837E-06
  -9.06000042       4.55327472E-06
  -9.05000019       4.74819717E-06
  -9.03999996       4.94657161E-06
  -9.02999973       5.14725616E-06
  -9.02000046       5.34909532E-06
  -9.01000023       5.55086626E-06
  -9.00000000       5.75131935E-06
  -8.98999977       5.94920766E-06
  -8.97999954       6.14327109E-06
  -8.97000027       6.33222362E-06
  -8.96000004       6.51482696E-06
  -8.94999981       6.68985240E-06
  -8.93999958       6.85610166E-06
  -8.93000031       7.01249883E-06
  -8.92000008       7.15803981E-06
  -8.90999985       7.29184194E-06
  -8.89999962       7.41314443E-06
  -8.89000034       7.52134338E-06
  -8.88000011       7.61588217E-06
  -8.86999989       7.69631515E-06
  -8.85999966       7.76224897E-06
  -8.85000038       7.81332528E-06
  -8.84000015       7.84922122E-06
  -8.82999992       7.86973033E-06
  -8.81999969       7.87465797E-06
  -8.81000042       7.86389319E-06
  -8.80000019       7.83748146E-06
  -8.78999996       7.79547463E-06
  -8.77999973       7.73809279E-06
  -8.77000046       7.66553967E-06
  -8.76000023       7.57806765E-06
  -8.75000000       7.47595413E-06
  -8.73999977       7.35950289E-06
  -8.72999954       7.22901950E-06
  -8.72000027       7.08488687E-06
  -8.71000004       6.92755975E-06
  -8.69999981       6.75757201E-06
  -8.68999958       6.57561577E-06
  -8.68000031       6.38239544E-06
  -8.67000008       6.17870501E-06
  -8.65999985       5.96539576E-06
  -8.64999962       5.74332580E-06
  -8.64000034       5.51331232E-06
  -8.63000011       5.27617385E-06
  -8.61999989       5.03265846E-06
  -8.60999966       4.78353286E-06
  -8.60000038       4.52947188E-06
  -8.59000015       4.27117857E-06
  -8.57999992       4.00930594E-06
  -8.56999969       3.74451656E-06
  -8.56000042       3.47740934E-06
  -8.55000019       3.20856611E-06
  -8.53999996       2.93848939E-06
  -8.52999973       2.66767370E-06
  -8.52000046       2.39661108E-06
  -8.51000023       2.12576947E-06
  -8.50000000       1.85557974E-06
  -8.48999977       1.58650221E-06
  -8.47999954       1.31897912E-06
  -8.47000027       1.05342679E-06
  -8.46000004       7.90278136E-07
  -8.44999981       5.29891622E-07
  -8.43999958       2.72642552E-07
  -8.43000031       1.88219751E-08
  -8.42000008      -2.31293370E-07
  -8.40999985      -4.77444189E-07
  -8.39999962      -7.19429522E-07
  -8.39000034      -9.56990107E-07
  -8.38000011      -1.18989874E-06
  -8.36999989      -1.41795988E-06
  -8.35999966      -1.64093524E-06
  -8.35000038      -1.85861256E-06
  -8.34000015      -2.07061453E-06
  -8.32999992      -2.27672444E-06
  -8.31999969      -2.47658545E-06
  -8.31000042      -2.66982624E-06
  -8.30000019      -2.85599617E-06
  -8.28999996      -3.03467255E-06
  -8.27999973      -3.20529875E-06
  -8.27000046      -3.36739549E-06
  -8.26000023      -3.52036477E-06
  -8.25000000      -3.66368545E-06
  -8.23999977      -3.79680387E-06
  -8.22999954      -3.91907588E-06
  -8.22000027      -4.03004924E-06
  -8.21000004      -4.12920554E-06
  -8.19999981      -4.21606637E-06
  -8.18999958      -4.29019292E-06
  -8.18000031      -4.35123957E-06
  -8.17000008      -4.39881296E-06
  -8.15999985      -4.43261888E-06
  -8.14999962      -4.45230216E-06
  -8.14000034      -4.45757223E-06
  -8.13000011      -4.44813713E-06
  -8.11999989      -4.42367309E-06
  -8.10999966      -4.38387815E-06
  -8.10000038      -4.32846218E-06
  -8.09000015      -4.25715962E-06
  -8.07999992      -4.16972944E-06
  -8.06999969      -4.06606296E-06
  -8.06000042      -3.94601602E-06
  -8.05000019      -3.80954771E-06
  -8.03999996      -3.65662595E-06
  -8.02999973      -3.48728645E-06
  -8.02000046      -3.30158400E-06
  -8.01000023      -3.09957591E-06
  -8.00000000      -2.88131264E-06
  -7.98999977      -2.64687219E-06
  -7.98000002      -2.39637643E-06
  -7.96999979      -2.12998384E-06
  -7.96000004      -1.84795999E-06
  -7.94999981      -1.55061377E-06
  -7.94000006      -1.23838925E-06
  -7.92999983      -9.11796405E-07
  -7.92000008      -5.71445014E-07
  -7.90999985      -2.18006363E-07
  -7.90000010       1.47742796E-07
  -7.88999987       5.25036512E-07
  -7.88000011       9.12997564E-07
  -7.86999989       1.31070897E-06
  -7.86000013       1.71719023E-06
  -7.84999990       2.13139265E-06
  -7.84000015       2.55218629E-06
  -7.82999992       2.97843235E-06
  -7.82000017       3.40895417E-06
  -7.80999994       3.84255463E-06
  -7.80000019       4.27807481E-06
  -7.78999996       4.71440990E-06
  -7.78000021       5.15045576E-06
  -7.76999998       5.58518195E-06
  -7.76000023       6.01753527E-06
  -7.75000000       6.44654347E-06
  -7.73999977       6.87119609E-06
  -7.73000002       7.29054364E-06
  -7.71999979       7.70368842E-06
  -7.71000004       8.10982510E-06
  -7.69999981       8.50820288E-06
  -7.69000006       8.89822604E-06
  -7.67999983       9.27936617E-06
  -7.67000008       9.65124764E-06
  -7.65999985       1.00135767E-05
  -7.65000010       1.03661396E-05
  -7.63999987       1.07088099E-05
  -7.63000011       1.10415076E-05
  -7.61999989       1.13642536E-05
  -7.61000013       1.16771353E-05
  -7.59999990       1.19803663E-05
  -7.59000015       1.22741567E-05
  -7.57999992       1.25587922E-05
  -7.57000017       1.28345928E-05
  -7.55999994       1.31018405E-05
  -7.55000019       1.33608710E-05
  -7.53999996       1.36120334E-05
  -7.53000021       1.38556834E-05
  -7.51999998       1.40921866E-05
  -7.51000023       1.43219859E-05
  -7.50000000       1.45456079E-05
  -7.48999977       1.47636174E-05
  -7.48000002       1.49765710E-05
  -7.46999979       1.51851009E-05
  -7.46000004       1.53897363E-05
  -7.44999981       1.55911002E-05
  -7.44000006       1.57896920E-05