  -16.0000000       0.00000000    
  -15.9899998       0.00000000    
  -15.9799995       0.00000000    
  -15.9700003       0.00000000    
  -15.9600000       0.00000000    
  -15.9499998       0.00000000    
  -15.9399996       0.00000000    
  -15.9300003       0.00000000    
  -15.9200001       0.00000000    
  -15.9099998       0.00000000    
  -15.8999996       0.00000000    
  -15.8900003       0.00000000    
  -15.8800001      -5.60519386E-45
  -15.8699999      -6.60011577E-43
  -15.8599997      -2.04323329E-41
  -15.8500004      -3.48755162E-40
  -15.8400002      -4.02718745E-39
  -15.8299999      -3.48144616E-38
  -15.8199997      -2.39386911E-37
  -15.8100004      -1.36264801E-36
  -15.8000002      -6.60310275E-36
  -15.7900000      -2.77956774E-35
  -15.7799997      -1.03164518E-34
  -15.7700005      -3.41301823E-34
  -15.7600002      -1.01425216E-33
  -15.7500000      -2.72062786E-33
  -15.7399998      -6.60070861E-33
  -15.7299995      -1.44655203E-32
  -15.7200003      -2.84609399E-32
  -15.7100000      -4.95544278E-32
  -15.6999998      -7.39173300E-32
  -15.6899996      -8.66859610E-32
  -15.6800003      -5.43901001E-32
  -15.6700001       7.88381315E-32
  -15.6599998       3.80803487E-31
  -15.6499996       8.92117646E-31
  -15.6400003       1.54773260E-30
  -15.6300001       2.06824169E-30
  -15.6199999       1.87094634E-30
  -15.6099997       1.04924238E-31
  -15.6000004      -4.04901907E-30
  -15.5900002      -1.07098474E-29
  -15.5799999      -1.83293055E-29
  -15.5699997      -2.28276113E-29
  -15.5600004      -1.76308655E-29
  -15.5500002       4.38195292E-30
  -15.5400000       4.63862063E-29
  -15.5299997       1.01237145E-28
  -15.5200005       1.46061432E-28
  -15.5100002       1.42894300E-28
  -15.5000000       5.09356410E-29
  -15.4899998      -1.47499066E-28
  -15.4799995      -4.14036564E-28
  -15.4700003      -6.33239506E-28
  -15.4600000      -6.31349447E-28
  -15.4499998      -2.56985788E-28
  -15.4399996       4.84501333E-28
  -15.4300003       1.30620141E-27
  -15.4200001       1.64354798E-27
  -15.4099998       9.13410217E-28
  -15.3999996      -9.47448718E-28
  -15.3900003      -2.87917687E-27
  -15.3800001      -2.55053599E-27
  -15.3699999       2.65718359E-27
  -15.3599997       1.31667156E-26
  -15.3500004       2.38815159E-26
  -15.3400002       2.22893342E-26
  -15.3299999      -8.39148169E-27
  -15.3199997      -7.78790664E-26
  -15.3100004      -1.70126877E-25
  -15.3000002      -2.25899392E-25
  -15.2900000      -1.44248566E-25
  -15.2799997       1.76133202E-25
  -15.2700005       7.46261578E-25
  -15.2600002       1.37028107E-24
  -15.2500000       1.57505625E-24
  -15.2399998       6.97991771E-25
  -15.2299995      -1.76706223E-24
  -15.2200003      -5.57512378E-24
  -15.2100000      -9.11224433E-24
  -15.1999998      -9.23581308E-24
  -15.1899996      -2.18080558E-24
  -15.1800003       1.40948602E-23
  -15.1700001       3.65199306E-23
  -15.1599998       5.40845877E-23
  -15.1499996       4.83388908E-23
  -15.1400003       9.82693459E-26
  -15.1300001      -9.67253658E-23
  -15.1199999      -2.17768524E-22
  -15.1099997      -2.96976520E-22
  -15.1000004      -2.35562803E-22
  -15.0900002       5.66353284E-23
  -15.0799999       5.87707887E-22
  -15.0699997       1.20190353E-21
  -15.0600004       1.54049616E-21
  -15.0500002       1.11098525E-21
  -15.0400000      -4.88423797E-22
  -15.0299997      -3.20971967E-21
  -15.0200005      -6.19265736E-21
  -15.0100002      -7.64369978E-21
  -15.0000000      -5.24233185E-21
  -14.9899998       2.75660423E-21
  -14.9799995       1.58812118E-20
  -14.9700003       2.99012479E-20
  -14.9600000       3.64752432E-20
  -14.9499998       2.51678733E-20
  -14.9399996      -1.15748062E-20
  -14.9300003      -7.13320688E-20
  -14.9200001      -1.35321811E-19
  -14.9099998      -1.67254860E-19
  -14.8999996      -1.22130025E-19
  -14.8900003       3.29414048E-20
  -14.8800001       2.89593037E-19
  -14.8699999       5.72196812E-19
  -14.8599997       7.32848263E-19
  -14.8500004       5.85483556E-19
  -14.8400002      -1.29773135E-20
  -14.8299999      -1.04855017E-18
  -14.8199997      -2.24613844E-18
  -14.8100004      -3.04218852E-18
  -14.8000002      -2.70217944E-18
  -14.7900000      -6.14845883E-19
  -14.7799997       3.28307241E-18
  -14.7700005       8.10082872E-18
  -14.7600002       1.18425124E-17
  -14.7500000       1.17590672E-17
  -14.7399998       5.33626207E-18
  -14.7299995      -8.20821331E-18
  -14.7200003      -2.63972425E-17
  -14.7100000      -4.27267076E-17
  -14.6999998      -4.75300263E-17
  -14.6899996      -3.10198255E-17
  -14.6800003       1.17536021E-17
  -14.6700001       7.54293758E-17
  -14.6599998       1.40835387E-16
  -14.6499996       1.76385042E-16
  -14.6400003       1.46503626E-16
  -14.6300001       2.69075368E-17
  -14.6199999      -1.76943647E-16
  -14.6099997      -4.15509206E-16
  -14.6000004      -5.94215847E-16
  -14.5900002      -5.93696298E-16
  -14.5799999      -3.12987806E-16
  -14.5699997       2.72597808E-16
  -14.5600004       1.05855391E-15
  -14.5500002       1.79070007E-15
  -14.5400000       2.10356058E-15
  -14.5299997       1.63005021E-15
  -14.5200005       1.68217368E-16
  -14.5100002      -2.14249827E-15
  -14.5000000      -4.71076950E-15
  -14.4899998      -6.53079174E-15
  -14.4799995      -6.42277682E-15
  -14.4700003      -3.46726796E-15
  -14.4600000       2.46624696E-15
  -14.4499998       1.02838719E-14
  -14.4399996       1.75578393E-14
  -14.4300003       2.09402265E-14
  -14.4200001       1.71599287E-14
  -14.4099998       4.43961435E-15
  -14.3999996      -1.60809967E-14
  -14.3900003      -3.95116340E-14
  -14.3800001      -5.75718604E-14
  -14.3699999      -6.05075750E-14
  -14.3599997      -4.04329924E-14
  -14.3500004       4.67391213E-15
  -14.3400002       6.76769025E-14
  -14.3299999       1.31305787E-13
  -14.3199997       1.70827192E-13
  -14.3100004       1.60751593E-13
  -14.3000002       8.45113164E-14
  -14.2900000      -5.55418918E-14
  -14.2799997      -2.31602714E-13
  -14.2700005      -3.91192992E-13
  -14.2600002      -4.67696357E-13
  -14.2500000      -4.00220520E-13
  -14.2399998      -1.58635691E-13
  -14.2299995       2.33811722E-13
  -14.2200003       6.89662466E-13
  -14.2100000       1.06636553E-12
  -14.1999998       1.19888821E-12
  -14.1899996       9.51837025E-13
  -14.1800003       2.78599653E-13
  -14.1700001      -7.31648086E-13
  -14.1599998      -1.84002770E-12
  -14.1499996      -2.69282361E-12
  -14.1400003      -2.90826629E-12
  -14.1300001      -2.20080768E-12
  -14.1199999      -5.10793990E-13
  -14.1099997       1.90415500E-12
  -14.1000004       4.45930922E-12
  -14.0900002       6.34210089E-12
  -14.0799999       6.71831167E-12
  -14.0699997       5.00565474E-12
  -14.0600004       1.14118556E-12
  -14.0500002      -4.24911755E-12
  -14.0400000      -9.86215189E-12
  -14.0299997      -1.39558764E-11
  -14.0200005      -1.47953351E-11
  -14.0100002      -1.12144061E-11
  -14.0000000      -3.13981393E-12
  -13.9899998       8.10199650E-12
  -13.9799995       1.98478629E-11
  -13.9700003       2.86006809E-11
  -13.9600000       3.09172514E-11
  -13.9499998       2.44905918E-11
  -13.9399996       9.13117325E-12
  -13.9300003      -1.26828921E-11
  -13.9200001      -3.59534798E-11
  -13.9099998      -5.41142027E-11
  -13.8999996      -6.06651257E-11
  -13.8900003      -5.11328896E-11
  -13.8800001      -2.48265020E-11
  -13.8699999       1.41841755E-11
  -13.8599997       5.73140597E-11
  -13.8500004       9.30939076E-11
  -13.8400002       1.09958972E-10
  -13.8299999       9.95787688E-11
  -13.8199997       5.98392447E-11
  -13.8100004      -3.46166932E-12
  -13.8000002      -7.69207129E-11
  -13.7900000      -1.42078710E-10
  -13.7799997      -1.79829415E-10
  -13.7700005      -1.75696110E-10
  -13.7600002      -1.24577862E-10
  -13.7500000      -3.35146945E-11
  -13.7399998       7.86080506E-11
  -13.7299995       1.84751686E-10
  -13.7200003       2.56198951E-10
  -13.7100000       2.70303391E-10
  -13.6999998       2.17434792E-10
  -13.6899996       1.05020520E-10
  -13.6800003      -4.28218329E-11
  -13.6700001      -1.90439720E-10
  -13.6599998      -2.99596986E-10
  -13.6499996      -3.39985068E-10
  -13.6400003      -2.98346625E-10
  -13.6300001      -1.83360660E-10
  -13.6199999      -2.44212532E-11
  -13.6099997       1.35888481E-10
  -13.6000004       2.53896709E-10
  -13.5900002       2.98172653E-10
  -13.5799999       2.59983174E-10
  -13.5699997       1.57228897E-10
  -13.5600004       2.98873704E-11
  -13.5500002      -7.24793836E-11
  -13.5400000      -1.07909133E-10
  -13.5299997      -5.86703117E-11
  -13.5200005       5.84754120E-11
  -13.5100002       1.92936667E-10
  -13.5000000       2.73483375E-10
  -13.4899998       2.31608982E-10
  -13.4799995       2.88690582E-11
  -13.4700003      -3.20452637E-10
  -13.4600000      -7.40054629E-10
  -13.4499998      -1.10164233E-09
  -13.4399996      -1.25502730E-09
  -13.4300003      -1.07271336E-09
  -13.4200001      -4.97661301E-10
  -13.4099998       4.20258078E-10
  -13.3999996       1.51285806E-09
  -13.3900003       2.51586618E-09
  -13.3800001       3.12474868E-09
  -13.3699999       3.07395864E-09
  -13.3599997       2.22068897E-09
  -13.3500004       6.09660211E-10
  -13.3400002      -1.50292301E-09
  -13.3299999      -3.67986508E-09
  -13.3199997      -5.38812817E-09
  -13.3100004      -6.12345197E-09
  -13.3000002      -5.54606050E-09
  -13.2900000      -3.59212726E-09
  -13.2799997      -5.27809074E-10
  -13.2700005       3.07571368E-09
  -13.2600002       6.44875442E-09
  -13.2500000       8.79193962E-09
  -13.2399998       9.46937639E-09
  -13.2299995       8.17798451E-09
  -13.2200003       5.04696462E-09
  -13.2100000       6.36250885E-10
  -13.1999998      -4.17254231E-09
  -13.1899996      -8.37096614E-09
  -13.1800003      -1.10582699E-08
  -13.1700001      -1.16564465E-08
  -13.1599998      -1.00489155E-08
  -13.1499996      -6.60430244E-09
  -13.1400003      -2.07679807E-09
  -13.1300001       2.59147415E-09
  -13.1199999       6.51242438E-09
  -13.1099997       9.07044750E-09
  -13.1000004       1.00544941E-08
  -13.0900002       9.66462732E-09
  -13.0799999       8.39065528E-09
  -13.0699997       6.79985135E-09
  -13.0600004       5.30156630E-09
  -13.0500002       3.96842825E-09
  -13.0400000       2.48192022E-09
  -13.0299997       2.35940628E-10
  -13.0200005      -3.41628770E-09
  -13.0100002      -8.83556606E-09
  -13.0000000      -1.57891478E-08
  -12.9899998      -2.32704789E-08
  -12.9799995      -2.95325684E-08
  -12.9700003      -3.23709592E-08
  -12.9600000      -2.96245073E-08
  -12.9499998      -1.97946672E-08
  -12.9399996      -2.63488054E-09
  -12.9300003       2.04530046E-08
  -12.9200001       4.63515590E-08
  -12.9099998       7.05606027E-08
  -12.8999996       8.79096831E-08
  -12.8900003       9.35356681E-08
  -12.8800001       8.39346654E-08
  -12.8699999       5.78631116E-08
  -12.8599997       1.68779870E-08
  -12.8500004      -3.46267228E-08
  -12.8400002      -8.99272194E-08
  -12.8299999      -1.40943897E-07
  -12.8199997      -1.79502308E-07
  -12.8100004      -1.98638503E-07
  -12.8000002      -1.93698227E-07
  -12.7900000      -1.63029483E-07
  -12.7799997      -1.08163626E-07
  -12.7700005      -3.34980257E-08
  -12.7600002       5.43981145E-08
  -12.7500000       1.47660799E-07
  -12.7399998       2.37979179E-07
  -12.7299995       3.17246759E-07
  -12.7200003       3.77935208E-07
  -12.7100000       4.13222494E-07
  -12.6999998       4.17004060E-07
  -12.6899996       3.83970757E-07
  -12.6800003       3.09930556E-07
  -12.6700001       1.92475667E-07
  -12.6599998       3.19760751E-08
  -12.6499996      -1.67257497E-07
  -12.6400003      -3.95913958E-07
  -12.6300001      -6.39047414E-07
  -12.6199999      -8.76163995E-07
  -12.6099997      -1.08221025E-06
  -12.6000004      -1.22947131E-06
  -12.5900002      -1.29019907E-06
  -12.5799999      -1.23963059E-06
  -12.5699997      -1.05897959E-06
  -12.5600004      -7.37999017E-07
  -12.5500002      -2.76829724E-07
  -12.5400000       3.12978500E-07
  -12.5299997       1.00819466E-06
  -12.5200005       1.77417496E-06
  -12.5100002       2.56542194E-06
  -12.5000000       3.32625382E-06
  -12.4899998       3.99157398E-06
  -12.4799995       4.48793435E-06
  -12.4700003       4.73526779E-06
  -12.4600000       4.64972481E-06
  -12.4499998       4.14797842E-06
  -12.4399996       3.15310149E-06
  -12.4300003       1.60177217E-06
  -12.4200001      -5.47852210E-07
  -12.4099998      -3.30856915E-06
  -12.3999996      -6.65800326E-06
  -12.3900003      -1.05349882E-05
  -12.3800001      -1.48392110E-05
  -12.3699999      -1.94343775E-05
  -12.3599997      -2.41546186E-05
  -12.3500004      -2.88133324E-05
  -12.3400002      -3.32134114E-05
  -12.3299999      -3.71576425E-05
  -12.3199997      -4.04582970E-05
  -12.3100004      -4.29453357E-05
  -12.3000002      -4.44729667E-05
  -12.2900000      -4.49247600E-05
  -12.2799997      -4.42175951E-05
  -12.2700005      -4.23048223E-05
  -12.2600002      -3.91786707E-05
  -12.2500000      -3.48716203E-05
  -12.2399998      -2.94564034E-05
  -12.2299995      -2.30438218E-05
  -12.2200003      -1.57781651E-05
  -12.2100000      -7.82999632E-06
  -12.1999998       6.13104078E-07
  -12.1899996       9.35691151E-06
  -12.1800003       1.82106505E-05
  -12.1700001       2.69954107E-05
  -12.1599998       3.55498560E-05
  -12.1499996       4.37326307E-05
  -12.1400003       5.14218918E-05
  -12.1300001       5.85127491E-05
  -12.1199999       6.49141875E-05
  -12.1099997       7.05467828E-05
  -12.1000004       7.53424029E-05
  -12.0900002       7.92461360E-05
  -12.0799999       8.22200309E-05
  -12.0699997       8.42474692E-05
  -12.0600004       8.53365491E-05
  -12.0500002       8.55208928E-05
  -12.0400000       8.48569616E-05
  -12.0299997       8.34176753E-05
  -12.0200005       8.12830185E-05
  -12.0100002       7.85294251E-05
  -12.0000000       7.52196720E-05
  -11.9899998       7.13955887E-05
  -11.9799995       6.70745794E-05
  -11.9700003       6.22508960E-05
  -11.9600000       5.69009135E-05
  -11.9499998       5.09914425E-05
  -11.9399996       4.44891375E-05
  -11.9300003       3.73693911E-05
  -11.9200001       2.96232101E-05
  -11.9099998       2.12613486E-05
  -11.8999996       1.23158234E-05
  -11.8900003       2.83918416E-06
  -11.8800001      -7.09729738E-06
  -11.8699999      -1.74056022E-05
  -11.8599997      -2.79824490E-05
  -11.8500004      -3.87099317E-05
  -11.8400002      -4.94557535E-05
  -11.8299999      -6.00735075E-05
  -11.8199997      -7.04041668E-05
  -11.8100004      -8.02792856E-05
  -11.8000002      -8.95264529E-05
  -11.7900000      -9.79770266E-05
  -11.7799997      -1.05475374E-04
  -11.7700005      -1.11888658E-04
  -11.7600002      -1.17115676E-04
  -11.7500000      -1.21093530E-04
  -11.7399998      -1.23800506E-04
  -11.7299995      -1.25254810E-04
  -11.7200003      -1.25508886E-04
  -11.7100000      -1.24640152E-04
  -11.6999998      -1.22739351E-04
  -11.6899996      -1.19898716E-04
  -11.6800003      -1.16201692E-04
  -11.6700001      -1.11716217E-04
  -11.6599998      -1.06492393E-04
  -11.6499996      -1.00564932E-04
  -11.6400003      -9.39591628E-05
  -11.6300001      -8.66988485E-05
  -11.6199999      -7.88135294E-05
  -11.6099997      -7.03432233E-05
  -11.6000004      -6.13389784E-05
  -11.5900002      -5.18591332E-05
  -11.5799999      -4.19622011E-05
  -11.5699997      -3.16990263E-05
  -11.5600004      -2.11065708E-05
  -11.5500002      -1.02063677E-05
  -11.5400000       9.91270667E-07
  -11.5299997       1.24769331E-05
  -11.5200005       2.42279239E-05
  -11.5100002       3.61932907E-05
  -11.5000000       4.82823634E-05
  -11.4899998       6.03599947E-05
  -11.4799995       7.22510813E-05
  -11.4700003       8.37542102E-05
  -11.4600000       9.46621876E-05
  -11.4499998       1.04785540E-04
  -11.4399996       1.13973889E-04
  -11.4300003       1.22130979E-04
  -11.4200001       1.29219959E-04
  -11.4099998       1.35258553E-04
  -11.3999996       1.40305623E-04
  -11.3900003       1.44442747E-04
  -11.3800001       1.47755389E-04
  -11.3699999       1.50317806E-04
  -11.3599997       1.52184468E-04
  -11.3500004       1.53389134E-04
  -11.3400002       1.53949761E-04
  -11.3299999       1.53877278E-04
  -11.3199997       1.53184112E-04
  -11.3100004       1.51890534E-04
  -11.3000002       1.50026564E-04
  -11.2900000       1.47629835E-04
  -11.2799997       1.44740872E-04
  -11.2700005       1.41398239E-04
  -11.2600002       1.37635478E-04
  -11.2500000       1.33481619E-04
  -11.2399998       1.28964952E-04
  -11.2299995       1.24119033E-04
  -11.2200003       1.18988544E-04
  -11.2100000       1.13632515E-04
  -11.1999998       1.08123728E-04
  -11.1899996       1.02542937E-04
  -11.1800003       9.69697212E-05
  -11.1700001       9.14717093E-05
  -11.1599998       8.60955115E-05
  -11.1499996       8.08613258E-05
  -11.1400003       7.57639791E-05
  -11.1300001       7.07797299E-05
  -11.1199999       6.58783974E-05
  -11.1099997       6.10377538E-05
  -11.1000004       5.62574605E-05
  -11.0900002       5.15692591E-05
  -11.0799999       4.70415143E-05
  -11.0699997       4.27767518E-05
  -11.0600004       3.89029847E-05
  -11.0500002       3.55600787E-05
  -11.0400000       3.28838360E-05
  -11.0299997       3.09899115E-05
  -11.0200005       2.99601634E-05
  -11.0100002       2.98329833E-05
  -11.0000000       3.05982867E-05
  -10.9899998       3.21972038E-05
  -10.9799995       3.45261105E-05
  -10.9700003       3.74436058E-05
  -10.9600000       4.07797634E-05
  -10.9499998       4.43461904E-05
  -10.9399996       4.79465525E-05
  -10.9300003       5.13867126E-05
  -10.9200001       5.44840950E-05
  -10.9099998       5.70765806E-05
  -10.8999996       5.90299787E-05
  -10.8900003       6.02446671E-05
  -10.8800001       6.06602516E-05
  -10.8699999       6.02581495E-05
  -10.8599997       5.90613963E-05
  -10.8500004       5.71310557E-05
  -10.8400002       5.45593102E-05
  -10.8299999       5.14593339E-05
  -10.8199997       4.79532428E-05
  -10.8100004       4.41593002E-05
  -10.8000002       4.01804500E-05
  -10.7900000       3.60959748E-05
  -10.7799997       3.19576975E-05
  -10.7700005       2.77910913E-05
  -10.7600002       2.36010183E-05
  -10.7500000       1.93804626E-05
  -10.7399998       1.51200729E-05
  -10.7299995       1.08159475E-05
  -10.7200003       6.47430898E-06
  -10.7100000       2.11145971E-06
  -10.6999998      -2.24969335E-06
  -10.6899996      -6.58546287E-06
  -10.6800003      -1.08766726E-05
  -10.6700001      -1.51112781E-05
  -10.6599998      -1.92819916E-05
  -10.6499996      -2.33790161E-05
  -10.6400003      -2.73788119E-05
  -10.6300001      -3.12316915E-05
  -10.6199999      -3.48517242E-05
  -10.6099997      -3.81123900E-05
  -10.6000004      -4.08501146E-05
  -10.5900002      -4.28767198E-05
  -10.5799999      -4.39986798E-05
  -10.5699997      -4.40406584E-05
  -10.5600004      -4.28683670E-05
  -10.5500002      -4.04067687E-05
  -10.5400000      -3.66501517E-05
  -10.5299997      -3.16620753E-05
  -10.5200005      -2.55658269E-05
  -10.5100002      -1.85273202E-05
  -10.5000000      -1.07342576E-05
  -10.4899998      -2.37503787E-06
  -10.4799995       6.37838912E-06
  -10.4700003       1.53820074E-05
  -10.4600000       2.45238207E-05
  -10.4499998       3.37216770E-05
  -10.4399996       4.29158426E-05
  -10.4300003       5.20590947E-05
  -10.4200001       6.11065479E-05
  -10.4099998       7.00073215E-05
  -10.3999996       7.86994060E-05
  -10.3900003       8.71084121E-05
  -10.3800001       9.51497495E-05
  -10.3699999       1.02733466E-04
  -10.3599997       1.09770262E-04
  -10.3500004       1.16177565E-04
  -10.3400002       1.21884164E-04
  -10.3299999       1.26832849E-04
  -10.3199997       1.30981047E-04
  -10.3100004       1.34300091E-04
  -10.3000002       1.36773815E-04
  -10.2900000       1.38398158E-04
  -10.2799997       1.39181924E-04
  -10.2700005       1.39149328E-04
  -10.2600002       1.38343632E-04
  -10.2500000       1.36829694E-04
  -10.2399998       1.34694637E-04
  -10.2299995       1.32044108E-04
  -10.2200003       1.28993895E-04
  -10.2100000       1.25657883E-04
  -10.1999998       1.22133919E-04
  -10.1899996       1.18491604E-04
  -10.1800003       1.14765004E-04
  -10.1700001       1.10953137E-04
  -10.1599998       1.07029176E-04
  -10.1499996       1.02957099E-04
  -10.1400003       9.87121093E-05
  -10.1300001       9.43002669E-05
  -10.1199999       8.97725986E-05
  -10.1099997       8.52290468E-05
  -10.1000004       8.08124169E-05
  -10.0900002       7.66919693E-05
  -10.0799999       7.30412285E-05
  -10.0699997       7.00139281E-05
  -10.0600004       6.77234857E-05
  -10.0500002       6.62293023E-05
  -10.0400000       6.55309559E-05
  -10.0299997       6.55714393E-05
  -10.0200005       6.62459570E-05
  -10.0100002       6.74155453E-05
  -10.0000000       6.89224107E-05
  -9.98999977       7.06066276E-05
  -9.97999954       7.23223711E-05
  -9.97000027       7.39540192E-05
  -9.96000004       7.54303182E-05
  -9.94999981       7.67349193E-05
  -9.93999958       7.79103793E-05
  -9.93000031       7.90539852E-05
  -9.92000008       8.03032017E-05
  -9.90999985       8.18129411E-05
  -9.89999962       8.37277694E-05
  -9.89000034       8.61551016E-05
  -9.88000011       8.91458403E-05
  -9.86999989       9.26877983E-05
  -9.85999966       9.67141677E-05
  -9.85000038       1.01124751E-04
  -9.84000015       1.05815401E-04
  -9.82999992       1.10706293E-04
  -9.81999969       1.15762035E-04
  -9.81000042       1.20997887E-04
  -9.80000019       1.26470812E-04
  -9.78999996       1.32258909E-04
  -9.77999973       1.38436735E-04
  -9.77000046       1.45054073E-04
  -9.76000023       1.52125183E-04
  -9.75000000       1.59631134E-04
  -9.73999977       1.67533406E-04
  -9.72999954       1.75792477E-04
  -9.72000027       1.84383432E-04
  -9.71000004       1.93301850E-04
  -9.69999981       2.02556563E-04
  -9.68999958       2.12150102E-04
  -9.68000031       2.22053917E-04
  -9.67000008       2.32185412E-04
  -9.65999985       2.42396112E-04
  -9.64999962       2.52474681E-04
  -9.64000034       2.62166926E-04
  -9.63000011       2.71206256E-04
  -9.61999989       2.79348344E-04
  -9.60999966       2.86399300E-04
  -9.60000038       2.92232435E-04
  -9.59000015       2.96789542E-04
  -9.57999992       3.00067739E-04
  -9.56999969       3.02099157E-04
  -9.56000042       3.02928442E-04
  -9.55000019       3.02596192E-04
  -9.53999996       3.01132066E-04
  -9.52999973       2.98557570E-04
  -9.52000046       2.94895552E-04
  -9.51000023       2.90183845E-04
  -9.50000000       2.84484704E-04
  -9.48999977       2.77889223E-04
  -9.47999954       2.70515360E-04
  -9.47000027       2.62498565E-04
  -9.46000004       2.53980688E-04
  -9.44999981       2.45097879E-04
  -9.43999958       2.35972824E-04
  -9.43000031       2.26710603E-04
  -9.42000008       2.17399487E-04
  -9.40999985       2.08115627E-04
  -9.39999962       1.98930327E-04
  -9.39000034       1.89916289E-04
  -9.38000011       1.81155876E-04
  -9.36999989       1.72746091E-04
  -9.35999966       1.64802288E-04
  -9.35000038       1.57459275E-04
  -9.34000015       1.50869717E-04
  -9.32999992       1.45198050E-04
  -9.31999969       1.40612523E-04
  -9.31000042       1.37273193E-04
  -9.30000019       1.35319351E-04
  -9.28999996       1.34859380E-04
  -9.27999973       1.35963797E-04
  -9.27000046       1.38663716E-04
  -9.26000023       1.42956022E-04
  -9.25000000       1.48813648E-04
  -9.23999977       1.56197886E-04
  -9.22999954       1.65069883E-04
  -9.22000027       1.75396766E-04
  -9.21000004       1.87151119E-04
  -9.19999981       2.00302005E-04
  -9.18999958       2.14801039E-04
  -9.18000031       2.30565493E-04
  -9.17000008       2.47464719E-04
  -9.15999985       2.65315146E-04
  -9.14999962       2.83884146E-04
  -9.14000034       3.02905712E-04
  -9.13000011       3.22103646E-04
  -9.11999989       3.41217383E-04
  -9.10999966       3.60021571E-04
  -9.10000038       3.78338067E-04
  -9.09000015       3.96033545E-04
  -9.07999992       4.13005240E-04
  -9.06999969       4.29159991E-04
  -9.06000042       4.44392557E-04
  -9.05000019       4.58571943E-04
  -9.03999996       4.71540086E-04
  -9.02999973       4.83125012E-04
  -9.02000046       4.93164232E-04
  -9.01000023       5.01530943E-04
  -9.00000000       5.08155848E-04
  -8.98999977       5.13034523E-04
  -8.97999954       5.16220054E-04
  -8.97000027       5.17801091E-04
  -8.96000004       5.17872744E-04
  -8.94999981       5.16511733E-04
  -8.93999958       5.13761828E-04
  -8.93000031       5.09637175E-04
  -8.92000008       5.04142197E-04
  -8.90999985       4.97300702E-04
  -8.89999962       4.89183061E-04
  -8.89000034       4.79925307E-04
  -8.88000011       4.69727966E-04
  -8.86999989       4.58836672E-04
  -8.85999966       4.47510451E-04
  -8.85000038       4.35985159E-04
  -8.84000015       4.24447295E-04
  -8.82999992       4.13020665E-04
  -8.81999969       4.01775847E-04
  -8.81000042       3.90751316E-04
  -8.80000019       3.79984354E-04
  -8.78999996       3.69537855E-04
  -8.77999973       3.59518017E-04
  -8.77000046       3.50076269E-04
  -8.76000023       3.41399951E-04
  -8.75000000       3.33698874E-04
  -8.73999977       3.27190035E-04
  -8.72999954       3.22089763E-04
  -8.72000027       3.18610895E-04
  -8.71000004       3.16966383E-04
  -8.69999981       3.17366328E-04
  -8.68999958       3.20010848E-04
  -8.68000031       3.25071334E-04
  -8.67000008       3.32665135E-04
  -8.65999985       3.42827901E-04
  -8.64999962       3.55494878E-04
  -8.64000034       3.70496244E-04
  -8.63000011       3.87568871E-04
  -8.61999989       4.06381238E-04
  -8.60999966       4.26567887E-04
  -8.60000038       4.47759056E-04
  -8.59000015       4.69602470E-04
  -8.57999992       4.91771149E-04
  -8.56999969       5.13959851E-04
  -8.56000042       5.35876316E-04
  -8.55000019       5.57235908E-04
  -8.53999996       5.77762956E-04
  -8.52999973       5.97201404E-04
  -8.52000046       6.15330820E-04
  -8.51000023       6.31980947E-04
  -8.50000000       6.47038454E-04
  -8.48999977       6.60441059E-04
  -8.47999954       6.72161928E-04
  -8.47000027       6.82188722E-04
  -8.46000004       6.90506480E-04
  -8.44999981       6.97095064E-04
  -8.43999958       7.01939978E-04
  -8.43000031       7.05058104E-04
  -8.42000008       7.06529594E-04
  -8.40999985       7.06522609E-04
  -8.39999962       7.05303333E-04
  -8.39000034       7.03225378E-04
  -8.38000011       7.00698933E-04
  -8.36999989       6.98148971E-04
  -8.35999966       6.95974333E-04
  -8.35000038       6.94516697E-04
  -8.34000015       6.94048242E-04
  -8.32999992       6.94777817E-04
  -8.31999969       6.96865493E-04
  -8.31000042       7.00442644E-04
  -8.30000019       7.05621496E-04
  -8.28999996       7.12492212E-04
  -8.27999973       7.21107412E-04
  -8.27000046       7.31460226E-04
  -8.26000023       7.43469165E-04
  -8.25000000       7.56971829E-04
  -8.23999977       7.71741616E-04
  -8.22999954       7.87518686E-04
  -8.22000027       8.04053445E-04
  -8.21000004       8.21143913E-04
  -8.19999981       8.38665059E-04
  -8.18999958       8.56572122E-04
  -8.18000031       8.74885882E-04
  -8.17000008       8.93656805E-04
  -8.15999985       9.12926975E-04
  -8.14999962       9.32696857E-04
  -8.14000034       9.52906674E-04
  -8.13000011       9.73437622E-04
  -8.11999989       9.94132948E-04
  -8.10999966       1.01482868E-03
  -8.10000038       1.03538460E-03
  -8.09000015       1.05570571E-03
  -8.07999992       1.07574963E-03
  -8.06999969       1.09551451E-03
  -8.06000042       1.11501594E-03
  -8.05000019       1.13425730E-03
  -8.03999996       1.15320366E-03
  -8.02999973       1.17177085E-03
  -8.02000046       1.18982303E-03
  -8.01000023       1.20718568E-03
  -8.00000000       1.22366915E-03
  -7.98999977       1.23908604E-03
  -7.98000002       1.25326798E-03
  -7.96999979       1.26607006E-03
  -7.96000004       1.27736351E-03
  -7.94999981       1.28702493E-03
  -7.94000006       1.29492476E-03
  -7.92999983       1.30092492E-03
  -7.92000008       1.30488665E-03
  -7.90999985       1.30668725E-03
  -7.90000010       1.30624673E-03
  -7.88999987       1.30355230E-03
  -7.88000011       1.29867543E-03
  -7.86999989       1.29177514E-03
  -7.86000013       1.28308591E-03
  -7.84999990       1.27289246E-03
  -7.84000015       1.26150216E-03
  -7.82999992       1.24921498E-03
  -7.82000017       1.23631081E-03
  -7.80999994       1.22304366E-03
  -7.80000019       1.20965345E-03
  -7.78999996       1.19637942E-03
  -7.78000021       1.18347385E-03
  -7.76999998       1.17120717E-03
  -7.76000023       1.15985854E-03
  -7.75000000       1.14969758E-03
  -7.73999977       1.14095758E-03
  -7.73000002       1.13381108E-03
  -7.71999979       1.12835702E-03
  -7.71000004       1.12461729E-03
  -7.69999981       1.12255465E-03
  -7.69000006       1.12209143E-03
  -7.67999983       1.12314045E-03
  -7.67000008       1.12562638E-03
  -7.65999985       1.12949871E-03
  -7.65000010       1.13473262E-03
  -7.63999987       1.14132417E-03
  -7.63000011       1.14927383E-03
  -7.61999989       1.15858042E-03
  -7.61000013       1.16923347E-03
  -7.59999990       1.18121644E-03
  -7.59000015       1.19451445E-03
  -7.57999992       1.20911899E-03
  -7.57000017       1.22503855E-03
  -7.55999994       1.24229409E-03
  -7.55000019       1.26091472E-03
  -7.53999996       1.28092559E-03
  -7.53000021       1.30233890E-03
  -7.51999998       1.32514664E-03
  -7.51000023       1.34931738E-03
  -7.50000000       1.37480744E-03
  -7.48999977       1.40156818E-03
  -7.48000002       1.42955885E-03
  -7.46999979       1.45875348E-03
  -7.46000004       1.48914475E-03
  -7.44999981       1.52073370E-03
  -7.44000006       1.55351870E-03