  -16.0000000       0.00000000    
  -15.9899998       0.00000000    
  -15.9799995       0.00000000    
  -15.9700003       0.00000000    
  -15.9600000       0.00000000    
  -15.9499998       0.00000000    
  -15.9399996       0.00000000    
  -15.9300003       0.00000000    
  -15.9200001       0.00000000    
  -15.9099998       0.00000000    
  -15.8999996       0.00000000    
  -15.8900003       0.00000000    
  -15.8800001       0.00000000    
  -15.8699999       0.00000000    
  -15.8599997      -0.00000000    
  -15.8500004      -0.00000000    
  -15.8400002      -2.80259693E-45
  -15.8299999      -4.20389539E-44
  -15.8199997      -4.24593435E-43
  -15.8100004      -3.41356306E-42
  -15.8000002      -2.24684196E-41
  -15.7900000      -1.25372772E-40
  -15.7799997      -6.07077527E-40
  -15.7700005      -2.59559712E-39
  -15.7600002      -9.92698890E-39
  -15.7500000      -3.42993415E-38
  -15.7399998      -1.07874086E-37
  -15.7299995      -3.10565765E-37
  -15.7200003      -8.21699268E-37
  -15.7100000      -2.00273307E-36
  -15.6999998      -4.49973699E-36
  -15.6899996      -9.30762942E-36
  -15.6800003      -1.76531443E-35
  -15.6700001      -3.04436449E-35
  -15.6599998      -4.69612519E-35
  -15.6499996      -6.26042405E-35
  -15.6400003      -6.60037667E-35
  -15.6300001      -3.69470387E-35
  -15.6199999       5.18951656E-35
  -15.6099997       2.25143030E-34
  -15.6000004       4.83048878E-34
  -15.5900002       7.68842412E-34
  -15.5799999       9.36029621E-34
  -15.5699997       7.40834055E-34
  -15.5600004      -1.03515766E-34
  -15.5500002      -1.77835251E-33
  -15.5400000      -4.12044455E-33
  -15.5299997      -6.36963655E-33
  -15.5200005      -7.07507275E-33
  -15.5100002      -4.39123290E-33
  -15.5000000       3.06713329E-33
  -15.4899998       1.49024722E-32
  -15.4799995       2.76831300E-32
  -15.4700003       3.47545514E-32
  -15.4600000       2.81856803E-32
  -15.4499998       3.19394231E-33
  -15.4399996      -3.63280005E-32
  -15.4300003      -7.47577732E-32
  -15.4200001      -8.89350109E-32
  -15.4099998      -6.24604566E-32
  -15.3999996      -6.43260190E-33
  -15.3900003       2.70688372E-32
  -15.3800001      -3.96254591E-32
  -15.3699999      -2.47796019E-31
  -15.3599997      -5.01397946E-31
  -15.3500004      -4.82137425E-31
  -15.3400002       3.13926675E-31
  -15.3299999       2.30148779E-30
  -15.3199997       5.25850194E-30
  -15.3100004       7.67998119E-30
  -15.3000002       6.49883393E-30
  -15.2900000      -2.14326926E-30
  -15.2799997      -2.05138923E-29
  -15.2700005      -4.54585942E-29
  -15.2600002      -6.46512173E-29
  -15.2500000      -5.60418952E-29
  -15.2399998       5.61135638E-30
  -15.2299995       1.32715243E-28
  -15.2200003       3.01723167E-28
  -15.2100000       4.33114200E-28
  -15.1999998       3.92442291E-28
  -15.1899996       3.24517992E-29
  -15.1800003      -7.14372002E-28
  -15.1700001      -1.71076640E-27
  -15.1599998      -2.51482231E-27
  -15.1499996      -2.39812771E-27
  -15.1400003      -5.76817174E-28
  -15.1300001       3.31113195E-27
  -15.1199999       8.58689501E-27
  -15.1099997       1.30602425E-26
  -15.1000004       1.31462715E-26
  -15.0900002       4.99024819E-27
  -15.0799999      -1.32881832E-26
  -15.0699997      -3.87544837E-26
  -15.0600004      -6.15515932E-26
  -15.0500002      -6.54489112E-26
  -15.0400000      -3.28090609E-26
  -15.0299997       4.56668774E-26
  -15.0200005       1.58752772E-25
  -15.0100002       2.65694097E-25
  -15.0000000       2.98283864E-25
  -14.9899998       1.81025409E-25
  -14.9799995      -1.29414875E-25
  -14.9700003      -5.94991928E-25
  -14.9600000      -1.05950557E-24
  -14.9499998      -1.25484824E-24
  -14.9399996      -8.76963356E-25
  -14.9300003       2.64121256E-25
  -14.9200001       2.05601981E-24
  -14.9099998       3.93985969E-24
  -14.8999996       4.92280168E-24
  -14.8900003       3.84509462E-24
  -14.8800001      -8.07610280E-26
  -14.8699999      -6.58377158E-24
  -14.8599997      -1.37900286E-23
  -14.8500004      -1.82152685E-23
  -14.8400002      -1.56418575E-23
  -14.8299999      -2.95684020E-24
  -14.8199997       1.94536712E-23
  -14.8100004       4.57138931E-23
  -14.8000002       6.42007127E-23
  -14.7900000       6.02175773E-23
  -14.7799997       2.19419515E-23
  -14.7700005      -5.15601760E-23
  -14.7600002      -1.43273725E-22
  -14.7500000      -2.16415192E-22
  -14.7399998      -2.21874210E-22
  -14.7299995      -1.16406385E-22
  -14.7200003       1.11672374E-22
  -14.7100000       4.18251250E-22
  -14.6999998       6.93874631E-22
  -14.6899996       7.81941144E-22
  -14.6800003       5.30809685E-22
  -14.6700001      -1.27771056E-22
  -14.6599998      -1.09874839E-21
  -14.6499996      -2.08117471E-21
  -14.6400003      -2.60376020E-21
  -14.6300001      -2.16230101E-21
  -14.6199999      -4.45266669E-22
  -14.6099997       2.41585550E-21
  -14.6000004       5.67882432E-21
  -14.5900002       8.02693158E-21
  -14.5799999       7.89376197E-21
  -14.5699997       4.06601438E-21
  -14.5600004      -3.58129704E-21
  -14.5500002      -1.34939153E-20
  -14.5400000      -2.23316777E-20
  -14.5299997      -2.56217305E-20
  -14.5200005      -1.92272883E-20
  -14.5100002      -1.34344451E-21
  -14.5000000       2.56342561E-20
  -14.4899998       5.42540784E-20
  -14.4799995       7.29862943E-20
  -14.4700003       6.94004922E-20
  -14.4600000       3.50982718E-20
  -14.4499998      -2.89898726E-20
  -14.4399996      -1.09062497E-19
  -14.4300003      -1.78883184E-19
  -14.4200001      -2.05607322E-19
  -14.4099998      -1.60682561E-19
  -14.3999996      -3.32486540E-20
  -14.3900003       1.58555944E-19
  -14.3800001       3.63824174E-19
  -14.3699999       5.06974034E-19
  -14.3599997       5.08729622E-19
  -14.3500004       3.16126225E-19
  -14.3400002      -6.73293095E-20
  -14.3299999      -5.63303690E-19
  -14.3199997      -1.02333926E-18
  -14.3100004      -1.26240169E-18
  -14.3000002      -1.11751253E-18
  -14.2900000      -5.16656390E-19
  -14.2799997       4.65462906E-19
  -14.2700005       1.59024418E-18
  -14.2600002       2.49464396E-18
  -14.2500000       2.78877616E-18
  -14.2399998       2.19132697E-18
  -14.2299995       6.62386020E-19
  -14.2200003      -1.51666378E-18
  -14.2100000      -3.75992011E-18
  -14.1999998      -5.30900564E-18
  -14.1899996      -5.46052528E-18
  -14.1800003      -3.82853061E-18
  -14.1700001      -5.54185626E-19
  -14.1599998       3.62601942E-18
  -14.1499996       7.50972545E-18
  -14.1400003       9.75139980E-18
  -14.1300001       9.30147890E-18
  -14.1199999       5.82620074E-18
  -14.1099997      -4.78024089E-20
  -14.1000004      -6.78612274E-18
  -14.0900002      -1.23316971E-17
  -14.0799999      -1.47408846E-17
  -14.0699997      -1.28806737E-17
  -14.0600004      -6.94007098E-18
  -14.0500002       1.46525006E-18
  -14.0400000       9.70097901E-18
  -14.0299997       1.49641059E-17
  -14.0200005       1.53218549E-17
  -14.0100002       1.05681720E-17
  -14.0000000       2.52981031E-18
  -13.9899998      -5.39916668E-18
  -13.9799995      -9.45341709E-18
  -13.9700003      -7.08443468E-18
  -13.9600000       1.62454188E-18
  -13.9499998       1.33350415E-17
  -13.9399996       2.20643497E-17
  -13.9300003       2.10894660E-17
  -13.9200001       5.71164491E-18
  -13.9099998      -2.39888400E-17
  -13.8999996      -6.14892186E-17
  -13.8900003      -9.41919894E-17
  -13.8800001      -1.06250781E-16
  -13.8699999      -8.34973580E-17
  -13.8599997      -1.92766699E-17
  -13.8500004       8.06138594E-17
  -13.8400002       1.95822781E-16
  -13.8299999       2.93645994E-16
  -13.8199997       3.35939805E-16
  -13.8100004       2.89739319E-16
  -13.8000002       1.39181450E-16
  -13.7900000      -1.04627091E-16
  -13.7799997      -3.99292417E-16
  -13.7700005      -6.74997538E-16
  -13.7600002      -8.47374513E-16
  -13.7500000      -8.37797376E-16
  -13.7399998      -5.97057696E-16
  -13.7299995      -1.26562776E-16
  -13.7200003       5.09389097E-16
  -13.7100000       1.18564030E-15
  -13.6999998       1.73515324E-15
  -13.6899996       1.98356524E-15
  -13.6800003       1.79344679E-15
  -13.6700001       1.10855246E-15
  -13.6599998      -1.36997339E-17
  -13.6499996      -1.39258612E-15
  -13.6400003      -2.74449686E-15
  -13.6300001      -3.73409011E-15
  -13.6199999      -4.04873871E-15
  -13.6099997      -3.48115379E-15
  -13.6000004      -2.00004088E-15
  -13.5900002       2.11814459E-16
  -13.5799999       2.76748153E-15
  -13.5699997       5.13893703E-15
  -13.5600004       6.76477358E-15
  -13.5500002       7.18079889E-15
  -13.5400000       6.14241104E-15
  -13.5299997       3.70581785E-15
  -13.5200005       2.42429697E-16
  -13.5100002      -3.62374290E-15
  -13.5000000      -7.14544543E-15
  -13.4899998      -9.61851313E-15
  -13.4799995      -1.05425380E-14
  -13.4700003      -9.73183597E-15
  -13.4600000      -7.34470315E-15
  -13.4499998      -3.82174701E-15
  -13.4399996       2.48149313E-16
  -13.4300003       4.29153181E-15
  -13.4200001       7.88899551E-15
  -13.4099998       1.08392028E-14
  -13.3999996       1.31218414E-14
  -13.3900003       1.47684955E-14
  -13.3800001       1.56875364E-14
  -13.3699999       1.55156666E-14
  -13.3599997       1.35740028E-14
  -13.3500004       8.98469616E-15
  -13.3400002       9.58336994E-16
  -13.3299999      -1.07972586E-14
  -13.3199997      -2.56526351E-14
  -13.3100004      -4.17578502E-14
  -13.3000002      -5.60095861E-14
  -13.2900000      -6.43826762E-14
  -13.2799997      -6.26443409E-14
  -13.2700005      -4.73684846E-14
  -13.2600002      -1.70673835E-14
  -13.2500000       2.68142272E-14
  -13.2399998       7.93211254E-14
  -13.2299995       1.32066016E-13
  -13.2200003       1.74105400E-13
  -13.2100000       1.93604613E-13
  -13.1999998       1.80113587E-13
  -13.1899996       1.27110209E-13
  -13.1800003       3.43444281E-14
  -13.1700001      -9.05352047E-14
  -13.1599998      -2.31554766E-13
  -13.1499996      -3.65533531E-13
  -13.1400003      -4.64864909E-13
  -13.1300001      -5.01787034E-13
  -13.1199999      -4.53648322E-13
  -13.1099997      -3.08380491E-13
  -13.1000004      -6.91908756E-14
  -13.0900002       2.42578418E-13
  -13.0799999       5.87343325E-13
  -13.0699997       9.10511683E-13
  -13.0600004       1.14913623E-12
  -13.0500002       1.24143187E-12
  -13.0400000       1.13796223E-12
  -13.0299997       8.12780670E-13
  -13.0200005       2.72511939E-13
  -13.0100002      -4.38572356E-13
  -13.0000000      -1.23902028E-12
  -12.9899998      -2.01695496E-12
  -12.9799995      -2.64286531E-12
  -12.9700003      -2.98711490E-12
  -12.9600000      -2.93992023E-12
  -12.9499998      -2.43094303E-12
  -12.9399996      -1.44549823E-12
  -12.9300003      -3.47197551E-14
  -12.9200001       1.68221426E-12
  -12.9099998       3.52462027E-12
  -12.8999996       5.26532030E-12
  -12.8900003       6.65279073E-12
  -12.8800001       7.43832253E-12
  -12.8699999       7.40562472E-12
  -12.8599997       6.40013390E-12
  -12.8500004       4.35533640E-12
  -12.8400002       1.31358661E-12
  -12.8299999      -2.56093649E-12
  -12.8199997      -6.97923924E-12
  -12.8100004      -1.15362988E-11
  -12.8000002      -1.57329132E-11
  -12.7900000      -1.90110410E-11
  -12.7799997      -2.08017614E-11
  -12.7700005      -2.05834707E-11
  -12.7600002      -1.79460908E-11
  -12.7500000      -1.26554791E-11
  -12.7399998      -4.71125482E-12
  -12.7299995       5.60930165E-12
  -12.7200003       1.77277637E-11
  -12.7100000       3.07666635E-11
  -12.6999998       4.35801430E-11
  -12.6899996       5.48138618E-11
  -12.6800003       6.29921879E-11
  -12.6700001       6.66292577E-11
  -12.6599998       6.43587753E-11
  -12.6499996       5.50760201E-11
  -12.6400003       3.80851253E-11
  -12.6300001       1.32429085E-11
  -12.6199999      -1.89110238E-11
  -12.6099997      -5.70495561E-11
  -12.6000004      -9.89929111E-11
  -12.5900002      -1.41697903E-10
  -12.5799999      -1.81316212E-10
  -12.5699997      -2.13334753E-10
  -12.5600004      -2.32806441E-10
  -12.5500002      -2.34673697E-10
  -12.5400000      -2.14179674E-10
  -12.5299997      -1.67352618E-10
  -12.5200005      -9.15412260E-11
  -12.5100002       1.40299257E-11
  -12.5000000       1.47721640E-10
  -12.4899998       3.05000414E-10
  -12.4799995       4.78062312E-10
  -12.4700003       6.55606680E-10
  -12.4600000       8.22800772E-10
  -12.4499998       9.61473345E-10
  -12.4399996       1.05056297E-09
  -12.4300003       1.06682874E-09
  -12.4200001       9.85819204E-10
  -12.4099998       7.83064336E-10
  -12.3999996       4.35439879E-10
  -12.3900003      -7.73699160E-11
  -12.3800001      -7.71395225E-10
  -12.3699999      -1.65698300E-09
  -12.3599997      -2.73756595E-09
  -12.3500004      -4.00868094E-09
  -12.3400002      -5.45728041E-09
  -12.3299999      -7.06140169E-09
  -12.3199997      -8.79018280E-09
  -12.3100004      -1.06042535E-08
  -12.3000002      -1.24564785E-08
  -12.2900000      -1.42930210E-08
  -12.2799997      -1.60547362E-08
  -12.2700005      -1.76787900E-08
  -12.2600002      -1.91005380E-08
  -12.2500000      -2.02555039E-08
  -12.2399998      -2.10814513E-08
  -12.2299995      -2.15204192E-08
  -12.2200003      -2.15206022E-08
  -12.2100000      -2.10380211E-08
  -12.1999998      -2.00379251E-08
  -12.1899996      -1.84957685E-08
  -12.1800003      -1.63979141E-08
  -12.1700001      -1.37419027E-08
  -12.1599998      -1.05365050E-08
  -12.1499996      -6.80147183E-09
  -12.1400003      -2.56706501E-09
  -12.1300001       2.12656159E-09
  -12.1199999       7.23016758E-09
  -12.1099997       1.26864093E-08
  -12.1000004       1.84310363E-08
  -12.0900002       2.43941827E-08
  -12.0799999       3.05018695E-08
  -12.0699997       3.66774913E-08
  -12.0600004       4.28432827E-08
  -12.0500002       4.89216099E-08
  -12.0400000       5.48358976E-08
  -12.0299997       6.05112191E-08
  -12.0200005       6.58745734E-08
  -12.0100002       7.08547105E-08
  -12.0000000       7.53818199E-08
  -11.9899998       7.93871919E-08
  -11.9799995       8.28030267E-08
  -11.9700003       8.55624762E-08
  -11.9600000       8.76001849E-08
  -11.9499998       8.88531275E-08
  -11.9399996       8.92618317E-08
  -11.9300003       8.87718912E-08
  -11.9200001       8.73352164E-08
  -11.9099998       8.49116617E-08
  -11.8999996       8.14698708E-08
  -11.8900003       7.69882291E-08
  -11.8800001       7.14552684E-08
  -11.8699999       6.48698020E-08
  -11.8599997       5.72411345E-08
  -11.8500004       4.85889089E-08
  -11.8400002       3.89431349E-08
  -11.8299999       2.83442265E-08
  -11.8199997       1.68432877E-08
  -11.8100004       4.50214444E-09
  -11.8000002      -8.60644978E-09
  -11.7900000      -2.23986838E-08
  -11.7799997      -3.67798165E-08
  -11.7700005      -5.16446690E-08
  -11.7600002      -6.68784992E-08
  -11.7500000      -8.23578148E-08
  -11.7399998      -9.79523449E-08
  -11.7299995      -1.13526461E-07
  -11.7200003      -1.28941579E-07
  -11.7100000      -1.44058177E-07
  -11.6999998      -1.58738032E-07
  -11.6899996      -1.72846242E-07
  -11.6800003      -1.86253203E-07
  -11.6700001      -1.98835735E-07
  -11.6599998      -2.10478518E-07
  -11.6499996      -2.21074416E-07
  -11.6400003      -2.30525032E-07
  -11.6300001      -2.38740171E-07
  -11.6199999      -2.45637807E-07
  -11.6099997      -2.51142808E-07
  -11.6000004      -2.55186137E-07
  -11.5900002      -2.57703221E-07
  -11.5799999      -2.58632639E-07
  -11.5699997      -2.57914564E-07
  -11.5600004      -2.55489027E-07
  -11.5500002      -2.51295347E-07
  -11.5400000      -2.45271110E-07
  -11.5299997      -2.37352850E-07
  -11.5200005      -2.27476988E-07
  -11.5100002      -2.15582432E-07
  -11.5000000      -2.01613148E-07
  -11.4899998      -1.85521841E-07
  -11.4799995      -1.67273811E-07
  -11.4700003      -1.46849871E-07
  -11.4600000      -1.24248828E-07
  -11.4499998      -9.94889717E-08
  -11.4399996      -7.26080174E-08
  -11.4300003      -4.36616148E-08
  -11.4200001      -1.27209523E-08
  -11.4099998       2.01305035E-08
  -11.3999996       5.48005019E-08
  -11.3900003       9.11920210E-08
  -11.3800001       1.29205816E-07
  -11.3699999       1.68743696E-07
  -11.3599997       2.09709583E-07
  -11.3500004       2.52011148E-07
  -11.3400002       2.95560028E-07
  -11.3299999       3.40271782E-07
  -11.3199997       3.86064755E-07
  -11.3100004       4.32859991E-07
  -11.3000002       4.80579843E-07
  -11.2900000       5.29147201E-07
  -11.2799997       5.78484389E-07
  -11.2700005       6.28511941E-07
  -11.2600002       6.79149309E-07
  -11.2500000       7.30313673E-07
  -11.2399998       7.81921472E-07
  -11.2299995       8.33888407E-07
  -11.2200003       8.86130977E-07
  -11.2100000       9.38567780E-07
  -11.1999998       9.91120487E-07
  -11.1899996       1.04371532E-06
  -11.1800003       1.09628286E-06
  -11.1700001       1.14875854E-06
  -11.1599998       1.20108302E-06
  -11.1499996       1.25320116E-06
  -11.1400003       1.30506123E-06
  -11.1300001       1.35661571E-06
  -11.1199999       1.40782038E-06
  -11.1099997       1.45863442E-06
  -11.1000004       1.50901985E-06
  -11.0900002       1.55894122E-06
  -11.0799999       1.60836635E-06
  -11.0699997       1.65726453E-06
  -11.0600004       1.70560611E-06
  -11.0500002       1.75336356E-06
  -11.0400000       1.80050893E-06
  -11.0299997       1.84701400E-06
  -11.0200005       1.89285379E-06
  -11.0100002       1.93800315E-06
  -11.0000000       1.98244084E-06
  -10.9899998       2.02614865E-06
  -10.9799995       2.06911409E-06
  -10.9700003       2.11132760E-06
  -10.9600000       2.15278237E-06
  -10.9499998       2.19347203E-06
  -10.9399996       2.23339180E-06
  -10.9300003       2.27253349E-06
  -10.9200001       2.31088325E-06
  -10.9099998       2.34842582E-06
  -10.8999996       2.38513553E-06
  -10.8900003       2.42098940E-06
  -10.8800001       2.45595220E-06
  -10.8699999       2.48999208E-06
  -10.8599997       2.52307836E-06
  -10.8500004       2.55517898E-06
  -10.8400002       2.58626756E-06
  -10.8299999       2.61631703E-06
  -10.8199997       2.64530672E-06
  -10.8100004       2.67322366E-06
  -10.8000002       2.70005876E-06
  -10.7900000       2.72581224E-06
  -10.7799997       2.75049069E-06
  -10.7700005       2.77411300E-06
  -10.7600002       2.79670758E-06
  -10.7500000       2.81831217E-06
  -10.7399998       2.83897543E-06
  -10.7299995       2.85874899E-06
  -10.7200003       2.87769785E-06
  -10.7100000       2.89588502E-06
  -10.6999998       2.91338051E-06
  -10.6899996       2.93024868E-06
  -10.6800003       2.94655956E-06
  -10.6700001       2.96238341E-06
  -10.6599998       2.97779366E-06
  -10.6499996       2.99286853E-06
  -10.6400003       3.00769761E-06
  -10.6300001       3.02238959E-06
  -10.6199999       3.03705929E-06
  -10.6099997       3.05184471E-06
  -10.6000004       3.06688821E-06
  -10.5900002       3.08234121E-06
  -10.5799999       3.09835514E-06
  -10.5699997       3.11507483E-06
  -10.5600004       3.13263263E-06
  -10.5500002       3.15114153E-06
  -10.5400000       3.17069589E-06
  -10.5299997       3.19136961E-06
  -10.5200005       3.21322000E-06
  -10.5100002       3.23628365E-06
  -10.5000000       3.26059262E-06
  -10.4899998       3.28616579E-06
  -10.4799995       3.31301908E-06
  -10.4700003       3.34115475E-06
  -10.4600000       3.37057031E-06
  -10.4499998       3.40125735E-06
  -10.4399996       3.43319653E-06
  -10.4300003       3.46634602E-06
  -10.4200001       3.50066352E-06
  -10.4099998       3.53608607E-06
  -10.3999996       3.57255431E-06
  -10.3900003       3.61000548E-06
  -10.3800001       3.64836615E-06
  -10.3699999       3.68757128E-06
  -10.3599997       3.72755881E-06
  -10.3500004       3.76825801E-06
  -10.3400002       3.80959614E-06
  -10.3299999       3.85149906E-06
  -10.3199997       3.89387696E-06
  -10.3100004       3.93663731E-06
  -10.3000002       3.97967233E-06
  -10.2900000       4.02287696E-06
  -10.2799997       4.06615163E-06
  -10.2700005       4.10939629E-06
  -10.2600002       4.15253544E-06
  -10.2500000       4.19551998E-06
  -10.2399998       4.23832171E-06
  -10.2299995       4.28093972E-06
  -10.2200003       4.32341358E-06
  -10.2100000       4.36580149E-06
  -10.1999998       4.40819031E-06
  -10.1899996       4.45068463E-06
  -10.1800003       4.49339586E-06
  -10.1700001       4.53647044E-06
  -10.1599998       4.58005752E-06
  -10.1499996       4.62432899E-06
  -10.1400003       4.66945858E-06
  -10.1300001       4.71563953E-06
  -10.1199999       4.76308151E-06
  -10.1099997       4.81200277E-06
  -10.1000004       4.86262297E-06
  -10.0900002       4.91516766E-06
  -10.0799999       4.96984921E-06
  -10.0699997       5.02688818E-06
  -10.0600004       5.08649282E-06
  -10.0500002       5.14884732E-06
  -10.0400000       5.21414313E-06
  -10.0299997       5.28256123E-06
  -10.0200005       5.35427716E-06
  -10.0100002       5.42946100E-06
  -10.0000000       5.50827599E-06
  -9.98999977       5.59087175E-06
  -9.97999954       5.67739244E-06
  -9.97000027       5.76795946E-06
  -9.96000004       5.86265105E-06
  -9.94999981       5.96154632E-06
  -9.93999958       6.06466483E-06
  -9.93000031       6.17201567E-06
  -9.92000008       6.28357793E-06
  -9.90999985       6.39930249E-06
  -9.89999962       6.51915343E-06
  -9.89000034       6.64307936E-06
  -9.88000011       6.77105118E-06
  -9.86999989       6.90302613E-06
  -9.85999966       7.03901742E-06
  -9.85000038       7.17902867E-06
  -9.84000015       7.32312037E-06
  -9.82999992       7.47133618E-06
  -9.81999969       7.62378113E-06
  -9.81000042       7.78055255E-06
  -9.80000019       7.94179596E-06
  -9.78999996       8.10763322E-06
  -9.77999973       8.27821714E-06
  -9.77000046       8.45372688E-06
  -9.76000023       8.63432069E-06
  -9.75000000       8.82017684E-06
  -9.73999977       9.01146723E-06
  -9.72999954       9.20836010E-06
  -9.72000027       9.41098642E-06
  -9.71000004       9.61948172E-06
  -9.69999981       9.83395330E-06
  -9.68999958       1.00544621E-05
  -9.68000031       1.02810136E-05
  -9.67000008       1.05135568E-05
  -9.65999985       1.07519782E-05
  -9.64999962       1.09960665E-05
  -9.64000034       1.12455418E-05
  -9.63000011       1.15000512E-05
  -9.61999989       1.17591217E-05
  -9.60999966       1.20221976E-05
  -9.60000038       1.22886386E-05
  -9.59000015       1.25577362E-05
  -9.57999992       1.28287038E-05
  -9.56999969       1.31007137E-05
  -9.56000042       1.33728372E-05
  -9.55000019       1.36441467E-05
  -9.53999996       1.39136328E-05
  -9.52999973       1.41802911E-05
  -9.52000046       1.44430705E-05
  -9.51000023       1.47009068E-05
  -9.50000000       1.49527696E-05
  -9.48999977       1.51976355E-05
  -9.47999954       1.54345416E-05
  -9.47000027       1.56625811E-05
  -9.46000004       1.58809780E-05
  -9.44999981       1.60890595E-05
  -9.43999958       1.62862889E-05
  -9.43000031       1.64723460E-05
  -9.42000008       1.66470581E-05
  -9.40999985       1.68104852E-05
  -9.39999962       1.69628820E-05
  -9.39000034       1.71047286E-05
  -9.38000011       1.72367363E-05
  -9.36999989       1.73598437E-05
  -9.35999966       1.74751985E-05
  -9.35000038       1.75841469E-05
  -9.34000015       1.76882713E-05
  -9.32999992       1.77893453E-05
  -9.31999969       1.78892751E-05
  -9.31000042       1.79901581E-05
  -9.30000019       1.80941825E-05
  -9.28999996       1.82036656E-05
  -9.27999973       1.83209559E-05
  -9.27000046       1.84484943E-05
  -9.26000023       1.85886565E-05
  -9.25000000       1.87438527E-05
  -9.23999977       1.89164293E-05
  -9.22999954       1.91085783E-05
  -9.22000027       1.93224496E-05
  -9.21000004       1.95599696E-05
  -9.19999981       1.98229227E-05
  -9.18999958       2.01128478E-05
  -9.18000031       2.04310927E-05
  -9.17000008       2.07787070E-05
  -9.15999985       2.11565130E-05
  -9.14999962       2.15650107E-05
  -9.14000034       2.20043949E-05
  -9.13000011       2.24745872E-05
  -9.11999989       2.29751458E-05
  -9.10999966       2.35053631E-05
  -9.10000038       2.40642239E-05
  -9.09000015       2.46503823E-05
  -9.07999992       2.52622849E-05
  -9.06999969       2.58980308E-05
  -9.06000042       2.65555409E-05
  -9.05000019       2.72324960E-05
  -9.03999996       2.79263731E-05
  -9.02999973       2.86344566E-05
  -9.02000046       2.93538669E-05
  -9.01000023       3.00816082E-05
  -9.00000000       3.08145754E-05
  -8.98999977       3.15495818E-05
  -8.97999954       3.22833948E-05
  -8.97000027       3.30127223E-05
  -8.96000004       3.37343081E-05
  -8.94999981       3.44449218E-05
  -8.93999958       3.51413037E-05
  -8.93000031       3.58203142E-05
  -8.92000008       3.64788830E-05
  -8.90999985       3.71140086E-05
  -8.89999962       3.77228353E-05
  -8.89000034       3.83026781E-05
  -8.88000011       3.88510125E-05
  -8.86999989       3.93654846E-05
  -8.85999966       3.98439115E-05
  -8.85000038       4.02843361E-05
  -8.84000015       4.06850631E-05
  -8.82999992       4.10446009E-05
  -8.81999969       4.13617490E-05
  -8.81000042       4.16354778E-05
  -8.80000019       4.18651653E-05
  -8.78999996       4.20503493E-05
  -8.77999973       4.21909463E-05
  -8.77000046       4.22871344E-05
  -8.76000023       4.23393722E-05
  -8.75000000       4.23483834E-05
  -8.73999977       4.23151832E-05
  -8.72999954       4.22410267E-05
  -8.72000027       4.21274017E-05
  -8.71000004       4.19759526E-05
  -8.69999981       4.17886549E-05
  -8.68999958       4.15675531E-05
  -8.68000031       4.13148191E-05
  -8.67000008       4.10328539E-05
  -8.65999985       4.07240695E-05
  -8.64999962       4.03909144E-05
  -8.64000034       4.00359422E-05
  -8.63000011       3.96615724E-05
  -8.61999989       3.92703732E-05
  -8.60999966       3.88646658E-05
  -8.60000038       3.84467894E-05
  -8.59000015       3.80190722E-05
  -8.57999992       3.75836134E-05
  -8.56999969       3.71424430E-05
  -8.56000042       3.66974673E-05
  -8.55000019       3.62505198E-05
  -8.53999996       3.58031393E-05
  -8.52999973       3.53568248E-05
  -8.52000046       3.49129805E-05
  -8.51000023       3.44728105E-05
  -8.50000000       3.40375009E-05
  -8.48999977       3.36081139E-05
  -8.47999954       3.31855990E-05
  -8.47000027       3.27707930E-05
  -8.46000004       3.23645581E-05
  -8.44999981       3.19675855E-05
  -8.43999958       3.15806174E-05
  -8.43000031       3.12043194E-05
  -8.42000008       3.08393792E-05
  -8.40999985       3.04864334E-05
  -8.39999962       3.01462715E-05
  -8.39000034       2.98196501E-05
  -8.38000011       2.95073514E-05
  -8.36999989       2.92103086E-05
  -8.35999966       2.89294840E-05
  -8.35000038       2.86658851E-05
  -8.34000015       2.84205271E-05
  -8.32999992       2.81945922E-05
  -8.31999969       2.79891919E-05
  -8.31000042       2.78055613E-05
  -8.30000019       2.76448754E-05
  -8.28999996       2.75083839E-05
  -8.27999973       2.73972310E-05
  -8.27000046       2.73127189E-05
  -8.26000023       2.72560665E-05
  -8.25000000       2.72284105E-05
  -8.23999977       2.72308462E-05
  -8.22999954       2.72646357E-05
  -8.22000027       2.73308506E-05
  -8.21000004       2.74305021E-05
  -8.19999981       2.75647344E-05
  -8.18999958       2.77345553E-05
  -8.18000031       2.79410633E-05
  -8.17000008       2.81851953E-05
  -8.15999985       2.84679354E-05
  -8.14999962       2.87903695E-05
  -8.14000034       2.91531833E-05
  -8.13000011       2.95573009E-05
  -8.11999989       3.00034899E-05
  -8.10999966       3.04924961E-05
  -8.10000038       3.10248943E-05
  -8.09000015       3.16011101E-05
  -8.07999992       3.22217129E-05
  -8.06999969       3.28869464E-05
  -8.06000042       3.35969635E-05
  -8.05000019       3.43518768E-05
  -8.03999996       3.51515628E-05
  -8.02999973       3.59958358E-05
  -8.02000046       3.68843466E-05
  -8.01000023       3.78165314E-05
  -8.00000000       3.87918117E-05
  -7.98999977       3.98094126E-05
  -7.98000002       4.08683991E-05
  -7.96999979       4.19677781E-05
  -7.96000004       4.31063672E-05
  -7.94999981       4.42829369E-05
  -7.94000006       4.54959554E-05
  -7.92999983       4.67439713E-05
  -7.92000008       4.80252929E-05
  -7.90999985       4.93382286E-05
  -7.90000010       5.06807810E-05
  -7.88999987       5.20511567E-05
  -7.88000011       5.34471947E-05
  -7.86999989       5.48668359E-05
  -7.86000013       5.63079557E-05
  -7.84999990       5.77682222E-05
  -7.84000015       5.92453580E-05
  -7.82999992       6.07370748E-05
  -7.82000017       6.22411244E-05
  -7.80999994       6.37552075E-05
  -7.80000019       6.52768867E-05
  -7.78999996       6.68039866E-05
  -7.78000021       6.83341932E-05
  -7.76999998       6.98655786E-05
  -7.76000023       7.13958289E-05
  -7.75000000       7.29229359E-05
  -7.73999977       7.44450444E-05
  -7.73000002       7.59603499E-05
  -7.71999979       7.74671062E-05
  -7.71000004       7.89636761E-05
  -7.69999981       8.04485389E-05
  -7.69000006       8.19203997E-05
  -7.67999983       8.33779268E-05
  -7.67000008       8.48202180E-05
  -7.65999985       8.62462912E-05
  -7.65000010       8.76555278E-05
  -7.63999987       8.90474112E-05
  -7.63000011       9.04216649E-05
  -7.61999989       9.17782017E-05
  -7.61000013       9.31170434E-05
  -7.59999990       9.44383501E-05
  -7.59000015       9.57426892E-05
  -7.57999992       9.70306137E-05
  -7.57000017       9.83029386E-05
  -7.55999994       9.95606533E-05
  -7.55000019       1.00804893E-04
  -7.53999996       1.02036749E-04
  -7.53000021       1.03257626E-04
  -7.51999998       1.04468883E-04
  -7.51000023       1.05672196E-04
  -7.50000000       1.06868974E-04
  -7.48999977       1.08060965E-04
  -7.48000002       1.09249726E-04
  -7.46999979       1.10436813E-04
  -7.46000004       1.11624147E-04
  -7.44999981       1.12813352E-04
  -7.44000006       1.14005947E-04