  -16.0000000       0.00000000    
  -15.9899998       0.00000000    
  -15.9799995       0.00000000    
  -15.9700003       0.00000000    
  -15.9600000       0.00000000    
  -15.9499998       0.00000000    
  -15.9399996       0.00000000    
  -15.9300003       0.00000000    
  -15.9200001       0.00000000    
  -15.9099998       0.00000000    
  -15.8999996       0.00000000    
  -15.8900003       0.00000000    
  -15.8800001       0.00000000    
  -15.8699999       0.00000000    
  -15.8599997       0.00000000    
  -15.8500004       0.00000000    
  -15.8400002       0.00000000    
  -15.8299999      -0.00000000    
  -15.8199997      -0.00000000    
  -15.8100004      -0.00000000    
  -15.8000002      -5.60519386E-45
  -15.7900000      -3.22298647E-44
  -15.7799997      -1.49938936E-43
  -15.7700005      -6.16571324E-43
  -15.7600002      -2.25188663E-42
  -15.7500000      -7.37923771E-42
  -15.7399998      -2.18378353E-41
  -15.7299995      -5.85350395E-41
  -15.7200003      -1.42018797E-40
  -15.7100000      -3.10229263E-40
  -15.6999998      -6.02112727E-40
  -15.6899996      -1.00812775E-39
  -15.6800003      -1.34979934E-39
  -15.6700001      -1.06159989E-39
  -15.6599998       1.09634369E-39
  -15.6499996       7.22808525E-39
  -15.6400003       2.00049467E-38
  -15.6300001       4.12761319E-38
  -15.6199999       6.90138317E-38
  -15.6099997       9.26729570E-38
  -15.6000004       8.86261808E-38
  -15.5900002       1.96691577E-38
  -15.5799999      -1.55458415E-37
  -15.5699997      -4.57267096E-37
  -15.5600004      -8.46041145E-37
  -15.5500002      -1.18030495E-36
  -15.5400000      -1.20052033E-36
  -15.5299997      -5.73449626E-37
  -15.5200005       9.78199329E-37
  -15.5100002       3.47363208E-36
  -15.5000000       6.46760522E-36
  -15.4899998       8.95082053E-36
  -15.4799995       9.45453249E-36
  -15.4700003       6.36367398E-36
  -15.4600000      -1.69004756E-36
  -15.4499998      -1.55319466E-35
  -15.4399996      -3.52300851E-35
  -15.4300003      -5.94771959E-35
  -15.4200001      -8.36120981E-35
  -15.4099998      -9.55431132E-35
  -15.3999996      -7.06108207E-35
  -15.3900003       2.99187763E-35
  -15.3800001       2.47799834E-34
  -15.3699999       5.94129559E-34
  -15.3599997       9.90525447E-34
  -15.3500004       1.20335210E-33
  -15.3400002       8.21128446E-34
  -15.3299999      -6.46027359E-34
  -15.3199997      -3.46969235E-33
  -15.3100004      -7.20621163E-33
  -15.3000002      -1.01589601E-32
  -15.2900000      -9.18403304E-33
  -15.2799997      -4.01394678E-34
  -15.2700005       1.86914078E-32
  -15.2600002       4.57357816E-32
  -15.2500000       6.97912919E-32
  -15.2399998       6.99550324E-32
  -15.2299995       1.99553405E-32
  -15.2200003      -9.82135463E-32
  -15.2100000      -2.72057376E-31
  -15.1999998      -4.35125315E-31
  -15.1899996      -4.58465601E-31
  -15.1800003      -1.79032950E-31
  -15.1700001       5.17277324E-31
  -15.1599998       1.56229519E-30
  -15.1499996       2.56766692E-30
  -15.1400003       2.77801100E-30
  -15.1300001       1.24096064E-30
  -15.1199999      -2.71133866E-30
  -15.1099997      -8.70543958E-30
  -15.1000004      -1.45633902E-29
  -15.0900002      -1.60678003E-29
  -15.0799999      -7.93026331E-30
  -15.0699997       1.35655749E-29
  -15.0600004       4.65014401E-29
  -15.0500002       7.93213206E-29
  -15.0400000       8.96913038E-29
  -15.0299997       4.96274862E-29
  -15.0200005      -6.08878178E-29
  -15.0100002      -2.33321863E-28
  -15.0000000      -4.10572346E-28
  -14.9899998      -4.81258741E-28
  -14.9799995      -3.04521832E-28
  -14.9700003       2.24574457E-28
  -14.9600000       1.07676567E-27
  -14.9499998       1.99278725E-27
  -14.9399996       2.45305466E-27
  -14.9300003       1.78582721E-27
  -14.9200001      -5.41181163E-28
  -14.9099998      -4.47923619E-27
  -14.8999996      -8.95974889E-27
  -14.8900003      -1.17284080E-26
  -14.8800001      -9.76491626E-27
  -14.8699999      -4.86112662E-28
  -14.8599997       1.63897902E-26
  -14.8500004       3.69240121E-26
  -14.8400002       5.20685853E-26
  -14.8299999       4.90824448E-26
  -14.8199997       1.61071715E-26
  -14.8100004      -5.04523418E-26
  -14.8000002      -1.37949450E-25
  -14.7900000      -2.13003587E-25
  -14.7799997      -2.25429157E-25
  -14.7700005      -1.24180561E-25
  -14.7600002       1.15328358E-25
  -14.7500000       4.59858034E-25
  -14.7399998       7.97289983E-25
  -14.7299995       9.44018604E-25
  -14.7200003       6.95294212E-25
  -14.7100000      -8.06650027E-26
  -14.6999998      -1.32667048E-24
  -14.6899996      -2.70570179E-24
  -14.6800003      -3.59809517E-24
  -14.6700001      -3.24237057E-24
  -14.6599998      -1.03482389E-24
  -14.6499996       3.06919312E-24
  -14.6400003       8.19474230E-24
  -14.6300001       1.24326064E-23
  -14.6199999       1.31709187E-23
  -14.6099997       7.96613278E-24
  -14.6000004      -4.16752337E-24
  -14.5900002      -2.14438584E-23
  -14.5799999      -3.85898259E-23
  -14.5699997      -4.74054349E-23
  -14.5600004      -3.90274639E-23
  -14.5500002      -7.74250334E-24
  -14.5400000       4.46221191E-23
  -14.5299997       1.05482315E-22
  -14.5200005       1.51569993E-22
  -14.5100002       1.53965441E-22
  -14.5000000       8.83209048E-23
  -14.4899998      -5.17561479E-23
  -14.4799995      -2.42640336E-22
  -14.4700003      -4.26031993E-22
  -14.4600000      -5.17428585E-22
  -14.4499998      -4.30342026E-22
  -14.4399996      -1.13150674E-22
  -14.4300003       4.11550325E-22
  -14.4200001       1.02104178E-21
  -14.4099998       1.49746732E-21
  -14.3999996       1.57578563E-21
  -14.3900003       1.03380754E-21
  -14.3800001      -1.94863525E-22
  -14.3699999      -1.92225829E-21
  -14.3599997      -3.66930534E-21
  -14.3500004      -4.73305315E-21
  -14.3400002      -4.37487385E-21
  -14.3299999      -2.10415300E-21
  -14.3199997       2.01758702E-21
  -14.3100004       7.16620654E-21
  -14.3000002       1.17607877E-20
  -14.2900000       1.37711953E-20
  -14.2799997       1.13269266E-20
  -14.2700005       3.50796595E-21
  -14.2600002      -8.91876961E-21
  -14.2500000      -2.31228517E-20
  -14.2399998      -3.44755018E-20
  -14.2299995      -3.75973816E-20
  -14.2200003      -2.80844071E-20
  -14.2100000      -4.51335470E-21
  -14.1999998       2.99184991E-20
  -14.1899996       6.68571767E-20
  -14.1800003       9.39467990E-20
  -14.1700001       9.78451396E-20
  -14.1599998       6.86508080E-20
  -14.1499996       4.63213671E-21
  -14.1400003      -8.43268758E-20
  -14.1300001      -1.76208521E-19
  -14.1199999      -2.40410843E-19
  -14.1099997      -2.45440049E-19
  -14.1000004      -1.69401794E-19
  -14.0900002      -1.05662929E-20
  -14.0799999       2.05574054E-19
  -14.0699997       4.26214866E-19
  -14.0600004       5.80249312E-19
  -14.0500002       5.96075552E-19
  -14.0400000       4.24887965E-19
  -14.0299997       6.33789857E-20
  -14.0200005      -4.31716754E-19
  -14.0100002      -9.44241041E-19
  -14.0000000      -1.31839241E-18
  -13.9899998      -1.39658776E-18
  -13.9799995      -1.06827884E-18
  -13.9700003      -3.17282727E-19
  -13.9600000       7.47540335E-19
  -13.9499998       1.89204992E-18
  -13.9399996       2.79481809E-18
  -13.9300003       3.12129759E-18
  -13.9200001       2.62056381E-18
  -13.9099998       1.22097101E-18
  -13.8999996      -9.04142841E-19
  -13.8900003      -3.32722545E-18
  -13.8800001      -5.42948615E-18
  -13.8699999      -6.53401712E-18
  -13.8599997      -6.08596109E-18
  -13.8500004      -3.83799314E-18
  -13.8400002       1.09388739E-20
  -13.8299999       4.77297276E-18
  -13.8199997       9.35669569E-18
  -13.8100004       1.24823887E-17
  -13.8000002       1.29927815E-17
  -13.7900000       1.01916022E-17
  -13.7799997       4.12202587E-18
  -13.7700005      -4.30217877E-18
  -13.7600002      -1.33747015E-17
  -13.7500000      -2.08991847E-17
  -13.7399998      -2.46729597E-17
  -13.7299995      -2.30529132E-17
  -13.7200003      -1.54672567E-17
  -13.7100000      -2.73121059E-18
  -13.6999998       1.29433665E-17
  -13.6899996       2.82885182E-17
  -13.6800003       3.96292041E-17
  -13.6700001       4.37139741E-17
  -13.6599998       3.85400322E-17
  -13.6499996       2.39679437E-17
  -13.6400003       1.95614484E-18
  -13.6300001      -2.36723739E-17
  -13.6199999      -4.79080247E-17
  -13.6099997      -6.55429992E-17
  -13.6000004      -7.22545375E-17
  -13.5900002      -6.55403059E-17
  -13.5799999      -4.52978033E-17
  -13.5699997      -1.39288960E-17
  -13.5600004       2.40320916E-17
  -13.5500002       6.26570454E-17
  -13.5400000       9.55486583E-17
  -13.5299997       1.16758674E-16
  -13.5200005       1.21556891E-16
  -13.5100002       1.06995501E-16
  -13.5000000       7.23014354E-17
  -13.4899998       1.91777259E-17
  -13.4799995      -4.79255510E-17
  -13.4700003      -1.21599759E-16
  -13.4600000      -1.91483087E-16
  -13.4499998      -2.44751202E-16
  -13.4399996      -2.67387549E-16
  -13.4300003      -2.46416813E-16
  -13.4200001      -1.73023327E-16
  -13.4099998      -4.61073815E-17
  -13.3999996       1.24547433E-16
  -13.3900003       3.16576605E-16
  -13.3800001       4.95885804E-16
  -13.3699999       6.20778112E-16
  -13.3599997       6.49391626E-16
  -13.3500004       5.49546718E-16
  -13.3400002       3.09152361E-16
  -13.3299999      -5.53806453E-17
  -13.3199997      -4.95442276E-16
  -13.3100004      -9.33427873E-16
  -13.3000002      -1.27376783E-15
  -13.2900000      -1.42089523E-15
  -13.2799997      -1.30127798E-15
  -13.2700005      -8.84993364E-16
  -13.2600002      -2.01489339E-16
  -13.2500000       6.55422713E-16
  -13.2399998       1.53657780E-15
  -13.2299995       2.26084910E-15
  -13.2200003       2.64987037E-15
  -13.2100000       2.56779245E-15
  -13.1999998       1.95760431E-15
  -13.1899996       8.65112760E-16
  -13.1800003      -5.56640566E-16
  -13.1700001      -2.06607959E-15
  -13.1599998      -3.37350099E-15
  -13.1499996      -4.19655909E-15
  -13.1400003      -4.31999382E-15
  -13.1300001      -3.64672163E-15
  -13.1199999      -2.22823155E-15
  -13.1099997      -2.65973984E-16
  -13.1000004       1.91858024E-15
  -13.0900002       3.94056964E-15
  -13.0799999       5.42415886E-15
  -13.0699997       6.07579782E-15
  -13.0600004       5.74271567E-15
  -13.0500002       4.44403544E-15
  -13.0400000       2.36790114E-15
  -13.0299997      -1.64308047E-16
  -13.0200005      -2.75825607E-15
  -13.0100002      -5.01772662E-15
  -13.0000000      -6.61105319E-15
  -12.9899998      -7.31957253E-15
  -12.9799995      -7.06018902E-15
  -12.9700003      -5.88118057E-15
  -12.9600000      -3.93715483E-15
  -12.9499998      -1.45355385E-15
  -12.9399996       1.30799484E-15
  -12.9300003       4.07496667E-15
  -12.9200001       6.57687287E-15
  -12.9099998       8.54918739E-15
  -12.8999996       9.73651498E-15
  -12.8900003       9.90478485E-15
  -12.8800001       8.86955135E-15
  -12.8699999       6.54106879E-15
  -12.8599997       2.97839739E-15
  -12.8500004      -1.56273111E-15
  -12.8400002      -6.60744991E-15
  -12.8299999      -1.14821694E-14
  -12.8199997      -1.53874021E-14
  -12.8100004      -1.75198956E-14
  -12.8000002      -1.72266274E-14
  -12.7900000      -1.41608993E-14
  -12.7799997      -8.40478691E-15
  -12.7700005      -5.24423403E-16
  -12.7600002       8.46395216E-15
  -12.7500000       1.72211471E-14
  -12.7399998       2.42882920E-14
  -12.7299995       2.83307500E-14
  -12.7200003       2.83759205E-14
  -12.7100000       2.39978224E-14
  -12.6999998       1.54118458E-14
  -12.6899996       3.46248879E-15
  -12.6800003      -1.04896120E-14
  -12.6700001      -2.47538755E-14
  -12.6599998      -3.75281810E-14
  -12.6499996      -4.71062703E-14
  -12.6400003      -5.20404473E-14
  -12.6300001      -5.12443142E-14
  -12.6199999      -4.40424166E-14
  -12.6099997      -3.01910562E-14
  -12.6000004      -9.90379467E-15
  -12.5900002       1.60903734E-14
  -12.5799999       4.64457201E-14
  -12.5699997       7.90716505E-14
  -12.5600004       1.11022092E-13
  -12.5500002       1.38466265E-13
  -12.5400000       1.56809963E-13
  -12.5299997       1.61021776E-13
  -12.5200005       1.46182328E-13
  -12.5100002       1.08229493E-13
  -12.5000000       4.48183394E-14
  -12.4899998      -4.38269924E-14
  -12.4799995      -1.54214193E-13
  -12.4700003      -2.79176367E-13
  -12.4600000      -4.07863115E-13
  -12.4499998      -5.26175457E-13
  -12.4399996      -6.17616635E-13
  -12.4300003      -6.64465499E-13
  -12.4200001      -6.49118346E-13
  -12.4099998      -5.55434225E-13
  -12.3999996      -3.69912949E-13
  -12.3900003      -8.25954024E-14
  -12.3800001       3.12371602E-13
  -12.3699999       8.16494713E-13
  -12.3599997       1.42692921E-12
  -12.3500004       2.13660730E-12
  -12.3400002       2.93438364E-12
  -12.3299999       3.80512028E-12
  -12.3199997       4.72968669E-12
  -12.3100004       5.68490437E-12
  -12.3000002       6.64355420E-12
  -12.2900000       7.57455383E-12
  -12.2799997       8.44344993E-12
  -12.2700005       9.21328638E-12
  -12.2600002       9.84586458E-12
  -12.2500000       1.03033406E-11
  -12.2399998       1.05499940E-11
  -12.2299995       1.05539778E-11
  -12.2200003       1.02888861E-11
  -12.2100000       9.73490125E-12
  -12.1999998       8.87951344E-12
  -12.1899996       7.71772923E-12
  -12.1800003       6.25189397E-12
  -12.1700001       4.49122423E-12
  -12.1599998       2.45121306E-12
  -12.1499996       1.53034622E-13
  -12.1400003      -2.37698554E-12
  -12.1300001      -5.10781738E-12
  -12.1199999      -8.00418065E-12
  -12.1099997      -1.10270881E-11
  -12.1000004      -1.41345434E-11
  -12.0900002      -1.72825053E-11
  -12.0799999      -2.04259804E-11
  -12.0699997      -2.35202101E-11
  -12.0600004      -2.65217570E-11
  -12.0500002      -2.93892688E-11
  -12.0400000      -3.20837766E-11
  -12.0299997      -3.45685355E-11
  -12.0200005      -3.68083272E-11
  -12.0100002      -3.87686758E-11
  -12.0000000      -4.04147930E-11
  -11.9899998      -4.17112525E-11
  -11.9799995      -4.26216978E-11
  -11.9700003      -4.31097345E-11
  -11.9600000      -4.31400887E-11
  -11.9499998      -4.26804737E-11
  -11.9399996      -4.17034983E-11
  -11.9300003      -4.01884671E-11
  -11.9200001      -3.81227272E-11
  -11.9099998      -3.55023407E-11
  -11.8999996      -3.23320815E-11
  -11.8900003      -2.86249982E-11
  -11.8800001      -2.44012449E-11
  -11.8699999      -1.96872397E-11
  -11.8599997      -1.45145449E-11
  -11.8500004      -8.91904866E-12
  -11.8400002      -2.94033569E-12
  -11.8299999       3.37892041E-12
  -11.8199997       9.99364046E-12
  -11.8100004       1.68569551E-11
  -11.8000002       2.39212261E-11
  -11.7900000       3.11388797E-11
  -11.7799997       3.84632257E-11
  -11.7700005       4.58488421E-11
  -11.7600002       5.32514831E-11
  -11.7500000       6.06273365E-11
  -11.7399998       6.79317227E-11
  -11.7299995       7.51176205E-11
  -11.7200003       8.21339941E-11
  -11.7100000       8.89246940E-11
  -11.6999998       9.54277768E-11
  -11.6899996       1.01575789E-10
  -11.6800003       1.07296692E-10
  -11.6700001       1.12515344E-10
  -11.6599998       1.17155230E-10
  -11.6499996       1.21140459E-10
  -11.6400003       1.24397243E-10
  -11.6300001       1.26855207E-10
  -11.6199999       1.28448502E-10
  -11.6099997       1.29116592E-10
  -11.6000004       1.28805258E-10
  -11.5900002       1.27467065E-10
  -11.5799999       1.25062835E-10
  -11.5699997       1.21562413E-10
  -11.5600004       1.16945592E-10
  -11.5500002       1.11202082E-10
  -11.5400000       1.04331994E-10
  -11.5299997       9.63444602E-11
  -11.5200005       8.72561814E-11
  -11.5100002       7.70895847E-11
  -11.5000000       6.58704827E-11
  -11.4899998       5.36262701E-11
  -11.4799995       4.03844735E-11
  -11.4700003       2.61725051E-11
  -11.4600000       1.10179392E-11
  -11.4499998      -5.04957924E-12
  -11.4399996      -2.19962659E-11
  -11.4300003      -3.97811020E-11
  -11.4200001      -5.83531001E-11
  -11.4099998      -7.76490747E-11
  -11.3999996      -9.75925174E-11
  -11.3900003      -1.18094048E-10
  -11.3800001      -1.39052922E-10
  -11.3699999      -1.60360530E-10
  -11.3599997      -1.81904741E-10
  -11.3500004      -2.03574685E-10
  -11.3400002      -2.25265695E-10
  -11.3299999      -2.46882986E-10
  -11.3199997      -2.68344597E-10
  -11.3100004      -2.89582469E-10
  -11.3000002      -3.10542259E-10
  -11.2900000      -3.31181887E-10
  -11.2799997      -3.51470353E-10
  -11.2700005      -3.71384479E-10
  -11.2600002      -3.90907751E-10
  -11.2500000      -4.10028511E-10
  -11.2399998      -4.28737768E-10
  -11.2299995      -4.47028081E-10
  -11.2200003      -4.64891459E-10
  -11.2100000      -4.82317020E-10
  -11.1999998      -4.99288166E-10
  -11.1899996      -5.15781029E-10
  -11.1800003      -5.31762745E-10
  -11.1700001      -5.47189849E-10
  -11.1599998      -5.62011382E-10
  -11.1499996      -5.76169279E-10
  -11.1400003      -5.89604920E-10
  -11.1300001      -6.02261685E-10
  -11.1199999      -6.14092222E-10
  -11.1099997      -6.25060004E-10
  -11.1000004      -6.35143549E-10
  -11.0900002      -6.44337028E-10
  -11.0799999      -6.52649823E-10
  -11.0699997      -6.60105526E-10
  -11.0600004      -6.66738664E-10
  -11.0500002      -6.72593481E-10
  -11.0400000      -6.77719492E-10
  -11.0299997      -6.82170376E-10
  -11.0200005      -6.85999979E-10
  -11.0100002      -6.89263036E-10
  -11.0000000      -6.92010116E-10
  -10.9899998      -6.94289903E-10
  -10.9799995      -6.96144642E-10
  -10.9700003      -6.97611136E-10
  -10.9600000      -6.98720581E-10
  -10.9499998      -6.99497960E-10
  -10.9399996      -6.99963698E-10
  -10.9300003      -7.00133951E-10
  -10.9200001      -7.00018210E-10
  -10.9099998      -6.99619584E-10
  -10.8999996      -6.98934965E-10
  -10.8900003      -6.97953417E-10
  -10.8800001      -6.96656510E-10
  -10.8699999      -6.95018376E-10
  -10.8599997      -6.93006874E-10
  -10.8500004      -6.90586199E-10
  -10.8400002      -6.87718438E-10
  -10.8299999      -6.84364010E-10
  -10.8199997      -6.80481116E-10
  -10.8100004      -6.76026346E-10
  -10.8000002      -6.70950295E-10
  -10.7900000      -6.65197175E-10
  -10.7799997      -6.58706589E-10
  -10.7700005      -6.51414589E-10
  -10.7600002      -6.43257947E-10
  -10.7500000      -6.34177932E-10
  -10.7399998      -6.24128360E-10
  -10.7299995      -6.13079643E-10
  -10.7200003      -6.01023786E-10
  -10.7100000      -5.87977278E-10
  -10.6999998      -5.73975922E-10
  -10.6899996      -5.59077562E-10
  -10.6800003      -5.43352641E-10
  -10.6700001      -5.26884203E-10
  -10.6599998      -5.09761899E-10
  -10.6499996      -4.92076713E-10
  -10.6400003      -4.73920847E-10
  -10.6300001      -4.55385035E-10
  -10.6199999      -4.36554987E-10
  -10.6099997      -4.17504226E-10
  -10.6000004      -3.98298255E-10
  -10.5900002      -3.78988868E-10
  -10.5799999      -3.59613339E-10
  -10.5699997      -3.40203560E-10
  -10.5600004      -3.20786009E-10
  -10.5500002      -3.01393382E-10
  -10.5400000      -2.82062318E-10
  -10.5299997      -2.62845162E-10
  -10.5200005      -2.43801174E-10
  -10.5100002      -2.25000574E-10
  -10.5000000      -2.06509698E-10
  -10.4899998      -1.88389096E-10
  -10.4799995      -1.70682440E-10
  -10.4700003      -1.53412755E-10
  -10.4600000      -1.36586922E-10
  -10.4499998      -1.20187832E-10
  -10.4399996      -1.04190115E-10
  -10.4300003      -8.85604715E-11
  -10.4200001      -7.32570254E-11
  -10.4099998      -5.82401280E-11
  -10.3999996      -4.34658178E-11
  -10.3900003      -2.88881922E-11
  -10.3800001      -1.44536553E-11
  -10.3699999      -1.04163084E-13
  -10.3599997       1.42243465E-11
  -10.3500004       2.85936465E-11
  -10.3400002       4.30631364E-11
  -10.3299999       5.76890619E-11
  -10.3199997       7.25167981E-11
  -10.3100004       8.75804568E-11
  -10.3000002       1.02914295E-10
  -10.2900000       1.18544202E-10
  -10.2799997       1.34497607E-10
  -10.2700005       1.50802024E-10
  -10.2600002       1.67482458E-10
  -10.2500000       1.84558938E-10
  -10.2399998       2.02043104E-10
  -10.2299995       2.19932614E-10
  -10.2200003       2.38213949E-10
  -10.2100000       2.56859006E-10
  -10.1999998       2.75835660E-10
  -10.1899996       2.95113933E-10
  -10.1800003       3.14663101E-10
  -10.1700001       3.34462041E-10
  -10.1599998       3.54494878E-10
  -10.1499996       3.74749426E-10
  -10.1400003       3.95208921E-10
  -10.1300001       4.15846968E-10
  -10.1199999       4.36621628E-10
  -10.1099997       4.57472088E-10
  -10.1000004       4.78317663E-10
  -10.0900002       4.99061348E-10
  -10.0799999       5.19594701E-10
  -10.0699997       5.39798872E-10
  -10.0600004       5.59555013E-10
  -10.0500002       5.78744552E-10
  -10.0400000       5.97259409E-10
  -10.0299997       6.14999052E-10
  -10.0200005       6.31874830E-10
  -10.0100002       6.47808640E-10
  -10.0000000       6.62732536E-10
  -9.98999977       6.76582790E-10
  -9.97999954       6.89295065E-10
  -9.97000027       7.00796976E-10
  -9.96000004       7.11005976E-10
  -9.94999981       7.19824089E-10
  -9.93999958       7.27140403E-10
  -9.93000031       7.32836014E-10
  -9.92000008       7.36793015E-10
  -9.90999985       7.38901995E-10
  -9.89999962       7.39073081E-10
  -9.89000034       7.37238881E-10
  -9.88000011       7.33357597E-10
  -9.86999989       7.27409022E-10
  -9.85999966       7.19391324E-10
  -9.85000038       7.09315717E-10
  -9.84000015       6.97204905E-10
  -9.82999992       6.83095802E-10
  -9.81999969       6.67045141E-10
  -9.81000042       6.49137966E-10
  -9.80000019       6.29495955E-10
  -9.78999996       6.08282646E-10
  -9.77999973       5.85700599E-10
  -9.77000046       5.61985181E-10
  -9.76000023       5.37390243E-10
  -9.75000000       5.12171250E-10
  -9.73999977       4.86569396E-10
  -9.72999954       4.60798733E-10
  -9.72000027       4.35040504E-10
  -9.71000004       4.09442424E-10
  -9.69999981       3.84125065E-10
  -9.68999958       3.59191121E-10
  -9.68000031       3.34734046E-10
  -9.67000008       3.10845294E-10
  -9.65999985       2.87616764E-10
  -9.64999962       2.65138578E-10
  -9.64000034       2.43493642E-10
  -9.63000011       2.22750068E-10
  -9.61999989       2.02951753E-10
  -9.60999966       1.84112170E-10
  -9.60000038       1.66208242E-10
  -9.59000015       1.49177434E-10
  -9.57999992       1.32916900E-10
  -9.56999969       1.17285140E-10
  -9.56000042       1.02106060E-10
  -9.55000019       8.71754405E-11
  -9.53999996       7.22703009E-11
  -9.52999973       5.71600788E-11
  -9.52000046       4.16196903E-11
  -9.51000023       2.54430938E-11
  -9.50000000       8.45569448E-12
  -9.48999977      -9.47611174E-12
  -9.47999954      -2.84389404E-11
  -9.47000027      -4.84703527E-11
  -9.46000004      -6.95604963E-11
  -9.44999981      -9.16554124E-11
  -9.43999958      -1.14662453E-10
  -9.43000031      -1.38453665E-10
  -9.42000008      -1.62869565E-10
  -9.40999985      -1.87720534E-10
  -9.39999962      -2.12788370E-10
  -9.39000034      -2.37826536E-10
  -9.38000011      -2.62562999E-10
  -9.36999989      -2.86703716E-10
  -9.35999966      -3.09937354E-10
  -9.35000038      -3.31940919E-10
  -9.34000015      -3.52384982E-10
  -9.32999992      -3.70938280E-10
  -9.31999969      -3.87270188E-10
  -9.31000042      -4.01051914E-10
  -9.30000019      -4.11956413E-10
  -9.28999996      -4.19657781E-10
  -9.27999973      -4.23831525E-10
  -9.27000046      -4.24154517E-10
  -9.26000023      -4.20306456E-10
  -9.25000000      -4.11971374E-10
  -9.23999977      -3.98839295E-10
  -9.22999954      -3.80607212E-10
  -9.22000027      -3.56979973E-10
  -9.21000004      -3.27672223E-10
  -9.19999981      -2.92411068E-10
  -9.18999958      -2.50940380E-10
  -9.18000031      -2.03029385E-10
  -9.17000008      -1.48481838E-10
  -9.15999985      -8.71477612E-11
  -9.14999962      -1.89336099E-11
  -9.14000034       5.61876864E-11
  -9.13000011       1.38172973E-10
  -9.11999989       2.26907410E-10
  -9.10999966       3.22207372E-10
  -9.10000038       4.23824781E-10
  -9.09000015       5.31453881E-10
  -9.07999992       6.44733655E-10
  -9.06999969       7.63247632E-10
  -9.06000042       8.86520468E-10
  -9.05000019       1.01401332E-09
  -9.03999996       1.14511967E-09
  -9.02999973       1.27915956E-09
  -9.02000046       1.41538181E-09
  -9.01000023       1.55297386E-09
  -9.00000000       1.69106884E-09
  -8.98999977       1.82876347E-09
  -8.97999954       1.96512917E-09
  -8.97000027       2.09922990E-09
  -8.96000004       2.23012964E-09
  -8.94999981       2.35689246E-09
  -8.93999958       2.47859511E-09
  -8.93000031       2.59432098E-09
  -8.92000008       2.70316458E-09
  -8.90999985       2.80423951E-09
  -8.89999962       2.89668312E-09
  -8.89000034       2.97967140E-09
  -8.88000011       3.05243097E-09
  -8.86999989       3.11425064E-09
  -8.85999966       3.16448556E-09
  -8.85000038       3.20256843E-09
  -8.84000015       3.22800053E-09
  -8.82999992       3.24035909E-09
  -8.81999969       3.23927796E-09
  -8.81000042       3.22445604E-09
  -8.80000019       3.19564575E-09
  -8.78999996       3.15265214E-09
  -8.77999973       3.09532644E-09
  -8.77000046       3.02357761E-09
  -8.76000023       2.93735170E-09
  -8.75000000       2.83664048E-09
  -8.73999977       2.72147682E-09
  -8.72999954       2.59193289E-09
  -8.72000027       2.44810994E-09
  -8.71000004       2.29014852E-09
  -8.69999981       2.11821694E-09
  -8.68999958       1.93252392E-09
  -8.68000031       1.73330961E-09
  -8.67000008       1.52084556E-09
  -8.65999985       1.29544075E-09
  -8.64999962       1.05742748E-09
  -8.64000034       8.07171441E-10
  -8.63000011       5.45057666E-10
  -8.61999989       2.71503126E-10
  -8.60999966      -1.30388669E-11
  -8.60000038      -3.08085418E-10
  -8.59000015      -6.13104900E-10
  -8.57999992      -9.27524890E-10
  -8.56999969      -1.25073496E-09
  -8.56000042      -1.58208668E-09
  -8.55000019      -1.92090899E-09
  -8.53999996      -2.26650765E-09
  -8.52999973      -2.61817834E-09
  -8.52000046      -2.97520186E-09
  -8.51000023      -3.33685524E-09
  -8.50000000      -3.70239261E-09
  -8.48999977      -4.07106882E-09
  -8.47999954      -4.44212311E-09
  -8.47000027      -4.81480145E-09
  -8.46000004      -5.18835330E-09
  -8.44999981      -5.56205437E-09
  -8.43999958      -5.93520877E-09
  -8.43000031      -6.30716279E-09
  -8.42000008      -6.67729827E-09
  -8.40999985      -7.04503211E-09
  -8.39999962      -7.40981854E-09
  -8.39000034      -7.77113485E-09
  -8.38000011      -8.12849432E-09
  -8.36999989      -8.48143955E-09
  -8.35999966      -8.82955487E-09
  -8.35000038      -9.17246545E-09
  -8.34000015      -9.50985068E-09
  -8.32999992      -9.84143522E-09
  -8.31999969      -1.01669748E-08
  -8.31000042      -1.04862528E-08
  -8.30000019      -1.07990470E-08
  -8.28999996      -1.11051266E-08
  -8.27999973      -1.14042216E-08
  -8.27000046      -1.16960219E-08
  -8.26000023      -1.19801795E-08
  -8.25000000      -1.22563018E-08
  -8.23999977      -1.25239481E-08
  -8.22999954      -1.27826549E-08
  -8.22000027      -1.30319160E-08
  -8.21000004      -1.32711930E-08
  -8.19999981      -1.34999159E-08
  -8.18999958      -1.37174778E-08
  -8.18000031      -1.39232430E-08
  -8.17000008      -1.41165524E-08
  -8.15999985      -1.42967309E-08
  -8.14999962      -1.44631054E-08
  -8.14000034      -1.46150017E-08
  -8.13000011      -1.47517651E-08
  -8.11999989      -1.48727430E-08
  -8.10999966      -1.49772923E-08
  -8.10000038      -1.50647850E-08
  -8.09000015      -1.51345940E-08
  -8.07999992      -1.51861261E-08
  -8.06999969      -1.52187969E-08
  -8.06000042      -1.52320627E-08
  -8.05000019      -1.52254191E-08
  -8.03999996      -1.51984096E-08
  -8.02999973      -1.51506292E-08
  -8.02000046      -1.50817296E-08
  -8.01000023      -1.49914126E-08
  -8.00000000      -1.48794346E-08
  -7.98999977      -1.47456101E-08
  -7.98000002      -1.45898102E-08
  -7.96999979      -1.44119996E-08
  -7.96000004      -1.42122198E-08
  -7.94999981      -1.39905962E-08
  -7.94000006      -1.37473473E-08
  -7.92999983      -1.34827713E-08
  -7.92000008      -1.31972389E-08
  -7.90999985      -1.28911832E-08
  -7.90000010      -1.25650796E-08
  -7.88999987      -1.22194743E-08
  -7.88000011      -1.18549686E-08
  -7.86999989      -1.14722241E-08
  -7.86000013      -1.10719922E-08
  -7.84999990      -1.06550804E-08
  -7.84000015      -1.02224140E-08
  -7.82999992      -9.77496928E-09
  -7.82000017      -9.31380129E-09
  -7.80999994      -8.84001849E-09
  -7.80000019      -8.35477731E-09
  -7.78999996      -7.85925369E-09
  -7.78000021      -7.35467687E-09
  -7.76999998      -6.84230672E-09
  -7.76000023      -6.32343333E-09
  -7.75000000      -5.79940762E-09
  -7.73999977      -5.27159516E-09
  -7.73000002      -4.74139217E-09
  -7.71999979      -4.21019575E-09
  -7.71000004      -3.67942476E-09
  -7.69999981      -3.15045989E-09
  -7.69000006      -2.62465427E-09
  -7.67999983      -2.10334616E-09
  -7.67000008      -1.58783231E-09
  -7.65999985      -1.07940112E-09
  -7.65000010      -5.79305326E-10
  -7.63999987      -8.87573834E-11
  -7.63000011       3.91066568E-10
  -7.61999989       8.59074867E-10
  -7.61000013       1.31424549E-09
  -7.59999990       1.75566350E-09
  -7.59000015       2.18253171E-09
  -7.57999992       2.59415134E-09
  -7.57000017       2.98993652E-09
  -7.55999994       3.36939054E-09
  -7.55000019       3.73211950E-09
  -7.53999996       4.07778344E-09
  -7.53000021       4.40612880E-09
  -7.51999998       4.71697748E-09
  -7.51000023       5.01019759E-09
  -7.50000000       5.28573718E-09
  -7.48999977       5.54357715E-09
  -7.48000002       5.78374992E-09
  -7.46999979       6.00631012E-09
  -7.46000004       6.21132124E-09
  -7.44999981       6.39884856E-09
  -7.44000006       6.56895516E-09