  -16.0000000       0.00000000    
  -15.9899998       0.00000000    
  -15.9799995       0.00000000    
  -15.9700003       0.00000000    
  -15.9600000       0.00000000    
  -15.9499998       0.00000000    
  -15.9399996       0.00000000    
  -15.9300003       0.00000000    
  -15.9200001       0.00000000    
  -15.9099998       0.00000000    
  -15.8999996       0.00000000    
  -15.8900003       0.00000000    
  -15.8800001       0.00000000    
  -15.8699999      -3.36311631E-44
  -15.8599997      -2.50552165E-42
  -15.8500004      -7.34070201E-41
  -15.8400002      -1.21188215E-39
  -15.8299999      -1.35379403E-38
  -15.8199997      -1.13537170E-37
  -15.8100004      -7.59621163E-37
  -15.8000002      -4.22372756E-36
  -15.7900000      -2.00797581E-35
  -15.7799997      -8.32628363E-35
  -15.7700005      -3.05637095E-34
  -15.7600002      -1.00410388E-33
  -15.7500000      -2.97603707E-33
  -15.7399998      -8.00169878E-33
  -15.7299995      -1.95803328E-32
  -15.7200003      -4.36428668E-32
  -15.7100000      -8.84158832E-32
  -15.6999998      -1.61754182E-31
  -15.6899996      -2.63486894E-31
  -15.6800003      -3.70664167E-31
  -15.6700001      -4.16691777E-31
  -15.6599998      -2.72753904E-31
  -15.6499996       2.48406101E-31
  -15.6400003       1.33528861E-30
  -15.6300001       3.03640742E-30
  -15.6199999       5.03256930E-30
  -15.6099997       6.38924626E-30
  -15.6000004       5.45800910E-30
  -15.5900002       1.88719964E-31
  -15.5799999      -1.08950233E-29
  -15.5699997      -2.70276432E-29
  -15.5600004      -4.33095151E-29
  -15.5500002      -4.97419647E-29
  -15.5400000      -3.28595366E-29
  -15.5299997       1.85966381E-29
  -15.5200005       1.04063604E-28
  -15.5100002       2.00703314E-28
  -15.5000000       2.58758558E-28
  -15.4899998       2.11302393E-28
  -15.4799995       4.28638467E-30
  -15.4700003      -3.56736754E-28
  -15.4600000      -7.62131068E-28
  -15.4499998      -9.89725095E-28
  -15.4399996      -7.68745482E-28
  -15.4300003       6.97230094E-29
  -15.4200001       1.39371586E-27
  -15.4099998       2.62981304E-27
  -15.3999996       2.83533750E-27
  -15.3900003       1.11037132E-27
  -15.3800001      -2.67277650E-27
  -15.3699999      -7.10831468E-27
  -15.3599997      -9.02977493E-27
  -15.3500004      -4.47870810E-27
  -15.3400002       8.79185941E-27
  -15.3299999       2.78246032E-26
  -15.3199997       4.17987842E-26
  -15.3100004       3.31026743E-26
  -15.3000002      -1.51050901E-26
  -15.2900000      -1.04465978E-25
  -15.2799997      -2.04676199E-25
  -15.2700005      -2.45154008E-25
  -15.2600002      -1.29819030E-25
  -15.2500000       2.13646706E-25
  -15.2399998       7.53796482E-25
  -15.2299995       1.27528792E-24
  -15.2200003       1.35912382E-24
  -15.2100000       4.97247428E-25
  -15.1999998      -1.61318042E-24
  -15.1899996      -4.64057012E-24
  -15.1800003      -7.24287986E-24
  -15.1700001      -7.07516251E-24
  -15.1599998      -1.54456115E-24
  -15.1499996       1.05237997E-23
  -15.1400003       2.66593208E-23
  -15.1300001       3.90466079E-23
  -15.1199999       3.50917926E-23
  -15.1099997       1.97902482E-24
  -15.1000004      -6.43123649E-23
  -15.0900002      -1.47833733E-22
  -15.0799999      -2.05291231E-22
  -15.0699997      -1.71219016E-22
  -15.0600004       1.64486460E-23
  -15.0500002       3.69721183E-22
  -15.0400000       7.96236969E-22
  -15.0299997       1.06793662E-21
  -15.0200005       8.54774235E-22
  -15.0100002      -1.41997475E-22
  -15.0000000      -1.95975707E-21
  -14.9899998      -4.11790542E-21
  -14.9799995      -5.48272152E-21
  -14.9700003      -4.44659622E-21
  -14.9600000       4.29433713E-22
  -14.9499998       9.33879803E-21
  -14.9399996       2.00509049E-20
  -14.9300003       2.72987988E-20
  -14.9200001       2.35813715E-20
  -14.9099998       2.01492655E-21
  -14.8999996      -3.89062495E-20
  -14.8900003      -9.00671151E-20
  -14.8800001      -1.28828844E-19
  -14.8699999      -1.22024185E-19
  -14.8599997      -3.75457215E-20
  -14.8500004       1.35882756E-19
  -14.8400002       3.66299434E-19
  -14.8299999       5.64592282E-19
  -14.8199997       5.93286299E-19
  -14.8100004       3.09366738E-19
  -14.8000002      -3.59086290E-19
  -14.7900000      -1.32177889E-18
  -14.7799997      -2.26144335E-18
  -14.7700005      -2.64944999E-18
  -14.7600002      -1.88754799E-18
  -14.7500000       4.16550295E-19
  -14.7399998       4.10014653E-18
  -14.7299995       8.16163725E-18
  -14.7200003       1.07344212E-17
  -14.7100000       9.49788466E-18
  -14.6999998       2.58641821E-18
  -14.6899996      -1.01622083E-17
  -14.6800003      -2.60518664E-17
  -14.6700001      -3.91116438E-17
  -14.6599998      -4.10750728E-17
  -14.6499996      -2.40967192E-17
  -14.6400003       1.51236492E-17
  -14.6300001       7.10214759E-17
  -14.6199999       1.26660741E-16
  -14.6099997       1.55292652E-16
  -14.6000004       1.27509944E-16
  -14.5900002       2.37008256E-17
  -14.5799999      -1.51211051E-16
  -14.5699997      -3.56443429E-16
  -14.5600004      -5.14578021E-16
  -14.5500002      -5.27302732E-16
  -14.5400000      -3.09107654E-16
  -14.5299997       1.67150597E-16
  -14.5200005       8.27390730E-16
  -14.5100002       1.47683212E-15
  -14.5000000       1.82432241E-15
  -14.4899998       1.56145431E-15
  -14.4799995       4.88450337E-16
  -14.4700003      -1.34533915E-15
  -14.4600000      -3.54038871E-15
  -14.4499998      -5.34731561E-15
  -14.4399996      -5.81615004E-15
  -14.4300003      -4.10003630E-15
  -14.4200001       1.43355297E-16
  -14.4099998       6.37594056E-15
  -14.3999996       1.29958029E-14
  -14.3900003       1.75063668E-14
  -14.3800001       1.71238722E-14
  -14.3699999       9.76598834E-15
  -14.3599997      -4.81054066E-15
  -14.3500004      -2.41149772E-14
  -14.3400002      -4.27224953E-14
  -14.3299999      -5.31376362E-14
  -14.3199997      -4.78149963E-14
  -14.3100004      -2.20295397E-14
  -14.3000002       2.31642488E-14
  -14.2900000       7.89756173E-14
  -14.2799997       1.29047245E-13
  -14.2700005       1.52515289E-13
  -14.2600002       1.29922833E-13
  -14.2500000       5.08985927E-14
  -14.2399998      -7.85582943E-14
  -14.2299995      -2.31960257E-13
  -14.2200003      -3.64042509E-13
  -14.2100000      -4.19796576E-13
  -14.1999998      -3.50272762E-13
  -14.1899996      -1.31980988E-13
  -14.1800003       2.15613578E-13
  -14.1700001       6.21259446E-13
  -14.1599998       9.67814153E-13
  -14.1499996       1.11589774E-12
  -14.1400003       9.43340783E-13
  -14.1300001       3.92391821E-13
  -14.1199999      -4.88613544E-13
  -14.1099997      -1.52487951E-12
  -14.1000004      -2.42995923E-12
  -14.0900002      -2.86232258E-12
  -14.0799999      -2.51871462E-12
  -14.0699997      -1.24555693E-12
  -14.0600004       8.62086823E-13
  -14.0500002       3.41012743E-12
  -14.0400000       5.73512418E-12
  -14.0299997       7.02970364E-12
  -14.0200005       6.55296086E-12
  -14.0100002       3.88518124E-12
  -14.0000000      -8.40644720E-13
  -13.9899998      -6.81076853E-12
  -13.9799995      -1.25771294E-11
  -13.9700003      -1.63152859E-11
  -13.9600000      -1.62750317E-11
  -13.9499998      -1.13390504E-11
  -13.9399996      -1.54673778E-12
  -13.9300003       1.15880821E-11
  -13.9200001       2.51204699E-11
  -13.9099998       3.51643020E-11
  -13.8999996       3.77995760E-11
  -13.8900003       3.02308109E-11
  -13.8800001       1.19122724E-11
  -13.8699999      -1.47098271E-11
  -13.8599997      -4.41559393E-11
  -13.8500004      -6.87568821E-11
  -13.8400002      -8.03477423E-11
  -13.8299999      -7.25052032E-11
  -13.8199997      -4.27944138E-11
  -13.8100004       5.63228414E-12
  -13.8000002       6.36982897E-11
  -13.7900000       1.17686388E-10
  -13.7799997       1.52118707E-10
  -13.7700005       1.53700469E-10
  -13.7600002       1.15419181E-10
  -13.7500000       3.96408913E-11
  -13.7399998      -6.08486941E-11
  -13.7299995      -1.64514027E-10
  -13.7200003      -2.45410442E-10
  -13.7100000      -2.79407109E-10
  -13.6999998      -2.50808763E-10
  -13.6899996      -1.57606386E-10
  -13.6800003      -1.37023075E-11
  -13.6700001       1.52842100E-10
  -13.6599998       3.05504122E-10
  -13.6499996       4.07721523E-10
  -13.6400003       4.31976899E-10
  -13.6300001       3.67068487E-10
  -13.6199999       2.21457880E-10
  -13.6099997       2.15998990E-11
  -13.6000004      -1.94397970E-10
  -13.5900002      -3.86012750E-10
  -13.5799999      -5.19709609E-10
  -13.5699997      -5.75663739E-10
  -13.5600004      -5.49800427E-10
  -13.5500002      -4.50771642E-10
  -13.5400000      -2.93389479E-10
  -13.5299997      -9.14833279E-11
  -13.5200005       1.46301457E-10
  -13.5100002       4.15168566E-10
  -13.5000000       7.06822934E-10
  -13.4899998       9.98414018E-10
  -13.4799995       1.24261434E-09
  -13.4700003       1.36488454E-09
  -13.4600000       1.27295274E-09
  -13.4499998       8.80370665E-10
  -13.4399996       1.40915363E-10
  -13.4300003      -9.14698262E-10
  -13.4200001      -2.15225704E-09
  -13.4099998      -3.33076766E-09
  -13.3999996      -4.13193835E-09
  -13.3900003      -4.22422097E-09
  -13.3800001      -3.35233796E-09
  -13.3699999      -1.43301071E-09
  -13.3599997       1.36993361E-09
  -13.3500004       4.61858241E-09
  -13.3400002       7.64251329E-09
  -13.3299999       9.65440794E-09
  -13.3199997       9.92528371E-09
  -13.3100004       7.98502242E-09
  -13.3000002       3.79962639E-09
  -13.2900000      -2.12726192E-09
  -13.2799997      -8.77025919E-09
  -13.2700005      -1.47341215E-08
  -13.2600002      -1.85264035E-08
  -13.2500000      -1.89026679E-08
  -13.2399998      -1.52071191E-08
  -13.2299995      -7.62279129E-09
  -13.2200003       2.74624923E-09
  -13.2100000       1.40041214E-08
  -13.1999998       2.38007498E-08
  -13.1899996       2.98207539E-08
  -13.1800003       3.03218357E-08
  -13.1700001       2.45964245E-08
  -13.1599998       1.32361420E-08
  -13.1499996      -1.88367988E-09
  -13.1400003      -1.79206374E-08
  -13.1300001      -3.16311137E-08
  -13.1199999      -4.00659346E-08
  -13.1099997      -4.12379961E-08
  -13.1000004      -3.45986138E-08
  -13.0900002      -2.11977493E-08
  -13.0799999      -3.48019857E-09
  -13.0699997       1.52440709E-08
  -13.0600004       3.15288240E-08
  -13.0500002       4.25380939E-08
  -13.0400000       4.66221692E-08
  -13.0299997       4.35717240E-08
  -13.0200005       3.44932189E-08
  -13.0100002       2.13492655E-08
  -13.0000000       6.31311314E-09
  -12.9899998      -8.85394869E-09
  -12.9799995      -2.31931168E-08
  -12.9700003      -3.65583297E-08
  -12.9600000      -4.92206880E-08
  -12.9499998      -6.11795059E-08
  -12.9399996      -7.14182917E-08
  -12.9300003      -7.74075559E-08
  -12.9200001      -7.51324407E-08
  -12.9099998      -5.98063252E-08
  -12.8999996      -2.72384710E-08
  -12.8900003       2.43987692E-08
  -12.8800001       9.28447577E-08
  -12.8699999       1.70605659E-07
  -12.8599997       2.44890174E-07
  -12.8500004       2.98925812E-07
  -12.8400002       3.14666096E-07
  -12.8299999       2.76512793E-07
  -12.8199997       1.75369664E-07
  -12.8100004       1.21376988E-08
  -12.8000002      -2.00241416E-07
  -12.7900000      -4.36858272E-07
  -12.7799997      -6.63295509E-07
  -12.7700005      -8.40213659E-07
  -12.7600002      -9.29349483E-07
  -12.7500000      -8.99818986E-07
  -12.7399998      -7.33569607E-07
  -12.7299995      -4.28973266E-07
  -12.7200003      -1.98513539E-09
  -12.7100000       5.15158831E-07
  -12.6999998       1.07716619E-06
  -12.6899996       1.62997264E-06
  -12.6800003       2.11509791E-06
  -12.6700001       2.47334583E-06
  -12.6599998       2.64761411E-06
  -12.6499996       2.58508408E-06
  -12.6400003       2.23971983E-06
  -12.6300001       1.57599584E-06
  -12.6199999       5.74728233E-07
  -12.6099997      -7.58824626E-07
  -12.6000004      -2.38529196E-06
  -12.5900002      -4.22169296E-06
  -12.5799999      -6.13450766E-06
  -12.5699997      -7.93816162E-06
  -12.5600004      -9.40113841E-06
  -12.5500002      -1.02612830E-05
  -12.5400000      -1.02499516E-05
  -12.5299997      -9.12343239E-06
  -12.5200005      -6.69805604E-06
  -12.5100002      -2.88507567E-06
  -12.5000000       2.27950136E-06
  -12.4899998       8.61372791E-06
  -12.4799995       1.57800641E-05
  -12.4700003       2.32880666E-05
  -12.4600000       3.05090343E-05
  -12.4499998       3.67009270E-05
  -12.4399996       4.10404828E-05
  -12.4300003       4.26609222E-05
  -12.4200001       4.06928812E-05
  -12.4099998       3.43059910E-05
  -12.3999996       2.27529072E-05
  -12.3900003       5.41251757E-06
  -12.3800001      -1.81658725E-05
  -12.3699999      -4.82204887E-05
  -12.3599997      -8.47372066E-05
  -12.3500004      -1.27416002E-04
  -12.3400002      -1.75645968E-04
  -12.3299999      -2.28493140E-04
  -12.3199997      -2.84701877E-04
  -12.3100004      -3.42713553E-04
  -12.3000002      -4.00701712E-04
  -12.2900000      -4.56624286E-04
  -12.2799997      -5.08285011E-04
  -12.2700005      -5.53413294E-04
  -12.2600002      -5.89740172E-04
  -12.2500000      -6.15091005E-04
  -12.2399998      -6.27463392E-04
  -12.2299995      -6.25107845E-04
  -12.2200003      -6.06602116E-04
  -12.2100000      -5.70905861E-04
  -12.1999998      -5.17411507E-04
  -12.1899996      -4.45967889E-04
  -12.1800003      -3.56893433E-04
  -12.1700001      -2.50966754E-04
  -12.1599998      -1.29402280E-04
  -12.1499996       6.19695720E-06
  -12.1400003       1.53895991E-04
  -12.1300001       3.11495067E-04
  -12.1199999       4.76617075E-04
  -12.1099997       6.46783039E-04
  -12.1000004       8.19498207E-04
  -12.0900002       9.92326532E-04
  -12.0799999       1.16295554E-03
  -12.0699997       1.32924411E-03
  -12.0600004       1.48924522E-03
  -12.0500002       1.64120935E-03
  -12.0400000       1.78355596E-03
  -12.0299997       1.91482808E-03
  -12.0200005       2.03363807E-03
  -12.0100002       2.13859929E-03
  -12.0000000       2.22826912E-03
  -11.9899998       2.30110856E-03
  -11.9799995       2.35547358E-03
  -11.9700003       2.38961447E-03
  -11.9600000       2.40173773E-03
  -11.9499998       2.39005429E-03
  -11.9399996       2.35287147E-03
  -11.9300003       2.28866073E-03
  -11.9200001       2.19614571E-03
  -11.9099998       2.07435433E-03
  -11.8999996       1.92266225E-03
  -11.8900003       1.74081617E-03
  -11.8800001       1.52894168E-03
  -11.8699999       1.28753553E-03
  -11.8599997       1.01746770E-03
  -11.8500004       7.19957461E-04
  -11.8400002       3.96563730E-04
  -11.8299999       4.91768878E-05
  -11.8199997      -3.20000865E-04
  -11.8100004      -7.08480773E-04
  -11.8000002      -1.11348974E-03
  -11.7900000      -1.53201912E-03
  -11.7799997      -1.96082750E-03
  -11.7700005      -2.39647087E-03
  -11.7600002      -2.83533125E-03
  -11.7500000      -3.27362702E-03
  -11.7399998      -3.70745128E-03
  -11.7299995      -4.13279794E-03
  -11.7200003      -4.54561505E-03
  -11.7100000      -4.94185649E-03
  -11.6999998      -5.31754270E-03
  -11.6899996      -5.66883245E-03
  -11.6800003      -5.99208148E-03
  -11.6700001      -6.28387462E-03
  -11.6599998      -6.54105982E-03
  -11.6499996      -6.76072575E-03
  -11.6400003      -6.94019301E-03
  -11.6300001      -7.07696239E-03
  -11.6199999      -7.16867438E-03
  -11.6099997      -7.21308356E-03
  -11.6000004      -7.20805349E-03
  -11.5900002      -7.15155387E-03
  -11.5799999      -7.04171555E-03
  -11.5699997      -6.87686168E-03
  -11.5600004      -6.65555056E-03
  -11.5500002      -6.37663063E-03
  -11.5400000      -6.03926228E-03
  -11.5299997      -5.64290397E-03
  -11.5200005      -5.18734008E-03
  -11.5100002      -4.67264885E-03
  -11.5000000      -4.09920001E-03
  -11.4899998      -3.46767367E-03
  -11.4799995      -2.77905655E-03
  -11.4700003      -2.03467999E-03
  -11.4600000      -1.23623910E-03
  -11.4499998      -3.85817053E-04
  -11.4399996       5.14127372E-04
  -11.4300003       1.46079552E-03
  -11.4200001       2.45108409E-03
  -11.4099998       3.48166237E-03
  -11.3999996       4.54906747E-03
  -11.3900003       5.64973149E-03
  -11.3800001       6.78009167E-03
  -11.3699999       7.93659128E-03
  -11.3599997       9.11571924E-03
  -11.3500004       1.03140222E-02
  -11.3400002       1.15280999E-02
  -11.3299999       1.27546247E-02
  -11.3199997       1.39903724E-02
  -11.3100004       1.52322175E-02
  -11.3000002       1.64771881E-02
  -11.2900000       1.77224837E-02
  -11.2799997       1.89654715E-02
  -11.2700005       2.02036910E-02
  -11.2600002       2.14348007E-02
  -11.2500000       2.26565339E-02
  -11.2399998       2.38666274E-02
  -11.2299995       2.50627715E-02
  -11.2200003       2.62425523E-02
  -11.2100000       2.74034683E-02
  -11.1999998       2.85428911E-02
  -11.1899996       2.96581853E-02
  -11.1800003       3.07466965E-02
  -11.1700001       3.18059474E-02
  -11.1599998       3.28336582E-02
  -11.1499996       3.38278823E-02
  -11.1400003       3.47870849E-02
  -11.1300001       3.57102081E-02
  -11.1199999       3.65966298E-02
  -11.1099997       3.74462008E-02
  -11.1000004       3.82591523E-02
  -11.0900002       3.90360244E-02
  -11.0799999       3.97774875E-02
  -11.0699997       4.04842943E-02
  -11.0600004       4.11571041E-02
  -11.0500002       4.17964086E-02
  -11.0400000       4.24024798E-02
  -11.0299997       4.29753475E-02
  -11.0200005       4.35148850E-02
  -11.0100002       4.40208800E-02
  -11.0000000       4.44930680E-02
  -10.9899998       4.49313112E-02
  -10.9799995       4.53356393E-02
  -10.9700003       4.57063057E-02
  -10.9600000       4.60437536E-02
  -10.9499998       4.63485755E-02
  -10.9399996       4.66214158E-02
  -10.9300003       4.68628332E-02
  -10.9200001       4.70731929E-02
  -10.9099998       4.72526029E-02
  -10.8999996       4.74008135E-02
  -10.8900003       4.75172698E-02
  -10.8800001       4.76010814E-02
  -10.8699999       4.76511233E-02
  -10.8599997       4.76661436E-02
  -10.8500004       4.76448424E-02
  -10.8400002       4.75858673E-02
  -10.8299999       4.74880673E-02
  -10.8199997       4.73503843E-02
  -10.8100004       4.71720025E-02
  -10.8000002       4.69523706E-02
  -10.7900000       4.66912575E-02
  -10.7799997       4.63886708E-02
  -10.7700005       4.60450314E-02
  -10.7600002       4.56610620E-02
  -10.7500000       4.52377722E-02
  -10.7399998       4.47764508E-02
  -10.7299995       4.42784913E-02
  -10.7200003       4.37454283E-02
  -10.7100000       4.31788228E-02
  -10.6999998       4.25801091E-02
  -10.6899996       4.19507623E-02
  -10.6800003       4.12921049E-02
  -10.6700001       4.06055041E-02
  -10.6599998       3.98923457E-02
  -10.6499996       3.91541682E-02
  -10.6400003       3.83927375E-02
  -10.6300001       3.76100615E-02
  -10.6199999       3.68085355E-02
  -10.6099997       3.59908752E-02
  -10.6000004       3.51601243E-02
  -10.5900002       3.43196504E-02
  -10.5799999       3.34730186E-02
  -10.5699997       3.26239206E-02
  -10.5600004       3.17761041E-02
  -10.5500002       3.09331808E-02
  -10.5400000       3.00986972E-02
  -10.5299997       2.92758513E-02
  -10.5200005       2.84675919E-02
  -10.5100002       2.76766568E-02
  -10.5000000       2.69054621E-02
  -10.4899998       2.61562746E-02
  -10.4799995       2.54312977E-02
  -10.4700003       2.47327071E-02
  -10.4600000       2.40625832E-02
  -10.4499998       2.34231353E-02
  -10.4399996       2.28163376E-02
  -10.4300003       2.22439989E-02
  -10.4200001       2.17076726E-02
  -10.4099998       2.12084558E-02
  -10.3999996       2.07469612E-02
  -10.3900003       2.03233492E-02
  -10.3800001       1.99374594E-02
  -10.3699999       1.95886977E-02
  -10.3599997       1.92764327E-02
  -10.3500004       1.89999472E-02
  -10.3400002       1.87584851E-02
  -10.3299999       1.85514465E-02
  -10.3199997       1.83781795E-02
  -10.3100004       1.82380844E-02
  -10.3000002       1.81304514E-02
  -10.2900000       1.80544239E-02
  -10.2799997       1.80090759E-02
  -10.2700005       1.79931261E-02
  -10.2600002       1.80052854E-02
  -10.2500000       1.80440415E-02
  -10.2399998       1.81079060E-02
  -10.2299995       1.81952640E-02
  -10.2200003       1.83047540E-02
  -10.2100000       1.84349902E-02
  -10.1999998       1.85849238E-02
  -10.1899996       1.87537372E-02
  -10.1800003       1.89409517E-02
  -10.1700001       1.91465281E-02
  -10.1599998       1.93707682E-02
  -10.1499996       1.96143128E-02
  -10.1400003       1.98781583E-02
  -10.1300001       2.01634001E-02
  -10.1199999       2.04711854E-02
  -10.1099997       2.08026394E-02
  -10.1000004       2.11587157E-02
  -10.0900002       2.15401687E-02
  -10.0799999       2.19475981E-02
  -10.0699997       2.23813727E-02
  -10.0600004       2.28417404E-02
  -10.0500002       2.33287960E-02
  -10.0400000       2.38425657E-02
  -10.0299997       2.43830439E-02
  -10.0200005       2.49502249E-02
  -10.0100002       2.55439784E-02
  -10.0000000       2.61642616E-02
  -9.98999977       2.68109981E-02
  -9.97999954       2.74843145E-02
  -9.97000027       2.81842276E-02
  -9.96000004       2.89109815E-02
  -9.94999981       2.96647940E-02
  -9.93999958       3.04458272E-02
  -9.93000031       3.12544703E-02
  -9.92000008       3.20908129E-02
  -9.90999985       3.29551809E-02
  -9.89999962       3.38476263E-02
  -9.89000034       3.47683169E-02
  -9.88000011       3.57172824E-02
  -9.86999989       3.66945826E-02
  -9.85999966       3.77001762E-02
  -9.85000038       3.87340374E-02
  -9.84000015       3.97958905E-02
  -9.82999992       4.08855192E-02
  -9.81999969       4.20024805E-02
  -9.81000042       4.31465246E-02
  -9.80000019       4.43173610E-02
  -9.78999996       4.55149189E-02
  -9.77999973       4.67393883E-02
  -9.77000046       4.79913913E-02
  -9.76000023       4.92715649E-02
  -9.75000000       5.05807474E-02
  -9.73999977       5.19197211E-02
  -9.72999954       5.32891303E-02
  -9.72000027       5.46893999E-02
  -9.71000004       5.61202429E-02
  -9.69999981       5.75812943E-02
  -9.68999958       5.90716116E-02
  -9.68000031       6.05900027E-02
  -9.67000008       6.21350408E-02
  -9.65999985       6.37051016E-02
  -9.64999962       6.52984083E-02
  -9.64000034       6.69129491E-02
  -9.63000011       6.85466304E-02
  -9.61999989       7.01970235E-02
  -9.60999966       7.18617216E-02
  -9.60000038       7.35378861E-02
  -9.59000015       7.52225742E-02
  -9.57999992       7.69125596E-02
  -9.56999969       7.86046535E-02
  -9.56000042       8.02954733E-02
  -9.55000019       8.19814876E-02
  -9.53999996       8.36591870E-02
  -9.52999973       8.53253305E-02
  -9.52000046       8.69763941E-02
  -9.51000023       8.86093676E-02
  -9.50000000       9.02217180E-02
  -9.48999977       9.18108970E-02
  -9.47999954       9.33751836E-02
  -9.47000027       9.49132219E-02
  -9.46000004       9.64237079E-02
  -9.44999981       9.79061648E-02
  -9.43999958       9.93602648E-02
  -9.43000031      0.100785956    
  -9.42000008      0.102183655    
  -9.40999985      0.103554145    
  -9.39999962      0.104898974    
  -9.39000034      0.106219962    
  -9.38000011      0.107520029    
  -9.36999989      0.108801983    
  -9.35999966      0.110069856    
  -9.35000038      0.111327566    
  -9.34000015      0.112579159    
  -9.32999992      0.113829069    
  -9.31999969      0.115081325    
  -9.31000042      0.116339922    
  -9.30000019      0.117609076    
  -9.28999996      0.118892826    
  -9.27999973      0.120195396    
  -9.27000046      0.121521287    
  -9.26000023      0.122875266    
  -9.25000000      0.124262288    
  -9.23999977      0.125687331    
  -9.22999954      0.127155215    
  -9.22000027      0.128670797    
  -9.21000004      0.130238026    
  -9.19999981      0.131860912    
  -9.18999958      0.133542329    
  -9.18000031      0.135284409    
  -9.17000008      0.137088761    
  -9.15999985      0.138956085    
  -9.14999962      0.140886366    
  -9.14000034      0.142879114    
  -9.13000011      0.144932657    
  -9.11999989      0.147045568    
  -9.10999966      0.149215162    
  -9.10000038      0.151438504    
  -9.09000015      0.153711870    
  -9.07999992      0.156031609    
  -9.06999969      0.158393264    
  -9.06000042      0.160792515    
  -9.05000019      0.163224503    
  -9.03999996      0.165684700    
  -9.02999973      0.168168098    
  -9.02000046      0.170669198    
  -9.01000023      0.173183113    
  -9.00000000      0.175703958    
  -8.98999977      0.178225920    
  -8.97999954      0.180742741    
  -8.97000027      0.183248118    
  -8.96000004      0.185736239    
  -8.94999981      0.188201368    
  -8.93999958      0.190638348    
  -8.93000031      0.193042859    
  -8.92000008      0.195411354    
  -8.90999985      0.197740540    
  -8.89999962      0.200028300    
  -8.89000034      0.202272832    
  -8.88000011      0.204472944    
  -8.86999989      0.206627414    
  -8.85999966      0.208735660    
  -8.85000038      0.210797265    
  -8.84000015      0.212812126    
  -8.82999992      0.214780390    
  -8.81999969      0.216702521    
  -8.81000042      0.218579322    
  -8.80000019      0.220411643    
  -8.78999996      0.222201020    
  -8.77999973      0.223949105    
  -8.77000046      0.225658074    
  -8.76000023      0.227330938    
  -8.75000000      0.228970975    
  -8.73999977      0.230582550    
  -8.72999954      0.232170701    
  -8.72000027      0.233740851    
  -8.71000004      0.235298559    
  -8.69999981      0.236851051    
  -8.68999958      0.238404006    
  -8.68000031      0.239965513    
  -8.67000008      0.241543084    
  -8.65999985      0.243144512    
  -8.64999962      0.244777471    
  -8.64000034      0.246450439    
  -8.63000011      0.248171136    
  -8.61999989      0.249947116    
  -8.60999966      0.251784325    
  -8.60000038      0.253688782    
  -8.59000015      0.255664796    
  -8.57999992      0.257716537    
  -8.56999969      0.259846061    
  -8.56000042      0.262055397    
  -8.55000019      0.264345825    
  -8.53999996      0.266717434    
  -8.52999973      0.269170493    
  -8.52000046      0.271703809    
  -8.51000023      0.274316460    
  -8.50000000      0.277005523    
  -8.48999977      0.279768854    
  -8.47999954      0.282603592    
  -8.47000027      0.285506219    
  -8.46000004      0.288473517    
  -8.44999981      0.291502059    
  -8.43999958      0.294589460    
  -8.43000031      0.297732353    
  -8.42000008      0.300928354    
  -8.40999985      0.304174751    
  -8.39999962      0.307470292    
  -8.39000034      0.310812742    
  -8.38000011      0.314201504    
  -8.36999989      0.317636371    
  -8.35999966      0.321118295    
  -8.35000038      0.324648738    
  -8.34000015      0.328230709    
  -8.32999992      0.331866980    
  -8.31999969      0.335561633    
  -8.31000042      0.339317888    
  -8.30000019      0.343139708    
  -8.28999996      0.347029805    
  -8.27999973      0.350991011    
  -8.27000046      0.355024993    
  -8.26000023      0.359133720    
  -8.25000000      0.363318264    
  -8.23999977      0.367578745    
  -8.22999954      0.371915370    
  -8.22000027      0.376328379    
  -8.21000004      0.380815655    
  -8.19999981      0.385376722    
  -8.18999958      0.390008569    
  -8.18000031      0.394709378    
  -8.17000008      0.399476111    
  -8.15999985      0.404306710    
  -8.14999962      0.409198105    
  -8.14000034      0.414148271    
  -8.13000011      0.419154793    
  -8.11999989      0.424215227    
  -8.10999966      0.429326981    
  -8.10000038      0.434487015    
  -8.09000015      0.439692408    
  -8.07999992      0.444938838    
  -8.06999969      0.450223058    
  -8.06000042      0.455540419    
  -8.05000019      0.460886896    
  -8.03999996      0.466257662    
  -8.02999973      0.471648127    
  -8.02000046      0.477052629    
  -8.01000023      0.482465863    
  -8.00000000      0.487880975    
  -7.98999977      0.493291527    
  -7.98000002      0.498689771    
  -7.96999979      0.504068673    
  -7.96000004      0.509419560    
  -7.94999981      0.514735579    
  -7.94000006      0.520008862    
  -7.92999983      0.525231600    
  -7.92000008      0.530397296    
  -7.90999985      0.535497606    
  -7.90000010      0.540525556    
  -7.88999987      0.545474589    
  -7.88000011      0.550338089    
  -7.86999989      0.555110455    
  -7.86000013      0.559786558    
  -7.84999990      0.564362645    
  -7.84000015      0.568836451    
  -7.82999992      0.573206782    
  -7.82000017      0.577473760    
  -7.80999994      0.581636369    
  -7.80000019      0.585698009    
  -7.78999996      0.589659691    
  -7.78000021      0.593524873    
  -7.76999998      0.597297430    
  -7.76000023      0.600982547    
  -7.75000000      0.604586780    
  -7.73999977      0.608116746    
  -7.73000002      0.611581385    
  -7.71999979      0.614989102    
  -7.71000004      0.618350208    
  -7.69999981      0.621673524    
  -7.69000006      0.624968469    
  -7.67999983      0.628243804    
  -7.67000008      0.631510556    
  -7.65999985      0.634776294    
  -7.65000010      0.638051510    
  -7.63999987      0.641346514    
  -7.63000011      0.644671023    
  -7.61999989      0.648035228    
  -7.61000013      0.651448607    
  -7.59999990      0.654921412    
  -7.59000015      0.658462465    
  -7.57999992      0.662081003    
  -7.57000017      0.665786207    
  -7.55999994      0.669586241    
  -7.55000019      0.673490822    
  -7.53999996      0.677508414    
  -7.53000021      0.681649566    
  -7.51999998      0.685923219    
  -7.51000023      0.690340281    
  -7.50000000      0.694909573    
  -7.48999977      0.699641585    
  -7.48000002      0.704545200    
  -7.46999979      0.709628522    
  -7.46000004      0.714899182    
  -7.44999981      0.720365942    
  -7.44000006      0.726034462    