  -16.0000000       0.00000000    
  -15.9899998       0.00000000    
  -15.9799995       0.00000000    
  -15.9700003       0.00000000    
  -15.9600000       0.00000000    
  -15.9499998       0.00000000    
  -15.9399996       0.00000000    
  -15.9300003       0.00000000    
  -15.9200001       0.00000000    
  -15.9099998       0.00000000    
  -15.8999996       0.00000000    
  -15.8900003       0.00000000    
  -15.8800001       0.00000000    
  -15.8699999      -0.00000000    
  -15.8599997      -0.00000000    
  -15.8500004       1.40129846E-45
  -15.8400002       3.64337601E-44
  -15.8299999       4.52619404E-43
  -15.8199997       3.82834740E-42
  -15.8100004       2.44638686E-41
  -15.8000002       1.26540054E-40
  -15.7900000       5.51162916E-40
  -15.7799997       2.07357841E-39
  -15.7700005       6.85173012E-39
  -15.7600002       2.00926582E-38
  -15.7500000       5.25587033E-38
  -15.7399998       1.22594154E-37
  -15.7299995       2.53088852E-37
  -15.7200003       4.53415566E-37
  -15.7100000       6.71589396E-37
  -15.6999998       7.06332002E-37
  -15.6899996       9.77520697E-38
  -15.6800003      -1.91603821E-36
  -15.6700001      -6.18693800E-36
  -15.6599998      -1.29208784E-35
  -15.6499996      -2.02135279E-35
  -15.6400003      -2.20059114E-35
  -15.6300001      -6.30691749E-36
  -15.6199999       4.45670230E-35
  -15.6099997       1.49186855E-34
  -15.6000004       3.14597117E-34
  -15.5900002       5.12925123E-34
  -15.5799999       6.43781935E-34
  -15.5699997       4.83204815E-34
  -15.5600004      -3.62160993E-34
  -15.5500002      -2.42919691E-33
  -15.5400000      -6.15132667E-33
  -15.5299997      -1.11667019E-32
  -15.5200005      -1.50337190E-32
  -15.5100002      -1.16718985E-32
  -15.5000000       9.10461958E-33
  -15.4899998       5.81786596E-32
  -15.4799995       1.36409149E-31
  -15.4700003       2.15502039E-31
  -15.4600000       2.17227030E-31
  -15.4499998       1.12906872E-32
  -15.4399996      -5.34686160E-31
  -15.4300003      -1.42234948E-30
  -15.4200001      -2.31652114E-30
  -15.4099998      -2.36695737E-30
  -15.3999996      -2.80937766E-31
  -15.3900003       5.06073715E-30
  -15.3800001       1.32788882E-29
  -15.3699999       2.07643084E-29
  -15.3599997       1.96472284E-29
  -15.3500004      -6.14975715E-31
  -15.3400002      -4.70726167E-29
  -15.3299999      -1.12322570E-28
  -15.3199997      -1.62667438E-28
  -15.3100004      -1.34987106E-28
  -15.3000002       4.41473338E-29
  -15.2900000       4.06978368E-28
  -15.2799997       8.66868964E-28
  -15.2700005       1.15053389E-27
  -15.2600002       8.09566097E-28
  -15.2500000      -6.07425738E-28
  -15.2399998      -3.18374169E-27
  -15.2299995      -6.14834030E-27
  -15.2200003      -7.54417420E-27
  -15.2100000      -4.48737748E-27
  -15.1999998       5.55356729E-27
  -15.1899996       2.23845583E-26
  -15.1800003       4.03235157E-26
  -15.1700001       4.67796951E-26
  -15.1599998       2.46353264E-26
  -15.1499996      -3.95222765E-26
  -15.1400003      -1.41624050E-25
  -15.1300001      -2.45512594E-25
  -15.1199999      -2.77386618E-25
  -15.1099997      -1.42049468E-25
  -15.1000004       2.29899829E-25
  -15.0900002       8.08249824E-25
  -15.0799999       1.38974306E-24
  -15.0699997       1.57636290E-24
  -15.0600004       8.67264903E-25
  -15.0500002      -1.09609383E-24
  -15.0400000      -4.16065673E-24
  -15.0299997      -7.30547518E-24
  -15.0200005      -8.54476304E-24
  -15.0100002      -5.37595060E-24
  -15.0000000       4.05537614E-24
  -14.9899998       1.92192959E-23
  -14.9799995       3.55226022E-23
  -14.9700003       4.37886402E-23
  -14.9600000       3.21571827E-23
  -14.9499998      -8.83092391E-24
  -14.9399996      -7.85504271E-23
  -14.9300003      -1.58626031E-22
  -14.9200001      -2.09892877E-22
  -14.9099998      -1.79324088E-22
  -14.8999996      -2.03819286E-23
  -14.8900003       2.75046995E-22
  -14.8800001       6.43032053E-22
  -14.8699999       9.30325754E-22
  -14.8599997       9.15059465E-22
  -14.8500004       3.80887541E-22
  -14.8400002      -7.59038277E-22
  -14.8299999      -2.32203795E-21
  -14.8199997      -3.76554587E-21
  -14.8100004      -4.22952230E-21
  -14.8000002      -2.77848857E-21
  -14.7900000       1.15286329E-21
  -14.7799997       7.21230408E-21
  -14.7700005       1.37024133E-20
  -14.7600002       1.75731662E-20
  -14.7500000       1.51073036E-20
  -14.7399998       3.38466696E-21
  -14.7299995      -1.77330899E-20
  -14.7200003      -4.37783756E-20
  -14.7100000      -6.50264645E-20
  -14.6999998      -6.80507014E-20
  -14.6899996      -4.00365756E-20
  -14.6800003       2.46249503E-20
  -14.6700001       1.17333786E-19
  -14.6599998       2.11005037E-19
  -14.6499996       2.62126815E-19
  -14.6400003       2.21758669E-19
  -14.6300001       5.52913759E-20
  -14.6199999      -2.33419357E-19
  -14.6099997      -5.82349937E-19
  -14.6000004      -8.67504323E-19
  -14.5900002      -9.25249181E-19
  -14.5799999      -6.04480482E-19
  -14.5699997       1.59265743E-19
  -14.5600004       1.26953602E-18
  -14.5500002       2.42737640E-18
  -14.5400000       3.15726858E-18
  -14.5299997       2.92296574E-18
  -14.5200005       1.32734437E-18
  -14.5100002      -1.64881901E-18
  -14.5000000      -5.45247350E-18
  -14.4899998      -8.91200091E-18
  -14.4799995      -1.04282428E-17
  -14.4700003      -8.43342067E-18
  -14.4600000      -2.05049843E-18
  -14.4499998       8.22779598E-18
  -14.4399996       2.01094638E-17
  -14.4300003       2.96085528E-17
  -14.4200001       3.18771122E-17
  -14.4099998       2.27449936E-17
  -14.3999996       6.57511548E-19
  -14.3900003      -3.15863384E-17
  -14.3800001      -6.60601194E-17
  -14.3699999      -9.05989286E-17
  -14.3599997      -9.16835212E-17
  -14.3500004      -5.90131692E-17
  -14.3400002       9.30650071E-18
  -14.3299999       1.02683832E-16
  -14.3199997       1.97030121E-16
  -14.3100004       2.58363922E-16
  -14.3000002       2.51429713E-16
  -14.2900000       1.52021212E-16
  -14.2799997      -4.01376951E-17
  -14.2700005      -2.92423487E-16
  -14.2600002      -5.38878761E-16
  -14.2500000      -6.91463170E-16
  -14.2399998      -6.63040821E-16
  -14.2299995      -3.98004424E-16
  -14.2200003       9.76145451E-17
  -14.2100000       7.37187226E-16
  -14.1999998       1.35586533E-15
  -14.1899996       1.74035127E-15
  -14.1800003       1.68461534E-15
  -14.1700001       1.06083762E-15
  -14.1599998      -1.13541630E-16
  -14.1499996      -1.63618305E-15
  -14.1400003      -3.12891197E-15
  -14.1300001      -4.10679816E-15
  -14.1199999      -4.10205224E-15
  -14.1099997      -2.81818492E-15
  -14.1000004      -2.73293989E-16
  -14.0900002       3.11629033E-15
  -14.0799999       6.55465223E-15
  -14.0699997       9.00855623E-15
  -14.0600004       9.46108951E-15
  -14.0500002       7.22646413E-15
  -14.0400000       2.24418521E-15
  -14.0299997      -4.74267554E-15
  -14.0200005      -1.22075591E-14
  -14.0100002      -1.81001217E-14
  -14.0000000      -2.03235476E-14
  -13.9899998      -1.73369738E-14
  -13.9799995      -8.73247770E-15
  -13.9700003       4.38906808E-15
  -13.9600000       1.93967089E-14
  -13.9499998       3.25439105E-14
  -13.9399996       3.97891694E-14
  -13.9300003       3.78689491E-14
  -13.9200001       2.53663854E-14
  -13.9099998       3.47110544E-15
  -13.8999996      -2.38425917E-14
  -13.8900003      -5.03764883E-14
  -13.8800001      -6.89837998E-14
  -13.8699999      -7.33294922E-14
  -13.8599997      -5.97309406E-14
  -13.8500004      -2.85853867E-14
  -13.8400002       1.50732918E-14
  -13.8299999       6.21757013E-14
  -13.8199997       1.01386435E-13
  -13.8100004       1.21732472E-13
  -13.8000002       1.15501169E-13
  -13.7900000       8.06638962E-14
  -13.7799997       2.21128234E-14
  -13.7700005      -4.87680033E-14
  -13.7600002      -1.16280195E-13
  -13.7500000      -1.63952944E-13
  -13.7399998      -1.78647814E-13
  -13.7299995      -1.54184865E-13
  -13.7200003      -9.34703161E-14
  -13.7100000      -8.41712394E-15
  -13.6999998       8.25093032E-14
  -13.6899996       1.58642901E-13
  -13.6800003       2.02317709E-13
  -13.6700001       2.03539849E-13
  -13.6599998       1.62790544E-13
  -13.6499996       9.10478900E-14
  -13.6400003       6.84986100E-15
  -13.6300001      -6.89219935E-14
  -13.6199999      -1.19124911E-13
  -13.6099997      -1.35509063E-13
  -13.6000004      -1.21274965E-13
  -13.5900002      -9.00171390E-14
  -13.5799999      -6.10720716E-14
  -13.5699997      -5.24363200E-14
  -13.5600004      -7.33413235E-14
  -13.5500002      -1.18951100E-13
  -13.5400000      -1.69303509E-13
  -13.5299997      -1.93555648E-13
  -13.5200005      -1.59049545E-13
  -13.5100002      -4.30938685E-14
  -13.5000000       1.55853954E-13
  -13.4899998       4.11298870E-13
  -13.4799995       6.69122093E-13
  -13.4700003       8.56607645E-13
  -13.4600000       8.99051233E-13
  -13.4499998       7.40526997E-13
  -13.4399996       3.63636882E-13
  -13.4300003      -1.97452392E-13
  -13.4200001      -8.55364499E-13
  -13.4099998      -1.48147705E-12
  -13.3999996      -1.93033003E-12
  -13.3900003      -2.07184053E-12
  -13.3800001      -1.82406846E-12
  -13.3699999      -1.17834366E-12
  -13.3599997      -2.09706371E-13
  -13.3500004       9.31248026E-13
  -13.3400002       2.04462163E-12
  -13.3299999       2.92041695E-12
  -13.3199997       3.38195314E-12
  -13.3100004       3.32325400E-12
  -13.3000002       2.73128352E-12
  -13.2900000       1.68753303E-12
  -13.2799997       3.48716525E-13
  -13.2700005      -1.08815409E-12
  -13.2600002      -2.42682480E-12
  -13.2500000      -3.50784289E-12
  -13.2399998      -4.23002432E-12
  -13.2299995      -4.55227175E-12
  -13.2200003      -4.47695006E-12
  -13.2100000      -4.02228858E-12
  -13.1999998      -3.19554669E-12
  -13.1899996      -1.97940731E-12
  -13.1800003      -3.40603088E-13
  -13.1700001       1.73727948E-12
  -13.1599998       4.20384560E-12
  -13.1499996       6.89002674E-12
  -13.1400003       9.47439089E-12
  -13.1300001       1.14870344E-11
  -13.1199999       1.23635347E-11
  -13.1099997       1.15491262E-11
  -13.1000004       8.63838168E-12
  -13.0900002       3.52187919E-12
  -13.0799999      -3.49723072E-12
  -13.0699997      -1.16539738E-11
  -13.0600004      -1.97670474E-11
  -13.0500002      -2.63881209E-11
  -13.0400000      -3.00401475E-11
  -13.0299997      -2.95063626E-11
  -13.0200005      -2.41141117E-11
  -13.0100002      -1.39511588E-11
  -13.0000000       4.02772264E-14
  -12.9899998       1.61255644E-11
  -12.9799995       3.19988376E-11
  -12.9700003       4.51326615E-11
  -12.9600000       5.31961801E-11
  -12.9499998       5.44642179E-11
  -12.9399996       4.81387465E-11
  -12.9300003       3.45198661E-11
  -12.9200001       1.49933867E-11
  -12.9099998      -8.16067700E-12
  -12.8999996      -3.20992885E-11
  -12.8900003      -5.38217526E-11
  -12.8800001      -7.05743172E-11
  -12.8699999      -8.01861494E-11
  -12.8599997      -8.12915846E-11
  -12.8500004      -7.34239475E-11
  -12.8400002      -5.69963313E-11
  -12.8299999      -3.32058651E-11
  -12.8199997      -3.90477841E-12
  -12.8100004       2.85276976E-11
  -12.8000002       6.12993406E-11
  -12.7900000       9.13170858E-11
  -12.7799997       1.15329815E-10
  -12.7700005       1.30140579E-10
  -12.7600002       1.32915193E-10
  -12.7500000       1.21584923E-10
  -12.7399998       9.53006077E-11
  -12.7299995       5.48556721E-11
  -12.7200003       2.96979628E-12
  -12.7100000      -5.56770567E-11
  -12.6999998      -1.14741411E-10
  -12.6899996      -1.66868852E-10
  -12.6800003      -2.04651449E-10
  -12.6700001      -2.21762331E-10
  -12.6599998      -2.14079560E-10
  -12.6499996      -1.80584686E-10
  -12.6400003      -1.23839647E-10
  -12.6300001      -4.99070854E-11
  -12.6199999       3.23227278E-11
  -12.6099997       1.12324483E-10
  -12.6000004       1.79470591E-10
  -12.5900002       2.24653865E-10
  -12.5799999       2.41725473E-10
  -12.5699997       2.28503549E-10
  -12.5600004       1.87186183E-10
  -12.5500002       1.24111443E-10
  -12.5400000       4.89212455E-11
  -12.5299997      -2.67187557E-11
  -12.5200005      -9.06341738E-11
  -12.5100002      -1.31674241E-10
  -12.5000000      -1.41078899E-10
  -12.4899998      -1.13566427E-10
  -12.4799995      -4.80977862E-11
  -12.4700003       5.16644817E-11
  -12.4600000       1.77157497E-10
  -12.4499998       3.14947707E-10
  -12.4399996       4.46991055E-10
  -12.4300003       5.51181267E-10
  -12.4200001       6.02281169E-10
  -12.4099998       5.73339709E-10
  -12.3999996       4.37644809E-10
  -12.3900003       1.71174352E-10
  -12.3800001      -2.44620324E-10
  -12.3699999      -8.20001234E-10
  -12.3599997      -1.55448632E-09
  -12.3500004      -2.43518672E-09
  -12.3400002      -3.43631212E-09
  -12.3299999      -4.52007454E-09
  -12.3199997      -5.63902169E-09
  -12.3100004      -6.73959732E-09
  -12.3000002      -7.76649856E-09
  -12.2900000      -8.66721450E-09
  -12.2799997      -9.39615763E-09
  -12.2700005      -9.91775995E-09
  -12.2600002      -1.02081845E-08
  -12.2500000      -1.02554383E-08
  -12.2399998      -1.00580415E-08
  -12.2299995      -9.62258628E-09
  -12.2200003      -8.96070773E-09
  -12.2100000      -8.08602341E-09
  -12.1999998      -7.01158553E-09
  -12.1899996      -5.74814996E-09
  -12.1800003      -4.30346736E-09
  -12.1700001      -2.68251354E-09
  -12.1599998      -8.88421170E-10
  -12.1499996       1.07619735E-09
  -12.1400003       3.20788263E-09
  -12.1300001       5.50112800E-09
  -12.1199999       7.94753241E-09
  -12.1099997       1.05352527E-08
  -12.1000004       1.32486511E-08
  -12.0900002       1.60679683E-08
  -12.0799999       1.89688727E-08
  -12.0699997       2.19218759E-08
  -12.0600004       2.48915928E-08
  -12.0500002       2.78361689E-08
  -12.0400000       3.07069854E-08
  -12.0299997       3.34490338E-08
  -12.0200005       3.60020636E-08
  -12.0100002       3.83026162E-08
  -12.0000000       4.02867464E-08
  -11.9899998       4.18931485E-08
  -11.9799995       4.30662652E-08
  -11.9700003       4.37589165E-08
  -11.9600000       4.39340972E-08
  -11.9499998       4.35656204E-08
  -11.9399996       4.26377156E-08
  -11.9300003       4.11437675E-08
  -11.9200001       3.90844761E-08
  -11.9099998       3.64659520E-08
  -11.8999996       3.32982282E-08
  -11.8900003       2.95944211E-08
  -11.8800001       2.53706762E-08
  -11.8699999       2.06467874E-08
  -11.8599997       1.54471866E-08
  -11.8500004       9.80215020E-09
  -11.8400002       3.74844245E-09
  -11.8299999      -2.67049627E-09
  -11.8199997      -9.40510603E-09
  -11.8100004      -1.64009926E-08
  -11.8000002      -2.36005526E-08
  -11.7900000      -3.09448289E-08
  -11.7799997      -3.83751164E-08
  -11.7700005      -4.58342448E-08
  -11.7600002      -5.32672324E-08
  -11.7500000      -6.06213604E-08
  -11.7399998      -6.78459529E-08
  -11.7299995      -7.48917159E-08
  -11.7200003      -8.17101338E-08
  -11.7100000      -8.82529179E-08
  -11.6999998      -9.44714103E-08
  -11.6899996      -1.00316207E-07
  -11.6800003      -1.05736781E-07
  -11.6700001      -1.10681064E-07
  -11.6599998      -1.15095176E-07
  -11.6499996      -1.18922884E-07
  -11.6400003      -1.22105732E-07
  -11.6300001      -1.24582911E-07
  -11.6199999      -1.26292264E-07
  -11.6099997      -1.27171290E-07
  -11.6000004      -1.27158970E-07
  -11.5900002      -1.26197961E-07
  -11.5799999      -1.24236507E-07
  -11.5699997      -1.21230471E-07
  -11.5600004      -1.17145021E-07
  -11.5500002      -1.11955096E-07
  -11.5400000      -1.05645682E-07
  -11.5299997      -9.82112809E-08
  -11.5200005      -8.96548542E-08
  -11.5100002      -7.99870179E-08
  -11.5000000      -6.92248818E-08
  -11.4899998      -5.73917056E-08
  -11.4799995      -4.45165469E-08
  -11.4700003      -3.06345527E-08
  -11.4600000      -1.57876503E-08
  -11.4499998      -2.47773260E-11
  -11.4399996       1.65978804E-08
  -11.4300003       3.40171695E-08
  -11.4200001       5.21636814E-08
  -11.4099998       7.09633383E-08
  -11.3999996       9.03389790E-08
  -11.3900003       1.10212540E-07
  -11.3800001       1.30506848E-07
  -11.3699999       1.51147589E-07
  -11.3599997       1.72064574E-07
  -11.3500004       1.93192847E-07
  -11.3400002       2.14473360E-07
  -11.3299999       2.35853207E-07
  -11.3199997       2.57285876E-07
  -11.3100004       2.78731079E-07
  -11.3000002       3.00154710E-07
  -11.2900000       3.21528375E-07
  -11.2799997       3.42828713E-07
  -11.2700005       3.64036367E-07
  -11.2600002       3.85133774E-07
  -11.2500000       4.06103766E-07
  -11.2399998       4.26926675E-07
  -11.2299995       4.47577662E-07
  -11.2200003       4.68024922E-07
  -11.2100000       4.88227386E-07
  -11.1999998       5.08134292E-07
  -11.1899996       5.27686268E-07
  -11.1800003       5.46816409E-07
  -11.1700001       5.65453206E-07
  -11.1599998       5.83523786E-07
  -11.1499996       6.00958458E-07
  -11.1400003       6.17692933E-07
  -11.1300001       6.33672244E-07
  -11.1199999       6.48851824E-07
  -11.1099997       6.63198989E-07
  -11.1000004       6.76692707E-07
  -11.0900002       6.89324565E-07
  -11.0799999       7.01096099E-07
  -11.0699997       7.12019812E-07
  -11.0600004       7.22117647E-07
  -11.0500002       7.31420528E-07
  -11.0400000       7.39966538E-07
  -11.0299997       7.47801607E-07
  -11.0200005       7.54976270E-07
  -11.0100002       7.61545039E-07
  -11.0000000       7.67562199E-07
  -10.9899998       7.73080444E-07
  -10.9799995       7.78146557E-07
  -10.9700003       7.82800726E-07
  -10.9600000       7.87070974E-07
  -10.9499998       7.90974696E-07
  -10.9399996       7.94516325E-07
  -10.9300003       7.97686653E-07
  -10.9200001       8.00464647E-07
  -10.9099998       8.02818590E-07
  -10.8999996       8.04705451E-07
  -10.8900003       8.06071910E-07
  -10.8800001       8.06859020E-07
  -10.8699999       8.07000276E-07
  -10.8599997       8.06424907E-07
  -10.8500004       8.05059699E-07
  -10.8400002       8.02831721E-07
  -10.8299999       7.99669408E-07
  -10.8199997       7.95508697E-07
  -10.8100004       7.90294393E-07
  -10.8000002       7.83981648E-07
  -10.7900000       7.76545335E-07
  -10.7799997       7.67975450E-07
  -10.7700005       7.58284216E-07
  -10.7600002       7.47505226E-07
  -10.7500000       7.35693163E-07
  -10.7399998       7.22920504E-07
  -10.7299995       7.09278765E-07
  -10.7200003       6.94873506E-07
  -10.7100000       6.79821198E-07
  -10.6999998       6.64241327E-07
  -10.6899996       6.48261164E-07
  -10.6800003       6.32005936E-07
  -10.6700001       6.15598310E-07
  -10.6599998       5.99155499E-07
  -10.6499996       5.82784651E-07
  -10.6400003       5.66585015E-07
  -10.6300001       5.50640493E-07
  -10.6199999       5.35022252E-07
  -10.6099997       5.19790149E-07
  -10.6000004       5.04985508E-07
  -10.5900002       4.90640446E-07
  -10.5799999       4.76773096E-07
  -10.5699997       4.63395708E-07
  -10.5600004       4.50519366E-07
  -10.5500002       4.38154700E-07
  -10.5400000       4.26310635E-07
  -10.5299997       4.15007975E-07
  -10.5200005       4.04269315E-07
  -10.5100002       3.94124555E-07
  -10.5000000       3.84607802E-07
  -10.4899998       3.75751853E-07
  -10.4799995       3.67589479E-07
  -10.4700003       3.60145606E-07
  -10.4600000       3.53437315E-07
  -10.4499998       3.47473531E-07
  -10.4399996       3.42249962E-07
  -10.4300003       3.37755722E-07
  -10.4200001       3.33968984E-07
  -10.4099998       3.30860701E-07
  -10.3999996       3.28400262E-07
  -10.3900003       3.26553533E-07
  -10.3800001       3.25287942E-07
  -10.3699999       3.24568106E-07
  -10.3599997       3.24360428E-07
  -10.3500004       3.24629553E-07
  -10.3400002       3.25332564E-07
  -10.3299999       3.26419951E-07
  -10.3199997       3.27833305E-07
  -10.3100004       3.29498590E-07
  -10.3000002       3.31331563E-07
  -10.2900000       3.33235818E-07
  -10.2799997       3.35104147E-07
  -10.2700005       3.36824428E-07
  -10.2600002       3.38282433E-07
  -10.2500000       3.39367915E-07
  -10.2399998       3.39973923E-07
  -10.2299995       3.40000952E-07
  -10.2200003       3.39361208E-07
  -10.2100000       3.37975280E-07
  -10.1999998       3.35776861E-07
  -10.1899996       3.32710215E-07
  -10.1800003       3.28734387E-07
  -10.1700001       3.23824452E-07
  -10.1599998       3.17974298E-07
  -10.1499996       3.11200466E-07
  -10.1400003       3.03542748E-07
  -10.1300001       2.95066940E-07
  -10.1199999       2.85859670E-07
  -10.1099997       2.76032637E-07
  -10.1000004       2.65713453E-07
  -10.0900002       2.55044000E-07
  -10.0799999       2.44174316E-07
  -10.0699997       2.33258163E-07
  -10.0600004       2.22448037E-07
  -10.0500002       2.11894957E-07
  -10.0400000       2.01745394E-07
  -10.0299997       1.92143119E-07
  -10.0200005       1.83226291E-07
  -10.0100002       1.75131447E-07
  -10.0000000       1.67987210E-07
  -9.98999977       1.61919601E-07
  -9.97999954       1.57044155E-07
  -9.97000027       1.53469273E-07
  -9.96000004       1.51290067E-07
  -9.94999981       1.50591049E-07
  -9.93999958       1.51441100E-07
  -9.93000031       1.53892501E-07
  -9.92000008       1.57985710E-07
  -9.90999985       1.63744005E-07
  -9.89999962       1.71178456E-07
  -9.89000034       1.80283351E-07
  -9.88000011       1.91039206E-07
  -9.86999989       2.03411759E-07
  -9.85999966       2.17349125E-07
  -9.85000038       2.32781659E-07
  -9.84000015       2.49623724E-07
  -9.82999992       2.67769906E-07
  -9.81999969       2.87096270E-07
  -9.81000042       3.07464404E-07
  -9.80000019       3.28723388E-07
  -9.78999996       3.50712583E-07
  -9.77999973       3.73269046E-07
  -9.77000046       3.96233474E-07
  -9.76000023       4.19455120E-07
  -9.75000000       4.42797102E-07
  -9.73999977       4.66140818E-07
  -9.72999954       4.89387844E-07
  -9.72000027       5.12458882E-07
  -9.71000004       5.35290440E-07
  -9.69999981       5.57833687E-07
  -9.68999958       5.80045651E-07
  -9.68000031       6.01888246E-07
  -9.67000008       6.23324695E-07
  -9.65999985       6.44318902E-07
  -9.64999962       6.64836364E-07
  -9.64000034       6.84846839E-07
  -9.63000011       7.04328841E-07
  -9.61999989       7.23270546E-07
  -9.60999966       7.41672011E-07
  -9.60000038       7.59546083E-07
  -9.59000015       7.76917716E-07
  -9.57999992       7.93820959E-07
  -9.56999969       8.10297820E-07
  -9.56000042       8.26397695E-07
  -9.55000019       8.42174472E-07
  -9.53999996       8.57686700E-07
  -9.52999973       8.72998100E-07
  -9.52000046       8.88173872E-07
  -9.51000023       9.03279442E-07
  -9.50000000       9.18376202E-07
  -9.48999977       9.33516958E-07
  -9.47999954       9.48741103E-07
  -9.47000027       9.64070750E-07
  -9.46000004       9.79508968E-07
  -9.44999981       9.95039159E-07
  -9.43999958       1.01062358E-06
  -9.43000031       1.02620436E-06
  -9.42000008       1.04170385E-06
  -9.40999985       1.05702054E-06
  -9.39999962       1.07202879E-06
  -9.39000034       1.08657275E-06
  -9.38000011       1.10046494E-06
  -9.36999989       1.11348254E-06
  -9.35999966       1.12537202E-06
  -9.35000038       1.13585168E-06
  -9.34000015       1.14461739E-06
  -9.32999992       1.15135367E-06
  -9.31999969       1.15574051E-06
  -9.31000042       1.15746388E-06
  -9.30000019       1.15621958E-06
  -9.28999996       1.15171792E-06
  -9.27999973       1.14368743E-06
  -9.27000046       1.13187616E-06
  -9.26000023       1.11605470E-06
  -9.25000000       1.09601785E-06
  -9.23999977       1.07158939E-06
  -9.22999954       1.04262415E-06
  -9.22000027       1.00901286E-06
  -9.21000004       9.70681526E-07
  -9.19999981       9.27592055E-07
  -9.18999958       8.79740810E-07
  -9.18000031       8.27156271E-07
  -9.17000008       7.69893632E-07
  -9.15999985       7.08038101E-07
  -9.14999962       6.41697000E-07
  -9.14000034       5.71006467E-07
  -9.13000011       4.96127598E-07
  -9.11999989       4.17249680E-07
  -9.10999966       3.34590283E-07
  -9.10000038       2.48393150E-07
  -9.09000015       1.58929069E-07
  -9.07999992       6.64932003E-08
  -9.06999969      -2.85919679E-08
  -9.06000042      -1.25981245E-07
  -9.05000019      -2.25299274E-07
  -9.03999996      -3.26140167E-07
  -9.02999973      -4.28063998E-07
  -9.02000046      -5.30594662E-07
  -9.01000023      -6.33219486E-07
  -9.00000000      -7.35392803E-07
  -8.98999977      -8.36537140E-07
  -8.97999954      -9.36055073E-07
  -8.97000027      -1.03333105E-06
  -8.96000004      -1.12774342E-06
  -8.94999981      -1.21866742E-06
  -8.93999958      -1.30548244E-06
  -8.93000031      -1.38757548E-06
  -8.92000008      -1.46434411E-06
  -8.90999985      -1.53519818E-06
  -8.89999962      -1.59956437E-06
  -8.89000034      -1.65688459E-06
  -8.88000011      -1.70662179E-06
  -8.86999989      -1.74825914E-06
  -8.85999966      -1.78129915E-06
  -8.85000038      -1.80526490E-06
  -8.84000015      -1.81969551E-06
  -8.82999992      -1.82414510E-06
  -8.81999969      -1.81818143E-06
  -8.81000042      -1.80138613E-06
  -8.80000019      -1.77335517E-06
  -8.78999996      -1.73370631E-06
  -8.77999973      -1.68208055E-06
  -8.77000046      -1.61815376E-06
  -8.76000023      -1.54163956E-06
  -8.75000000      -1.45229706E-06
  -8.73999977      -1.34993297E-06
  -8.72999954      -1.23440464E-06
  -8.72000027      -1.10562019E-06
  -8.71000004      -9.63539833E-07
  -8.69999981      -8.08177219E-07
  -8.68999958      -6.39601467E-07
  -8.68000031      -4.57938654E-07
  -8.67000008      -2.63378411E-07
  -8.65999985      -5.61712490E-08
  -8.64999962       1.63369165E-07
  -8.64000034       3.94870568E-07
  -8.63000011       6.37906851E-07
  -8.61999989       8.92006767E-07
  -8.60999966       1.15666012E-06
  -8.60000038       1.43132615E-06
  -8.59000015       1.71543388E-06
  -8.57999992       2.00838667E-06
  -8.56999969       2.30956084E-06
  -8.56000042       2.61830337E-06
  -8.55000019       2.93393646E-06
  -8.53999996       3.25575706E-06
  -8.52999973       3.58304646E-06
  -8.52000046       3.91507820E-06
  -8.51000023       4.25113240E-06
  -8.50000000       4.59049716E-06
  -8.48999977       4.93248444E-06
  -8.47999954       5.27643488E-06
  -8.47000027       5.62170953E-06
  -8.46000004       5.96769723E-06
  -8.44999981       6.31380817E-06
  -8.43999958       6.65947346E-06
  -8.43000031       7.00414830E-06
  -8.42000008       7.34731248E-06
  -8.40999985       7.68847895E-06
  -8.39999962       8.02718750E-06
  -8.39000034       8.36301206E-06
  -8.38000011       8.69555333E-06
  -8.36999989       9.02442753E-06
  -8.35999966       9.34926447E-06
  -8.35000038       9.66968037E-06
  -8.34000015       9.98529413E-06
  -8.32999992       1.02957001E-05
  -8.31999969       1.06004882E-05
  -8.31000042       1.08992281E-05
  -8.30000019       1.11914869E-05
  -8.28999996       1.14768272E-05
  -8.27999973       1.17548007E-05
  -8.27000046       1.20249570E-05
  -8.26000023       1.22868314E-05
  -8.25000000       1.25399447E-05
  -8.23999977       1.27837975E-05
  -8.22999954       1.30178760E-05
  -8.22000027       1.32416517E-05
  -8.21000004       1.34545944E-05
  -8.19999981       1.36561839E-05
  -8.18999958       1.38459045E-05
  -8.18000031       1.40232651E-05
  -8.17000008       1.41877917E-05
  -8.15999985       1.43390125E-05
  -8.14999962       1.44764799E-05
  -8.14000034       1.45997255E-05
  -8.13000011       1.47082892E-05
  -8.11999989       1.48017325E-05
  -8.10999966       1.48796016E-05
  -8.10000038       1.49414609E-05
  -8.09000015       1.49869093E-05
  -8.07999992       1.50155520E-05
  -8.06999969       1.50270307E-05
  -8.06000042       1.50210208E-05
  -8.05000019       1.49971947E-05
  -8.03999996       1.49552670E-05
  -8.02999973       1.48949584E-05
  -8.02000046       1.48160207E-05
  -8.01000023       1.47182363E-05
  -8.00000000       1.46014327E-05
  -7.98999977       1.44654978E-05
  -7.98000002       1.43103834E-05
  -7.96999979       1.41360933E-05
  -7.96000004       1.39427229E-05
  -7.94999981       1.37304123E-05
  -7.94000006       1.34993861E-05
  -7.92999983       1.32499181E-05
  -7.92000008       1.29823484E-05
  -7.90999985       1.26970899E-05
  -7.90000010       1.23946484E-05
  -7.88999987       1.20755922E-05
  -7.88000011       1.17405734E-05
  -7.86999989       1.13903316E-05
  -7.86000013       1.10257142E-05
  -7.84999990       1.06476145E-05
  -7.84000015       1.02569929E-05
  -7.82999992       9.85485804E-06
  -7.82000017       9.44225849E-06
  -7.80999994       9.02031115E-06
  -7.80000019       8.59014381E-06
  -7.78999996       8.15293879E-06
  -7.78000021       7.70992483E-06
  -7.76999998       7.26238477E-06
  -7.76000023       6.81164420E-06
  -7.75000000       6.35903052E-06
  -7.73999977       5.90591026E-06
  -7.73000002       5.45365128E-06
  -7.71999979       5.00360102E-06
  -7.71000004       4.55710187E-06
  -7.69999981       4.11546625E-06
  -7.69000006       3.67999087E-06
  -7.67999983       3.25196584E-06
  -7.67000008       2.83266036E-06
  -7.65999985       2.42327701E-06
  -7.65000010       2.02503747E-06
  -7.63999987       1.63906805E-06
  -7.63000011       1.26645011E-06
  -7.61999989       9.08154846E-07
  -7.61000013       5.65085770E-07
  -7.59999990       2.38045686E-07
  -7.59000015      -7.22326234E-08
  -7.57999992      -3.65093541E-07
  -7.57000017      -6.39956568E-07
  -7.55999994      -8.96262407E-07
  -7.55000019      -1.13353553E-06
  -7.53999996      -1.35133553E-06
  -7.53000021      -1.54928466E-06
  -7.51999998      -1.72709622E-06
  -7.51000023      -1.88454783E-06
  -7.50000000      -2.02146930E-06
  -7.48999977      -2.13780436E-06
  -7.48000002      -2.23351458E-06
  -7.46999979      -2.30862861E-06
  -7.46000004      -2.36320375E-06
  -7.44999981      -2.39736596E-06
  -7.44000006      -2.41127782E-06