  -16.0000000       0.00000000    
  -15.9899998       0.00000000    
  -15.9799995       0.00000000    
  -15.9700003       0.00000000    
  -15.9600000       0.00000000    
  -15.9499998       0.00000000    
  -15.9399996       0.00000000    
  -15.9300003       0.00000000    
  -15.9200001       0.00000000    
  -15.9099998       0.00000000    
  -15.8999996       0.00000000    
  -15.8900003       0.00000000    
  -15.8800001       0.00000000    
  -15.8699999       0.00000000    
  -15.8599997      -0.00000000    
  -15.8500004      -2.80259693E-45
  -15.8400002      -3.78350585E-44
  -15.8299999      -3.68541496E-43
  -15.8199997      -2.84743848E-42
  -15.8100004      -1.80697437E-41
  -15.8000002      -9.69194070E-41
  -15.7900000      -4.48373470E-40
  -15.7799997      -1.81680728E-39
  -15.7700005      -6.52352079E-39
  -15.7600002      -2.09379200E-38
  -15.7500000      -6.04326162E-38
  -15.7399998      -1.57369539E-37
  -15.7299995      -3.69753115E-37
  -15.7200003      -7.80411948E-37
  -15.7100000      -1.46200038E-36
  -15.6999998      -2.36428691E-36
  -15.6899996      -3.07126849E-36
  -15.6800003      -2.40984772E-36
  -15.6700001       1.97939269E-36
  -15.6599998       1.37320283E-35
  -15.6499996       3.67631209E-35
  -15.6400003       7.21870220E-35
  -15.6300001       1.12528111E-34
  -15.6199999       1.34289726E-34
  -15.6099997       9.33964987E-35
  -15.6000004      -6.75587655E-35
  -15.5900002      -3.89116135E-34
  -15.5799999      -8.36483709E-34
  -15.5699997      -1.22767418E-33
  -15.5600004      -1.19811913E-33
  -15.5500002      -2.86746740E-34
  -15.5400000       1.77278728E-33
  -15.5299997       4.56055772E-33
  -15.5200005       6.49130829E-33
  -15.5100002       4.84044145E-33
  -15.5000000      -3.06717425E-33
  -15.4899998      -1.71213191E-32
  -15.4799995      -3.07873902E-32
  -15.4700003      -2.89731293E-32
  -15.4600000       8.45616914E-33
  -15.4499998       9.33939195E-32
  -15.4399996       2.06329939E-31
  -15.4300003       2.72446112E-31
  -15.4200001       1.58503752E-31
  -15.4099998      -2.79910737E-31
  -15.3999996      -1.08008446E-30
  -15.3900003      -2.00015987E-30
  -15.3800001      -2.37882497E-30
  -15.3699999      -1.18622323E-30
  -15.3599997       2.55060438E-30
  -15.3500004       8.86730421E-30
  -15.3400002       1.57307731E-29
  -15.3299999       1.82924149E-29
  -15.3199997       9.55074904E-30
  -15.3100004      -1.65612657E-29
  -15.3000002      -5.94657171E-29
  -15.2900000      -1.05230465E-28
  -15.2799997      -1.22936189E-28
  -15.2700005      -7.00321452E-29
  -15.2600002       8.81884826E-29
  -15.2500000       3.45261004E-28
  -15.2399998       6.17163047E-28
  -15.2299995       7.26455334E-28
  -15.2200003       4.38409496E-28
  -15.2100000      -4.27004717E-28
  -15.1999998      -1.81549231E-27
  -15.1899996      -3.25584620E-27
  -15.1800003      -3.80193362E-27
  -15.1700001      -2.25664929E-27
  -15.1599998       2.21953719E-27
  -15.1499996       9.19151299E-27
  -15.1400003       1.60882481E-26
  -15.1300001       1.80561818E-26
  -15.1199999       9.28337137E-27
  -15.1099997      -1.37958306E-26
  -15.1000004      -4.79518253E-26
  -15.0900002      -7.92276488E-26
  -15.0799999      -8.29245776E-26
  -15.0699997      -3.10604398E-26
  -15.0600004       9.11161648E-26
  -15.0500002       2.62774744E-25
  -15.0400000       4.09384297E-25
  -15.0299997       4.04950800E-25
  -15.0200005       1.11229770E-25
  -15.0100002      -5.39636770E-25
  -15.0000000      -1.43583354E-24
  -14.9899998      -2.19878668E-24
  -14.9799995      -2.19464397E-24
  -14.9700003      -7.22000013E-25
  -14.9600000       2.59385926E-24
  -14.9499998       7.27584241E-24
  -14.9399996       1.15600789E-23
  -14.9300003       1.23978737E-23
  -14.9200001       6.25390427E-24
  -14.9099998      -9.13730487E-24
  -14.8999996      -3.23462001E-23
  -14.8900003      -5.60740317E-23
  -14.8800001      -6.67190028E-23
  -14.8699999      -4.72970991E-23
  -14.8599997       1.53896397E-23
  -14.8500004       1.20224724E-22
  -14.8400002       2.41358772E-22
  -14.8299999       3.23869129E-22
  -14.8199997       2.92400067E-22
  -14.8100004       7.74441159E-23
  -14.8000002      -3.42486600E-22
  -14.7900000      -8.94440231E-22
  -14.7799997      -1.38238834E-21
  -14.7700005      -1.50396682E-21
  -14.7600002      -9.34787399E-22
  -14.7500000       5.18223353E-22
  -14.7399998       2.72803096E-21
  -14.7299995       5.09711521E-21
  -14.7200003       6.54719675E-21
  -14.7100000       5.74431134E-21
  -14.6999998       1.59569249E-21
  -14.6899996      -6.05823446E-21
  -14.6800003      -1.57772133E-20
  -14.6700001      -2.42209696E-20
  -14.6599998      -2.65821615E-20
  -14.6499996      -1.79807093E-20
  -14.6400003       4.27958248E-21
  -14.6300001       3.81582940E-20
  -14.6199999       7.50558679E-20
  -14.6099997       9.99812302E-20
  -14.6000004       9.47425015E-20
  -14.5900002       4.43667110E-20
  -14.5799999      -5.44066416E-20
  -14.5699997      -1.85266240E-19
  -14.5600004      -3.08942498E-19
  -14.5500002      -3.68126780E-19
  -14.5400000      -3.02810375E-19
  -14.5299997      -7.46617034E-20
  -14.5200005       3.05557830E-19
  -14.5100002       7.57768941E-19
  -14.5000000       1.13162371E-18
  -14.4899998       1.23446832E-18
  -14.4799995       8.90209087E-19
  -14.4700003       1.90919312E-20
  -14.4600000      -1.28476638E-18
  -14.4499998      -2.71068017E-18
  -14.4399996      -3.75626149E-18
  -14.4300003      -3.83945725E-18
  -14.4200001      -2.49085672E-18
  -14.4099998       4.15411370E-19
  -14.3999996       4.46617891E-18
  -14.3900003       8.63928690E-18
  -14.3800001       1.14365859E-17
  -14.3699999       1.12496861E-17
  -14.3599997       6.91124953E-18
  -14.3500004      -1.70310439E-18
  -14.3400002      -1.32259463E-17
  -14.3299999      -2.47229330E-17
  -14.3199997      -3.21534832E-17
  -14.3100004      -3.13908657E-17
  -14.3000002      -1.96322517E-17
  -14.2900000       3.16625693E-18
  -14.2799997       3.33217765E-17
  -14.2700005       6.34094952E-17
  -14.2600002       8.35067085E-17
  -14.2500000       8.36647529E-17
  -14.2399998       5.71532834E-17
  -14.2299995       3.63290239E-18
  -14.2200003      -6.87983321E-17
  -14.2100000      -1.43655703E-16
  -14.1999998      -1.98765479E-16
  -14.1899996      -2.11457090E-16
  -14.1800003      -1.65279646E-16
  -14.1700001      -5.65760503E-17
  -14.1599998       1.01084806E-16
  -14.1499996       2.76410276E-16
  -14.1400003       4.24833954E-16
  -14.1300001       4.97707613E-16
  -14.1199999       4.54664893E-16
  -14.1099997       2.76435926E-16
  -14.1000004      -2.51844534E-17
  -14.0900002      -4.03310741E-16
  -14.0799999      -7.79962337E-16
  -14.0699997      -1.05853125E-15
  -14.0600004      -1.14326673E-15
  -14.0500002      -9.62557971E-16
  -14.0400000      -4.91520884E-16
  -14.0299997       2.31134539E-16
  -14.0200005       1.09668659E-15
  -14.0100002       1.93403054E-15
  -14.0000000       2.53305266E-15
  -13.9899998       2.68284261E-15
  -13.9799995       2.22065082E-15
  -13.9700003       1.08397803E-15
  -13.9600000      -6.45081499E-16
  -13.9499998      -2.71625467E-15
  -13.9399996      -4.72107577E-15
  -13.9300003      -6.14555819E-15
  -13.9200001      -6.46681957E-15
  -13.9099998      -5.28343408E-15
  -13.8999996      -2.45604932E-15
  -13.8900003       1.77660608E-15
  -13.8800001       6.74653780E-15
  -13.8699999       1.14053147E-14
  -13.8599997       1.44907923E-14
  -13.8500004       1.48009402E-14
  -13.8400002       1.15293763E-14
  -13.8299999       4.58564791E-15
  -13.8199997      -5.19439270E-15
  -13.8100004      -1.60367833E-14
  -13.8000002      -2.54709296E-14
  -13.7900000      -3.08193920E-14
  -13.7799997      -2.98579927E-14
  -13.7700005      -2.15006574E-14
  -13.7600002      -6.32299168E-15
  -13.7500000       1.32553804E-14
  -13.7399998       3.32500683E-14
  -13.7299995       4.88651274E-14
  -13.7200003       5.55998186E-14
  -13.7100000       5.04656402E-14
  -13.6999998       3.29957009E-14
  -13.6899996       5.73337671E-15
  -13.6800003      -2.60155124E-14
  -13.6700001      -5.52075780E-14
  -13.6599998      -7.46887225E-14
  -13.6499996      -7.90506305E-14
  -13.6400003      -6.62270464E-14
  -13.6300001      -3.83477463E-14
  -13.6199999      -1.51941924E-15
  -13.6099997       3.55291087E-14
  -13.6000004       6.36760000E-14
  -13.5900002       7.59587095E-14
  -13.5799999       6.97335391E-14
  -13.5699997       4.77524074E-14
  -13.5600004       1.77030225E-14
  -13.5500002      -9.83785739E-15
  -13.5400000      -2.46132799E-14
  -13.5299997      -2.02186917E-14
  -13.5200005       3.10122373E-15
  -13.5100002       3.73859167E-14
  -13.5000000       6.82443604E-14
  -13.4899998       7.84994425E-14
  -13.4799995       5.34857769E-14
  -13.4700003      -1.33201919E-14
  -13.4600000      -1.15985780E-13
  -13.4499998      -2.34671332E-13
  -13.4399996      -3.38031144E-13
  -13.4300003      -3.89523103E-13
  -13.4200001      -3.56590571E-13
  -13.4099998      -2.20706483E-13
  -13.3999996       1.43035354E-14
  -13.3900003       3.18197156E-13
  -13.3800001       6.36314243E-13
  -13.3699999       8.98132100E-13
  -13.3599997       1.03124779E-12
  -13.3500004       9.78123290E-13
  -13.3400002       7.11886116E-13
  -13.3299999       2.47266319E-13
  -13.3199997      -3.56515788E-13
  -13.3100004      -1.00247642E-12
  -13.3000002      -1.57163312E-12
  -13.2900000      -1.94505566E-12
  -13.2799997      -2.02778614E-12
  -13.2700005      -1.76951888E-12
  -13.2600002      -1.17743684E-12
  -13.2500000      -3.18224613E-13
  -13.2399998       6.91337070E-13
  -13.2299995       1.70325136E-12
  -13.2200003       2.56265777E-12
  -13.2100000       3.13261483E-12
  -13.1999998       3.31450839E-12
  -13.1899996       3.06070837E-12
  -13.1800003       2.37826447E-12
  -13.1700001       1.32470846E-12
  -13.1599998      -1.30724765E-15
  -13.1499996      -1.47121399E-12
  -13.1400003      -2.93690311E-12
  -13.1300001      -4.23925044E-12
  -13.1199999      -5.21571848E-12
  -13.1099997      -5.70952096E-12
  -13.1000004      -5.58320577E-12
  -13.0900002      -4.73837029E-12
  -13.0799999      -3.14073507E-12
  -13.0699997      -8.46546032E-13
  -13.0600004       1.97659489E-12
  -13.0500002       5.04281209E-12
  -13.0400000       7.96242239E-12
  -13.0299997       1.02817607E-11
  -13.0200005       1.15467852E-11
  -13.0100002       1.13823907E-11
  -13.0000000       9.57368212E-12
  -12.9899998       6.13221106E-12
  -12.9799995       1.33068014E-12
  -12.9700003      -4.30575063E-12
  -12.9600000      -1.00554643E-11
  -12.9499998      -1.50977199E-11
  -12.9399996      -1.86361065E-11
  -12.9300003      -2.00264770E-11
  -12.9200001      -1.88857437E-11
  -12.9099998      -1.51614086E-11
  -12.8999996      -9.14951274E-12
  -12.8900003      -1.45935499E-12
  -12.8800001       7.06607255E-12
  -12.8699999       1.54568892E-11
  -12.8599997       2.27301164E-11
  -12.8500004       2.79922110E-11
  -12.8400002       3.05186397E-11
  -12.8299999       2.98078368E-11
  -12.8199997       2.56151853E-11
  -12.8100004       1.79774563E-11
  -12.8000002       7.23761632E-12
  -12.7900000      -5.92639523E-12
  -12.7799997      -2.04754408E-11
  -12.7700005      -3.50027854E-11
  -12.7600002      -4.77724735E-11
  -12.7500000      -5.68274247E-11
  -12.7399998      -6.01833514E-11
  -12.7299995      -5.61067685E-11
  -12.7200003      -4.34517075E-11
  -12.7100000      -2.20051442E-11
  -12.6999998       7.22620358E-12
  -12.6899996       4.18619514E-11
  -12.6800003       7.81905374E-11
  -12.6700001       1.11445707E-10
  -12.6599998       1.36314571E-10
  -12.6499996       1.47630352E-10
  -12.6400003       1.41160042E-10
  -12.6300001       1.14369264E-10
  -12.6199999       6.70370010E-11
  -12.6099997       1.60833564E-12
  -12.6000004      -7.67907890E-11
  -12.5900002      -1.60700050E-10
  -12.5799999      -2.40998999E-10
  -12.5699997      -3.07824877E-10
  -12.5600004      -3.51614099E-10
  -12.5500002      -3.64135055E-10
  -12.5400000      -3.39391765E-10
  -12.5299997      -2.74307549E-10
  -12.5200005      -1.69140521E-10
  -12.5100002      -2.76261496E-11
  -12.5000000       1.43124068E-10
  -12.4899998       3.32917693E-10
  -12.4799995       5.28917854E-10
  -12.4700003       7.16177728E-10
  -12.4600000       8.78250861E-10
  -12.4499998       9.97865457E-10
  -12.4399996       1.05766484E-09
  -12.4300003       1.04100384E-09
  -12.4200001       9.32781186E-10
  -12.4099998       7.20257520E-10
  -12.3999996       3.93790112E-10
  -12.3900003      -5.25985679E-11
  -12.3800001      -6.20890062E-10
  -12.3699999      -1.30903000E-09
  -12.3599997      -2.11117501E-09
  -12.3500004      -3.01818659E-09
  -12.3400002      -4.01826306E-09
  -12.3299999      -5.09758680E-09
  -12.3199997      -6.24083851E-09
  -12.3100004      -7.43147011E-09
  -12.3000002      -8.65165628E-09
  -12.2900000      -9.88193882E-09
  -12.2799997      -1.11006013E-08
  -12.2700005      -1.22829444E-08
  -12.2600002      -1.34005864E-08
  -12.2500000      -1.44209702E-08
  -12.2399998      -1.53072275E-08
  -12.2299995      -1.60184950E-08
  -12.2200003      -1.65107252E-08
  -12.2100000      -1.67379017E-08
  -12.1999998      -1.66537184E-08
  -12.1899996      -1.62135052E-08
  -12.1800003      -1.53762993E-08
  -12.1700001      -1.41070027E-08
  -12.1599998      -1.23784405E-08
  -12.1499996      -1.01732684E-08
  -12.1400003      -7.48558371E-09
  -12.1300001      -4.32213199E-09
  -12.1199999      -7.03031910E-10
  -12.1099997       3.33814598E-09
  -12.1000004       7.75494602E-09
  -12.0900002       1.24893607E-08
  -12.0799999       1.74737860E-08
  -12.0699997       2.26335573E-08
  -12.0600004       2.78897918E-08
  -12.0500002       3.31623191E-08
  -12.0400000       3.83723311E-08
  -12.0299997       4.34446150E-08
  -12.0200005       4.83089693E-08
  -12.0100002       5.29009725E-08
  -12.0000000       5.71619090E-08
  -11.9899998       6.10381861E-08
  -11.9799995       6.44801972E-08
  -11.9700003       6.74414125E-08
  -11.9600000       6.98773448E-08
  -11.9499998       7.17449851E-08
  -11.9399996       7.30027381E-08
  -11.9300003       7.36105719E-08
  -11.9200001       7.35306287E-08
  -11.9099998       7.27279001E-08
  -11.8999996       7.11708594E-08
  -11.8900003       6.88320370E-08
  -11.8800001       6.56883188E-08
  -11.8699999       6.17211739E-08
  -11.8599997       5.69168925E-08
  -11.8500004       5.12668450E-08
  -11.8400002       4.47680755E-08
  -11.8299999       3.74241509E-08
  -11.8199997       2.92463316E-08
  -11.8100004       2.02547472E-08
  -11.8000002       1.04797522E-08
  -11.7900000      -3.72520417E-11
  -11.7799997      -1.12430394E-08
  -11.7700005      -2.30726585E-08
  -11.7600002      -3.54500216E-08
  -11.7500000      -4.82886939E-08
  -11.7399998      -6.14931608E-08
  -11.7299995      -7.49600844E-08
  -11.7200003      -8.85793341E-08
  -11.7100000      -1.02234708E-07
  -11.6999998      -1.15804291E-07
  -11.6899996      -1.29160782E-07
  -11.6800003      -1.42171487E-07
  -11.6700001      -1.54698824E-07
  -11.6599998      -1.66601197E-07
  -11.6499996      -1.77734663E-07
  -11.6400003      -1.87954953E-07
  -11.6300001      -1.97120798E-07
  -11.6199999      -2.05096995E-07
  -11.6099997      -2.11757950E-07
  -11.6000004      -2.16990955E-07
  -11.5900002      -2.20698695E-07
  -11.5799999      -2.22800821E-07
  -11.5699997      -2.23234920E-07
  -11.5600004      -2.21955958E-07
  -11.5500002      -2.18935099E-07
  -11.5400000      -2.14157652E-07
  -11.5299997      -2.07620658E-07
  -11.5200005      -1.99330302E-07
  -11.5100002      -1.89298973E-07
  -11.5000000      -1.77543328E-07
  -11.4899998      -1.64081584E-07
  -11.4799995      -1.48932202E-07
  -11.4700003      -1.32112660E-07
  -11.4600000      -1.13639004E-07
  -11.4499998      -9.35255287E-08
  -11.4399996      -7.17860331E-08
  -11.4300003      -4.84346216E-08
  -11.4200001      -2.34879707E-08
  -11.4099998       3.03290837E-09
  -11.3999996       3.10996775E-08
  -11.3900003       6.06742745E-08
  -11.3800001       9.17068874E-08
  -11.3699999       1.24133550E-07
  -11.3599997       1.57875121E-07
  -11.3500004       1.92836865E-07
  -11.3400002       2.28908206E-07
  -11.3299999       2.65963962E-07
  -11.3199997       3.03866273E-07
  -11.3100004       3.42466507E-07
  -11.3000002       3.81608345E-07
  -11.2900000       4.21131830E-07
  -11.2799997       4.60876265E-07
  -11.2700005       5.00685189E-07
  -11.2600002       5.40410099E-07
  -11.2500000       5.79915138E-07
  -11.2399998       6.19081447E-07
  -11.2299995       6.57810290E-07
  -11.2200003       6.96026518E-07
  -11.2100000       7.33680906E-07
  -11.1999998       7.70751114E-07
  -11.1899996       8.07241406E-07
  -11.1800003       8.43182022E-07
  -11.1700001       8.78627077E-07
  -11.1599998       9.13650638E-07
  -11.1499996       9.48343938E-07
  -11.1400003       9.82811002E-07
  -11.1300001       1.01716410E-06
  -11.1199999       1.05151923E-06
  -11.1099997       1.08599249E-06
  -11.1000004       1.12069540E-06
  -11.0900002       1.15573141E-06
  -11.0799999       1.19119363E-06
  -11.0699997       1.22716096E-06
  -11.0600004       1.26369662E-06
  -11.0500002       1.30084788E-06
  -11.0400000       1.33864398E-06
  -11.0299997       1.37709856E-06
  -11.0200005       1.41621092E-06
  -11.0100002       1.45596925E-06
  -11.0000000       1.49635264E-06
  -10.9899998       1.53733686E-06
  -10.9799995       1.57889951E-06
  -10.9700003       1.62102140E-06
  -10.9600000       1.66369341E-06
  -10.9499998       1.70691965E-06
  -10.9399996       1.75072000E-06
  -10.9300003       1.79513017E-06
  -10.9200001       1.84020428E-06
  -10.9099998       1.88601382E-06
  -10.8999996       1.93264623E-06
  -10.8900003       1.98020439E-06
  -10.8800001       2.02880074E-06
  -10.8699999       2.07855783E-06
  -10.8599997       2.12960185E-06
  -10.8500004       2.18205605E-06
  -10.8400002       2.23604343E-06
  -10.8299999       2.29167358E-06
  -10.8199997       2.34904473E-06
  -10.8100004       2.40823351E-06
  -10.8000002       2.46929244E-06
  -10.7900000       2.53225016E-06
  -10.7799997       2.59710237E-06
  -10.7700005       2.66381812E-06
  -10.7600002       2.73233309E-06
  -10.7500000       2.80255517E-06
  -10.7399998       2.87437047E-06
  -10.7299995       2.94764436E-06
  -10.7200003       3.02222338E-06
  -10.7100000       3.09794950E-06
  -10.6999998       3.17466743E-06
  -10.6899996       3.25222936E-06
  -10.6800003       3.33049866E-06
  -10.6700001       3.40936572E-06
  -10.6599998       3.48874937E-06
  -10.6499996       3.56860050E-06
  -10.6400003       3.64890866E-06
  -10.6300001       3.72969521E-06
  -10.6199999       3.81102814E-06
  -10.6099997       3.89299430E-06
  -10.6000004       3.97571830E-06
  -10.5900002       4.05934179E-06
  -10.5799999       4.14401757E-06
  -10.5699997       4.22990888E-06
  -10.5600004       4.31717535E-06
  -10.5500002       4.40596659E-06
  -10.5400000       4.49641129E-06
  -10.5299997       4.58861996E-06
  -10.5200005       4.68267262E-06
  -10.5100002       4.77861067E-06
  -10.5000000       4.87645229E-06
  -10.4899998       4.97616384E-06
  -10.4799995       5.07767527E-06
  -10.4700003       5.18088109E-06
  -10.4600000       5.28563305E-06
  -10.4499998       5.39175426E-06
  -10.4399996       5.49903552E-06
  -10.4300003       5.60724038E-06
  -10.4200001       5.71611145E-06
  -10.4099998       5.82537359E-06
  -10.3999996       5.93474124E-06
  -10.3900003       6.04392153E-06
  -10.3800001       6.15261706E-06
  -10.3699999       6.26054270E-06
  -10.3599997       6.36741697E-06
  -10.3500004       6.47297156E-06
  -10.3400002       6.57697228E-06
  -10.3299999       6.67919903E-06
  -10.3199997       6.77946900E-06
  -10.3100004       6.87763259E-06
  -10.3000002       6.97356927E-06
  -10.2900000       7.06719538E-06
  -10.2799997       7.15845545E-06
  -10.2700005       7.24732581E-06
  -10.2600002       7.33380602E-06
  -10.2500000       7.41791564E-06
  -10.2399998       7.49970513E-06
  -10.2299995       7.57922726E-06
  -10.2200003       7.65656659E-06
  -10.2100000       7.73182819E-06
  -10.1999998       7.80512437E-06
  -10.1899996       7.87660792E-06
  -10.1800003       7.94643711E-06
  -10.1700001       8.01480564E-06
  -10.1599998       8.08191544E-06
  -10.1499996       8.14798932E-06
  -10.1400003       8.21327467E-06
  -10.1300001       8.27801432E-06
  -10.1199999       8.34247840E-06
  -10.1099997       8.40692519E-06
  -10.1000004       8.47162664E-06
  -10.0900002       8.53684560E-06
  -10.0799999       8.60285854E-06
  -10.0699997       8.66992468E-06
  -10.0600004       8.73830868E-06
  -10.0500002       8.80826792E-06
  -10.0400000       8.88005980E-06
  -10.0299997       8.95392441E-06
  -10.0200005       9.03010732E-06
  -10.0100002       9.10884592E-06
  -10.0000000       9.19036211E-06
  -9.98999977       9.27487872E-06
  -9.97999954       9.36259585E-06
  -9.97000027       9.45370812E-06
  -9.96000004       9.54840834E-06
  -9.94999981       9.64688024E-06
  -9.93999958       9.74930026E-06
  -9.93000031       9.85584848E-06
  -9.92000008       9.96670951E-06
  -9.90999985       1.00820553E-05
  -9.89999962       1.02020840E-05
  -9.89000034       1.03269786E-05
  -9.88000011       1.04569353E-05
  -9.86999989       1.05921526E-05
  -9.85999966       1.07328378E-05
  -9.85000038       1.08791901E-05
  -9.84000015       1.10314077E-05
  -9.82999992       1.11897007E-05
  -9.81999969       1.13542792E-05
  -9.81000042       1.15253270E-05
  -9.80000019       1.17030231E-05
  -9.78999996       1.18875487E-05
  -9.77999973       1.20790710E-05
  -9.77000046       1.22777265E-05
  -9.76000023       1.24836324E-05
  -9.75000000       1.26968880E-05
  -9.73999977       1.29175432E-05
  -9.72999954       1.31456181E-05
  -9.72000027       1.33811218E-05
  -9.71000004       1.36239942E-05
  -9.69999981       1.38741316E-05
  -9.68999958       1.41313913E-05
  -9.68000031       1.43955613E-05
  -9.67000008       1.46663533E-05
  -9.65999985       1.49434418E-05
  -9.64999962       1.52263920E-05
  -9.64000034       1.55147118E-05
  -9.63000011       1.58078528E-05
  -9.61999989       1.61051412E-05
  -9.60999966       1.64058893E-05
  -9.60000038       1.67092840E-05
  -9.59000015       1.70144831E-05
  -9.57999992       1.73206045E-05
  -9.56999969       1.76267185E-05
  -9.56000042       1.79318304E-05
  -9.55000019       1.82349740E-05
  -9.53999996       1.85351510E-05
  -9.52999973       1.88313861E-05
  -9.52000046       1.91227118E-05
  -9.51000023       1.94082149E-05
  -9.50000000       1.96870060E-05
  -9.48999977       1.99582755E-05
  -9.47999954       2.02212632E-05
  -9.47000027       2.04753087E-05
  -9.46000004       2.07198373E-05
  -9.44999981       2.09544141E-05
  -9.43999958       2.11786955E-05
  -9.43000031       2.13925032E-05
  -9.42000008       2.15958025E-05
  -9.40999985       2.17887409E-05
  -9.39999962       2.19716094E-05
  -9.39000034       2.21449518E-05
  -9.38000011       2.23094648E-05
  -9.36999989       2.24660416E-05
  -9.35999966       2.26158209E-05
  -9.35000038       2.27601031E-05
  -9.34000015       2.29004327E-05
  -9.32999992       2.30385303E-05
  -9.31999969       2.31763279E-05
  -9.31000042       2.33159299E-05
  -9.30000019       2.34596191E-05
  -9.28999996       2.36098076E-05
  -9.27999973       2.37690419E-05
  -9.27000046       2.39399724E-05
  -9.26000023       2.41253401E-05
  -9.25000000       2.43278737E-05
  -9.23999977       2.45503707E-05
  -9.22999954       2.47955359E-05
  -9.22000027       2.50660396E-05
  -9.21000004       2.53644248E-05
  -9.19999981       2.56931053E-05
  -9.18999958       2.60543020E-05
  -9.18000031       2.64500650E-05
  -9.17000008       2.68821113E-05
  -9.15999985       2.73519818E-05
  -9.14999962       2.78608150E-05
  -9.14000034       2.84094949E-05
  -9.13000011       2.89985474E-05
  -9.11999989       2.96281651E-05
  -9.10999966       3.02981080E-05
  -9.10000038       3.10078103E-05
  -9.09000015       3.17563354E-05
  -9.07999992       3.25423680E-05
  -9.06999969       3.33642238E-05
  -9.06000042       3.42198800E-05
  -9.05000019       3.51070084E-05
  -9.03999996       3.60229242E-05
  -9.02999973       3.69646732E-05
  -9.02000046       3.79290468E-05
  -9.01000023       3.89125962E-05
  -9.00000000       3.99116980E-05
  -8.98999977       4.09225213E-05
  -8.97999954       4.19410790E-05
  -8.97000027       4.29633001E-05
  -8.96000004       4.39849791E-05
  -8.94999981       4.50019179E-05
  -8.93999958       4.60098854E-05
  -8.93000031       4.70046325E-05
  -8.92000008       4.79820337E-05
  -8.90999985       4.89380036E-05
  -8.89999962       4.98686277E-05
  -8.89000034       5.07701079E-05
  -8.88000011       5.16387699E-05
  -8.86999989       5.24711868E-05
  -8.85999966       5.32642043E-05
  -8.85000038       5.40148139E-05
  -8.84000015       5.47203672E-05
  -8.82999992       5.53784848E-05
  -8.81999969       5.59871405E-05
  -8.81000042       5.65445662E-05
  -8.80000019       5.70494449E-05
  -8.78999996       5.75007471E-05
  -8.77999973       5.78978106E-05
  -8.77000046       5.82403809E-05
  -8.76000023       5.85284979E-05
  -8.75000000       5.87625582E-05
  -8.73999977       5.89433512E-05
  -8.72999954       5.90719646E-05
  -8.72000027       5.91497919E-05
  -8.71000004       5.91785465E-05
  -8.69999981       5.91602147E-05
  -8.68999958       5.90970303E-05
  -8.68000031       5.89914016E-05
  -8.67000008       5.88459625E-05
  -8.65999985       5.86635288E-05
  -8.64999962       5.84469526E-05
  -8.64000034       5.81993409E-05
  -8.63000011       5.79237749E-05
  -8.61999989       5.76234888E-05
  -8.60999966       5.73017096E-05
  -8.60000038       5.69616022E-05
  -8.59000015       5.66064300E-05
  -8.57999992       5.62393980E-05
  -8.56999969       5.58636239E-05
  -8.56000042       5.54820836E-05
  -8.55000019       5.50977857E-05
  -8.53999996       5.47134550E-05
  -8.52999973       5.43318529E-05
  -8.52000046       5.39554603E-05
  -8.51000023       5.35866966E-05
  -8.50000000       5.32277918E-05
  -8.48999977       5.28807177E-05
  -8.47999954       5.25473915E-05
  -8.47000027       5.22293885E-05
  -8.46000004       5.19281275E-05
  -8.44999981       5.16449181E-05
  -8.43999958       5.13807463E-05
  -8.43000031       5.11365906E-05
  -8.42000008       5.09131423E-05
  -8.40999985       5.07109835E-05
  -8.39999962       5.05306270E-05
  -8.39000034       5.03723641E-05
  -8.38000011       5.02364383E-05
  -8.36999989       5.01229297E-05
  -8.35999966       5.00319766E-05
  -8.35000038       4.99634698E-05
  -8.34000015       4.99173657E-05
  -8.32999992       4.98935769E-05
  -8.31999969       4.98920854E-05
  -8.31000042       4.99128182E-05
  -8.30000019       4.99556954E-05
  -8.28999996       5.00207243E-05
  -8.27999973       5.01078830E-05
  -8.27000046       5.02173025E-05
  -8.26000023       5.03491246E-05
  -8.25000000       5.05035714E-05
  -8.23999977       5.06810065E-05
  -8.22999954       5.08818594E-05
  -8.22000027       5.11067701E-05
  -8.21000004       5.13563755E-05
  -8.19999981       5.16314685E-05
  -8.18999958       5.19330606E-05
  -8.18000031       5.22621813E-05
  -8.17000008       5.26199510E-05
  -8.15999985       5.30075376E-05
  -8.14999962       5.34261890E-05
  -8.14000034       5.38773384E-05
  -8.13000011       5.43621791E-05
  -8.11999989       5.48820171E-05
  -8.10999966       5.54381368E-05
  -8.10000038       5.60317822E-05
  -8.09000015       5.66641247E-05
  -8.07999992       5.73361685E-05
  -8.06999969       5.80488704E-05
  -8.06000042       5.88029543E-05
  -8.05000019       5.95990896E-05
  -8.03999996       6.04376037E-05
  -8.02999973       6.13187294E-05
  -8.02000046       6.22426014E-05
  -8.01000023       6.32090814E-05
  -8.00000000       6.42178420E-05
  -7.98999977       6.52682866E-05
  -7.98000002       6.63597166E-05
  -7.96999979       6.74912662E-05
  -7.96000004       6.86617859E-05
  -7.94999981       6.98699514E-05
  -7.94000006       7.11143148E-05
  -7.92999983       7.23932972E-05
  -7.92000008       7.37051523E-05
  -7.90999985       7.50480976E-05
  -7.90000010       7.64203141E-05
  -7.88999987       7.78198155E-05
  -7.88000011       7.92445062E-05
  -7.86999989       8.06922908E-05
  -7.86000013       8.21610738E-05
  -7.84999990       8.36487816E-05
  -7.84000015       8.51532604E-05
  -7.82999992       8.66723785E-05
  -7.82000017       8.82042659E-05
  -7.80999994       8.97468854E-05
  -7.80000019       9.12983814E-05
  -7.78999996       9.28570516E-05
  -7.78000021       9.44212807E-05
  -7.76999998       9.59894969E-05
  -7.76000023       9.75603616E-05
  -7.75000000       9.91324632E-05
  -7.73999977       1.00704623E-04
  -7.73000002       1.02275866E-04
  -7.71999979       1.03845196E-04
  -7.71000004       1.05411731E-04
  -7.69999981       1.06974796E-04
  -7.69000006       1.08533815E-04
  -7.67999983       1.10088375E-04
  -7.67000008       1.11638117E-04
  -7.65999985       1.13182738E-04
  -7.65000010       1.14722156E-04
  -7.63999987       1.16256357E-04
  -7.63000011       1.17785428E-04
  -7.61999989       1.19309676E-04
  -7.61000013       1.20829332E-04
  -7.59999990       1.22344980E-04
  -7.59000015       1.23857128E-04
  -7.57999992       1.25366714E-04
  -7.57000017       1.26874642E-04
  -7.55999994       1.28381958E-04
  -7.55000019       1.29889871E-04
  -7.53999996       1.31399618E-04
  -7.53000021       1.32912668E-04
  -7.51999998       1.34430753E-04
  -7.51000023       1.35955517E-04
  -7.50000000       1.37488809E-04
  -7.48999977       1.39032389E-04
  -7.48000002       1.40588643E-04
  -7.46999979       1.42159508E-04
  -7.46000004       1.43747267E-04
  -7.44999981       1.45354061E-04
  -7.44000006       1.46982289E-04