  -16.0000000       0.00000000    
  -15.9899998       0.00000000    
  -15.9799995       0.00000000    
  -15.9700003       0.00000000    
  -15.9600000       0.00000000    
  -15.9499998       0.00000000    
  -15.9399996       0.00000000    
  -15.9300003       0.00000000    
  -15.9200001       0.00000000    
  -15.9099998       0.00000000    
  -15.8999996       0.00000000    
  -15.8900003       0.00000000    
  -15.8800001       0.00000000    
  -15.8699999       0.00000000    
  -15.8599997       0.00000000    
  -15.8500004       0.00000000    
  -15.8400002       0.00000000    
  -15.8299999       0.00000000    
  -15.8199997       4.20389539E-45
  -15.8100004       2.80259693E-44
  -15.8000002       1.37327250E-43
  -15.7900000       5.82940161E-43
  -15.7799997       2.12717107E-42
  -15.7700005       6.81311313E-42
  -15.7600002       1.93421227E-41
  -15.7500000       4.87399632E-41
  -15.7399998       1.07881765E-40
  -15.7299995       2.03004707E-40
  -15.7200003       2.95770666E-40
  -15.7100000       2.10549298E-40
  -15.6999998      -5.32176723E-40
  -15.6899996      -2.91097615E-39
  -15.6800003      -8.41403637E-39
  -15.6700001      -1.83790299E-38
  -15.6599998      -3.19461045E-38
  -15.6499996      -4.21142513E-38
  -15.6400003      -3.06146160E-38
  -15.6300001       3.50800441E-38
  -15.6199999       1.95906615E-37
  -15.6099997       4.77916272E-37
  -15.6000004       8.46128496E-37
  -15.5900002       1.14145782E-36
  -15.5799999       1.02542842E-36
  -15.5699997      -2.19383098E-38
  -15.5600004      -2.58985910E-36
  -15.5500002      -7.03823368E-36
  -15.5400000      -1.29300375E-35
  -15.5299997      -1.81195523E-35
  -15.5200005      -1.75528484E-35
  -15.5100002      -2.32868362E-36
  -15.5000000       3.93245994E-35
  -15.4899998       1.15936999E-34
  -15.4799995       2.17622782E-34
  -15.4700003       2.91072972E-34
  -15.4600000       2.14813672E-34
  -15.4499998      -1.95502412E-34
  -15.4399996      -1.10176303E-33
  -15.4300003      -2.43089936E-33
  -15.4200001      -3.55081836E-33
  -15.4099998      -3.00085763E-33
  -15.3999996       1.34533088E-33
  -15.3900003       1.11687135E-32
  -15.3800001       2.53256643E-32
  -15.3699999       3.67002502E-32
  -15.3599997       3.02939294E-32
  -15.3500004      -1.37903605E-32
  -15.3400002      -1.08444197E-31
  -15.3299999      -2.37704636E-31
  -15.3199997      -3.31908353E-31
  -15.3100004      -2.58733571E-31
  -15.3000002       1.41024034E-31
  -15.2900000       9.47589600E-31
  -15.2799997       1.99124455E-30
  -15.2700005       2.68408844E-30
  -15.2600002       2.00183679E-30
  -15.2500000      -1.18931440E-30
  -15.2399998      -7.32635186E-30
  -15.2299995      -1.49698833E-29
  -15.2200003      -1.97814476E-29
  -15.2100000      -1.46526014E-29
  -15.1999998       7.83922249E-30
  -15.1899996       5.00220581E-29
  -15.1800003       1.01754462E-28
  -15.1700001       1.34607758E-28
  -15.1599998       1.03606725E-28
  -15.1499996      -3.69624836E-29
  -15.1400003      -3.00951880E-28
  -15.1300001      -6.27727928E-28
  -15.1199999      -8.50125892E-28
  -15.1099997      -7.06010432E-28
  -15.1000004       7.25882575E-29
  -15.0900002       1.58062005E-27
  -15.0799999       3.50952237E-27
  -15.0699997       4.97317290E-27
  -15.0600004       4.55842196E-27
  -15.0500002       7.69677969E-28
  -15.0400000      -7.07201167E-27
  -15.0299997      -1.76574218E-26
  -15.0200005      -2.67590340E-26
  -15.0100002      -2.73396726E-26
  -15.0000000      -1.15127493E-26
  -14.9899998       2.53125065E-26
  -14.9799995       7.88418157E-26
  -14.9700003       1.31085177E-25
  -14.9600000       1.49852190E-25
  -14.9499998       9.62888058E-26
  -14.9399996      -5.76635813E-26
  -14.9300003      -3.04381068E-25
  -14.9200001      -5.76956053E-25
  -14.9099998      -7.41407964E-25
  -14.8999996      -6.21002053E-25
  -14.8900003      -6.27939074E-26
  -14.8800001       9.59811501E-25
  -14.8699999       2.23912251E-24
  -14.8599997       3.27515977E-24
  -14.8500004       3.33440145E-24
  -14.8400002       1.67523350E-24
  -14.8299999      -2.06506174E-24
  -14.8199997      -7.41619497E-24
  -14.8100004      -1.27464547E-23
  -14.8000002      -1.53144139E-23
  -14.7900000      -1.19245753E-23
  -14.7799997      -2.45134730E-25
  -14.7700005       1.94536554E-23
  -14.7600002       4.27462425E-23
  -14.7500000       6.05737638E-23
  -14.7399998       6.07453000E-23
  -14.7299995       3.18978842E-23
  -14.7200003      -3.05175953E-23
  -14.7100000      -1.17894909E-22
  -14.6999998      -2.04597223E-22
  -14.6899996      -2.49829825E-22
  -14.6800003      -2.07707064E-22
  -14.6700001      -4.55000550E-23
  -14.6599998       2.33761978E-22
  -14.6499996       5.72290036E-22
  -14.6400003       8.52781913E-22
  -14.6300001       9.17838578E-22
  -14.6199999       6.17855399E-22
  -14.6099997      -1.18779708E-22
  -14.6000004      -1.21248451E-21
  -14.5900002      -2.38681229E-21
  -14.5799999      -3.18433375E-21
  -14.5699997      -3.06841699E-21
  -14.5600004      -1.61028831E-21
  -14.5500002       1.27602919E-21
  -14.5400000       5.12671963E-21
  -14.5299997       8.84938176E-21
  -14.5200005       1.08662783E-20
  -14.5100002       9.52494356E-21
  -14.5000000       3.73203617E-21
  -14.4899998      -6.34511709E-21
  -14.4799995      -1.87618602E-20
  -14.4700003      -2.97542779E-20
  -14.4600000      -3.43978760E-20
  -14.4499998      -2.80114956E-20
  -14.4399996      -8.07602201E-21
  -14.4300003       2.38610313E-20
  -14.4200001       6.10368367E-20
  -14.4099998       9.18324865E-20
  -14.3999996       1.02116067E-19
  -14.3900003       7.94788349E-20
  -14.3800001       1.85222089E-20
  -14.3699999      -7.43646034E-20
  -14.3599997      -1.78698283E-19
  -14.3500004      -2.61847564E-19
  -14.3400002      -2.86105928E-19
  -14.3299999      -2.20211816E-19
  -14.3199997      -5.27860300E-20
  -14.3100004       1.96424829E-19
  -14.3000002       4.72243564E-19
  -14.2900000       6.90599031E-19
  -14.2799997       7.57294863E-19
  -14.2700005       5.96586905E-19
  -14.2600002       1.82958173E-19
  -14.2500000      -4.33717472E-19
  -14.2399998      -1.12023706E-18
  -14.2299995      -1.67736894E-18
  -14.2200003      -1.88431206E-18
  -14.2100000      -1.56371536E-18
  -14.1999998      -6.51917016E-19
  -14.1899996       7.47012697E-19
  -14.1800003       2.34548179E-18
  -14.1700001       3.71048573E-18
  -14.1599998       4.35800892E-18
  -14.1499996       3.88873695E-18
  -14.1400003       2.13311124E-18
  -14.1300001      -7.37089839E-19
  -14.1199999      -4.17345748E-18
  -14.1099997      -7.32105548E-18
  -14.1000004      -9.19730956E-18
  -14.0900002      -8.95039780E-18
  -14.0799999      -6.13737202E-18
  -14.0699997      -9.43546934E-19
  -14.0600004       5.73382617E-18
  -14.0500002       1.23895137E-17
  -14.0400000       1.72084554E-17
  -14.0299997       1.85089256E-17
  -14.0200005       1.52306996E-17
  -14.0100002       7.33780258E-18
  -14.0000000      -3.99133836E-18
  -13.9899998      -1.64733896E-17
  -13.9799995      -2.71446415E-17
  -13.9700003      -3.30300862E-17
  -13.9600000      -3.19090480E-17
  -13.9499998      -2.29841315E-17
  -13.9399996      -7.26396761E-18
  -13.9300003       1.24725775E-17
  -13.9200001       3.21634722E-17
  -13.9099998       4.73164053E-17
  -13.8999996       5.40382039E-17
  -13.8900003       4.99915239E-17
  -13.8800001       3.50342985E-17
  -13.8699999       1.13692303E-17
  -13.8599997      -1.68477004E-17
  -13.8500004      -4.43515683E-17
  -13.8400002      -6.58597432E-17
  -13.8299999      -7.71430426E-17
  -13.8199997      -7.58231601E-17
  -13.8100004      -6.17268180E-17
  -13.8000002      -3.67572462E-17
  -13.7900000      -4.37807508E-18
  -13.7799997       3.10980007E-17
  -13.7700005       6.51949745E-17
  -13.7600002       9.37614320E-17
  -13.7500000       1.13196213E-16
  -13.7399998       1.20474833E-16
  -13.7299995       1.13138760E-16
  -13.7200003       8.94382023E-17
  -13.7100000       4.87592498E-17
  -13.6999998      -7.66970218E-18
  -13.6899996      -7.59664741E-17
  -13.6800003      -1.48993969E-16
  -13.6700001      -2.16339176E-16
  -13.6599998      -2.65170917E-16
  -13.6499996      -2.82078621E-16
  -13.6400003      -2.55715462E-16
  -13.6300001      -1.79781525E-16
  -13.6199999      -5.56781557E-17
  -13.6099997       1.05890156E-16
  -13.6000004       2.84950433E-16
  -13.5900002       4.54210036E-16
  -13.5799999       5.82785085E-16
  -13.5699997       6.41165348E-16
  -13.5600004       6.06568658E-16
  -13.5500002       4.67719788E-16
  -13.5400000       2.28189697E-16
  -13.5299997      -9.23053625E-17
  -13.5200005      -4.58870517E-16
  -13.5100002      -8.24536176E-16
  -13.5000000      -1.13511732E-15
  -13.4899998      -1.33532171E-15
  -13.4799995      -1.37561401E-15
  -13.4700003      -1.21938260E-15
  -13.4600000      -8.49957329E-16
  -13.4499998      -2.76904097E-16
  -13.4399996       4.59262376E-16
  -13.4300003       1.28511098E-15
  -13.4200001       2.09647558E-15
  -13.4099998       2.76610954E-15
  -13.3999996       3.15758382E-15
  -13.3900003       3.14514472E-15
  -13.3800001       2.63771714E-15
  -13.3699999       1.60363994E-15
  -13.3599997       9.13290379E-17
  -13.3500004      -1.75949559E-15
  -13.3400002      -3.72085565E-15
  -13.3299999      -5.49678897E-15
  -13.3199997      -6.76083191E-15
  -13.3100004      -7.20699931E-15
  -13.3000002      -6.60698574E-15
  -13.2900000      -4.86373899E-15
  -13.2799997      -2.05056703E-15
  -13.2700005       1.57365603E-15
  -13.2600002       5.57930184E-15
  -13.2500000       9.41184725E-15
  -13.2399998       1.24640974E-14
  -13.2299995       1.41648549E-14
  -13.2200003       1.40706326E-14
  -13.2100000       1.19456769E-14
  -13.1999998       7.81722048E-15
  -13.1899996       1.99666990E-15
  -13.1800003      -4.93736606E-15
  -13.1700001      -1.21924896E-14
  -13.1599998      -1.88459308E-14
  -13.1499996      -2.39481930E-14
  -13.1400003      -2.66356778E-14
  -13.1300001      -2.62411942E-14
  -13.1199999      -2.23922816E-14
  -13.1099997      -1.50884469E-14
  -13.1000004      -4.74925614E-15
  -13.0900002       7.77464098E-15
  -13.0799999       2.12349686E-14
  -13.0699997       3.40699894E-14
  -13.0600004       4.45423321E-14
  -13.0500002       5.09271309E-14
  -13.0400000       5.17383615E-14
  -13.0299997       4.59709819E-14
  -13.0200005       3.33262843E-14
  -13.0100002       1.43812473E-14
  -13.0000000      -9.33765140E-15
  -12.9899998      -3.54086437E-14
  -12.9799995      -6.07134921E-14
  -12.9700003      -8.17752509E-14
  -12.9600000      -9.52030270E-14
  -12.9499998      -9.81882558E-14
  -12.9399996      -8.89799437E-14
  -12.9300003      -6.72601555E-14
  -12.9200001      -3.43499812E-14
  -12.9099998       6.80239285E-15
  -12.8999996       5.18679270E-14
  -12.8900003       9.55960503E-14
  -12.8800001       1.32432327E-13
  -12.8699999       1.57212906E-13
  -12.8599997       1.65841733E-13
  -12.8500004       1.55859836E-13
  -12.8400002       1.26832288E-13
  -12.8299999       8.05061990E-14
  -12.8199997       2.07232624E-14
  -12.8100004      -4.68991301E-14
  -12.8000002      -1.15481409E-13
  -12.7900000      -1.77538702E-13
  -12.7799997      -2.25722137E-13
  -12.7700005      -2.53585591E-13
  -12.7600002      -2.56318079E-13
  -12.7500000      -2.31382838E-13
  -12.7399998      -1.79000559E-13
  -12.7299995      -1.02414151E-13
  -12.7200003      -7.87249701E-15
  -12.7100000       9.57167085E-14
  -12.6999998       1.97489662E-13
  -12.6899996       2.85668434E-13
  -12.6800003       3.48872732E-13
  -12.6700001       3.77573786E-13
  -12.6599998       3.65510546E-13
  -12.6499996       3.10859574E-13
  -12.6400003       2.16946076E-13
  -12.6300001       9.23303182E-14
  -12.6199999      -4.98301622E-14
  -12.6099997      -1.93126304E-13
  -12.6000004      -3.19827715E-13
  -12.5900002      -4.13163996E-13
  -12.5799999      -4.59646102E-13
  -12.5699997      -4.51093535E-13
  -12.5600004      -3.86056909E-13
  -12.5500002      -2.70404088E-13
  -12.5400000      -1.16958499E-13
  -12.5299997       5.57895303E-14
  -12.5200005       2.25746681E-13
  -12.5100002       3.69804529E-13
  -12.5000000       4.66641266E-13
  -12.4899998       4.99420546E-13
  -12.4799995       4.58101168E-13
  -12.4700003       3.41138413E-13
  -12.4600000       1.56432837E-13
  -12.4499998      -7.85426818E-14
  -12.4399996      -3.37442585E-13
  -12.4300003      -5.86539877E-13
  -12.4200001      -7.86939795E-13
  -12.4099998      -8.97411160E-13
  -12.3999996      -8.77702479E-13
  -12.3900003      -6.92157811E-13
  -12.3800001      -3.13384030E-13
  -12.3699999       2.74332559E-13
  -12.3599997       1.07221209E-12
  -12.3500004       2.06512238E-12
  -12.3400002       3.22099682E-12
  -12.3299999       4.49173858E-12
  -12.3199997       5.81566696E-12
  -12.3100004       7.12135429E-12
  -12.3000002       8.33255513E-12
  -12.2900000       9.37373269E-12
  -12.2799997       1.01755783E-11
  -12.2700005       1.06799057E-11
  -12.2600002       1.08434641E-11
  -12.2500000       1.06402604E-11
  -12.2399998       1.00622514E-11
  -12.2299995       9.11846033E-12
  -12.2200003       7.83277783E-12
  -12.2100000       6.24086199E-12
  -12.1999998       4.38654365E-12
  -12.1899996       2.31817907E-12
  -12.1800003       8.52658534E-14
  -12.1700001      -2.26445620E-12
  -12.1599998      -4.68727140E-12
  -12.1499996      -7.14515816E-12
  -12.1400003      -9.60685264E-12
  -12.1300001      -1.20483337E-11
  -12.1199999      -1.44527333E-11
  -12.1099997      -1.68096492E-11
  -12.1000004      -1.91138425E-11
  -12.0900002      -2.13633122E-11
  -12.0799999      -2.35568006E-11
  -12.0699997      -2.56909737E-11
  -12.0600004      -2.77574960E-11
  -12.0500002      -2.97403734E-11
  -12.0400000      -3.16140447E-11
  -12.0299997      -3.33423671E-11
  -12.0200005      -3.48788914E-11
  -12.0100002      -3.61684294E-11
  -12.0000000      -3.71496445E-11
  -11.9899998      -3.77585983E-11
  -11.9799995      -3.79325703E-11
  -11.9700003      -3.76137732E-11
  -11.9600000      -3.67527293E-11
  -11.9499998      -3.53108168E-11
  -11.9399996      -3.32619175E-11
  -11.9300003      -3.05933057E-11
  -11.9200001      -2.73058329E-11
  -11.9099998      -2.34136929E-11
  -11.8999996      -1.89437511E-11
  -11.8900003      -1.39348021E-11
  -11.8800001      -8.43677038E-12
  -11.8699999      -2.50943190E-12
  -11.8599997       3.77911851E-12
  -11.8500004       1.03543979E-11
  -11.8400002       1.71379768E-11
  -11.8299999       2.40502410E-11
  -11.8199997       3.10133759E-11
  -11.8100004       3.79541711E-11
  -11.8000002       4.48061449E-11
  -11.7900000       5.15109969E-11
  -11.7799997       5.80192422E-11
  -11.7700005       6.42895390E-11
  -11.7600002       7.02874703E-11
  -11.7500000       7.59835320E-11
  -11.7399998       8.13511550E-11
  -11.7299995       8.63646654E-11
  -11.7200003       9.09977163E-11
  -11.7100000       9.52221843E-11
  -11.6999998       9.90075591E-11
  -11.6899996       1.02320742E-10
  -11.6800003       1.05125963E-10
  -11.6700001       1.07384678E-10
  -11.6599998       1.09055681E-10
  -11.6499996       1.10094774E-10
  -11.6400003       1.10454874E-10
  -11.6300001       1.10086211E-10
  -11.6199999       1.08936672E-10
  -11.6099997       1.06952946E-10
  -11.6000004       1.04082402E-10
  -11.5900002       1.00274754E-10
  -11.5799999       9.54845925E-11
  -11.5699997       8.96740043E-11
  -11.5600004       8.28141722E-11
  -11.5500002       7.48874504E-11
  -11.5400000       6.58877675E-11
  -11.5299997       5.58214829E-11
  -11.5200005       4.47068528E-11
  -11.5100002       3.25738950E-11
  -11.5000000       1.94634326E-11
  -11.4899998       5.42673372E-12
  -11.4799995      -9.47454355E-12
  -11.4700003      -2.51686935E-11
  -11.4600000      -4.15737826E-11
  -11.4499998      -5.85983553E-11
  -11.4399996      -7.61416694E-11
  -11.4300003      -9.40949471E-11
  -11.4200001      -1.12343128E-10
  -11.4099998      -1.30767813E-10
  -11.3999996      -1.49250542E-10
  -11.3900003      -1.67676636E-10
  -11.3800001      -1.85939042E-10
  -11.3699999      -2.03942377E-10
  -11.3599997      -2.21606095E-10
  -11.3500004      -2.38867787E-10
  -11.3400002      -2.55684390E-10
  -11.3299999      -2.72033174E-10
  -11.3199997      -2.87910890E-10
  -11.3100004      -3.03332165E-10
  -11.3000002      -3.18325893E-10
  -11.2900000      -3.32930850E-10
  -11.2799997      -3.47190027E-10
  -11.2700005      -3.61144337E-10
  -11.2600002      -3.74825587E-10
  -11.2500000      -3.88250626E-10
  -11.2399998      -4.01415096E-10
  -11.2299995      -4.14289131E-10
  -11.2200003      -4.26815167E-10
  -11.2100000      -4.38907383E-10
  -11.1999998      -4.50454340E-10
  -11.1899996      -4.61321897E-10
  -11.1800003      -4.71360673E-10
  -11.1700001      -4.80412043E-10
  -11.1599998      -4.88316221E-10
  -11.1499996      -4.94919716E-10
  -11.1400003      -5.00083808E-10
  -11.1300001      -5.03688147E-10
  -11.1199999      -5.05639641E-10
  -11.1099997      -5.05874564E-10
  -11.1000004      -5.04362885E-10
  -11.0900002      -5.01108266E-10
  -11.0799999      -4.96153896E-10
  -11.0699997      -4.89575325E-10
  -11.0600004      -4.81485296E-10
  -11.0500002      -4.72023642E-10
  -11.0400000      -4.61352206E-10
  -11.0299997      -4.49650983E-10
  -11.0200005      -4.37104242E-10
  -11.0100002      -4.23890728E-10
  -11.0000000      -4.10173867E-10
  -10.9899998      -3.96090855E-10
  -10.9799995      -3.81746107E-10
  -10.9700003      -3.67203712E-10
  -10.9600000      -3.52484597E-10
  -10.9499998      -3.37567474E-10
  -10.9399996      -3.22393084E-10
  -10.9300003      -3.06867837E-10
  -10.9200001      -2.90872548E-10
  -10.9099998      -2.74273187E-10
  -10.8999996      -2.56923538E-10
  -10.8900003      -2.38681602E-10
  -10.8800001      -2.19410309E-10
  -10.8699999      -1.98991393E-10
  -10.8599997      -1.77325626E-10
  -10.8500004      -1.54338806E-10
  -10.8400002      -1.29986133E-10
  -10.8299999      -1.04248193E-10
  -10.8199997      -7.71390174E-11
  -10.8100004      -4.86964115E-11
  -10.8000002      -1.89837781E-11
  -10.7900000       1.19103572E-11
  -10.7799997       4.38814714E-11
  -10.7700005       7.68097738E-11
  -10.7600002       1.10565078E-10
  -10.7500000       1.45016318E-10
  -10.7399998       1.80029394E-10
  -10.7299995       2.15474791E-10
  -10.7200003       2.51233090E-10
  -10.7100000       2.87198043E-10
  -10.6999998       3.23278571E-10
  -10.6899996       3.59402064E-10
  -10.6800003       3.95515454E-10
  -10.6700001       4.31583463E-10
  -10.6599998       4.67583194E-10
  -10.6499996       5.03512232E-10
  -10.6400003       5.39374767E-10
  -10.6300001       5.75186565E-10
  -10.6199999       6.10969331E-10
  -10.6099997       6.46746157E-10
  -10.6000004       6.82544576E-10
  -10.5900002       7.18395177E-10
  -10.5799999       7.54322493E-10
  -10.5699997       7.90358945E-10
  -10.5600004       8.26524016E-10
  -10.5500002       8.62839300E-10
  -10.5400000       8.99318231E-10
  -10.5299997       9.35963973E-10
  -10.5200005       9.72776637E-10
  -10.5100002       1.00974140E-09
  -10.5000000       1.04683961E-09
  -10.4899998       1.08403597E-09
  -10.4799995       1.12128840E-09
  -10.4700003       1.15853926E-09
  -10.4600000       1.19571575E-09
  -10.4499998       1.23272914E-09
  -10.4399996       1.26947008E-09
  -10.4300003       1.30580957E-09
  -10.4200001       1.34159306E-09
  -10.4099998       1.37664546E-09
  -10.3999996       1.41077183E-09
  -10.3900003       1.44376033E-09
  -10.3800001       1.47539136E-09
  -10.3699999       1.50544011E-09
  -10.3599997       1.53369029E-09
  -10.3500004       1.55994195E-09
  -10.3400002       1.58402158E-09
  -10.3299999       1.60578650E-09
  -10.3199997       1.62513525E-09
  -10.3100004       1.64200609E-09
  -10.3000002       1.65638092E-09
  -10.2900000       1.66828362E-09
  -10.2799997       1.67777225E-09
  -10.2700005       1.68493819E-09
  -10.2600002       1.68989700E-09
  -10.2500000       1.69278425E-09
  -10.2399998       1.69374936E-09
  -10.2299995       1.69295322E-09
  -10.2200003       1.69056447E-09
  -10.2100000       1.68676051E-09
  -10.1999998       1.68172543E-09
  -10.1899996       1.67565084E-09
  -10.1800003       1.66873504E-09
  -10.1700001       1.66118241E-09
  -10.1599998       1.65320191E-09
  -10.1499996       1.64500358E-09
  -10.1400003       1.63679637E-09
  -10.1300001       1.62878377E-09
  -10.1199999       1.62115832E-09
  -10.1099997       1.61409919E-09
  -10.1000004       1.60776614E-09
  -10.0900002       1.60229552E-09
  -10.0799999       1.59779545E-09
  -10.0699997       1.59434577E-09
  -10.0600004       1.59199343E-09
  -10.0500002       1.59075009E-09
  -10.0400000       1.59059554E-09
  -10.0299997       1.59147484E-09
  -10.0200005       1.59330482E-09
  -10.0100002       1.59597846E-09
  -10.0000000       1.59936908E-09
  -9.98999977       1.60333569E-09
  -9.97999954       1.60773461E-09
  -9.97000027       1.61242297E-09
  -9.96000004       1.61726943E-09
  -9.94999981       1.62215996E-09
  -9.93999958       1.62700631E-09
  -9.93000031       1.63174885E-09
  -9.92000008       1.63636793E-09
  -9.90999985       1.64088354E-09
  -9.89999962       1.64535363E-09
  -9.89000034       1.64988145E-09
  -9.88000011       1.65461445E-09
  -9.86999989       1.65973568E-09
  -9.85999966       1.66546166E-09
  -9.85000038       1.67204162E-09
  -9.84000015       1.67974668E-09
  -9.82999992       1.68886383E-09
  -9.81999969       1.69969294E-09
  -9.81000042       1.71254078E-09
  -9.80000019       1.72770775E-09
  -9.78999996       1.74549430E-09
  -9.77999973       1.76618231E-09
  -9.77000046       1.79003956E-09
  -9.76000023       1.81730508E-09
  -9.75000000       1.84818083E-09
  -9.73999977       1.88282612E-09
  -9.72999954       1.92135596E-09
  -9.72000027       1.96381311E-09
  -9.71000004       2.01018979E-09
  -9.69999981       2.06040851E-09
  -9.68999958       2.11432361E-09
  -9.68000031       2.17173013E-09
  -9.67000008       2.23236429E-09
  -9.65999985       2.29591079E-09
  -9.64999962       2.36201014E-09
  -9.64000034       2.43026088E-09
  -9.63000011       2.50022869E-09
  -9.61999989       2.57144661E-09
  -9.60999966       2.64342592E-09
  -9.60000038       2.71565792E-09
  -9.59000015       2.78761325E-09
  -9.57999992       2.85876434E-09
  -9.56999969       2.92857960E-09
  -9.56000042       2.99653125E-09
  -9.55000019       3.06211656E-09
  -9.53999996       3.12484971E-09
  -9.52999973       3.18428728E-09
  -9.52000046       3.24001070E-09
  -9.51000023       3.29166161E-09
  -9.50000000       3.33892491E-09
  -9.48999977       3.38153505E-09
  -9.47999954       3.41927819E-09
  -9.47000027       3.45200468E-09
  -9.46000004       3.47963125E-09
  -9.44999981       3.50212503E-09
  -9.43999958       3.51952356E-09
  -9.43000031       3.53193874E-09
  -9.42000008       3.53955154E-09
  -9.40999985       3.54261709E-09
  -9.39999962       3.54147356E-09
  -9.39000034       3.53653218E-09
  -9.38000011       3.52830032E-09
  -9.36999989       3.51736618E-09
  -9.35999966       3.50439344E-09
  -9.35000038       3.49012219E-09
  -9.34000015       3.47536466E-09
  -9.32999992       3.46098550E-09
  -9.31999969       3.44788798E-09
  -9.31000042       3.43702022E-09
  -9.30000019       3.42933859E-09
  -9.28999996       3.42581585E-09
  -9.27999973       3.42741724E-09
  -9.27000046       3.43509088E-09
  -9.26000023       3.44975604E-09
  -9.25000000       3.47228757E-09
  -9.23999977       3.50350726E-09
  -9.22999954       3.54416585E-09
  -9.22000027       3.59493635E-09
  -9.21000004       3.65640029E-09
  -9.19999981       3.72905307E-09
  -9.18999958       3.81327636E-09
  -9.18000031       3.90935195E-09
  -9.17000008       4.01744282E-09
  -9.15999985       4.13761958E-09
  -9.14999962       4.26982893E-09
  -9.14000034       4.41388970E-09
  -9.13000011       4.56949500E-09
  -9.11999989       4.73621720E-09
  -9.10999966       4.91350294E-09
  -9.10000038       5.10066744E-09
  -9.09000015       5.29690336E-09
  -9.07999992       5.50129009E-09
  -9.06999969       5.71280045E-09
  -9.06000042       5.93032068E-09
  -9.05000019       6.15265261E-09
  -9.03999996       6.37853592E-09
  -9.02999973       6.60664368E-09
  -9.02000046       6.83563739E-09
  -9.01000023       7.06413905E-09
  -9.00000000       7.29077954E-09
  -8.98999977       7.51418661E-09
  -8.97999954       7.73302400E-09
  -8.97000027       7.94599497E-09
  -8.96000004       8.15182855E-09
  -8.94999981       8.34930525E-09
  -8.93999958       8.53724824E-09
  -8.93000031       8.71453576E-09
  -8.92000008       8.88008334E-09
  -8.90999985       9.03284114E-09
  -8.89999962       9.17183751E-09
  -8.89000034       9.29617450E-09
  -8.88000011       9.40500477E-09
  -8.86999989       9.49761692E-09
  -8.85999966       9.57338475E-09
  -8.85000038       9.63179136E-09
  -8.84000015       9.67246283E-09
  -8.82999992       9.69515312E-09
  -8.81999969       9.69970948E-09
  -8.81000042       9.68611502E-09
  -8.80000019       9.65445857E-09
  -8.78999996       9.60494884E-09
  -8.77999973       9.53787627E-09
  -8.77000046       9.45362810E-09
  -8.76000023       9.35266264E-09
  -8.75000000       9.23553323E-09
  -8.73999977       9.10285447E-09
  -8.72999954       8.95531116E-09
  -8.72000027       8.79362272E-09
  -8.71000004       8.61857163E-09
  -8.69999981       8.43098835E-09
  -8.68999958       8.23170510E-09
  -8.68000031       8.02163047E-09
  -8.67000008       7.80166864E-09
  -8.65999985       7.57274332E-09
  -8.64999962       7.33579686E-09
  -8.64000034       7.09175918E-09
  -8.63000011       6.84152690E-09
  -8.61999989       6.58597044E-09
  -8.60999966       6.32593267E-09
  -8.60000038       6.06219697E-09
  -8.59000015       5.79551118E-09
  -8.57999992       5.52653523E-09
  -8.56999969       5.25591437E-09
  -8.56000042       4.98425878E-09
  -8.55000019       4.71210493E-09
  -8.53999996       4.43998571E-09
  -8.52999973       4.16837009E-09
  -8.52000046       3.89771326E-09
  -8.51000023       3.62840824E-09
  -8.50000000       3.36081185E-09
  -8.48999977       3.09525672E-09
  -8.47999954       2.83204327E-09
  -8.47000027       2.57146371E-09
  -8.46000004       2.31378339E-09
  -8.44999981       2.05923012E-09
  -8.43999958       1.80809312E-09
  -8.43000031       1.56059488E-09
  -8.42000008       1.31702371E-09
  -8.40999985       1.07767018E-09
  -8.39999962       8.42844017E-10
  -8.39000034       6.12890405E-10
  -8.38000011       3.88190480E-10
  -8.36999989       1.69162129E-10
  -8.35999966      -4.37382942E-11
  -8.35000038      -2.50008930E-10
  -8.34000015      -4.49132537E-10
  -8.32999992      -6.40563103E-10
  -8.31999969      -8.23740021E-10
  -8.31000042      -9.98093497E-10
  -8.30000019      -1.16304788E-09
  -8.28999996      -1.31801392E-09
  -8.27999973      -1.46239643E-09
  -8.27000046      -1.59559621E-09
  -8.26000023      -1.71701631E-09
  -8.25000000      -1.82605731E-09
  -8.23999977      -1.92212335E-09
  -8.22999954      -2.00463801E-09
  -8.22000027      -2.07300332E-09
  -8.21000004      -2.12667017E-09
  -8.19999981      -2.16507745E-09
  -8.18999958      -2.18767937E-09
  -8.18000031      -2.19392526E-09
  -8.17000008      -2.18326268E-09
  -8.15999985      -2.15516294E-09
  -8.14999962      -2.10907980E-09
  -8.14000034      -2.04450745E-09
  -8.13000011      -1.96094829E-09
  -8.11999989      -1.85795379E-09
  -8.10999966      -1.73514203E-09
  -8.10000038      -1.59221469E-09
  -8.09000015      -1.42895118E-09
  -8.07999992      -1.24522104E-09
  -8.06999969      -1.04097564E-09
  -8.06000042      -8.16256951E-10
  -8.05000019      -5.71199921E-10
  -8.03999996      -3.06026815E-10
  -8.02999973      -2.10413128E-11
  -8.02000046       2.83368107E-10
  -8.01000023       6.06694250E-10
  -8.00000000       9.48382706E-10
  -7.98999977       1.30775646E-09
  -7.98000002       1.68409087E-09
  -7.96999979       2.07659134E-09
  -7.96000004       2.48441201E-09
  -7.94999981       2.90667668E-09
  -7.94000006       3.34245165E-09
  -7.92999983       3.79081877E-09
  -7.92000008       4.25079438E-09
  -7.90999985       4.72138595E-09
  -7.90000010       5.20159649E-09
  -7.88999987       5.69041747E-09
  -7.88000011       6.18681328E-09
  -7.86999989       6.68976519E-09
  -7.86000013       7.19822957E-09
  -7.84999990       7.71121034E-09
  -7.84000015       8.22768609E-09
  -7.82999992       8.74667982E-09
  -7.82000017       9.26718791E-09
  -7.80999994       9.78823333E-09
  -7.80000019       1.03088347E-08
  -7.78999996       1.08280434E-08
  -7.78000021       1.13449028E-08
  -7.76999998       1.18585142E-08
  -7.76000023       1.23679760E-08
  -7.75000000       1.28724551E-08
  -7.73999977       1.33711273E-08
  -7.73000002       1.38632412E-08
  -7.71999979       1.43480632E-08
  -7.71000004       1.48248773E-08
  -7.69999981       1.52930131E-08
  -7.69000006       1.57518460E-08
  -7.67999983       1.62007812E-08
  -7.67000008       1.66392642E-08
  -7.65999985       1.70667871E-08
  -7.65000010       1.74829555E-08
  -7.63999987       1.78874036E-08
  -7.63000011       1.82798647E-08
  -7.61999989       1.86601632E-08
  -7.61000013       1.90281924E-08
  -7.59999990       1.93839345E-08
  -7.59000015       1.97274677E-08
  -7.57999992       2.00589731E-08
  -7.57000017       2.03786659E-08
  -7.55999994       2.06869082E-08
  -7.55000019       2.09841122E-08
  -7.53999996       2.12707558E-08
  -7.53000021       2.15473719E-08
  -7.51999998       2.18145555E-08
  -7.51000023       2.20729230E-08
  -7.50000000       2.23231424E-08
  -7.48999977       2.25658958E-08
  -7.48000002       2.28018759E-08
  -7.46999979       2.30318289E-08
  -7.46000004       2.32564492E-08
  -7.44999981       2.34764723E-08
  -7.44000006       2.36925946E-08