  -16.0000000       0.00000000    
  -15.9899998       0.00000000    
  -15.9799995       0.00000000    
  -15.9700003       0.00000000    
  -15.9600000       0.00000000    
  -15.9499998       0.00000000    
  -15.9399996       0.00000000    
  -15.9300003       0.00000000    
  -15.9200001       0.00000000    
  -15.9099998       0.00000000    
  -15.8999996       0.00000000    
  -15.8900003       0.00000000    
  -15.8800001       0.00000000    
  -15.8699999       2.66246708E-44
  -15.8599997       2.52233724E-44
  -15.8500004      -1.55474065E-41
  -15.8400002      -3.29193035E-40
  -15.8299999      -3.95207085E-39
  -15.8199997      -3.38406657E-38
  -15.8100004      -2.27916330E-37
  -15.8000002      -1.27317701E-36
  -15.7900000      -6.09221902E-36
  -15.7799997      -2.54934993E-35
  -15.7700005      -9.46159593E-35
  -15.7600002      -3.14501126E-34
  -15.7500000      -9.42633512E-34
  -15.7399998      -2.55892190E-33
  -15.7299995      -6.30635528E-33
  -15.7200003      -1.41097849E-32
  -15.7100000      -2.85740695E-32
  -15.6999998      -5.19667362E-32
  -15.6899996      -8.34395748E-32
  -15.6800003      -1.13774958E-31
  -15.6700001      -1.17945012E-31
  -15.6599998      -4.80612591E-32
  -15.6499996       1.67240508E-31
  -15.6400003       6.07402663E-31
  -15.6300001       1.31767425E-30
  -15.6199999       2.23328203E-30
  -15.6099997       3.07625141E-30
  -15.6000004       3.25535763E-30
  -15.5900002       1.83563336E-30
  -15.5799999      -2.31208887E-30
  -15.5699997      -1.00379965E-29
  -15.5600004      -2.09943682E-29
  -15.5500002      -3.23092834E-29
  -15.5400000      -3.72895547E-29
  -15.5299997      -2.52450747E-29
  -15.5200005       1.57818584E-29
  -15.5100002       9.15379878E-29
  -15.5000000       1.89114175E-28
  -15.4899998       2.63576826E-28
  -15.4799995       2.34234537E-28
  -15.4700003       6.62421573E-30
  -15.4600000      -4.65871668E-28
  -15.4499998      -1.08504149E-27
  -15.4399996      -1.51736865E-27
  -15.4300003      -1.19843677E-27
  -15.4200001       4.56321030E-28
  -15.4099998       3.57289818E-27
  -15.3999996       7.17480472E-27
  -15.3900003       8.74201326E-27
  -15.3800001       4.58757013E-27
  -15.3699999      -8.34179115E-27
  -15.3599997      -2.91729483E-26
  -15.3500004      -4.94374908E-26
  -15.3400002      -5.16654527E-26
  -15.3299999      -1.38274005E-26
  -15.3199997       7.77852290E-26
  -15.3100004       2.08766763E-25
  -15.3000002       3.18462778E-25
  -15.2900000       2.99362113E-25
  -15.2799997       3.19569340E-26
  -15.2700005      -5.36724147E-25
  -15.2600002      -1.28791058E-24
  -15.2500000      -1.85220123E-24
  -15.2399998      -1.63975724E-24
  -15.2299995      -5.82859925E-26
  -15.2200003       3.06720696E-24
  -15.2100000       6.99078989E-24
  -15.1999998       9.73843108E-24
  -15.1899996       8.38210939E-24
  -15.1800003       2.04840146E-25
  -15.1700001      -1.52844451E-23
  -15.1599998      -3.41376180E-23
  -15.1499996      -4.68718368E-23
  -15.1400003      -4.01233274E-23
  -15.1300001      -2.16641557E-24
  -15.1199999       6.82327827E-23
  -15.1099997       1.52725478E-22
  -15.1000004       2.09661369E-22
  -15.0900002       1.82167585E-22
  -15.0799999       2.18098078E-23
  -15.0699997      -2.75304731E-22
  -15.0600004      -6.33069989E-22
  -15.0500002      -8.82610397E-22
  -15.0400000      -7.96015331E-22
  -15.0299997      -1.79083580E-22
  -15.0200005       9.90954700E-22
  -15.0100002       2.43266912E-21
  -15.0000000       3.51303081E-21
  -14.9899998       3.36932979E-21
  -14.9799995       1.24189476E-21
  -14.9700003      -3.03367096E-21
  -14.9600000      -8.54772498E-21
  -14.9499998      -1.31238812E-20
  -14.9399996      -1.36937909E-20
  -14.9300003      -7.38140517E-21
  -14.9200001       6.85924902E-21
  -14.9099998       2.65924657E-20
  -14.8999996       4.50885844E-20
  -14.8900003       5.22442040E-20
  -14.8800001       3.77256559E-20
  -14.8699999      -4.03445550E-21
  -14.8599997      -6.84770872E-20
  -14.8500004      -1.37620145E-19
  -14.8400002      -1.81455354E-19
  -14.8299999      -1.65702436E-19
  -14.8199997      -6.53766075E-20
  -14.8100004       1.19290443E-19
  -14.8000002       3.50632401E-19
  -14.7900000       5.52006626E-19
  -14.7799997       6.22136187E-19
  -14.7700005       4.65904672E-19
  -14.7600002       3.56831111E-20
  -14.7500000      -6.28924807E-19
  -14.7399998      -1.37845575E-18
  -14.7299995      -1.96222482E-18
  -14.7200003      -2.07598139E-18
  -14.7100000      -1.44635932E-18
  -14.6999998       6.13525612E-20
  -14.6899996       2.33495365E-18
  -14.6800003       4.93602039E-18
  -14.6700001       7.08361329E-18
  -14.6599998       7.73598251E-18
  -14.6499996       5.80389705E-18
  -14.6400003       5.11475086E-19
  -14.6300001      -8.11740128E-18
  -14.6199999      -1.87431897E-17
  -14.6099997      -2.83596557E-17
  -14.6000004      -3.23963599E-17
  -14.5900002      -2.55863110E-17
  -14.5799999      -3.78706528E-18
  -14.5699997       3.33912895E-17
  -14.5600004       7.98218505E-17
  -14.5500002       1.21201905E-16
  -14.5400000       1.36106945E-16
  -14.5299997       1.01116722E-16
  -14.5200005       3.15242874E-19
  -14.5100002      -1.62542182E-16
  -14.5000000      -3.53300116E-16
  -14.4899998      -5.04156128E-16
  -14.4799995      -5.24118418E-16
  -14.4700003      -3.26581335E-16
  -14.4600000       1.28671041E-16
  -14.4499998       7.90159661E-16
  -14.4399996       1.48518185E-15
  -14.4300003       1.92853986E-15
  -14.4200001       1.78700426E-15
  -14.4099998       8.00613954E-16
  -14.3999996      -1.06306912E-15
  -14.3900003      -3.47351970E-15
  -14.3800001      -5.69024664E-15
  -14.3699999      -6.67098839E-15
  -14.3599997      -5.36564159E-15
  -14.3500004      -1.16077692E-15
  -14.3400002       5.64323927E-15
  -14.3299999       1.35119882E-14
  -14.3199997       1.97239719E-14
  -14.3100004       2.09380090E-14
  -14.3000002       1.42826679E-14
  -14.2900000      -1.24861317E-15
  -14.2799997      -2.35370720E-14
  -14.2700005      -4.67905743E-14
  -14.2600002      -6.22418851E-14
  -14.2500000      -6.03460695E-14
  -14.2399998      -3.42257486E-14
  -14.2299995       1.64904609E-14
  -14.2200003       8.27987174E-14
  -14.2100000       1.45939481E-13
  -14.1999998       1.80652395E-13
  -14.1899996       1.62220484E-13
  -14.1800003       7.60623051E-14
  -14.1700001      -7.28260700E-14
  -14.1599998      -2.54237522E-13
  -14.1499996      -4.14434410E-13
  -14.1400003      -4.87196112E-13
  -14.1300001      -4.13471015E-13
  -14.1199999      -1.65403390E-13
  -14.1099997       2.32542203E-13
  -14.1000004       6.94024211E-13
  -14.0900002       1.08019355E-12
  -14.0799999       1.23085385E-12
  -14.0699997       1.01340496E-12
  -14.0600004       3.77972041E-13
  -14.0500002      -5.98696440E-13
  -14.0400000      -1.69932102E-12
  -14.0299997      -2.59602387E-12
  -14.0200005      -2.92699263E-12
  -14.0100002      -2.40735513E-12
  -14.0000000      -9.46696606E-13
  -13.9899998       1.26448472E-12
  -13.9799995       3.73667894E-12
  -13.9700003       5.75635763E-12
  -13.9600000       6.55435038E-12
  -13.9499998       5.53706430E-12
  -13.9399996       2.52200539E-12
  -13.9300003      -2.09717465E-12
  -13.9200001      -7.32619260E-12
  -13.9099998      -1.17282269E-11
  -13.8999996      -1.37584657E-11
  -13.8900003      -1.22114541E-11
  -13.8800001      -6.66875799E-12
  -13.8699999       2.19174527E-12
  -13.8599997       1.25494797E-11
  -13.8500004       2.17288462E-11
  -13.8400002       2.68043678E-11
  -13.8299999       2.54070098E-11
  -13.8199997       1.65319026E-11
  -13.8100004       1.10813604E-12
  -13.8000002      -1.78835158E-11
  -13.7900000      -3.58641415E-11
  -13.7799997      -4.76550882E-11
  -13.7700005      -4.88296417E-11
  -13.7600002      -3.70900637E-11
  -13.7500000      -1.32795294E-11
  -13.7399998       1.83201319E-11
  -13.7299995       5.06055788E-11
  -13.7200003       7.51505941E-11
  -13.7100000       8.42998102E-11
  -13.6999998       7.33525046E-11
  -13.6899996       4.22410058E-11
  -13.6800003      -3.83628372E-12
  -13.6700001      -5.51386194E-11
  -13.6599998      -9.94288402E-11
  -13.6499996      -1.24927679E-10
  -13.6400003      -1.23451471E-10
  -13.6300001      -9.28783092E-11
  -13.6199999      -3.81850697E-11
  -13.6099997       2.93590811E-11
  -13.6000004       9.47662088E-11
  -13.5900002       1.43056123E-10
  -13.5799999       1.63135380E-10
  -13.5699997       1.50694887E-10
  -13.5600004       1.09215623E-10
  -13.5500002       4.87014595E-11
  -13.5400000      -1.75242650E-11
  -13.5299997      -7.69521599E-11
  -13.5200005      -1.21535990E-10
  -13.5100002      -1.49489185E-10
  -13.5000000      -1.64414066E-10
  -13.4899998      -1.71885464E-10
  -13.4799995      -1.74664491E-10
  -13.4700003      -1.68517880E-10
  -13.4600000      -1.40816678E-10
  -13.4499998      -7.34758365E-11
  -13.4399996       4.95904845E-11
  -13.4300003       2.32131731E-10
  -13.4200001       4.55687182E-10
  -13.4099998       6.74435563E-10
  -13.3999996       8.18618950E-10
  -13.3900003       8.08499045E-10
  -13.3800001       5.77595305E-10
  -13.3699999       1.00316512E-10
  -13.3599997      -5.83953830E-10
  -13.3500004      -1.35942924E-09
  -13.3400002      -2.04283923E-09
  -13.3299999      -2.41597942E-09
  -13.3199997      -2.27868036E-09
  -13.3100004      -1.51177060E-09
  -13.3000002      -1.33983852E-10
  -13.2900000       1.66556791E-09
  -13.2799997       3.53464547E-09
  -13.2700005       5.01236075E-09
  -13.2600002       5.62626790E-09
  -13.2500000       5.01444308E-09
  -13.2399998       3.04440073E-09
  -13.2299995      -1.04115598E-10
  -13.2200003      -3.92143829E-09
  -13.2100000      -7.63207719E-09
  -13.1999998      -1.03381428E-08
  -13.1899996      -1.12179261E-08
  -13.1800003      -9.73771996E-09
  -13.1700001      -5.82490634E-09
  -13.1599998       4.62519432E-11
  -13.1499996       6.88868962E-09
  -13.1400003       1.33626052E-08
  -13.1300001       1.80364026E-08
  -13.1199999       1.96961114E-08
  -13.1099997       1.76339636E-08
  -13.1000004       1.18468213E-08
  -13.0900002       3.09190162E-09
  -13.0799999      -7.22094917E-09
  -13.0699997      -1.72833587E-08
  -13.0600004      -2.52363250E-08
  -13.0500002      -2.95356166E-08
  -13.0400000      -2.92542044E-08
  -13.0299997      -2.42551721E-08
  -13.0200005      -1.52011363E-08
  -13.0100002      -3.40370310E-09
  -13.0000000       9.44371603E-09
  -12.9899998       2.15836664E-08
  -12.9799995       3.14877902E-08
  -12.9700003       3.80629714E-08
  -12.9600000       4.07351521E-08
  -12.9499998       3.94097412E-08
  -12.9399996       3.43403741E-08
  -12.9300003       2.59578261E-08
  -12.9200001       1.47186778E-08
  -12.9099998       1.02125508E-09
  -12.8999996      -1.47828247E-08
  -12.8900003      -3.22835092E-08
  -12.8800001      -5.08383593E-08
  -12.8699999      -6.93765827E-08
  -12.8599997      -8.62361986E-08
  -12.8500004      -9.90906273E-08
  -12.8400002      -1.05013399E-07
  -12.8299999      -1.00713983E-07
  -12.8199997      -8.29602200E-08
  -12.8100004      -4.91712697E-08
  -12.8000002       1.86611016E-09
  -12.7900000       6.92455018E-08
  -12.7799997       1.49274086E-07
  -12.7700005       2.35050905E-07
  -12.7600002       3.16444499E-07
  -12.7500000       3.80611311E-07
  -12.7399998       4.13129271E-07
  -12.7299995       3.99729487E-07
  -12.7200003       3.28488909E-07
  -12.7100000       1.92243689E-07
  -12.6999998      -9.12829190E-09
  -12.6899996      -2.66915038E-07
  -12.6800003      -5.62640480E-07
  -12.6700001      -8.68253323E-07
  -12.6599998      -1.14758677E-06
  -12.6499996      -1.35906566E-06
  -12.6400003      -1.45953049E-06
  -12.6300001      -1.40886607E-06
  -12.6199999      -1.17512900E-06
  -12.6099997      -7.39767017E-07
  -12.6000004      -1.02473237E-07
  -12.5900002       7.14714020E-07
  -12.5799999       1.66458813E-06
  -12.5699997       2.67376686E-06
  -12.5600004       3.64397920E-06
  -12.5500002       4.45623846E-06
  -12.5400000       4.97811834E-06
  -12.5299997       5.07434697E-06
  -12.5200005       4.62029493E-06
  -12.5100002       3.51764947E-06
  -12.5000000       1.71115528E-06
  -12.4899998      -7.95266487E-07
  -12.4799995      -3.92461288E-06
  -12.4700003      -7.51671496E-06
  -12.4600000      -1.13235128E-05
  -12.4499998      -1.50103351E-05
  -12.4399996      -1.81639589E-05
  -12.4300003      -2.03069649E-05
  -12.4200001      -2.09182581E-05
  -12.4099998      -1.94588065E-05
  -12.3999996      -1.54017434E-05
  -12.3900003      -8.26594987E-06
  -12.3800001       2.34877120E-06
  -12.3699999       1.67251765E-05
  -12.3599997       3.49943330E-05
  -12.3500004       5.71042438E-05
  -12.3400002       8.27962795E-05
  -12.3299999       1.11589092E-04
  -12.3199997       1.42775927E-04
  -12.3100004       1.75434849E-04
  -12.3000002       2.08451253E-04
  -12.2900000       2.40556881E-04
  -12.2799997       2.70377059E-04
  -12.2700005       2.96486745E-04
  -12.2600002       3.17471422E-04
  -12.2500000       3.31989431E-04
  -12.2399998       3.38827725E-04
  -12.2299995       3.36958561E-04
  -12.2200003       3.25580913E-04
  -12.2100000       3.04159796E-04
  -12.1999998       2.72450998E-04
  -12.1899996       2.30511359E-04
  -12.1800003       1.78697068E-04
  -12.1700001       1.17648466E-04
  -12.1599998       4.82530304E-05
  -12.1499996      -2.83977770E-05
  -12.1400003      -1.11071618E-04
  -12.1300001      -1.98456997E-04
  -12.1199999      -2.89226300E-04
  -12.1099997      -3.82088212E-04
  -12.1000004      -4.75828623E-04
  -12.0900002      -5.69325290E-04
  -12.0799999      -6.61549100E-04
  -12.0699997      -7.51540007E-04
  -12.0600004      -8.38376756E-04
  -12.0500002      -9.21138737E-04
  -12.0400000      -9.98872914E-04
  -12.0299997      -1.07056974E-03
  -12.0200005      -1.13515509E-03
  -12.0100002      -1.19149638E-03
  -12.0000000      -1.23842026E-03
  -11.9899998      -1.27473951E-03
  -11.9799995      -1.29928137E-03
  -11.9700003      -1.31091662E-03
  -11.9600000      -1.30858552E-03
  -11.9499998      -1.29132147E-03
  -11.9399996      -1.25827256E-03
  -11.9300003      -1.20872620E-03
  -11.9200001      -1.14213570E-03
  -11.9099998      -1.05814880E-03
  -11.8999996      -9.56640346E-04
  -11.8900003      -8.37734377E-04
  -11.8800001      -7.01826357E-04
  -11.8699999      -5.49583288E-04
  -11.8599997      -3.81939637E-04
  -11.8500004      -2.00074035E-04
  -11.8400002      -5.37289316E-06
  -11.8299999       2.00603958E-04
  -11.8199997       4.16168157E-04
  -11.8100004       6.39541307E-04
  -11.8000002       8.68881412E-04
  -11.7900000       1.10231445E-03
  -11.7799997       1.33795617E-03
  -11.7700005       1.57391618E-03
  -11.7600002       1.80832634E-03
  -11.7500000       2.03933474E-03
  -11.7399998       2.26511876E-03
  -11.7299995       2.48387945E-03
  -11.7200003       2.69383634E-03
  -11.7100000       2.89321598E-03
  -11.6999998       3.08023416E-03
  -11.6899996       3.25307995E-03
  -11.6800003       3.40990792E-03
  -11.6700001       3.54883494E-03
  -11.6599998       3.66795668E-03
  -11.6499996       3.76535859E-03
  -11.6400003       3.83916660E-03
  -11.6300001       3.88756464E-03
  -11.6199999       3.90884746E-03
  -11.6099997       3.90145532E-03
  -11.6000004       3.86399450E-03
  -11.5900002       3.79527081E-03
  -11.5799999       3.69430380E-03
  -11.5699997       3.56033701E-03
  -11.5600004       3.39286774E-03
  -11.5500002       3.19164037E-03
  -11.5400000       2.95668049E-03
  -11.5299997       2.68828473E-03
  -11.5200005       2.38701282E-03
  -11.5100002       2.05367990E-03
  -11.5000000       1.68931601E-03
  -11.4899998       1.29512290E-03
  -11.4799995       8.72430566E-04
  -11.4700003       4.22649988E-04
  -11.4600000      -5.27511875E-05
  -11.4499998      -5.52267826E-04
  -11.4399996      -1.07434718E-03
  -11.4300003      -1.61737122E-03
  -11.4200001      -2.17962754E-03
  -11.4099998      -2.75927037E-03
  -11.3999996      -3.35431588E-03
  -11.3900003      -3.96261830E-03
  -11.3800001      -4.58190078E-03
  -11.3699999      -5.20977704E-03
  -11.3599997      -5.84380375E-03
  -11.3500004      -6.48154598E-03
  -11.3400002      -7.12061161E-03
  -11.3299999      -7.75872730E-03
  -11.3199997      -8.39376543E-03
  -11.3100004      -9.02376976E-03
  -11.3000002      -9.64696519E-03
  -11.2900000      -1.02617443E-02
  -11.2799997      -1.08666504E-02
  -11.2700005      -1.14603369E-02
  -11.2600002      -1.20415147E-02
  -11.2500000      -1.26089249E-02
  -11.2399998      -1.31612886E-02
  -11.2299995      -1.36972815E-02
  -11.2200003      -1.42155271E-02
  -11.2100000      -1.47146154E-02
  -11.1999998      -1.51931206E-02
  -11.1899996      -1.56496707E-02
  -11.1800003      -1.60829835E-02
  -11.1700001      -1.64919309E-02
  -11.1599998      -1.68755706E-02
  -11.1499996      -1.72331538E-02
  -11.1400003      -1.75641440E-02
  -11.1300001      -1.78681631E-02
  -11.1199999      -1.81449708E-02
  -11.1099997      -1.83944330E-02
  -11.1000004      -1.86164882E-02
  -11.0900002      -1.88111551E-02
  -11.0799999      -1.89785361E-02
  -11.0699997      -1.91188641E-02
  -11.0600004      -1.92325357E-02
  -11.0500002      -1.93201397E-02
  -11.0400000      -1.93824768E-02
  -11.0299997      -1.94205325E-02
  -11.0200005      -1.94354281E-02
  -11.0100002      -1.94283463E-02
  -11.0000000      -1.94004364E-02
  -10.9899998      -1.93527304E-02
  -10.9799995      -1.92860831E-02
  -10.9700003      -1.92010887E-02
  -10.9600000      -1.90981198E-02
  -10.9499998      -1.89773161E-02
  -10.9399996      -1.88386273E-02
  -10.9300003      -1.86818801E-02
  -10.9200001      -1.85068455E-02
  -10.9099998      -1.83132477E-02
  -10.8999996      -1.81008466E-02
  -10.8900003      -1.78694446E-02
  -10.8800001      -1.76189076E-02
  -10.8699999      -1.73491761E-02
  -10.8599997      -1.70602761E-02
  -10.8500004      -1.67523045E-02
  -10.8400002      -1.64254177E-02
  -10.8299999      -1.60798188E-02
  -10.8199997      -1.57156810E-02
  -10.8100004      -1.53331244E-02
  -10.8000002      -1.49321351E-02
  -10.7900000      -1.45125361E-02
  -10.7799997      -1.40739474E-02
  -10.7700005      -1.36158215E-02
  -10.7600002      -1.31374663E-02
  -10.7500000      -1.26381190E-02
  -10.7399998      -1.21170674E-02
  -10.7299995      -1.15736984E-02
  -10.7200003      -1.10076070E-02
  -10.7100000      -1.04186004E-02
  -10.6999998      -9.80671495E-03
  -10.6899996      -9.17219650E-03
  -10.6800003      -8.51543248E-03
  -10.6700001      -7.83690996E-03
  -10.6599998      -7.13719474E-03
  -10.6499996      -6.41687727E-03
  -10.6400003      -5.67658246E-03
  -10.6300001      -4.91699763E-03
  -10.6199999      -4.13885247E-03
  -10.6099997      -3.34294490E-03
  -10.6000004      -2.53011915E-03
  -10.5900002      -1.70127850E-03
  -10.5799999      -8.57374107E-04
  -10.5699997       5.65862820E-07
  -10.5600004       8.71414144E-04
  -10.5500002       1.75388809E-03
  -10.5400000       2.64646136E-03
  -10.5299997       3.54733458E-03
  -10.5200005       4.45439247E-03
  -10.5100002       5.36521105E-03
  -10.5000000       6.27712114E-03
  -10.4899998       7.18727149E-03
  -10.4799995       8.09274614E-03
  -10.4700003       8.99064727E-03
  -10.4600000       9.87814367E-03
  -10.4499998       1.07525177E-02
  -10.4399996       1.16111282E-02
  -10.4300003       1.24514075E-02
  -10.4200001       1.32708224E-02
  -10.4099998       1.40668591E-02
  -10.3999996       1.48370499E-02
  -10.3900003       1.55790132E-02
  -10.3800001       1.62905231E-02
  -10.3699999       1.69695430E-02
  -10.3599997       1.76142808E-02
  -10.3500004       1.82231665E-02
  -10.3400002       1.87948328E-02
  -10.3299999       1.93280671E-02
  -10.3199997       1.98217556E-02
  -10.3100004       2.02748608E-02
  -10.3000002       2.06864253E-02
  -10.2900000       2.10556053E-02
  -10.2799997       2.13817228E-02
  -10.2700005       2.16643177E-02
  -10.2600002       2.19032094E-02
  -10.2500000       2.20985096E-02
  -10.2399998       2.22506691E-02
  -10.2299995       2.23604161E-02
  -10.2200003       2.24288050E-02
  -10.2100000       2.24571824E-02
  -10.1999998       2.24471875E-02
  -10.1899996       2.24007666E-02
  -10.1800003       2.23201253E-02
  -10.1700001       2.22076867E-02
  -10.1599998       2.20660064E-02
  -10.1499996       2.18976494E-02
  -10.1400003       2.17051115E-02
  -10.1300001       2.14907248E-02
  -10.1199999       2.12566499E-02
  -10.1099997       2.10049208E-02
  -10.1000004       2.07375139E-02
  -10.0900002       2.04565264E-02
  -10.0799999       2.01642402E-02
  -10.0699997       1.98632050E-02
  -10.0600004       1.95562169E-02
  -10.0500002       1.92462206E-02
  -10.0400000       1.89361889E-02
  -10.0299997       1.86289288E-02
  -10.0200005       1.83269829E-02
  -10.0100002       1.80325229E-02
  -10.0000000       1.77473798E-02
  -9.98999977       1.74730904E-02
  -9.97999954       1.72110312E-02
  -9.97000027       1.69624519E-02
  -9.96000004       1.67286117E-02
  -9.94999981       1.65107455E-02
  -9.93999958       1.63100548E-02
  -9.93000031       1.61276292E-02
  -9.92000008       1.59643833E-02
  -9.90999985       1.58210211E-02
  -9.89999962       1.56980045E-02
  -9.89000034       1.55955805E-02
  -9.88000011       1.55138010E-02
  -9.86999989       1.54525414E-02
  -9.85999966       1.54115353E-02
  -9.85000038       1.53903700E-02
  -9.84000015       1.53884823E-02
  -9.82999992       1.54051837E-02
  -9.81999969       1.54397022E-02
  -9.81000042       1.54912807E-02
  -9.80000019       1.55592607E-02
  -9.78999996       1.56431906E-02
  -9.77999973       1.57428831E-02
  -9.77000046       1.58584658E-02
  -9.76000023       1.59903113E-02
  -9.75000000       1.61389951E-02
  -9.73999977       1.63051803E-02
  -9.72999954       1.64895523E-02
  -9.72000027       1.66927893E-02
  -9.71000004       1.69155467E-02
  -9.69999981       1.71584915E-02
  -9.68999958       1.74223706E-02
  -9.68000031       1.77079663E-02
  -9.67000008       1.80160925E-02
  -9.65999985       1.83474701E-02
  -9.64999962       1.87026188E-02
  -9.64000034       1.90816689E-02
  -9.63000011       1.94842461E-02
  -9.61999989       1.99093651E-02
  -9.60999966       2.03553978E-02
  -9.60000038       2.08200347E-02
  -9.59000015       2.13003270E-02
  -9.57999992       2.17926782E-02
  -9.56999969       2.22928654E-02
  -9.56000042       2.27959733E-02
  -9.55000019       2.32964326E-02
  -9.53999996       2.37879772E-02
  -9.52999973       2.42637303E-02
  -9.52000046       2.47162655E-02
  -9.51000023       2.51377784E-02
  -9.50000000       2.55202949E-02
  -9.48999977       2.58558504E-02
  -9.47999954       2.61366777E-02
  -9.47000027       2.63554566E-02
  -9.46000004       2.65054535E-02
  -9.44999981       2.65807174E-02
  -9.43999958       2.65763272E-02
  -9.43000031       2.64885928E-02
  -9.42000008       2.63153147E-02
  -9.40999985       2.60559730E-02
  -9.39999962       2.57119630E-02
  -9.39000034       2.52866484E-02
  -9.38000011       2.47853510E-02
  -9.36999989       2.42153406E-02
  -9.35999966       2.35855710E-02
  -9.35000038       2.29065306E-02
  -9.34000015       2.21900027E-02
  -9.32999992       2.14488339E-02
  -9.31999969       2.06967611E-02
  -9.31000042       1.99481994E-02
  -9.30000019       1.92181356E-02
  -9.28999996       1.85219105E-02
  -9.27999973       1.78751107E-02
  -9.27000046       1.72932800E-02
  -9.26000023       1.67918727E-02
  -9.25000000       1.63858961E-02
  -9.23999977       1.60898399E-02
  -9.22999954       1.59173515E-02
  -9.22000027       1.58810485E-02
  -9.21000004       1.59922577E-02
  -9.19999981       1.62607729E-02
  -9.18999958       1.66946389E-02
  -9.18000031       1.73000116E-02
  -9.17000008       1.80810336E-02
  -9.15999985       1.90398414E-02
  -9.14999962       2.01766361E-02
  -9.14000034       2.14897804E-02
  -9.13000011       2.29759309E-02
  -9.11999989       2.46301144E-02
  -9.10999966       2.64458023E-02
  -9.10000038       2.84149311E-02
  -9.09000015       3.05278264E-02
  -9.07999992       3.27733643E-02
  -9.06999969       3.51389088E-02
  -9.06000042       3.76105383E-02
  -9.05000019       4.01732102E-02
  -9.03999996       4.28110249E-02
  -9.02999973       4.55073044E-02
  -9.02000046       4.82449271E-02
  -9.01000023       5.10062799E-02
  -9.00000000       5.37733287E-02
  -8.98999977       5.65276965E-02
  -8.97999954       5.92506677E-02
  -8.97000027       6.19233698E-02
  -8.96000004       6.45269454E-02
  -8.94999981       6.70429170E-02
  -8.93999958       6.94532096E-02
  -8.93000031       7.17406794E-02
  -8.92000008       7.38890320E-02
  -8.90999985       7.58829415E-02
  -8.89999962       7.77080804E-02
  -8.89000034       7.93510452E-02
  -8.88000011       8.07994008E-02
  -8.86999989       8.20417404E-02
  -8.85999966       8.30679759E-02
  -8.85000038       8.38692337E-02
  -8.84000015       8.44382346E-02
  -8.82999992       8.47692266E-02
  -8.81999969       8.48579332E-02
  -8.81000042       8.47014263E-02
  -8.80000019       8.42978805E-02
  -8.78999996       8.36464390E-02
  -8.77999973       8.27470720E-02
  -8.77000046       8.16006586E-02
  -8.76000023       8.02091211E-02
  -8.75000000       7.85755143E-02
  -8.73999977       7.67040551E-02
  -8.72999954       7.46002570E-02
  -8.72000027       7.22709447E-02
  -8.71000004       6.97236359E-02
  -8.69999981       6.69667348E-02
  -8.68999958       6.40091673E-02
  -8.68000031       6.08601458E-02
  -8.67000008       5.75297326E-02
  -8.65999985       5.40283956E-02
  -8.64999962       5.03676645E-02
  -8.64000034       4.65597995E-02
  -8.63000011       4.26180586E-02
  -8.61999989       3.85562666E-02
  -8.60999966       3.43885534E-02
  -8.60000038       3.01290695E-02
  -8.59000015       2.57914681E-02
  -8.57999992       2.13889778E-02
  -8.56999969       1.69340726E-02
  -8.56000042       1.24388048E-02
  -8.55000019       7.91475549E-03
  -8.53999996       3.37314163E-03
  -8.52999973      -1.17520429E-03
  -8.52000046      -5.72016556E-03
  -8.51000023      -1.02524087E-02
  -8.50000000      -1.47636589E-02
  -8.48999977      -1.92470662E-02
  -8.47999954      -2.36970522E-02
  -8.47000027      -2.81092972E-02
  -8.46000004      -3.24805789E-02
  -8.44999981      -3.68083566E-02
  -8.43999958      -4.10907231E-02
  -8.43000031      -4.53260466E-02
  -8.42000008      -4.95130755E-02
  -8.40999985      -5.36507778E-02
  -8.39999962      -5.77383339E-02
  -8.39000034      -6.17749840E-02
  -8.38000011      -6.57599419E-02
  -8.36999989      -6.96919933E-02
  -8.35999966      -7.35692829E-02
  -8.35000038      -7.73890987E-02
  -8.34000015      -8.11476782E-02
  -8.32999992      -8.48403350E-02
  -8.31999969      -8.84614959E-02
  -8.31000042      -9.20050889E-02
  -8.30000019      -9.54646245E-02
  -8.28999996      -9.88335088E-02
  -8.27999973     -0.102104984    
  -8.27000046     -0.105272233    
  -8.26000023     -0.108328253    
  -8.25000000     -0.111265719    
  -8.23999977     -0.114077121    
  -8.22999954     -0.116754703    
  -8.22000027     -0.119290546    
  -8.21000004     -0.121676788    
  -8.19999981     -0.123905689    
  -8.18999958     -0.125969663    
  -8.18000031     -0.127861187    
  -8.17000008     -0.129572853    
  -8.15999985     -0.131097049    
  -8.14999962     -0.132426053    
  -8.14000034     -0.133552030    
  -8.13000011     -0.134467006    
  -8.11999989     -0.135163277    
  -8.10999966     -0.135633439    
  -8.10000038     -0.135870621    
  -8.09000015     -0.135868579    
  -8.07999992     -0.135621682    
  -8.06999969     -0.135124937    
  -8.06000042     -0.134373844    
  -8.05000019     -0.133364260    
  -8.03999996     -0.132092714    
  -8.02999973     -0.130556166    
  -8.02000046     -0.128752366    
  -8.01000023     -0.126680106    
  -8.00000000     -0.124339364    
  -7.98999977     -0.121731378    
  -7.98000002     -0.118858814    
  -7.96999979     -0.115725718    
  -7.96000004     -0.112337478    
  -7.94999981     -0.108700782    
  -7.94000006     -0.104823455    
  -7.92999983     -0.100714803    
  -7.92000008      -9.63853896E-02
  -7.90999985      -9.18473899E-02
  -7.90000010      -8.71144086E-02
  -7.88999987      -8.22016373E-02
  -7.88000011      -7.71254003E-02
  -7.86999989      -7.19031543E-02
  -7.86000013      -6.65528476E-02
  -7.84999990      -6.10926822E-02
  -7.84000015      -5.55407107E-02
  -7.82999992      -4.99146990E-02
  -7.82000017      -4.42318730E-02
  -7.80999994      -3.85091081E-02
  -7.80000019      -3.27626951E-02
  -7.78999996      -2.70086322E-02
  -7.78000021      -2.12624576E-02
  -7.76999998      -1.55389784E-02
  -7.76000023      -9.85235814E-03
  -7.75000000      -4.21575131E-03
  -7.73999977       1.35881652E-03
  -7.73000002       6.86035119E-03
  -7.71999979       1.22788819E-02
  -7.71000004       1.76053736E-02
  -7.69999981       2.28312947E-02
  -7.69000006       2.79486552E-02
  -7.67999983       3.29499766E-02
  -7.67000008       3.78282256E-02
  -7.65999985       4.25772071E-02
  -7.65000010       4.71915491E-02
  -7.63999987       5.16671054E-02
  -7.63000011       5.60006946E-02
  -7.61999989       6.01903796E-02
  -7.61000013       6.42351061E-02
  -7.59999990       6.81343228E-02
  -7.59000015       7.18881264E-02
  -7.57999992       7.54969418E-02
  -7.57000017       7.89615661E-02
  -7.55999994       8.22837353E-02
  -7.55000019       8.54658782E-02
  -7.53999996       8.85116383E-02
  -7.53000021       9.14259627E-02
  -7.51999998       9.42147672E-02
  -7.51000023       9.68849584E-02
  -7.50000000       9.94441137E-02
  -7.48999977      0.101900257    
  -7.48000002      0.104261614    
  -7.46999979      0.106536783    
  -7.46000004      0.108734697    
  -7.44999981      0.110864595    
  -7.44000006      0.112936661    