  -16.0000000       0.00000000    
  -15.9899998       0.00000000    
  -15.9799995       0.00000000    
  -15.9700003       0.00000000    
  -15.9600000       0.00000000    
  -15.9499998       0.00000000    
  -15.9399996       0.00000000    
  -15.9300003       0.00000000    
  -15.9200001       0.00000000    
  -15.9099998       0.00000000    
  -15.8999996       0.00000000    
  -15.8900003       0.00000000    
  -15.8800001       0.00000000    
  -15.8699999      -0.00000000    
  -15.8599997      -8.40779079E-45
  -15.8500004      -2.94272678E-44
  -15.8400002       2.83062290E-43
  -15.8299999       4.68313947E-42
  -15.8199997       3.63020380E-41
  -15.8100004       1.97871751E-40
  -15.8000002       8.42794146E-40
  -15.7900000       2.93134683E-39
  -15.7799997       8.47517082E-39
  -15.7700005       2.03256871E-38
  -15.7600002       3.91862634E-38
  -15.7500000       5.40651664E-38
  -15.7399998       2.24673854E-38
  -15.7299995      -1.58229623E-37
  -15.7200003      -6.75699528E-37
  -15.7100000      -1.80235538E-36
  -15.6999998      -3.85516839E-36
  -15.6899996      -7.10687282E-36
  -15.6800003      -1.15190978E-35
  -15.6700001      -1.56561656E-35
  -15.6599998      -1.31111543E-35
  -15.6499996       1.58343336E-35
  -15.6400003       1.16438260E-34
  -15.6300001       3.61954869E-34
  -15.6199999       8.06890271E-34
  -15.6099997       1.32579701E-33
  -15.6000004       1.29482126E-33
  -15.5900002      -7.68877355E-34
  -15.5799999      -7.13013143E-33
  -15.5699997      -1.93667675E-32
  -15.5600004      -3.44516412E-32
  -15.5500002      -3.85570669E-32
  -15.5400000      -2.32709311E-33
  -15.5299997       1.12957190E-31
  -15.5200005       3.24658045E-31
  -15.5100002       5.65301487E-31
  -15.5000000       6.04014748E-31
  -15.4899998       2.09509974E-32
  -15.4799995      -1.64107099E-30
  -15.4700003      -4.41831726E-30
  -15.4600000      -7.16712335E-30
  -15.4499998      -6.85684249E-30
  -15.4399996       1.22818001E-30
  -15.4300003       2.11665434E-29
  -15.4200001       5.11446826E-29
  -15.4099998       7.62892508E-29
  -15.3999996       6.40507063E-29
  -15.3900003      -2.95561545E-29
  -15.3800001      -2.33564554E-28
  -15.3699999      -5.12920981E-28
  -15.3599997      -7.12143893E-28
  -15.3500004      -5.34743453E-28
  -15.3400002       3.75440157E-28
  -15.3299999       2.19232053E-27
  -15.3199997       4.51578033E-27
  -15.3100004       5.98578719E-27
  -15.3000002       4.24320076E-27
  -15.2900000      -3.30863787E-27
  -15.2799997      -1.76243313E-26
  -15.2700005      -3.52592321E-26
  -15.2600002      -4.59665459E-26
  -15.2500000      -3.29822467E-26
  -15.2399998       2.12157777E-26
  -15.2299995       1.22134182E-25
  -15.2200003       2.45698913E-25
  -15.2100000       3.24125690E-25
  -15.1999998       2.49452363E-25
  -15.1899996      -8.95394290E-26
  -15.1800003      -7.29831775E-25
  -15.1700001      -1.53112823E-24
  -15.1599998      -2.09531751E-24
  -15.1499996      -1.78719810E-24
  -15.1400003       6.01254066E-26
  -15.1300001       3.72044828E-24
  -15.1199999       8.51269427E-24
  -15.1099997       1.23523327E-23
  -15.1000004       1.18169549E-23
  -15.0900002       3.14621316E-24
  -15.0799999      -1.56420200E-23
  -15.0699997      -4.18977469E-23
  -15.0600004      -6.59192430E-23
  -15.0500002      -7.08561302E-23
  -15.0400000      -3.69516111E-23
  -15.0299997       4.88760546E-23
  -15.0200005       1.79555597E-22
  -15.0100002       3.15440131E-22
  -15.0000000       3.81176933E-22
  -14.9899998       2.81040520E-22
  -14.9799995      -6.18409016E-23
  -14.9700003      -6.46657582E-22
  -14.9600000      -1.33525863E-21
  -14.9499998      -1.82481940E-21
  -14.9399996      -1.69206529E-21
  -14.9300003      -5.36737931E-22
  -14.9200001       1.78309727E-21
  -14.9099998       4.88677990E-21
  -14.8999996       7.70016455E-21
  -14.8900003       8.53436327E-21
  -14.8800001       5.54344054E-21
  -14.8699999      -2.42290087E-21
  -14.8599997      -1.47516402E-20
  -14.8500004      -2.81928388E-20
  -14.8400002      -3.67533278E-20
  -14.8299999      -3.29054936E-20
  -14.8199997      -1.03394103E-20
  -14.8100004       3.21444163E-20
  -14.8000002       8.68175813E-20
  -14.7900000       1.35197269E-19
  -14.7799997       1.50301160E-19
  -14.7700005       1.04332808E-19
  -14.7600002      -1.86726556E-20
  -14.7500000      -2.08345535E-19
  -14.7399998      -4.17366308E-19
  -14.7299995      -5.61887557E-19
  -14.7200003      -5.38978479E-19
  -14.7100000      -2.62505225E-19
  -14.6999998       2.88805587E-19
  -14.6899996       1.02623242E-18
  -14.6800003       1.73060226E-18
  -14.6700001       2.07854668E-18
  -14.6599998       1.72809373E-18
  -14.6499996       4.56532457E-19
  -14.6400003      -1.68285315E-18
  -14.6300001      -4.24319790E-18
  -14.6199999      -6.37503466E-18
  -14.6099997      -6.98224396E-18
  -14.6000004      -5.05625854E-18
  -14.5900002      -1.33122338E-19
  -14.5799999       7.25861493E-18
  -14.5699997       1.53473982E-17
  -14.5600004       2.12568659E-17
  -14.5500002       2.16500381E-17
  -14.5400000       1.38429792E-17
  -14.5299997      -2.85267855E-18
  -14.5200005      -2.59919405E-17
  -14.5100002      -4.95961944E-17
  -14.5000000      -6.49518959E-17
  -14.4899998      -6.27881172E-17
  -14.4799995      -3.65502261E-17
  -14.4700003       1.40449726E-17
  -14.4600000       8.04090494E-17
  -14.4499998       1.44779570E-16
  -14.4399996       1.83194155E-16
  -14.4300003       1.71854673E-16
  -14.4200001       9.57775424E-17
  -14.4099998      -4.26089700E-17
  -14.3999996      -2.18054736E-16
  -14.3900003      -3.83316052E-16
  -14.3800001      -4.78049090E-16
  -14.3699999      -4.45306026E-16
  -14.3599997      -2.52313751E-16
  -14.3500004       9.03550030E-17
  -14.3400002       5.18387869E-16
  -14.3299999       9.18418237E-16
  -14.3199997       1.15075937E-15
  -14.3100004       1.08781043E-15
  -14.3000002       6.59716746E-16
  -14.2900000      -1.05981556E-16
  -14.2799997      -1.06560376E-15
  -14.2700005      -1.97338560E-15
  -14.2600002      -2.53243412E-15
  -14.2500000      -2.47549254E-15
  -14.2399998      -1.65684261E-15
  -14.2299995      -1.28432906E-16
  -14.2200003       1.82796740E-15
  -14.2100000       3.73310374E-15
  -14.1999998       5.01147424E-15
  -14.1899996       5.14477521E-15
  -14.1800003       3.84069853E-15
  -14.1700001       1.16772449E-15
  -14.1599998      -2.39263006E-15
  -14.1499996      -6.00813006E-15
  -14.1400003      -8.67499296E-15
  -14.1300001      -9.48018841E-15
  -14.1199999      -7.88157466E-15
  -14.1099997      -3.92406351E-15
  -14.1000004       1.68342240E-15
  -14.0900002       7.67424725E-15
  -14.0799999       1.25080093E-14
  -14.0699997       1.47712195E-14
  -14.0600004       1.35899110E-14
  -14.0500002       8.93221400E-15
  -14.0400000       1.69780152E-15
  -14.0299997      -6.45528129E-15
  -14.0200005      -1.35203636E-14
  -14.0100002      -1.76862292E-14
  -14.0000000      -1.78611483E-14
  -13.9899998      -1.40137197E-14
  -13.9799995      -7.21035272E-15
  -13.9700003       6.84601568E-16
  -13.9600000       7.57387554E-15
  -13.9499998       1.17913314E-14
  -13.9399996       1.26506717E-14
  -13.9300003       1.06824314E-14
  -13.9200001       7.44904999E-15
  -13.9099998       4.96200583E-15
  -13.8999996       4.86683490E-15
  -13.8900003       7.66507219E-15
  -13.8800001       1.22665406E-14
  -13.8699999       1.60920607E-14
  -13.8599997       1.57870035E-14
  -13.8500004       8.40181891E-15
  -13.8400002      -7.29137565E-15
  -13.8299999      -2.97819427E-14
  -13.8199997      -5.45158164E-14
  -13.8100004      -7.45516658E-14
  -13.8000002      -8.21574389E-14
  -13.7900000      -7.10212867E-14
  -13.7799997      -3.85024146E-14
  -13.7700005       1.27584228E-14
  -13.7600002       7.44608029E-14
  -13.7500000       1.33809047E-13
  -13.7399998       1.76118113E-13
  -13.7299995       1.88326934E-13
  -13.7200003       1.62558050E-13
  -13.7100000       9.87520680E-14
  -13.6999998       5.56531605E-15
  -13.6899996      -1.00870464E-13
  -13.6800003      -2.00165934E-13
  -13.6700001      -2.72146699E-13
  -13.6599998      -3.01463580E-13
  -13.6499996      -2.81125844E-13
  -13.6400003      -2.13988508E-13
  -13.6300001      -1.11775464E-13
  -13.6199999       8.08543940E-15
  -13.6099997       1.26886674E-13
  -13.6000004       2.29000277E-13
  -13.5900002       3.04844908E-13
  -13.5799999       3.51553205E-13
  -13.5699997       3.71170840E-13
  -13.5600004       3.67078384E-13
  -13.5500002       3.40014610E-13
  -13.5400000       2.85376676E-13
  -13.5299997       1.93221443E-13
  -13.5200005       5.16108423E-14
  -13.5100002      -1.47182017E-13
  -13.5000000      -3.99234031E-13
  -13.4899998      -6.82744280E-13
  -13.4799995      -9.55608422E-13
  -13.4700003      -1.15875668E-12
  -13.4600000      -1.22583768E-12
  -13.4499998      -1.09804234E-12
  -13.4399996      -7.41118050E-13
  -13.4300003      -1.60419719E-13
  -13.4200001       5.90364996E-13
  -13.4099998       1.41022708E-12
  -13.3999996       2.16302302E-12
  -13.3900003       2.69964411E-12
  -13.3800001       2.88636498E-12
  -13.3699999       2.63364872E-12
  -13.3599997       1.91904543E-12
  -13.3500004       7.98664737E-13
  -13.3400002      -5.96025833E-13
  -13.3299999      -2.07615652E-12
  -13.3199997      -3.42495758E-12
  -13.3100004      -4.43295227E-12
  -13.3000002      -4.93182752E-12
  -13.2900000      -4.82037847E-12
  -13.2799997      -4.07803652E-12
  -13.2700005      -2.76454272E-12
  -13.2600002      -1.00758399E-12
  -13.2500000       1.01721637E-12
  -13.2399998       3.10852342E-12
  -13.2299995       5.05887216E-12
  -13.2200003       6.66880917E-12
  -13.2100000       7.75571361E-12
  -13.1999998       8.15999959E-12
  -13.1899996       7.75285565E-12
  -13.1800003       6.44943344E-12
  -13.1700001       4.22903509E-12
  -13.1599998       1.16035621E-12
  -13.1499996      -2.57413296E-12
  -13.1400003      -6.66339380E-12
  -13.1300001      -1.06720440E-11
  -13.1199999      -1.40707767E-11
  -13.1099997      -1.62952481E-11
  -13.1000004      -1.68287068E-11
  -13.0900002      -1.52967292E-11
  -13.0799999      -1.15569047E-11
  -13.0699997      -5.76420639E-12
  -13.0600004       1.60495694E-12
  -13.0500002       9.78067974E-12
  -13.0400000       1.77804646E-11
  -13.0299997       2.45336425E-11
  -13.0200005       2.90304846E-11
  -13.0100002       3.04715350E-11
  -13.0000000       2.83921584E-11
  -12.9899998       2.27415673E-11
  -12.9799995       1.39045902E-11
  -12.9700003       2.66482778E-12
  -12.9600000      -9.88188264E-12
  -12.9499998      -2.24472767E-11
  -12.9399996      -3.36850339E-11
  -12.9300003      -4.23219827E-11
  -12.9200001      -4.72741707E-11
  -12.9099998      -4.77420950E-11
  -12.8999996      -4.32850492E-11
  -12.8900003      -3.38775154E-11
  -12.8800001      -1.99487406E-11
  -12.8699999      -2.40294265E-12
  -12.8599997       1.73888924E-11
  -12.8500004       3.76388330E-11
  -12.8400002       5.62473158E-11
  -12.8299999       7.09726930E-11
  -12.8199997       7.96631719E-11
  -12.8100004       8.05336631E-11
  -12.8000002       7.24550350E-11
  -12.7900000       5.52107769E-11
  -12.7799997       2.96714181E-11
  -12.7700005      -2.15774057E-12
  -12.7600002      -3.72437671E-11
  -12.7500000      -7.17939597E-11
  -12.7399998      -1.01661207E-10
  -12.7299995      -1.22838781E-10
  -12.7200003      -1.31979511E-10
  -12.7100000      -1.26864505E-10
  -12.6999998      -1.06755334E-10
  -12.6899996      -7.25791302E-11
  -12.6800003      -2.69220028E-11
  -12.6700001       2.61667962E-11
  -12.6599998       8.15333287E-11
  -12.6499996       1.33396169E-10
  -12.6400003       1.75890316E-10
  -12.6300001       2.03627268E-10
  -12.6199999       2.12227652E-10
  -12.6099997       1.98790887E-10
  -12.6000004       1.62273903E-10
  -12.5900002       1.03755553E-10
  -12.5799999       2.65617684E-11
  -12.5699997      -6.37733893E-11
  -12.5600004      -1.59736738E-10
  -12.5500002      -2.52273175E-10
  -12.5400000      -3.31434047E-10
  -12.5299997      -3.87216259E-10
  -12.5200005      -4.10541379E-10
  -12.5100002      -3.94292987E-10
  -12.5000000      -3.34303529E-10
  -12.4899998      -2.30175573E-10
  -12.4799995      -8.58206006E-11
  -12.4700003       9.03739583E-11
  -12.4600000       2.85797358E-10
  -12.4499998       4.84291829E-10
  -12.4399996       6.67195743E-10
  -12.4300003       8.14663892E-10
  -12.4200001       9.07137199E-10
  -12.4099998       9.26826116E-10
  -12.3999996       8.59076310E-10
  -12.3900003       6.93516800E-10
  -12.3800001       4.24903640E-10
  -12.3699999       5.36362552E-11
  -12.3599997      -4.14083073E-10
  -12.3500004      -9.66420943E-10
  -12.3400002      -1.58638946E-09
  -12.3299999      -2.25260499E-09
  -12.3199997      -2.94026847E-09
  -12.3100004      -3.62232311E-09
  -12.3000002      -4.27076063E-09
  -12.2900000      -4.85795049E-09
  -12.2799997      -5.35796163E-09
  -12.2700005      -5.74774450E-09
  -12.2600002      -6.00812200E-09
  -12.2500000      -6.12443429E-09
  -12.2399998      -6.08685680E-09
  -12.2299995      -5.89030646E-09
  -12.2200003      -5.53401991E-09
  -12.2100000      -5.02082198E-09
  -12.1999998      -4.35621361E-09
  -12.1899996      -3.54742280E-09
  -12.1800003      -2.60251110E-09
  -12.1700001      -1.52971225E-09
  -12.1599998      -3.36980249E-10
  -12.1499996       9.68090830E-10
  -12.1400003       2.37812636E-09
  -12.1300001       3.88556076E-09
  -12.1199999       5.48208323E-09
  -12.1099997       7.15802217E-09
  -12.1000004       8.90171226E-09
  -12.0900002       1.06989280E-08
  -12.0799999       1.25324480E-08
  -12.0699997       1.43817376E-08
  -12.0600004       1.62227227E-08
  -12.0500002       1.80277624E-08
  -12.0400000       1.97657339E-08
  -12.0299997       2.14023288E-08
  -12.0200005       2.29004975E-08
  -12.0100002       2.42211211E-08
  -12.0000000       2.53239438E-08
  -11.9899998       2.61686441E-08
  -11.9799995       2.67160551E-08
  -11.9700003       2.69295590E-08
  -11.9600000       2.67763216E-08
  -11.9499998       2.62286299E-08
  -11.9399996       2.52648906E-08
  -11.9300003       2.38705145E-08
  -11.9200001       2.20384955E-08
  -11.9099998       1.97698267E-08
  -11.8999996       1.70735230E-08
  -11.8900003       1.39667522E-08
  -11.8800001       1.04744915E-08
  -11.8699999       6.62912347E-09
  -11.8599997       2.46987586E-09
  -11.8500004      -1.95796135E-09
  -11.8400002      -6.60409993E-09
  -11.8299999      -1.14145298E-08
  -11.8199997      -1.63330842E-08
  -11.8100004      -2.13030784E-08
  -11.8000002      -2.62690509E-08
  -11.7900000      -3.11784767E-08
  -11.7799997      -3.59832448E-08
  -11.7700005      -4.06406322E-08
  -11.7600002      -4.51139961E-08
  -11.7500000      -4.93729075E-08
  -11.7399998      -5.33926503E-08
  -11.7299995      -5.71532901E-08
  -11.7200003      -6.06384560E-08
  -11.7100000      -6.38338591E-08
  -11.6999998      -6.67255406E-08
  -11.6899996      -6.92984088E-08
  -11.6800003      -7.15347355E-08
  -11.6700001      -7.34128847E-08
  -11.6599998      -7.49064100E-08
  -11.6499996      -7.59834222E-08
  -11.6400003      -7.66063195E-08
  -11.6300001      -7.67320643E-08
  -11.6199999      -7.63127090E-08
  -11.6099997      -7.52968177E-08
  -11.6000004      -7.36307797E-08
  -11.5900002      -7.12610984E-08
  -11.5799999      -6.81370338E-08
  -11.5699997      -6.42131113E-08
  -11.5600004      -5.94523755E-08
  -11.5500002      -5.38287424E-08
  -11.5400000      -4.73298734E-08
  -11.5299997      -3.99588309E-08
  -11.5200005      -3.17356061E-08
  -11.5100002      -2.26977246E-08
  -11.5000000      -1.28997408E-08
  -11.4899998      -2.41223908E-09
  -11.4799995       8.67999361E-09
  -11.4700003       2.02803534E-08
  -11.4600000       3.22835767E-08
  -11.4499998       4.45786554E-08
  -11.4399996       5.70526382E-08
  -11.4300003       6.95940372E-08
  -11.4200001       8.20958803E-08
  -11.4099998       9.44592102E-08
  -11.3999996       1.06595564E-07
  -11.3900003       1.18429398E-07
  -11.3800001       1.29899433E-07
  -11.3699999       1.40959727E-07
  -11.3599997       1.51579755E-07
  -11.3500004       1.61743799E-07
  -11.3400002       1.71449216E-07
  -11.3299999       1.80704575E-07
  -11.3199997       1.89526588E-07
  -11.3100004       1.97936913E-07
  -11.3000002       2.05958401E-07
  -11.2900000       2.13611600E-07
  -11.2799997       2.20911176E-07
  -11.2700005       2.27862586E-07
  -11.2600002       2.34459847E-07
  -11.2500000       2.40682937E-07
  -11.2399998       2.46497621E-07
  -11.2299995       2.51854573E-07
  -11.2200003       2.56691521E-07
  -11.2100000       2.60934229E-07
  -11.1999998       2.64499818E-07
  -11.1899996       2.67300805E-07
  -11.1800003       2.69249284E-07
  -11.1700001       2.70261069E-07
  -11.1599998       2.70260557E-07
  -11.1499996       2.69184540E-07
  -11.1400003       2.66985694E-07
  -11.1300001       2.63635599E-07
  -11.1199999       2.59125045E-07
  -11.1099997       2.53466453E-07
  -11.1000004       2.46693048E-07
  -11.0900002       2.38857439E-07
  -11.0799999       2.30030537E-07
  -11.0699997       2.20299441E-07
  -11.0600004       2.09763542E-07
  -11.0500002       1.98531723E-07
  -11.0400000       1.86719149E-07
  -11.0299997       1.74442960E-07
  -11.0200005       1.61816914E-07
  -11.0100002       1.48947635E-07
  -11.0000000       1.35930478E-07
  -10.9899998       1.22846274E-07
  -10.9799995       1.09757529E-07
  -10.9700003       9.67069909E-08
  -10.9600000       8.37176231E-08
  -10.9499998       7.07907617E-08
  -10.9399996       5.79092045E-08
  -10.9300003       4.50407711E-08
  -10.9200001       3.21370095E-08
  -10.9099998       1.91393035E-08
  -10.8999996       5.98294259E-09
  -10.8900003      -7.40022843E-09
  -10.8800001      -2.10788258E-08
  -10.8699999      -3.51182976E-08
  -10.8599997      -4.95792385E-08
  -10.8500004      -6.45140545E-08
  -10.8400002      -7.99640603E-08
  -10.8299999      -9.59613402E-08
  -10.8199997      -1.12525505E-07
  -10.8100004      -1.29662240E-07
  -10.8000002      -1.47365213E-07
  -10.7900000      -1.65615177E-07
  -10.7799997      -1.84380653E-07
  -10.7700005      -2.03619095E-07
  -10.7600002      -2.23278988E-07
  -10.7500000      -2.43300633E-07
  -10.7399998      -2.63619228E-07
  -10.7299995      -2.84169403E-07
  -10.7200003      -3.04884963E-07
  -10.7100000      -3.25704463E-07
  -10.6999998      -3.46573330E-07
  -10.6899996      -3.67446916E-07
  -10.6800003      -3.88291880E-07
  -10.6700001      -4.09085914E-07
  -10.6599998      -4.29822990E-07
  -10.6499996      -4.50508537E-07
  -10.6400003      -4.71161883E-07
  -10.6300001      -4.91814205E-07
  -10.6199999      -5.12506517E-07
  -10.6099997      -5.33288301E-07
  -10.6000004      -5.54213898E-07
  -10.5900002      -5.75341744E-07
  -10.5799999      -5.96728114E-07
  -10.5699997      -6.18428942E-07
  -10.5600004      -6.40493681E-07
  -10.5500002      -6.62962691E-07
  -10.5400000      -6.85869111E-07
  -10.5299997      -7.09232665E-07
  -10.5200005      -7.33063075E-07
  -10.5100002      -7.57357896E-07
  -10.5000000      -7.82103427E-07
  -10.4899998      -8.07275455E-07
  -10.4799995      -8.32839817E-07
  -10.4700003      -8.58752742E-07
  -10.4600000      -8.84961594E-07
  -10.4499998      -9.11402992E-07
  -10.4399996      -9.38004803E-07
  -10.4300003      -9.64683636E-07
  -10.4200001      -9.91345473E-07
  -10.4099998      -1.01788441E-06
  -10.3999996      -1.04418450E-06
  -10.3900003      -1.07012204E-06
  -10.3800001      -1.09556584E-06
  -10.3699999      -1.12038038E-06
  -10.3599997      -1.14443162E-06
  -10.3500004      -1.16758872E-06
  -10.3400002      -1.18972957E-06
  -10.3299999      -1.21074447E-06
  -10.3199997      -1.23054110E-06
  -10.3100004      -1.24904591E-06
  -10.3000002      -1.26620841E-06
  -10.2900000      -1.28200031E-06
  -10.2799997      -1.29641785E-06
  -10.2700005      -1.30948013E-06
  -10.2600002      -1.32122705E-06
  -10.2500000      -1.33171943E-06
  -10.2399998      -1.34103493E-06
  -10.2299995      -1.34926768E-06
  -10.2200003      -1.35652601E-06
  -10.2100000      -1.36293284E-06
  -10.1999998      -1.36862002E-06
  -10.1899996      -1.37373263E-06
  -10.1800003      -1.37842471E-06
  -10.1700001      -1.38285668E-06
  -10.1599998      -1.38719474E-06
  -10.1499996      -1.39160215E-06
  -10.1400003      -1.39624626E-06
  -10.1300001      -1.40127986E-06
  -10.1199999      -1.40684881E-06
  -10.1099997      -1.41307987E-06
  -10.1000004      -1.42008219E-06
  -10.0900002      -1.42794613E-06
  -10.0799999      -1.43673924E-06
  -10.0699997      -1.44650858E-06
  -10.0600004      -1.45727938E-06
  -10.0500002      -1.46906063E-06
  -10.0400000      -1.48183915E-06
  -10.0299997      -1.49559253E-06
  -10.0200005      -1.51028098E-06
  -10.0100002      -1.52585312E-06
  -10.0000000      -1.54225199E-06
  -9.98999977      -1.55940575E-06
  -9.97999954      -1.57723821E-06
  -9.97000027      -1.59566673E-06
  -9.96000004      -1.61460480E-06
  -9.94999981      -1.63396601E-06
  -9.93999958      -1.65366362E-06
  -9.93000031      -1.67362271E-06
  -9.92000008      -1.69377131E-06
  -9.90999985      -1.71406282E-06
  -9.89999962      -1.73446449E-06
  -9.89000034      -1.75497485E-06
  -9.88000011      -1.77560878E-06
  -9.86999989      -1.79642461E-06
  -9.85999966      -1.81750056E-06
  -9.85000038      -1.83894690E-06
  -9.84000015      -1.86089335E-06
  -9.82999992      -1.88349918E-06
  -9.81999969      -1.90693993E-06
  -9.81000042      -1.93139977E-06
  -9.80000019      -1.95707185E-06
  -9.78999996      -1.98415773E-06
  -9.77999973      -2.01285729E-06
  -9.77000046      -2.04336311E-06
  -9.76000023      -2.07586004E-06
  -9.75000000      -2.11052156E-06
  -9.73999977      -2.14749753E-06
  -9.72999954      -2.18692003E-06
  -9.72000027      -2.22889457E-06
  -9.71000004      -2.27349574E-06
  -9.69999981      -2.32077537E-06
  -9.68999958      -2.37075119E-06
  -9.68000031      -2.42340639E-06
  -9.67000008      -2.47869639E-06
  -9.65999985      -2.53654071E-06
  -9.64999962      -2.59682133E-06
  -9.64000034      -2.65938365E-06
  -9.63000011      -2.72403258E-06
  -9.61999989      -2.79052165E-06
  -9.60999966      -2.85857072E-06
  -9.60000038      -2.92784853E-06
  -9.59000015      -2.99798694E-06
  -9.57999992      -3.06857646E-06
  -9.56999969      -3.13919440E-06
  -9.56000042      -3.20938557E-06
  -9.55000019      -3.27868520E-06
  -9.53999996      -3.34662377E-06
  -9.52999973      -3.41274927E-06
  -9.52000046      -3.47661239E-06
  -9.51000023      -3.53779319E-06
  -9.50000000      -3.59589967E-06
  -9.48999977      -3.65057599E-06
  -9.47999954      -3.70148996E-06
  -9.47000027      -3.74837259E-06
  -9.46000004      -3.79099060E-06
  -9.44999981      -3.82916187E-06
  -9.43999958      -3.86275906E-06
  -9.43000031      -3.89171873E-06
  -9.42000008      -3.91604499E-06
  -9.40999985      -3.93580467E-06
  -9.39999962      -3.95115421E-06
  -9.39000034      -3.96232099E-06
  -9.38000011      -3.96962287E-06
  -9.36999989      -3.97345093E-06
  -9.35999966      -3.97428312E-06
  -9.35000038      -3.97267831E-06
  -9.34000015      -3.96926316E-06
  -9.32999992      -3.96471660E-06
  -9.31999969      -3.95977531E-06
  -9.31000042      -3.95522375E-06
  -9.30000019      -3.95187544E-06
  -9.28999996      -3.95056441E-06
  -9.27999973      -3.95213556E-06
  -9.27000046      -3.95745974E-06
  -9.26000023      -3.96739051E-06
  -9.25000000      -3.98276279E-06
  -9.23999977      -4.00440285E-06
  -9.22999954      -4.03310150E-06
  -9.22000027      -4.06960362E-06
  -9.21000004      -4.11460678E-06
  -9.19999981      -4.16875037E-06
  -9.18999958      -4.23261963E-06
  -9.18000031      -4.30670843E-06
  -9.17000008      -4.39144969E-06
  -9.15999985      -4.48719447E-06
  -9.14999962      -4.59419743E-06
  -9.14000034      -4.71264048E-06
  -9.13000011      -4.84259635E-06
  -9.11999989      -4.98405461E-06
  -9.10999966      -5.13688701E-06
  -9.10000038      -5.30086390E-06
  -9.09000015      -5.47565196E-06
  -9.07999992      -5.66081189E-06
  -9.06999969      -5.85577709E-06
  -9.06000042      -6.05989362E-06
  -9.05000019      -6.27238660E-06
  -9.03999996      -6.49240019E-06
  -9.02999973      -6.71896669E-06
  -9.02000046      -6.95104609E-06
  -9.01000023      -7.18751198E-06
  -9.00000000      -7.42716293E-06
  -8.98999977      -7.66875200E-06
  -8.97999954      -7.91095954E-06
  -8.97000027      -8.15245494E-06
  -8.96000004      -8.39183576E-06
  -8.94999981      -8.62772413E-06
  -8.93999958      -8.85872851E-06
  -8.93000031      -9.08346192E-06
  -8.92000008      -9.30057377E-06
  -8.90999985      -9.50876074E-06
  -8.89999962      -9.70677411E-06
  -8.89000034      -9.89342516E-06
  -8.88000011      -1.00676134E-05
  -8.86999989      -1.02283166E-05
  -8.85999966      -1.03746061E-05
  -8.85000038      -1.05056552E-05
  -8.84000015      -1.06207481E-05
  -8.82999992      -1.07192855E-05
  -8.81999969      -1.08007862E-05
  -8.81000042      -1.08648710E-05
  -8.80000019      -1.09113143E-05
  -8.78999996      -1.09399534E-05
  -8.77999973      -1.09508037E-05
  -8.77000046      -1.09439670E-05
  -8.76000023      -1.09196644E-05
  -8.75000000      -1.08782142E-05
  -8.73999977      -1.08200538E-05
  -8.72999954      -1.07456908E-05
  -8.72000027      -1.06557582E-05
  -8.71000004      -1.05509598E-05
  -8.69999981      -1.04320507E-05
  -8.68999958      -1.02998647E-05
  -8.68000031      -1.01552723E-05
  -8.67000008      -9.99920485E-06
  -8.65999985      -9.83260361E-06
  -8.64999962      -9.65644813E-06
  -8.64000034      -9.47173430E-06
  -8.63000011      -9.27944257E-06
  -8.61999989      -9.08059428E-06
  -8.60999966      -8.87620899E-06
  -8.60000038      -8.66724713E-06
  -8.59000015      -8.45470458E-06
  -8.57999992      -8.23951723E-06
  -8.56999969      -8.02263912E-06
  -8.56000042      -7.80497430E-06
  -8.55000019      -7.58740362E-06
  -8.53999996      -7.37074652E-06
  -8.52999973      -7.15578426E-06
  -8.52000046      -6.94326900E-06
  -8.51000023      -6.73390969E-06
  -8.50000000      -6.52827521E-06
  -8.48999977      -6.32694582E-06
  -8.47999954      -6.13041539E-06
  -8.47000027      -5.93911591E-06
  -8.46000004      -5.75338527E-06
  -8.44999981      -5.57353724E-06
  -8.43999958      -5.39982511E-06
  -8.43000031      -5.23239169E-06
  -8.42000008      -5.07138520E-06
  -8.40999985      -4.91689980E-06
  -8.39999962      -4.76895593E-06
  -8.39000034      -4.62757816E-06
  -8.38000011      -4.49275694E-06
  -8.36999989      -4.36447090E-06
  -8.35999966      -4.24266636E-06
  -8.35000038      -4.12735835E-06
  -8.34000015      -4.01849684E-06
  -8.32999992      -3.91612912E-06
  -8.31999969      -3.82029702E-06
  -8.31000042      -3.73106559E-06
  -8.30000019      -3.64854736E-06
  -8.28999996      -3.57288695E-06
  -8.27999973      -3.50431333E-06
  -8.27000046      -3.44302202E-06
  -8.26000023      -3.38929476E-06
  -8.25000000      -3.34344304E-06
  -8.23999977      -3.30582679E-06
  -8.22999954      -3.27683733E-06
  -8.22000027      -3.25689780E-06
  -8.21000004      -3.24647885E-06
  -8.19999981      -3.24605026E-06
  -8.18999958      -3.25609517E-06
  -8.18000031      -3.27713815E-06
  -8.17000008      -3.30970670E-06
  -8.15999985      -3.35432105E-06
  -8.14999962      -3.41150621E-06
  -8.14000034      -3.48179196E-06
  -8.13000011      -3.56568080E-06
  -8.11999989      -3.66366521E-06
  -8.10999966      -3.77623746E-06
  -8.10000038      -3.90384639E-06
  -8.09000015      -4.04688444E-06
  -8.07999992      -4.20573633E-06
  -8.06999969      -4.38068582E-06
  -8.06000042      -4.57203851E-06
  -8.05000019      -4.77996082E-06
  -8.03999996      -5.00460055E-06
  -8.02999973      -5.24605139E-06
  -8.02000046      -5.50431560E-06
  -8.01000023      -5.77931996E-06
  -8.00000000      -6.07093943E-06
  -7.98999977      -6.37895846E-06
  -7.98000002      -6.70307918E-06
  -7.96999979      -7.04290869E-06
  -7.96000004      -7.39801817E-06
  -7.94999981      -7.76783781E-06
  -7.94000006      -8.15179556E-06
  -7.92999983      -8.54918562E-06
  -7.92000008      -8.95927951E-06
  -7.90999985      -9.38130779E-06
  -7.90000010      -9.81438552E-06
  -7.88999987      -1.02576087E-05
  -7.88000011      -1.07100414E-05
  -7.86999989      -1.11706986E-05
  -7.86000013      -1.16385454E-05
  -7.84999990      -1.21125204E-05
  -7.84000015      -1.25915531E-05
  -7.82999992      -1.30746030E-05
  -7.82000017      -1.35605433E-05
  -7.80999994      -1.40483044E-05
  -7.80000019      -1.45368058E-05
  -7.78999996      -1.50249944E-05
  -7.78000021      -1.55118614E-05
  -7.76999998      -1.59963620E-05
  -7.76000023      -1.64775483E-05
  -7.75000000      -1.69545110E-05
  -7.73999977      -1.74263714E-05
  -7.73000002      -1.78922983E-05
  -7.71999979      -1.83515367E-05
  -7.71000004      -1.88034101E-05
  -7.69999981      -1.92472689E-05
  -7.69000006      -1.96825386E-05
  -7.67999983      -2.01086768E-05
  -7.67000008      -2.05252218E-05
  -7.65999985      -2.09318350E-05
  -7.65000010      -2.13282055E-05
  -7.63999987      -2.17140969E-05
  -7.63000011      -2.20894144E-05
  -7.61999989      -2.24541091E-05
  -7.61000013      -2.28081535E-05
  -7.59999990      -2.31516842E-05
  -7.59000015      -2.34849231E-05
  -7.57999992      -2.38080593E-05
  -7.57000017      -2.41214275E-05
  -7.55999994      -2.44254043E-05
  -7.55000019      -2.47204534E-05
  -7.53999996      -2.50071207E-05
  -7.53000021      -2.52859809E-05
  -7.51999998      -2.55577252E-05
  -7.51000023      -2.58230339E-05
  -7.50000000      -2.60826146E-05
  -7.48999977      -2.63372986E-05
  -7.48000002      -2.65879298E-05
  -7.46999979      -2.68352869E-05
  -7.46000004      -2.70802557E-05
  -7.44999981      -2.73236710E-05
  -7.44000006      -2.75663824E-05