  -16.0000000       0.00000000    
  -15.9899998       0.00000000    
  -15.9799995       0.00000000    
  -15.9700003       0.00000000    
  -15.9600000       0.00000000    
  -15.9499998       0.00000000    
  -15.9399996       0.00000000    
  -15.9300003       0.00000000    
  -15.9200001       0.00000000    
  -15.9099998       0.00000000    
  -15.8999996       0.00000000    
  -15.8900003       0.00000000    
  -15.8800001       0.00000000    
  -15.8699999       0.00000000    
  -15.8599997       0.00000000    
  -15.8500004       0.00000000    
  -15.8400002      -0.00000000    
  -15.8299999      -0.00000000    
  -15.8199997      -0.00000000    
  -15.8100004      -7.00649232E-45
  -15.8000002      -4.34402524E-44
  -15.7900000      -2.45227231E-43
  -15.7799997      -1.20371538E-42
  -15.7700005      -5.22544197E-42
  -15.7600002      -2.02711836E-41
  -15.7500000      -7.10192075E-41
  -15.7399998      -2.26469450E-40
  -15.7299995      -6.61320389E-40
  -15.7200003      -1.77639383E-39
  -15.7100000      -4.40249862E-39
  -15.6999998      -1.00821687E-38
  -15.6899996      -2.13324612E-38
  -15.6800003      -4.16082452E-38
  -15.6700001      -7.44150693E-38
  -15.6599998      -1.20771794E-37
  -15.6499996      -1.74278111E-37
  -15.6400003      -2.13868728E-37
  -15.6300001      -1.96432247E-37
  -15.6199999      -5.49188935E-38
  -15.6099997       2.88673941E-37
  -15.6000004       8.84782451E-37
  -15.5900002       1.68729536E-36
  -15.5799999       2.46632081E-36
  -15.5699997       2.74380374E-36
  -15.5600004       1.82463409E-36
  -15.5500002      -9.91876092E-37
  -15.5400000      -5.97361778E-36
  -15.5299997      -1.23576082E-35
  -15.5200005      -1.78398903E-35
  -15.5100002      -1.85786796E-35
  -15.5000000      -1.01751793E-35
  -15.4899998       1.01595156E-35
  -15.4799995       4.06693552E-35
  -15.4700003       7.26249568E-35
  -15.4600000       9.03329526E-35
  -15.4499998       7.53339202E-35
  -15.4399996       1.50108950E-35
  -15.4300003      -8.69448886E-35
  -15.4200001      -2.03657863E-34
  -15.4099998      -2.88196845E-34
  -15.3999996      -2.90107712E-34
  -15.3900003      -1.81314390E-34
  -15.3800001       2.17705787E-35
  -15.3699999       2.57835181E-34
  -15.3599997       4.53338901E-34
  -15.3500004       5.79084792E-34
  -15.3400002       6.93736358E-34
  -15.3299999       9.20319047E-34
  -15.3199997       1.31838037E-33
  -15.3100004       1.67760162E-33
  -15.3000002       1.35330027E-33
  -15.2900000      -6.60899796E-34
  -15.2799997      -5.24697736E-33
  -15.2700005      -1.22562331E-32
  -15.2600002      -1.94821320E-32
  -15.2500000      -2.21358796E-32
  -15.2399998      -1.35885134E-32
  -15.2299995       1.20962902E-32
  -15.2200003       5.59956138E-32
  -15.2100000       1.09645117E-31
  -15.1999998       1.51847092E-31
  -15.1899996       1.49409799E-31
  -15.1800003       6.40435712E-32
  -15.1700001      -1.33199908E-31
  -15.1599998      -4.40025245E-31
  -15.1499996      -7.96172950E-31
  -15.1400003      -1.05931404E-30
  -15.1300001      -9.98889114E-31
  -15.1199999      -3.32735313E-31
  -15.1099997       1.16412102E-30
  -15.1000004       3.46218219E-30
  -15.0900002       6.02021664E-30
  -15.0799999       7.57736448E-30
  -15.0699997       6.19837043E-30
  -15.0600004      -1.77104093E-31
  -15.0500002      -1.25215863E-29
  -15.0400000      -2.89939936E-29
  -15.0299997      -4.33739315E-29
  -15.0200005      -4.48893615E-29
  -15.0100002      -2.08959953E-29
  -15.0000000       3.67215227E-29
  -14.9899998       1.22293783E-28
  -14.9799995       2.07826691E-28
  -14.9700003       2.41403570E-28
  -14.9600000       1.59518169E-28
  -14.9499998      -8.29129332E-29
  -14.9399996      -4.69485146E-28
  -14.9300003      -8.82964827E-28
  -14.9200001      -1.09744862E-27
  -14.9099998      -8.31645632E-28
  -14.8999996       1.22596768E-28
  -14.8900003       1.71857662E-27
  -14.8800001       3.49133543E-27
  -14.8699999       4.52578630E-27
  -14.8599997       3.67216485E-27
  -14.8500004       5.84374090E-29
  -14.8400002      -6.19383384E-27
  -14.8299999      -1.33309974E-26
  -14.8199997      -1.78371281E-26
  -14.8100004      -1.52412811E-26
  -14.8000002      -2.03662912E-27
  -14.7900000       2.16403929E-26
  -14.7799997       4.95950103E-26
  -14.7700005       6.89724632E-26
  -14.7600002       6.30051680E-26
  -14.7500000       1.77558199E-26
  -14.7399998      -6.83073055E-26
  -14.7299995      -1.75366257E-25
  -14.7200003      -2.59221690E-25
  -14.7100000      -2.59505902E-25
  -14.6999998      -1.21679958E-25
  -14.6899996       1.70471473E-25
  -14.6800003       5.62636256E-25
  -14.6700001       9.15053111E-25
  -14.6599998       1.02275826E-24
  -14.6499996       6.81051821E-25
  -14.6400003      -2.11149567E-25
  -14.6300001      -1.54065669E-24
  -14.6199999      -2.91316472E-24
  -14.6099997      -3.68740132E-24
  -14.6000004      -3.14840974E-24
  -14.5900002      -8.10429546E-25
  -14.5799999       3.22780623E-24
  -14.5699997       8.01743793E-24
  -14.5600004       1.17549576E-23
  -14.5500002       1.21729757E-23
  -14.5400000       7.34199944E-24
  -14.5299997      -3.28382817E-24
  -14.5200005      -1.79357877E-23
  -14.5100002      -3.21897722E-23
  -14.5000000      -3.96448106E-23
  -14.4899998      -3.37898692E-23
  -14.4799995      -1.07765602E-23
  -14.4700003       2.77079915E-23
  -14.4600000       7.26671024E-23
  -14.4499998       1.08355725E-22
  -14.4399996       1.15930683E-22
  -14.4300003       7.99408291E-23
  -14.4200001      -3.89053616E-24
  -14.4099998      -1.22297018E-22
  -14.3999996      -2.42692212E-22
  -14.3900003      -3.18497226E-22
  -14.3800001      -3.02134964E-22
  -14.3699999      -1.63359146E-22
  -14.3599997       9.23957816E-23
  -14.3500004       4.12862030E-22
  -14.3400002       7.01879461E-22
  -14.3299999       8.40174628E-22
  -14.3199997       7.22070716E-22
  -14.3100004       2.99481538E-22
  -14.3000002      -3.80993387E-22
  -14.2900000      -1.16388139E-21
  -14.2799997      -1.80589906E-21
  -14.2700005      -2.03523650E-21
  -14.2600002      -1.63892944E-21
  -14.2500000      -5.55126745E-22
  -14.2399998       1.06101696E-21
  -14.2299995       2.82807054E-21
  -14.2200003       4.20388980E-21
  -14.2100000       4.62276752E-21
  -14.1999998       3.67572811E-21
  -14.1899996       1.28427020E-21
  -14.1800003      -2.19106089E-21
  -14.1700001      -5.95698359E-21
  -14.1599998      -8.93143016E-21
  -14.1499996      -1.00085203E-20
  -14.1400003      -8.38690702E-21
  -14.1300001      -3.87426842E-21
  -14.1199999       2.92662115E-21
  -14.1099997       1.06245622E-20
  -14.1000004       1.72693130E-20
  -14.0900002       2.07753859E-20
  -14.0799999       1.94558260E-20
  -14.0699997       1.25431374E-20
  -14.0600004       5.64319638E-22
  -14.0500002      -1.45409708E-20
  -14.0400000      -2.96220163E-20
  -14.0299997      -4.08382332E-20
  -14.0200005      -4.44333863E-20
  -14.0100002      -3.76397519E-20
  -14.0000000      -1.95471681E-20
  -13.9899998       8.24885590E-21
  -13.9799995       4.14044836E-20
  -13.9700003       7.31439691E-20
  -13.9600000       9.52196554E-20
  -13.9499998       9.94895165E-20
  -13.9399996       7.99334805E-20
  -13.9300003       3.47575057E-20
  -13.9200001      -3.19166541E-20
  -13.9099998      -1.09350886E-19
  -13.8999996      -1.80989264E-19
  -13.8900003      -2.27024010E-19
  -13.8800001      -2.28590664E-19
  -13.8699999      -1.72945035E-19
  -13.8599997      -5.84978898E-20
  -13.8500004       1.01712532E-19
  -13.8400002       2.79486209E-19
  -13.8299999       4.34790170E-19
  -13.8199997       5.23034470E-19
  -13.8100004       5.05317657E-19
  -13.8000002       3.59629980E-19
  -13.7900000       9.03076308E-20
  -13.7799997      -2.67062964E-19
  -13.7700005      -6.47457375E-19
  -13.7600002      -9.65796127E-19
  -13.7500000      -1.13301214E-18
  -13.7399998      -1.07613995E-18
  -13.7299995      -7.58403440E-19
  -13.7200003      -1.94702548E-19
  -13.7100000       5.41688065E-19
  -13.6999998       1.32404071E-18
  -13.6899996       1.98942666E-18
  -13.6800003       2.36661833E-18
  -13.6700001       2.31065232E-18
  -13.6599998       1.73832688E-18
  -13.6499996       6.57938994E-19
  -13.6400003      -8.13383343E-19
  -13.6300001      -2.45037140E-18
  -13.6199999      -3.94187668E-18
  -13.6099997      -4.93527800E-18
  -13.6000004      -5.09979306E-18
  -13.5900002      -4.20108820E-18
  -13.5799999      -2.17521452E-18
  -13.5699997       8.13704186E-19
  -13.5600004       4.34913906E-18
  -13.5500002       7.78666221E-18
  -13.5400000       1.03367897E-17
  -13.5299997       1.12051151E-17
  -13.5200005       9.77442355E-18
  -13.5100002       5.79777633E-18
  -13.5000000      -4.41468930E-19
  -13.4899998      -8.05303505E-18
  -13.4799995      -1.55911667E-17
  -13.4700003      -2.12597130E-17
  -13.4600000      -2.32633347E-17
  -13.4499998      -2.02558218E-17
  -13.4399996      -1.17953466E-17
  -13.4300003       1.31196015E-18
  -13.4200001       1.69030007E-17
  -13.4099998       3.16765606E-17
  -13.3999996       4.17688258E-17
  -13.3900003       4.36237056E-17
  -13.3800001       3.49974128E-17
  -13.3699999       1.58577124E-17
  -13.3599997      -1.10940115E-17
  -13.3500004      -4.05128315E-17
  -13.3400002      -6.52337527E-17
  -13.3299999      -7.77748895E-17
  -13.3199997      -7.22651122E-17
  -13.3100004      -4.63642277E-17
  -13.3000002      -2.65182648E-18
  -13.2900000       5.10074771E-17
  -13.2799997       1.02433766E-16
  -13.2700005       1.37447679E-16
  -13.2600002       1.43181060E-16
  -13.2500000       1.11693735E-16
  -13.2399998       4.30039091E-17
  -13.2299995      -5.33622353E-17
  -13.2200003      -1.58954560E-16
  -13.2100000      -2.49320363E-16
  -13.1999998      -2.98897228E-16
  -13.1899996      -2.86959728E-16
  -13.1800003      -2.03324078E-16
  -13.1700001      -5.24150175E-17
  -13.1599998       1.45455383E-16
  -13.1499996       3.56199483E-16
  -13.1400003       5.37322603E-16
  -13.1300001       6.45665740E-16
  -13.1199999       6.46056434E-16
  -13.1099997       5.19141199E-16
  -13.1000004       2.66790656E-16
  -13.0900002      -8.60619554E-17
  -13.0799999      -4.93587962E-16
  -13.0699997      -8.94908096E-16
  -13.0600004      -1.22263690E-15
  -13.0500002      -1.41274031E-15
  -13.0400000      -1.41420356E-15
  -13.0299997      -1.19716789E-15
  -13.0200005      -7.58543415E-16
  -13.0100002      -1.24524471E-16
  -13.0000000       6.50156550E-16
  -12.9899998       1.48606859E-15
  -12.9799995       2.28560618E-15
  -12.9700003       2.94161879E-15
  -12.9600000       3.34744710E-15
  -12.9499998       3.40761969E-15
  -12.9399996       3.04844087E-15
  -12.9300003       2.22781714E-15
  -12.9200001       9.43816838E-16
  -12.9099998      -7.58351721E-16
  -12.8999996      -2.78116068E-15
  -12.8900003      -4.97171833E-15
  -12.8800001      -7.12162263E-15
  -12.8699999      -8.97114956E-15
  -12.8599997      -1.02199328E-14
  -12.8500004      -1.05467935E-14
  -12.8400002      -9.64099423E-15
  -12.8299999      -7.24585780E-15
  -12.8199997      -3.21303504E-15
  -12.8100004       2.43781927E-15
  -12.8000002       9.46298602E-15
  -12.7900000       1.73542058E-14
  -12.7799997       2.53268679E-14
  -12.7700005       3.23481984E-14
  -12.7600002       3.72120412E-14
  -12.7500000       3.86597831E-14
  -12.7399998       3.55384904E-14
  -12.7299995       2.69797544E-14
  -12.7200003       1.25774152E-14
  -12.7100000      -7.45926097E-15
  -12.6999998      -3.21979212E-14
  -12.6899996      -5.99364308E-14
  -12.6800003      -8.82257253E-14
  -12.6700001      -1.13964868E-13
  -12.6599998      -1.33566999E-13
  -12.6499996      -1.43195175E-13
  -12.6400003      -1.39067441E-13
  -12.6300001      -1.17833044E-13
  -12.6199999      -7.70175753E-14
  -12.6099997      -1.55270728E-14
  -12.6000004       6.58166555E-14
  -12.5900002       1.63760458E-13
  -12.5799999       2.72200394E-13
  -12.5699997       3.81956131E-13
  -12.5600004       4.80845832E-13
  -12.5500002       5.54159691E-13
  -12.5400000       5.85597488E-13
  -12.5299997       5.58688512E-13
  -12.5200005       4.58639637E-13
  -12.5100002       2.74492993E-13
  -12.5000000       1.41121311E-15
  -12.4899998      -3.57139286E-13
  -12.4799995      -7.87546298E-13
  -12.4700003      -1.26478179E-12
  -12.4600000      -1.75189084E-12
  -12.4499998      -2.20036207E-12
  -12.4399996      -2.55143563E-12
  -12.4300003      -2.73833321E-12
  -12.4200001      -2.68931600E-12
  -12.4099998      -2.33144797E-12
  -12.3999996      -1.59487137E-12
  -12.3900003      -4.17396261E-13
  -12.3800001       1.25084632E-12
  -12.3699999       3.44293366E-12
  -12.3599997       6.17113045E-12
  -12.3500004       9.42359732E-12
  -12.3400002       1.31620487E-11
  -12.3299999       1.73205946E-11
  -12.3199997       2.18059060E-11
  -12.3100004       2.64987580E-11
  -12.3000002       3.12569484E-11
  -12.2900000       3.59194376E-11
  -12.2799997       4.03116360E-11
  -12.2700005       4.42514185E-11
  -12.2600002       4.75557996E-11
  -12.2500000       5.00477437E-11
  -12.2399998       5.15630559E-11
  -12.2299995       5.19568173E-11
  -12.2200003       5.11091586E-11
  -12.2100000       4.89300614E-11
  -12.1999998       4.53628385E-11
  -12.1899996       4.03861874E-11
  -12.1800003       3.40142914E-11
  -12.1700001       2.62953583E-11
  -12.1599998       1.73084359E-11
  -12.1499996       7.15890671E-12
  -12.1400003      -4.02704215E-12
  -12.1300001      -1.61081617E-11
  -12.1199999      -2.89337738E-11
  -12.1099997      -4.23486905E-11
  -12.1000004      -5.61968770E-11
  -12.0900002      -7.03238370E-11
  -12.0799999      -8.45776574E-11
  -12.0699997      -9.88087182E-11
  -12.0600004      -1.12868680E-10
  -12.0500002      -1.26608821E-10
  -12.0400000      -1.39878206E-10
  -12.0299997      -1.52521704E-10
  -12.0200005      -1.64378497E-10
  -12.0100002      -1.75280734E-10
  -12.0000000      -1.85053126E-10
  -11.9899998      -1.93512761E-10
  -11.9799995      -2.00470460E-10
  -11.9700003      -2.05732945E-10
  -11.9600000      -2.09106787E-10
  -11.9499998      -2.10403306E-10
  -11.9399996      -2.09445336E-10
  -11.9300003      -2.06074324E-10
  -11.9200001      -2.00158098E-10
  -11.9099998      -1.91597599E-10
  -11.8999996      -1.80332693E-10
  -11.8900003      -1.66345632E-10
  -11.8800001      -1.49662116E-10
  -11.8699999      -1.30349828E-10
  -11.8599997      -1.08515072E-10
  -11.8500004      -8.42974301E-11
  -11.8400002      -5.78636201E-11
  -11.8299999      -2.94017623E-11
  -11.8199997       8.83735034E-13
  -11.8100004       3.27765315E-11
  -11.8000002       6.60508939E-11
  -11.7900000       1.00472991E-10
  -11.7799997       1.35801509E-10
  -11.7700005       1.71787098E-10
  -11.7600002       2.08171980E-10
  -11.7500000       2.44689352E-10
  -11.7399998       2.81063589E-10
  -11.7299995       3.17010501E-10
  -11.7200003       3.52238461E-10
  -11.7100000       3.86450538E-10
  -11.6999998       4.19347029E-10
  -11.6899996       4.50628368E-10
  -11.6800003       4.79998707E-10
  -11.6700001       5.07168862E-10
  -11.6599998       5.31859112E-10
  -11.6499996       5.53801005E-10
  -11.6400003       5.72738079E-10
  -11.6300001       5.88426086E-10
  -11.6199999       6.00631878E-10
  -11.6099997       6.09132800E-10
  -11.6000004       6.13715523E-10
  -11.5900002       6.14176765E-10
  -11.5799999       6.10324347E-10
  -11.5699997       6.01980465E-10
  -11.5600004       5.88984916E-10
  -11.5500002       5.71199865E-10
  -11.5400000       5.48513512E-10
  -11.5299997       5.20843424E-10
  -11.5200005       4.88138363E-10
  -11.5100002       4.50377263E-10
  -11.5000000       4.07568229E-10
  -11.4899998       3.59745456E-10
  -11.4799995       3.06966619E-10
  -11.4700003       2.49309268E-10
  -11.4600000       1.86869353E-10
  -11.4499998       1.19759203E-10
  -11.4399996       4.81093360E-11
  -11.4300003      -2.79315755E-11
  -11.4200001      -1.08194884E-10
  -11.4099998      -1.92490426E-10
  -11.3999996      -2.80603984E-10
  -11.3900003      -3.72297609E-10
  -11.3800001      -4.67309469E-10
  -11.3699999      -5.65353264E-10
  -11.3599997      -6.66121658E-10
  -11.3500004      -7.69288300E-10
  -11.3400002      -8.74513295E-10
  -11.3299999      -9.81447590E-10
  -11.3199997      -1.08974252E-09
  -11.3100004      -1.19905474E-09
  -11.3000002      -1.30905831E-09
  -11.2900000      -1.41945145E-09
  -11.2799997      -1.52996371E-09
  -11.2700005      -1.64036229E-09
  -11.2600002      -1.75045367E-09
  -11.2500000      -1.86008253E-09
  -11.2399998      -1.96912908E-09
  -11.2299995      -2.07750062E-09
  -11.2200003      -2.18512342E-09
  -11.2100000      -2.29193176E-09
  -11.1999998      -2.39785813E-09
  -11.1899996      -2.50282195E-09
  -11.1800003      -2.60672395E-09
  -11.1700001      -2.70944223E-09
  -11.1599998      -2.81082513E-09
  -11.1499996      -2.91069879E-09
  -11.1400003      -3.00887382E-09
  -11.1300001      -3.10514947E-09
  -11.1199999      -3.19932814E-09
  -11.1099997      -3.29123018E-09
  -11.1000004      -3.38070372E-09
  -11.0900002      -3.46763929E-09
  -11.0799999      -3.55197582E-09
  -11.0699997      -3.63370067E-09
  -11.0600004      -3.71284936E-09
  -11.0500002      -3.78949938E-09
  -11.0400000      -3.86375287E-09
  -11.0299997      -3.93572019E-09
  -11.0200005      -4.00550881E-09
  -11.0100002      -4.07319378E-09
  -11.0000000      -4.13882528E-09
  -10.9899998      -4.20239976E-09
  -10.9799995      -4.26388036E-09
  -10.9700003      -4.32318670E-09
  -10.9600000      -4.38021797E-09
  -10.9499998      -4.43485826E-09
  -10.9399996      -4.48699655E-09
  -10.9300003      -4.53653648E-09
  -10.9200001      -4.58340388E-09
  -10.9099998      -4.62755878E-09
  -10.8999996      -4.66898209E-09
  -10.8900003      -4.70768891E-09
  -10.8800001      -4.74369655E-09
  -10.8699999      -4.77704498E-09
  -10.8599997      -4.80775642E-09
  -10.8500004      -4.83586016E-09
  -10.8400002      -4.86135576E-09
  -10.8299999      -4.88422414E-09
  -10.8199997      -4.90442575E-09
  -10.8100004      -4.92191488E-09
  -10.8000002      -4.93661201E-09
  -10.7900000      -4.94843810E-09
  -10.7799997      -4.95730434E-09
  -10.7700005      -4.96312458E-09
  -10.7600002      -4.96582286E-09
  -10.7500000      -4.96533614E-09
  -10.7399998      -4.96162977E-09
  -10.7299995      -4.95469399E-09
  -10.7200003      -4.94454477E-09
  -10.7100000      -4.93124164E-09
  -10.6999998      -4.91487473E-09
  -10.6899996      -4.89556351E-09
  -10.6800003      -4.87345231E-09
  -10.6700001      -4.84873031E-09
  -10.6599998      -4.82158935E-09
  -10.6499996      -4.79225459E-09
  -10.6400003      -4.76097206E-09
  -10.6300001      -4.72798289E-09
  -10.6199999      -4.69356642E-09
  -10.6099997      -4.65798911E-09
  -10.6000004      -4.62151606E-09
  -10.5900002      -4.58442750E-09
  -10.5799999      -4.54697302E-09
  -10.5699997      -4.50941551E-09
  -10.5600004      -4.47199833E-09
  -10.5500002      -4.43496528E-09
  -10.5400000      -4.39855175E-09
  -10.5299997      -4.36298686E-09
  -10.5200005      -4.32848557E-09
  -10.5100002      -4.29526326E-09
  -10.5000000      -4.26349667E-09
  -10.4899998      -4.23338253E-09
  -10.4799995      -4.20505986E-09
  -10.4700003      -4.17867430E-09
  -10.4600000      -4.15432488E-09
  -10.4499998      -4.13212309E-09
  -10.4399996      -4.11214174E-09
  -10.4300003      -4.09445544E-09
  -10.4200001      -4.07912371E-09
  -10.4099998      -4.06617939E-09
  -10.3999996      -4.05567668E-09
  -10.3900003      -4.04762091E-09
  -10.3800001      -4.04202360E-09
  -10.3699999      -4.03885947E-09
  -10.3599997      -4.03810407E-09
  -10.3500004      -4.03969569E-09
  -10.3400002      -4.04357881E-09
  -10.3299999      -4.04968370E-09
  -10.3199997      -4.05794376E-09
  -10.3100004      -4.06829193E-09
  -10.3000002      -4.08065270E-09
  -10.2900000      -4.09497236E-09
  -10.2799997      -4.11120693E-09
  -10.2700005      -4.12930312E-09
  -10.2600002      -4.14923162E-09
  -10.2500000      -4.17095336E-09
  -10.2399998      -4.19446788E-09
  -10.2299995      -4.21975077E-09
  -10.2200003      -4.24678870E-09
  -10.2100000      -4.27556568E-09
  -10.1999998      -4.30607683E-09
  -10.1899996      -4.33828085E-09
  -10.1800003      -4.37215197E-09
  -10.1700001      -4.40764358E-09
  -10.1599998      -4.44473125E-09
  -10.1499996      -4.48339632E-09
  -10.1400003      -4.52361792E-09
  -10.1300001      -4.56542493E-09
  -10.1199999      -4.60885685E-09
  -10.1099997      -4.65399363E-09
  -10.1000004      -4.70091388E-09
  -10.0900002      -4.74973527E-09
  -10.0799999      -4.80059947E-09
  -10.0699997      -4.85364815E-09
  -10.0600004      -4.90903407E-09
  -10.0500002      -4.96694641E-09
  -10.0400000      -5.02756814E-09
  -10.0299997      -5.09109066E-09
  -10.0200005      -5.15770893E-09
  -10.0100002      -5.22762278E-09
  -10.0000000      -5.30099031E-09
  -9.98999977      -5.37796163E-09
  -9.97999954      -5.45865975E-09
  -9.97000027      -5.54316948E-09
  -9.96000004      -5.63157210E-09
  -9.94999981      -5.72391823E-09
  -9.93999958      -5.82026782E-09
  -9.93000031      -5.92066485E-09
  -9.92000008      -6.02518746E-09
  -9.90999985      -6.13387652E-09
  -9.89999962      -6.24677643E-09
  -9.89000034      -6.36392716E-09
  -9.88000011      -6.48532961E-09
  -9.86999989      -6.61096689E-09
  -9.85999966      -6.74078171E-09
  -9.85000038      -6.87469681E-09
  -9.84000015      -7.01261582E-09
  -9.82999992      -7.15444459E-09
  -9.81999969      -7.30009386E-09
  -9.81000042      -7.44947259E-09
  -9.80000019      -7.60253904E-09
  -9.78999996      -7.75927234E-09
  -9.77999973      -7.91967558E-09
  -9.77000046      -8.08378786E-09
  -9.76000023      -8.25169177E-09
  -9.75000000      -8.42347347E-09
  -9.73999977      -8.59924931E-09
  -9.72999954      -8.77914541E-09
  -9.72000027      -8.96327812E-09
  -9.71000004      -9.15177001E-09
  -9.69999981      -9.34472855E-09
  -9.68999958      -9.54221413E-09
  -9.68000031      -9.74429248E-09
  -9.67000008      -9.95095029E-09
  -9.65999985      -1.01621467E-08
  -9.64999962      -1.03778204E-08
  -9.64000034      -1.05978435E-08
  -9.63000011      -1.08220890E-08
  -9.61999989      -1.10503775E-08
  -9.60999966      -1.12824532E-08
  -9.60000038      -1.15180603E-08
  -9.59000015      -1.17568879E-08
  -9.57999992      -1.19986012E-08
  -9.56999969      -1.22428343E-08
  -9.56000042      -1.24891821E-08
  -9.55000019      -1.27372131E-08
  -9.53999996      -1.29864750E-08
  -9.52999973      -1.32364706E-08
  -9.52000046      -1.34866713E-08
  -9.51000023      -1.37364937E-08
  -9.50000000      -1.39853675E-08
  -9.48999977      -1.42326524E-08
  -9.47999954      -1.44777275E-08
  -9.47000027      -1.47199524E-08
  -9.46000004      -1.49587525E-08
  -9.44999981      -1.51935744E-08
  -9.43999958      -1.54239963E-08
  -9.43000031      -1.56496949E-08
  -9.42000008      -1.58704374E-08
  -9.40999985      -1.60862115E-08
  -9.39999962      -1.62970526E-08
  -9.39000034      -1.65032006E-08
  -9.38000011      -1.67050302E-08
  -9.36999989      -1.69030514E-08
  -9.35999966      -1.70979035E-08
  -9.35000038      -1.72903665E-08
  -9.34000015      -1.74813177E-08
  -9.32999992      -1.76717929E-08
  -9.31999969      -1.78628738E-08
  -9.31000042      -1.80557667E-08
  -9.30000019      -1.82516775E-08
  -9.28999996      -1.84518765E-08
  -9.27999973      -1.86576390E-08
  -9.27000046      -1.88701392E-08
  -9.26000023      -1.90905762E-08
  -9.25000000      -1.93200353E-08
  -9.23999977      -1.95595824E-08
  -9.22999954      -1.98101109E-08
  -9.22000027      -2.00725090E-08
  -9.21000004      -2.03475548E-08
  -9.19999981      -2.06358894E-08
  -9.18999958      -2.09380531E-08
  -9.18000031      -2.12544826E-08
  -9.17000008      -2.15855280E-08
  -9.15999985      -2.19313616E-08
  -9.14999962      -2.22920775E-08
  -9.14000034      -2.26676136E-08
  -9.13000011      -2.30578241E-08
  -9.11999989      -2.34624107E-08
  -9.10999966      -2.38809754E-08
  -9.10000038      -2.43129783E-08
  -9.09000015      -2.47578864E-08
  -9.07999992      -2.52148897E-08
  -9.06999969      -2.56831711E-08
  -9.06000042      -2.61617661E-08
  -9.05000019      -2.66496265E-08
  -9.03999996      -2.71455907E-08
  -9.02999973      -2.76484950E-08
  -9.02000046      -2.81570056E-08
  -9.01000023      -2.86697457E-08
  -9.00000000      -2.91853688E-08
  -8.98999977      -2.97023792E-08
  -8.97999954      -3.02194181E-08
  -8.97000027      -3.07349950E-08
  -8.96000004      -3.12477049E-08
  -8.94999981      -3.17561657E-08
  -8.93999958      -3.22590310E-08
  -8.93000031      -3.27549934E-08
  -8.92000008      -3.32428378E-08
  -8.90999985      -3.37213848E-08
  -8.89999962      -3.41896254E-08
  -8.89000034      -3.46466322E-08
  -8.88000011      -3.50915457E-08
  -8.86999989      -3.55236978E-08
  -8.85999966      -3.59424135E-08
  -8.85000038      -3.63472061E-08
  -8.84000015      -3.67377666E-08
  -8.82999992      -3.71138391E-08
  -8.81999969      -3.74753348E-08
  -8.81000042      -3.78222715E-08
  -8.80000019      -3.81548411E-08
  -8.78999996      -3.84732211E-08
  -8.77999973      -3.87777881E-08
  -8.77000046      -3.90690289E-08
  -8.76000023      -3.93474657E-08
  -8.75000000      -3.96137274E-08
  -8.73999977      -3.98684676E-08
  -8.72999954      -4.01125533E-08
  -8.72000027      -4.03468086E-08
  -8.71000004      -4.05720897E-08
  -8.69999981      -4.07894731E-08
  -8.68999958      -4.09999892E-08
  -8.68000031      -4.12046965E-08
  -8.67000008      -4.14047427E-08
  -8.65999985      -4.16012931E-08
  -8.64999962      -4.17955022E-08
  -8.64000034      -4.19885637E-08
  -8.63000011      -4.21816893E-08
  -8.61999989      -4.23760405E-08
  -8.60999966      -4.25728466E-08
  -8.60000038      -4.27732481E-08
  -8.59000015      -4.29782716E-08
  -8.57999992      -4.31889866E-08
  -8.56999969      -4.34062279E-08
  -8.56000042      -4.36309016E-08
  -8.55000019      -4.38636505E-08
  -8.53999996      -4.41049934E-08
  -8.52999973      -4.43555273E-08
  -8.52000046      -4.46154225E-08
  -8.51000023      -4.48851019E-08
  -8.50000000      -4.51647466E-08
  -8.48999977      -4.54543319E-08
  -8.47999954      -4.57539073E-08
  -8.47000027      -4.60634375E-08
  -8.46000004      -4.63827732E-08
  -8.44999981      -4.67117935E-08
  -8.43999958      -4.70503174E-08
  -8.43000031      -4.73981991E-08
  -8.42000008      -4.77552220E-08
  -8.40999985      -4.81212084E-08
  -8.39999962      -4.84959060E-08
  -8.39000034      -4.88793752E-08
  -8.38000011      -4.92713355E-08
  -8.36999989      -4.96718613E-08
  -8.35999966      -5.00808675E-08
  -8.35000038      -5.04984961E-08
  -8.34000015      -5.09247968E-08
  -8.32999992      -5.13601179E-08
  -8.31999969      -5.18045695E-08
  -8.31000042      -5.22585104E-08
  -8.30000019      -5.27224131E-08
  -8.28999996      -5.31965085E-08
  -8.27999973      -5.36812372E-08
  -8.27000046      -5.41769687E-08
  -8.26000023      -5.46841612E-08
  -8.25000000      -5.52031487E-08
  -8.23999977      -5.57342865E-08
  -8.22999954      -5.62778304E-08
  -8.22000027      -5.68341285E-08
  -8.21000004      -5.74034544E-08
  -8.19999981      -5.79861776E-08
  -8.18999958      -5.85825219E-08
  -8.18000031      -5.91926437E-08
  -8.17000008      -5.98169478E-08
  -8.15999985      -6.04555623E-08
  -8.14999962      -6.11085511E-08
  -8.14000034      -6.17761913E-08
  -8.13000011      -6.24584757E-08
  -8.11999989      -6.31556532E-08
  -8.10999966      -6.38677733E-08
  -8.10000038      -6.45949214E-08
  -8.09000015      -6.53369270E-08
  -8.07999992      -6.60937971E-08
  -8.06999969      -6.68654039E-08
  -8.06000042      -6.76513778E-08
  -8.05000019      -6.84516905E-08
  -8.03999996      -6.92658588E-08
  -8.02999973      -7.00935772E-08
  -8.02000046      -7.09344405E-08
  -8.01000023      -7.17879018E-08
  -8.00000000      -7.26533997E-08
  -7.98999977      -7.35303445E-08
  -7.98000002      -7.44179545E-08
  -7.96999979      -7.53154765E-08
  -7.96000004      -7.62220296E-08
  -7.94999981      -7.71367752E-08
  -7.94000006      -7.80585339E-08
  -7.92999983      -7.89865666E-08
  -7.92000008      -7.99196442E-08
  -7.90999985      -8.08567933E-08
  -7.90000010      -8.17968910E-08
  -7.88999987      -8.27388007E-08
  -7.88000011      -8.36814138E-08
  -7.86999989      -8.46236006E-08
  -7.86000013      -8.55642384E-08
  -7.84999990      -8.65022614E-08
  -7.84000015      -8.74366322E-08
  -7.82999992      -8.83664271E-08
  -7.82000017      -8.92907792E-08
  -7.80999994      -9.02087507E-08
  -7.80000019      -9.11197731E-08
  -7.78999996      -9.20233774E-08
  -7.78000021      -9.29189312E-08
  -7.76999998      -9.38063067E-08
  -7.76000023      -9.46851770E-08
  -7.75000000      -9.55554071E-08
  -7.73999977      -9.64173381E-08
  -7.73000002      -9.72714105E-08
  -7.71999979      -9.81179298E-08
  -7.71000004      -9.89574929E-08
  -7.69999981      -9.97910732E-08
  -7.69000006      -1.00619431E-07
  -7.67999983      -1.01443767E-07
  -7.67000008      -1.02265062E-07
  -7.65999985      -1.03084453E-07
  -7.65000010      -1.03903290E-07
  -7.63999987      -1.04723185E-07
  -7.63000011      -1.05545318E-07
  -7.61999989      -1.06371395E-07
  -7.61000013      -1.07203007E-07
  -7.59999990      -1.08041668E-07
  -7.59000015      -1.08889076E-07
  -7.57999992      -1.09746978E-07
  -7.57000017      -1.10617144E-07
  -7.55999994      -1.11500853E-07
  -7.55000019      -1.12399938E-07
  -7.53999996      -1.13315906E-07
  -7.53000021      -1.14250525E-07
  -7.51999998      -1.15205069E-07
  -7.51000023      -1.16181269E-07
  -7.50000000      -1.17180463E-07
  -7.48999977      -1.18203850E-07
  -7.48000002      -1.19252732E-07
  -7.46999979      -1.20328522E-07
  -7.46000004      -1.21432208E-07
  -7.44999981      -1.22564870E-07
  -7.44000006      -1.23727318E-07