  -16.0000000       0.00000000    
  -15.9899998       0.00000000    
  -15.9799995       0.00000000    
  -15.9700003       0.00000000    
  -15.9600000       0.00000000    
  -15.9499998       0.00000000    
  -15.9399996       0.00000000    
  -15.9300003       0.00000000    
  -15.9200001       0.00000000    
  -15.9099998       0.00000000    
  -15.8999996       0.00000000    
  -15.8900003       0.00000000    
  -15.8800001       0.00000000    
  -15.8699999       3.36311631E-44
  -15.8599997       2.71851902E-42
  -15.8500004       8.93930329E-41
  -15.8400002       1.57588204E-39
  -15.8299999       1.86340900E-38
  -15.8199997       1.64443462E-37
  -15.8100004       1.15492867E-36
  -15.8000002       6.73317267E-36
  -15.7900000       3.35361823E-35
  -15.7799997       1.45718493E-34
  -15.7700005       5.60925838E-34
  -15.7600002       1.93511937E-33
  -15.7500000       6.03517314E-33
  -15.7399998       1.71242109E-32
  -15.7299995       4.43971874E-32
  -15.7200003       1.05430335E-31
  -15.7100000       2.29383711E-31
  -15.6999998       4.56152370E-31
  -15.6899996       8.23868444E-31
  -15.6800003       1.33374974E-30
  -15.6700001       1.88252768E-30
  -15.6599998       2.16551300E-30
  -15.6499996       1.58519852E-30
  -15.6400003      -7.48916338E-31
  -15.6300001      -5.79083838E-30
  -15.6199999      -1.39509851E-29
  -15.6099997      -2.40671639E-29
  -15.6000004      -3.21904385E-29
  -15.5900002      -3.08769181E-29
  -15.5799999      -1.01437406E-29
  -15.5699997       3.86412505E-29
  -15.5600004       1.15421042E-28
  -15.5500002       2.02163446E-28
  -15.5400000       2.56215512E-28
  -15.5299997       2.13785133E-28
  -15.5200005       1.13102026E-29
  -15.5100002      -3.72799972E-28
  -15.5000000      -8.65900029E-28
  -15.4899998      -1.26510939E-27
  -15.4799995      -1.25747673E-27
  -15.4700003      -5.31947243E-28
  -15.4600000       1.01565437E-27
  -15.4499998       3.04970833E-27
  -15.4399996       4.67563136E-27
  -15.4300003       4.61444610E-27
  -15.4200001       1.78785521E-27
  -15.4099998      -3.77552180E-27
  -15.3999996      -1.01191741E-26
  -15.3900003      -1.33129060E-26
  -15.3800001      -8.87304352E-27
  -15.3699999       5.19129602E-27
  -15.3599997       2.46704277E-26
  -15.3500004       3.71275783E-26
  -15.3400002       2.46916160E-26
  -15.3299999      -2.61158689E-26
  -15.3199997      -1.08781614E-25
  -15.3100004      -1.82367644E-25
  -15.3000002      -1.70728198E-25
  -15.2900000       1.10081495E-26
  -15.2799997       3.97189863E-25
  -15.2700005       8.93719649E-25
  -15.2600002       1.22251332E-24
  -15.2500000       9.50636358E-25
  -15.2399998      -3.38362805E-25
  -15.2299995      -2.72355431E-24
  -15.2200003      -5.56848946E-24
  -15.2100000      -7.30018981E-24
  -15.1999998      -5.63948141E-24
  -15.1899996       1.47682522E-24
  -15.1800003       1.43034634E-23
  -15.1700001       2.95130630E-23
  -15.1599998       3.92629925E-23
  -15.1499996       3.24217856E-23
  -15.1400003      -1.04525322E-24
  -15.1300001      -6.27567628E-23
  -15.1199999      -1.37939827E-22
  -15.1099997      -1.91306759E-22
  -15.1000004      -1.72401487E-22
  -15.0900002      -3.45111405E-23
  -15.0799999       2.34018831E-22
  -15.0699997       5.75701248E-22
  -15.0600004       8.45596943E-22
  -15.0500002       8.31499885E-22
  -15.0400000       3.28898578E-22
  -15.0299997      -7.33947452E-22
  -15.0200005      -2.15838443E-21
  -15.0100002      -3.39679214E-21
  -15.0000000      -3.61998874E-21
  -14.9899998      -1.99282734E-21
  -14.9799995       1.85777657E-21
  -14.9700003       7.31915498E-21
  -14.9600000       1.24735427E-20
  -14.9499998       1.42980915E-20
  -14.9399996       9.61164727E-21
  -14.9300003      -3.27755495E-21
  -14.9200001      -2.26901878E-20
  -14.9099998      -4.23516151E-20
  -14.8999996      -5.19094156E-20
  -14.8900003      -3.99878140E-20
  -14.8800001       3.29183578E-22
  -14.8699999       6.50822475E-20
  -14.8599997       1.34985148E-19
  -14.8500004       1.76486454E-19
  -14.8400002       1.51023832E-19
  -14.8299999       3.23223797E-20
  -14.8199997      -1.72747507E-19
  -14.8100004      -4.08656510E-19
  -14.8000002      -5.72156332E-19
  -14.7900000      -5.38342533E-19
  -14.7799997      -2.12301126E-19
  -14.7700005       4.06127431E-19
  -14.7600002       1.17025470E-18
  -14.7500000       1.78018822E-18
  -14.7399998       1.84942282E-18
  -14.7299995       1.04920178E-18
  -14.7200003      -7.00498109E-19
  -14.7100000      -3.06311329E-18
  -14.6999998      -5.23359324E-18
  -14.6899996      -6.08405361E-18
  -14.6800003      -4.53355980E-18
  -14.6700001      -7.40994532E-20
  -14.6599998       6.71858427E-18
  -14.6499996       1.39315562E-17
  -14.6400003       1.85491547E-17
  -14.6300001       1.72841771E-17
  -14.6199999       7.89285566E-18
  -14.6099997      -9.39912343E-18
  -14.6000004      -3.09279059E-17
  -14.5900002      -4.96712363E-17
  -14.5799999      -5.67487524E-17
  -14.5699997      -4.42466652E-17
  -14.5600004      -8.71584330E-18
  -14.5500002       4.58051827E-17
  -14.5400000       1.06550544E-16
  -14.5299997       1.53578257E-16
  -14.5200005       1.64376670E-16
  -14.5100002       1.20772260E-16
  -14.5000000       1.64194855E-17
  -14.4899998      -1.37312895E-16
  -14.4799995      -3.09150323E-16
  -14.4700003      -4.50756683E-16
  -14.4600000      -5.04853501E-16
  -14.4499998      -4.17945670E-16
  -14.4399996      -1.56153687E-16
  -14.4300003       2.77706290E-16
  -14.4200001       8.28463285E-16
  -14.4099998       1.37839715E-15
  -14.3999996       1.74873478E-15
  -14.3900003       1.72115655E-15
  -14.3800001       1.08725996E-15
  -14.3699999      -2.71544602E-16
  -14.3599997      -2.28299626E-15
  -14.3500004      -4.58927957E-15
  -14.3400002      -6.50521812E-15
  -14.3299999      -7.08420283E-15
  -14.3199997      -5.33725328E-15
  -14.3100004      -6.08213225E-16
  -14.3000002       6.96006465E-15
  -14.2900000       1.60163139E-14
  -14.2799997       2.38590665E-14
  -14.2700005       2.67794091E-14
  -14.2600002       2.10118398E-14
  -14.2500000       4.22672109E-15
  -14.2399998      -2.27779441E-14
  -14.2299995      -5.47806497E-14
  -14.2200003      -8.19806327E-14
  -14.2100000      -9.16042416E-14
  -14.1999998      -7.14791317E-14
  -14.1899996      -1.50726718E-14
  -14.1800003       7.33452199E-14
  -14.1700001       1.75390477E-13
  -14.1599998       2.59245452E-13
  -14.1499996       2.85803905E-13
  -14.1400003       2.20237010E-13
  -14.1300001       4.68375339E-14
  -14.1199999      -2.17167199E-13
  -14.1099997      -5.14441408E-13
  -14.1000004      -7.52357432E-13
  -14.0900002      -8.22612161E-13
  -14.0799999      -6.34135756E-13
  -14.0699997      -1.52188388E-13
  -14.0600004       5.68229329E-13
  -14.0500002       1.36866397E-12
  -14.0400000       2.00514692E-12
  -14.0299997       2.20227200E-12
  -14.0200005       1.73682867E-12
  -14.0100002       5.31717465E-13
  -14.0000000      -1.26895239E-12
  -13.9899998      -3.27527523E-12
  -13.9799995      -4.90175001E-12
  -13.9700003      -5.49840468E-12
  -13.9600000      -4.54339604E-12
  -13.9499998      -1.85153238E-12
  -13.9399996       2.26535587E-12
  -13.9300003       6.95201926E-12
  -13.9200001       1.09243925E-11
  -13.9099998       1.27519323E-11
  -13.8999996       1.12627685E-11
  -13.8900003       5.97555859E-12
  -13.8800001      -2.57024111E-12
  -13.8699999      -1.27137190E-11
  -13.8599997      -2.18886350E-11
  -13.8500004      -2.71651902E-11
  -13.8400002      -2.60295830E-11
  -13.8299999      -1.72205392E-11
  -13.8199997      -1.38546108E-12
  -13.8100004       1.86761093E-11
  -13.8000002       3.83408721E-11
  -13.7900000       5.20827027E-11
  -13.7799997       5.48384185E-11
  -13.7700005       4.35130196E-11
  -13.7600002       1.82205449E-11
  -13.7500000      -1.71355725E-11
  -13.7399998      -5.52234300E-11
  -13.7299995      -8.66441849E-11
  -13.7200003      -1.02082592E-10
  -13.7100000      -9.47787612E-11
  -13.6999998      -6.26986102E-11
  -13.6899996      -9.77087421E-12
  -13.6800003       5.42707303E-11
  -13.6700001       1.15577346E-10
  -13.6599998       1.59144406E-10
  -13.6499996       1.72400025E-10
  -13.6400003       1.48543691E-10
  -13.6300001       8.87363585E-11
  -13.6199999       2.47468799E-12
  -13.6099997      -9.40725275E-11
  -13.6000004      -1.81449078E-10
  -13.5900002      -2.41204778E-10
  -13.5799999      -2.59990723E-10
  -13.5699997      -2.32381309E-10
  -13.5600004      -1.61689787E-10
  -13.5500002      -5.86496685E-11
  -13.5400000       6.15000065E-11
  -13.5299997       1.82460810E-10
  -13.5200005       2.89635149E-10
  -13.5100002       3.71259579E-10
  -13.5000000       4.17683110E-10
  -13.4899998       4.19441842E-10
  -13.4799995       3.65598718E-10
  -13.4700003       2.44058468E-10
  -13.4600000       4.52007459E-11
  -13.4499998      -2.31044198E-10
  -13.4399996      -5.66205360E-10
  -13.4300003      -9.15575393E-10
  -13.4200001      -1.20595689E-09
  -13.4099998      -1.34271172E-09
  -13.3999996      -1.22805577E-09
  -13.3900003      -7.89164900E-10
  -13.3800001      -1.06489531E-11
  -13.3699999       1.03753406E-09
  -13.3599997       2.18742602E-09
  -13.3500004       3.18497184E-09
  -13.3400002       3.73111630E-09
  -13.3299999       3.54910501E-09
  -13.3199997       2.46627607E-09
  -13.3100004       4.90902763E-10
  -13.3000002      -2.13905671E-09
  -13.2900000      -4.95637709E-09
  -13.2799997      -7.32639061E-09
  -13.2700005      -8.56825189E-09
  -13.2600002      -8.11663003E-09
  -13.2500000      -5.68963188E-09
  -13.2399998      -1.42013423E-09
  -13.2299995       4.09111767E-09
  -13.2200003       9.82896964E-09
  -13.2100000       1.45300154E-08
  -13.1999998       1.69384968E-08
  -13.1899996       1.61027316E-08
  -13.1800003       1.16455485E-08
  -13.1700001       3.93831012E-09
  -13.1599998      -5.87578741E-09
  -13.1499996      -1.60342459E-08
  -13.1400003      -2.44669405E-08
  -13.1300001      -2.92114262E-08
  -13.1199999      -2.88453545E-08
  -13.1099997      -2.28384778E-08
  -13.1000004      -1.17390071E-08
  -13.0900002       2.85826607E-09
  -13.0799999       1.85652578E-08
  -13.0699997       3.26294050E-08
  -13.0600004       4.24486224E-08
  -13.0500002       4.60640059E-08
  -13.0400000       4.25248352E-08
  -13.0299997       3.20520250E-08
  -13.0200005       1.59724927E-08
  -13.0100002      -3.54938612E-09
  -13.0000000      -2.39117703E-08
  -12.9899998      -4.25105817E-08
  -12.9799995      -5.71114214E-08
  -12.9700003      -6.60864359E-08
  -12.9600000      -6.84852921E-08
  -12.9499998      -6.39579838E-08
  -12.9399996      -5.25894635E-08
  -12.9300003      -3.47283198E-08
  -12.9200001      -1.08908731E-08
  -12.9099998       1.82026483E-08
  -12.8999996       5.14495220E-08
  -12.8900003       8.70812258E-08
  -12.8800001       1.22365250E-07
  -12.8699999       1.53402823E-07
  -12.8599997       1.75150845E-07
  -12.8500004       1.81755752E-07
  -12.8400002       1.67248061E-07
  -12.8299999       1.26566334E-07
  -12.8199997       5.67987790E-08
  -12.8100004      -4.15432524E-08
  -12.8000002      -1.63458338E-07
  -12.7900000      -2.98857401E-07
  -12.7799997      -4.32656350E-07
  -12.7700005      -5.45717171E-07
  -12.7600002      -6.16662078E-07
  -12.7500000      -6.24449399E-07
  -12.7399998      -5.51447897E-07
  -12.7299995      -3.86611873E-07
  -12.7200003      -1.28335685E-07
  -12.7100000       2.13480178E-07
  -12.6999998       6.16489842E-07
  -12.6899996       1.04631920E-06
  -12.6800003       1.45835179E-06
  -12.6700001       1.80079962E-06
  -12.6599998       2.01877742E-06
  -12.6499996       2.05911238E-06
  -12.6400003       1.87558874E-06
  -12.6300001       1.43442207E-06
  -12.6199999       7.19752165E-07
  -12.6099997      -2.61018329E-07
  -12.6000004      -1.47233209E-06
  -12.5900002      -2.84651696E-06
  -12.5799999      -4.28147996E-06
  -12.5699997      -5.64097081E-06
  -12.5600004      -6.75851379E-06
  -12.5500002      -7.44586259E-06
  -12.5400000      -7.50657591E-06
  -12.5299997      -6.75468209E-06
  -12.5200005      -5.03748834E-06
  -12.5100002      -2.26095835E-06
  -12.5000000       1.58482453E-06
  -12.4899998       6.40273538E-06
  -12.4799995       1.19711103E-05
  -12.4700003       1.79338367E-05
  -12.4600000       2.37999393E-05
  -12.4499998       2.89528907E-05
  -12.4399996       3.26698537E-05
  -12.4300003       3.41500054E-05
  -12.4200001       3.25499168E-05
  -12.4099998       2.70259952E-05
  -12.3999996       1.67809994E-05
  -12.3900003       1.11406314E-06
  -12.3800001      -2.05270135E-05
  -12.3699999      -4.84943303E-05
  -12.3599997      -8.28891571E-05
  -12.3500004      -1.23519640E-04
  -12.3400002      -1.69864477E-04
  -12.3299999      -2.21053400E-04
  -12.3199997      -2.75861094E-04
  -12.3100004      -3.32723896E-04
  -12.3000002      -3.89775756E-04
  -12.2900000      -4.44904377E-04
  -12.2799997      -4.95826476E-04
  -12.2700005      -5.40172972E-04
  -12.2600002      -5.75590413E-04
  -12.2500000      -5.99839783E-04
  -12.2399998      -6.10891555E-04
  -12.2299995      -6.07023889E-04
  -12.2200003      -5.86890266E-04
  -12.2100000      -5.49591670E-04
  -12.1999998      -4.94714710E-04
  -12.1899996      -4.22344921E-04
  -12.1800003      -3.33058619E-04
  -12.1700001      -2.27895449E-04
  -12.1599998      -1.08287408E-04
  -12.1499996       2.40141326E-05
  -12.1400003       1.67037768E-04
  -12.1300001       3.18683888E-04
  -12.1199999       4.76822257E-04
  -12.1099997       6.39359758E-04
  -12.1000004       8.04298790E-04
  -12.0900002       9.69753368E-04
  -12.0799999       1.13395439E-03
  -12.0699997       1.29521731E-03
  -12.0600004       1.45190489E-03
  -12.0500002       1.60238030E-03
  -12.0400000       1.74496858E-03
  -12.0299997       1.87792699E-03
  -12.0200005       1.99942407E-03
  -12.0100002       2.10754527E-03
  -12.0000000       2.20030686E-03
  -11.9899998       2.27567670E-03
  -11.9799995       2.33161263E-03
  -11.9700003       2.36610067E-03
  -11.9600000       2.37719715E-03
  -11.9499998       2.36308109E-03
  -11.9399996       2.32210476E-03
  -11.9300003       2.25285930E-03
  -11.9200001       2.15422222E-03
  -11.9099998       2.02542101E-03
  -11.8999996       1.86608115E-03
  -11.8900003       1.67625258E-03
  -11.8800001       1.45643123E-03
  -11.8699999       1.20754552E-03
  -11.8599997       9.30947659E-04
  -11.8500004       6.28365320E-04
  -11.8400002       3.01859662E-04
  -11.8299999      -4.62235766E-05
  -11.8199997      -4.13305475E-04
  -11.8100004      -7.96604203E-04
  -11.8000002      -1.19320326E-03
  -11.7900000      -1.60005456E-03
  -11.7799997      -2.01402931E-03
  -11.7700005      -2.43193749E-03
  -11.7600002      -2.85055209E-03
  -11.7500000      -3.26663326E-03
  -11.7399998      -3.67693068E-03
  -11.7299995      -4.07820009E-03
  -11.7200003      -4.46719956E-03
  -11.7100000      -4.84068552E-03
  -11.6999998      -5.19540254E-03
  -11.6899996      -5.52809285E-03
  -11.6800003      -5.83550427E-03
  -11.6700001      -6.11439068E-03
  -11.6599998      -6.36155019E-03
  -11.6499996      -6.57384517E-03
  -11.6400003      -6.74823718E-03
  -11.6300001      -6.88178698E-03
  -11.6199999      -6.97169779E-03
  -11.6099997      -7.01531721E-03
  -11.6000004      -7.01015210E-03
  -11.5900002      -6.95388205E-03
  -11.5799999      -6.84441440E-03
  -11.5699997      -6.67989487E-03
  -11.5600004      -6.45880215E-03
  -11.5500002      -6.17997535E-03
  -11.5400000      -5.84266474E-03
  -11.5299997      -5.44658303E-03
  -11.5200005      -4.99188202E-03
  -11.5100002      -4.47913911E-03
  -11.5000000      -3.90929123E-03
  -11.4899998      -3.28356214E-03
  -11.4799995      -2.60338397E-03
  -11.4700003      -1.87032425E-03
  -11.4600000      -1.08606671E-03
  -11.4499998      -2.52391939E-04
  -11.4399996       6.28787442E-04
  -11.4300003       1.55535364E-03
  -11.4200001       2.52494705E-03
  -11.4099998       3.53486231E-03
  -11.3999996       4.58204607E-03
  -11.3900003       5.66308666E-03
  -11.3800001       6.77424064E-03
  -11.3699999       7.91152660E-03
  -11.3599997       9.07081645E-03
  -11.3500004       1.02479486E-02
  -11.3400002       1.14388727E-02
  -11.3299999       1.26397349E-02
  -11.3199997       1.38469562E-02
  -11.3100004       1.50573244E-02
  -11.3000002       1.62679479E-02
  -11.2900000       1.74763091E-02
  -11.2799997       1.86801944E-02
  -11.2700005       1.98776294E-02
  -11.2600002       2.10668258E-02
  -11.2500000       2.22460683E-02
  -11.2399998       2.34136544E-02
  -11.2299995       2.45678294E-02
  -11.2200003       2.57067066E-02
  -11.2100000       2.68282909E-02
  -11.1999998       2.79304497E-02
  -11.1899996       2.90109906E-02
  -11.1800003       3.00676841E-02
  -11.1700001       3.10983416E-02
  -11.1599998       3.21008973E-02
  -11.1499996       3.30734849E-02
  -11.1400003       3.40144001E-02
  -11.1300001       3.49222384E-02
  -11.1199999       3.57958376E-02
  -11.1099997       3.66342664E-02
  -11.1000004       3.74368764E-02
  -11.0900002       3.82032990E-02
  -11.0799999       3.89334038E-02
  -11.0699997       3.96274105E-02
  -11.0600004       4.02858034E-02
  -11.0500002       4.09093499E-02
  -11.0400000       4.14990224E-02
  -11.0299997       4.20559645E-02
  -11.0200005       4.25812975E-02
  -11.0100002       4.30760644E-02
  -11.0000000       4.35411185E-02
  -10.9899998       4.39769477E-02
  -10.9799995       4.43837643E-02
  -10.9700003       4.47613820E-02
  -10.9600000       4.51093689E-02
  -10.9499998       4.54270467E-02
  -10.9399996       4.57137115E-02
  -10.9300003       4.59686071E-02
  -10.9200001       4.61910516E-02
  -10.9099998       4.63804826E-02
  -10.8999996       4.65364605E-02
  -10.8900003       4.66586240E-02
  -10.8800001       4.67466936E-02
  -10.8699999       4.68004271E-02
  -10.8599997       4.68196161E-02
  -10.8500004       4.68040407E-02
  -10.8400002       4.67534624E-02
  -10.8299999       4.66676466E-02
  -10.8199997       4.65462543E-02
  -10.8100004       4.63889502E-02
  -10.8000002       4.61953245E-02
  -10.7900000       4.59648147E-02
  -10.7799997       4.56969403E-02
  -10.7700005       4.53911088E-02
  -10.7600002       4.50469367E-02
  -10.7500000       4.46641557E-02
  -10.7399998       4.42427695E-02
  -10.7299995       4.37830910E-02
  -10.7200003       4.32858281E-02
  -10.7100000       4.27519940E-02
  -10.6999998       4.21828963E-02
  -10.6899996       4.15801592E-02
  -10.6800003       4.09456119E-02
  -10.6700001       4.02813405E-02
  -10.6599998       3.95896137E-02
  -10.6499996       3.88729461E-02
  -10.6400003       3.81340683E-02
  -10.6300001       3.73759158E-02
  -10.6199999       3.66015583E-02
  -10.6099997       3.58141549E-02
  -10.6000004       3.50168273E-02
  -10.5900002       3.42125408E-02
  -10.5799999       3.34042013E-02
  -10.5699997       3.25945280E-02
  -10.5600004       3.17861773E-02
  -10.5500002       3.09818145E-02
  -10.5400000       3.01841963E-02
  -10.5299997       2.93963887E-02
  -10.5200005       2.86216252E-02
  -10.5100002       2.78634150E-02
  -10.5000000       2.71252859E-02
  -10.4899998       2.64107715E-02
  -10.4799995       2.57231705E-02
  -10.4700003       2.50654239E-02
  -10.4600000       2.44399495E-02
  -10.4499998       2.38486342E-02
  -10.4399996       2.32927985E-02
  -10.4300003       2.27731969E-02
  -10.4200001       2.22900417E-02
  -10.4099998       2.18431391E-02
  -10.3999996       2.14317981E-02
  -10.3900003       2.10550930E-02
  -10.3800001       2.07117666E-02
  -10.3699999       2.04004832E-02
  -10.3599997       2.01198850E-02
  -10.3500004       1.98686942E-02
  -10.3400002       1.96458865E-02
  -10.3299999       1.94507353E-02
  -10.3199997       1.92827247E-02
  -10.3100004       1.91416796E-02
  -10.3000002       1.90275311E-02
  -10.2900000       1.89401824E-02
  -10.2799997       1.88795887E-02
  -10.2700005       1.88454743E-02
  -10.2600002       1.88374352E-02
  -10.2500000       1.88548788E-02
  -10.2399998       1.88969430E-02
  -10.2299995       1.89627130E-02
  -10.2200003       1.90509204E-02
  -10.2100000       1.91603210E-02
  -10.1999998       1.92893893E-02
  -10.1899996       1.94366239E-02
  -10.1800003       1.96005292E-02
  -10.1700001       1.97798144E-02
  -10.1599998       1.99735779E-02
  -10.1499996       2.01814007E-02
  -10.1400003       2.04035398E-02
  -10.1300001       2.06408147E-02
  -10.1199999       2.08945181E-02
  -10.1099997       2.11663116E-02
  -10.1000004       2.14579031E-02
  -10.0900002       2.17709504E-02
  -10.0799999       2.21068282E-02
  -10.0699997       2.24665608E-02
  -10.0600004       2.28510536E-02
  -10.0500002       2.32608691E-02
  -10.0400000       2.36967802E-02
  -10.0299997       2.41594482E-02
  -10.0200005       2.46497430E-02
  -10.0100002       2.51684785E-02
  -10.0000000       2.57165562E-02
  -9.98999977       2.62948014E-02
  -9.97999954       2.69038472E-02
  -9.97000027       2.75441874E-02
  -9.96000004       2.82164626E-02
  -9.94999981       2.89212614E-02
  -9.93999958       2.96594258E-02
  -9.93000031       3.04321535E-02
  -9.92000008       3.12408041E-02
  -9.90999985       3.20870653E-02
  -9.89999962       3.29724960E-02
  -9.89000034       3.38986292E-02
  -9.88000011       3.48666608E-02
  -9.86999989       3.58773805E-02
  -9.85999966       3.69313359E-02
  -9.85000038       3.80284712E-02
  -9.84000015       3.91684622E-02
  -9.82999992       4.03506458E-02
  -9.81999969       4.15742099E-02
  -9.81000042       4.28378992E-02
  -9.80000019       4.41403650E-02
  -9.78999996       4.54801545E-02
  -9.77999973       4.68556844E-02
  -9.77000046       4.82655689E-02
  -9.76000023       4.97087613E-02
  -9.75000000       5.11845946E-02
  -9.73999977       5.26931956E-02
  -9.72999954       5.42349257E-02
  -9.72000027       5.58107942E-02
  -9.71000004       5.74220084E-02
  -9.69999981       5.90696298E-02
  -9.68999958       6.07543252E-02
  -9.68000031       6.24765567E-02
  -9.67000008       6.42359257E-02
  -9.65999985       6.60314113E-02
  -9.64999962       6.78613856E-02
  -9.64000034       6.97237998E-02
  -9.63000011       7.16158450E-02
  -9.61999989       7.35345110E-02
  -9.60999966       7.54762068E-02
  -9.60000038       7.74371997E-02
  -9.59000015       7.94132352E-02
  -9.57999992       8.13999400E-02
  -9.56999969       8.33927393E-02
  -9.56000042       8.53871629E-02
  -9.55000019       8.73787329E-02
  -9.53999996       8.93630534E-02
  -9.52999973       9.13360566E-02
  -9.52000046       9.32939500E-02
  -9.51000023       9.52327624E-02
  -9.50000000       9.71487984E-02
  -9.48999977       9.90382880E-02
  -9.47999954      0.100897640    
  -9.47000027      0.102723241    
  -9.46000004      0.104511738    
  -9.44999981      0.106260002    
  -9.43999958      0.107965387    
  -9.43000031      0.109625749    
  -9.42000008      0.111239247    
  -9.40999985      0.112804756    
  -9.39999962      0.114321724    
  -9.39000034      0.115790345    
  -9.38000011      0.117211737    
  -9.36999989      0.118587866    
  -9.35999966      0.119922146    
  -9.35000038      0.121219009    
  -9.34000015      0.122484095    
  -9.32999992      0.123724170    
  -9.31999969      0.124946900    
  -9.31000042      0.126160324    
  -9.30000019      0.127372921    
  -9.28999996      0.128592774    
  -9.27999973      0.129827678    
  -9.27000046      0.131084755    
  -9.26000023      0.132370293    
  -9.25000000      0.133690089    
  -9.23999977      0.135048792    
  -9.22999954      0.136450663    
  -9.22000027      0.137899488    
  -9.21000004      0.139398485    
  -9.19999981      0.140950277    
  -9.18999958      0.142557681    
  -9.18000031      0.144222841    
  -9.17000008      0.145947814    
  -9.15999985      0.147734135    
  -9.14999962      0.149582952    
  -9.14000034      0.151495025    
  -9.13000011      0.153470293    
  -9.11999989      0.155508325    
  -9.10999966      0.157607898    
  -9.10000038      0.159767166    
  -9.09000015      0.161983296    
  -9.07999992      0.164252982    
  -9.06999969      0.166571751    
  -9.06000042      0.168934703    
  -9.05000019      0.171335936    
  -9.03999996      0.173769251    
  -9.02999973      0.176227927    
  -9.02000046      0.178704888    
  -9.01000023      0.181192741    
  -9.00000000      0.183684856    
  -8.98999977      0.186173826    
  -8.97999954      0.188653201    
  -8.97000027      0.191116720    
  -8.96000004      0.193558201    
  -8.94999981      0.195972294    
  -8.93999958      0.198354110    
  -8.93000031      0.200699538    
  -8.92000008      0.203005120    
  -8.90999985      0.205267921    
  -8.89999962      0.207485616    
  -8.89000034      0.209656447    
  -8.88000011      0.211779520    
  -8.86999989      0.213853449    
  -8.85999966      0.215877980    
  -8.85000038      0.217852712    
  -8.84000015      0.219777882    
  -8.82999992      0.221654430    
  -8.81999969      0.223483384    
  -8.81000042      0.225266427    
  -8.80000019      0.227005661    
  -8.78999996      0.228703335    
  -8.77999973      0.230362102    
  -8.77000046      0.231984138    
  -8.76000023      0.233572692    
  -8.75000000      0.235130012    
  -8.73999977      0.236659393    
  -8.72999954      0.238163874    
  -8.72000027      0.239647418    
  -8.71000004      0.241114393    
  -8.69999981      0.242569253    
  -8.68999958      0.244017035    
  -8.68000031      0.245463088    
  -8.67000008      0.246912554    
  -8.65999985      0.248370960    
  -8.64999962      0.249843925    
  -8.64000034      0.251336873    
  -8.63000011      0.252855808    
  -8.61999989      0.254407018    
  -8.60999966      0.255996346    
  -8.60000038      0.257630616    
  -8.59000015      0.259315342    
  -8.57999992      0.261056036    
  -8.56999969      0.262857735    
  -8.56000042      0.264724046    
  -8.55000019      0.266658783    
  -8.53999996      0.268664420    
  -8.52999973      0.270742714    
  -8.52000046      0.272895545    
  -8.51000023      0.275123626    
  -8.50000000      0.277427822    
  -8.48999977      0.279807746    
  -8.47999954      0.282261968    
  -8.47000027      0.284789503    
  -8.46000004      0.287388116    
  -8.44999981      0.290055454    
  -8.43999958      0.292789251    
  -8.43000031      0.295586735    
  -8.42000008      0.298445791    
  -8.40999985      0.301364660    
  -8.39999962      0.304341048    
  -8.39000034      0.307373911    
  -8.38000011      0.310461521    
  -8.36999989      0.313603133    
  -8.35999966      0.316797435    
  -8.35000038      0.320045143    
  -8.34000015      0.323346764    
  -8.32999992      0.326703995    
  -8.31999969      0.330119520    
  -8.31000042      0.333595961    
  -8.30000019      0.337137133    
  -8.28999996      0.340746164    
  -8.27999973      0.344426692    
  -8.27000046      0.348181903    
  -8.26000023      0.352015555    
  -8.25000000      0.355930239    
  -8.23999977      0.359928727    
  -8.22999954      0.364014149    
  -8.22000027      0.368189007    
  -8.21000004      0.372455478    
  -8.19999981      0.376814723    
  -8.18999958      0.381267995    
  -8.18000031      0.385814339    
  -8.17000008      0.390453219    
  -8.15999985      0.395183146    
  -8.14999962      0.400002033    
  -8.14000034      0.404907197    
  -8.13000011      0.409896612    
  -8.11999989      0.414968371    
  -8.10999966      0.420119315    
  -8.10000038      0.425346643    
  -8.09000015      0.430647284    
  -8.07999992      0.436016977    
  -8.06999969      0.441452771    
  -8.06000042      0.446948767    
  -8.05000019      0.452501148    
  -8.03999996      0.458104372    
  -8.02999973      0.463753432    
  -8.02000046      0.469442904    
  -8.01000023      0.475167543    
  -8.00000000      0.480920881    
  -7.98999977      0.486696005    
  -7.98000002      0.492485911    
  -7.96999979      0.498284906    
  -7.96000004      0.504084051    
  -7.94999981      0.509876251    
  -7.94000006      0.515654743    
  -7.92999983      0.521413803    
  -7.92000008      0.527144730    
  -7.90999985      0.532843649    
  -7.90000010      0.538502812    
  -7.88999987      0.544116199    
  -7.88000011      0.549678624    
  -7.86999989      0.555183470    
  -7.86000013      0.560626090    
  -7.84999990      0.566001356    
  -7.84000015      0.571304381    
  -7.82999992      0.576532364    
  -7.82000017      0.581681788    
  -7.80999994      0.586751461    
  -7.80000019      0.591740131    
  -7.78999996      0.596647501    
  -7.78000021      0.601473868    
  -7.76999998      0.606220603    
  -7.76000023      0.610889852    
  -7.75000000      0.615485370    
  -7.73999977      0.620010138    
  -7.73000002      0.624469101    
  -7.71999979      0.628867805    
  -7.71000004      0.633213043    
  -7.69999981      0.637510240    
  -7.69000006      0.641765893    
  -7.67999983      0.645987809    
  -7.67000008      0.650182664    
  -7.65999985      0.654358804    
  -7.65000010      0.658523917    
  -7.63999987      0.662687063    
  -7.63000011      0.666857779    
  -7.61999989      0.671044290    
  -7.61000013      0.675258338    
  -7.59999990      0.679510236    
  -7.59000015      0.683809996    
  -7.57999992      0.688167393    
  -7.57000017      0.692592919    
  -7.55999994      0.697096348    
  -7.55000019      0.701686263    
  -7.53999996      0.706372559    
  -7.53000021      0.711163044    
  -7.51999998      0.716066957    
  -7.51000023      0.721092522    
  -7.50000000      0.726248741    
  -7.48999977      0.731542408    
  -7.48000002      0.736981988    
  -7.46999979      0.742575109    
  -7.46000004      0.748328030    
  -7.44999981      0.754247963    
  -7.44000006      0.760342300    