  -16.0000000       0.00000000    
  -15.9899998       0.00000000    
  -15.9799995       0.00000000    
  -15.9700003       0.00000000    
  -15.9600000       0.00000000    
  -15.9499998       0.00000000    
  -15.9399996       0.00000000    
  -15.9300003       0.00000000    
  -15.9200001       0.00000000    
  -15.9099998       0.00000000    
  -15.8999996       0.00000000    
  -15.8900003       0.00000000    
  -15.8800001      -1.40129846E-45
  -15.8699999      -3.92363570E-44
  -15.8599997      -6.53005084E-43
  -15.8500004      -7.17324684E-42
  -15.8400002      -6.25988050E-41
  -15.8299999      -4.57893891E-40
  -15.8199997      -2.82432406E-39
  -15.8100004      -1.47059660E-38
  -15.8000002      -6.50023121E-38
  -15.7900000      -2.45880573E-37
  -15.7799997      -8.01860289E-37
  -15.7700005      -2.26459805E-36
  -15.7600002      -5.53490598E-36
  -15.7500000      -1.15952409E-35
  -15.7399998      -2.02353288E-35
  -15.7299995      -2.70493447E-35
  -15.7200003      -1.85674441E-35
  -15.7100000       3.26376035E-35
  -15.6999998       1.67578842E-34
  -15.6899996       4.26369709E-34
  -15.6800003       8.10430254E-34
  -15.6700001       1.21953122E-33
  -15.6599998       1.38021836E-33
  -15.6499996       8.11132336E-34
  -15.6400003      -1.09598658E-33
  -15.6300001      -4.77779863E-33
  -15.6199999      -9.90134173E-33
  -15.6099997      -1.45098732E-32
  -15.6000004      -1.42829308E-32
  -15.5900002      -2.85137277E-33
  -15.5799999       2.52955511E-32
  -15.5699997       6.79257530E-32
  -15.5600004       1.05083941E-31
  -15.5500002       9.23730850E-32
  -15.5400000      -2.87408046E-32
  -15.5299997      -2.86952089E-31
  -15.5200005      -6.00411481E-31
  -15.5100002      -6.97213159E-31
  -15.5000000      -1.36781969E-31
  -15.4899998       1.43022435E-30
  -15.4799995       3.69867586E-30
  -15.4700003       5.04739482E-30
  -15.4600000       2.42778967E-30
  -15.4499998      -7.20339478E-30
  -15.4399996      -2.32304481E-29
  -15.4300003      -3.64281614E-29
  -15.4200001      -2.65471116E-29
  -15.4099998       3.09543586E-29
  -15.3999996       1.43123690E-28
  -15.3900003       2.65096794E-28
  -15.3800001       2.72913782E-28
  -15.3699999      -1.63844142E-29
  -15.3599997      -7.32264035E-28
  -15.3500004      -1.73628131E-27
  -15.3400002      -2.38916270E-27
  -15.3299999      -1.51276905E-27
  -15.3199997       2.15595204E-27
  -15.3100004       8.82567335E-27
  -15.3000002       1.60554611E-26
  -15.2900000       1.76586360E-26
  -15.2799997       4.76662038E-27
  -15.2700005      -2.92847108E-26
  -15.2600002      -8.01118078E-26
  -15.2500000      -1.22787506E-25
  -15.2399998      -1.09429318E-25
  -15.2299995       1.57733801E-26
  -15.2200003       2.77252709E-25
  -15.2100000       6.10949894E-25
  -15.1999998       8.18209144E-25
  -15.1899996       5.81595788E-25
  -15.1800003      -4.03257214E-25
  -15.1700001      -2.16377092E-24
  -15.1599998      -4.12918946E-24
  -15.1499996      -4.95024141E-24
  -15.1400003      -2.74867479E-24
  -15.1300001       3.96051917E-24
  -15.1199999       1.47126282E-23
  -15.1099997       2.54671942E-23
  -15.1000004       2.80811037E-23
  -15.0900002       1.23472201E-23
  -15.0799999      -2.84514077E-23
  -15.0699997      -8.92222005E-23
  -15.0600004      -1.45445971E-22
  -15.0500002      -1.52409593E-22
  -15.0400000      -5.81211573E-23
  -15.0299997       1.66812956E-22
  -15.0200005       4.88051758E-22
  -15.0100002       7.73642125E-22
  -15.0000000       7.96986147E-22
  -14.9899998       3.06519995E-22
  -14.9799995      -8.27700226E-22
  -14.9700003      -2.42312079E-21
  -14.9600000      -3.83843147E-21
  -14.9499998      -4.00438417E-21
  -14.9399996      -1.75634213E-21
  -14.9300003       3.50118492E-21
  -14.9200001       1.09555290E-20
  -14.9099998       1.77633741E-20
  -14.8999996       1.92026328E-20
  -14.8900003       1.01023189E-20
  -14.8800001      -1.23518551E-20
  -14.8699999      -4.51051895E-20
  -14.8599997      -7.66071546E-20
  -14.8500004      -8.72960471E-20
  -14.8400002      -5.51803979E-20
  -14.8299999       3.30857317E-20
  -14.8199997       1.68173703E-19
  -14.8100004       3.07135367E-19
  -14.8000002       3.73989215E-19
  -14.7900000       2.79486751E-19
  -14.7799997      -3.79866993E-20
  -14.7700005      -5.59008865E-19
  -14.7600002      -1.13857389E-18
  -14.7500000      -1.50090082E-18
  -14.7399998      -1.30228110E-18
  -14.7299995      -2.71969463E-19
  -14.7200003       1.59481497E-18
  -14.7100000       3.86209759E-18
  -14.6999998       5.60105210E-18
  -14.6899996       5.56455979E-18
  -14.6800003       2.63668328E-18
  -14.6700001      -3.50913673E-18
  -14.6599998      -1.17571283E-17
  -14.6499996      -1.92395196E-17
  -14.6400003      -2.17307312E-17
  -14.6300001      -1.49582015E-17
  -14.6199999       3.29722671E-18
  -14.6099997       3.09050923E-17
  -14.6000004       5.99178666E-17
  -14.5900002       7.71177044E-17
  -14.5799999       6.74289445E-17
  -14.5699997       2.01185893E-17
  -14.5600004      -6.36797649E-17
  -14.5500002      -1.64996804E-16
  -14.5400000      -2.46267709E-16
  -14.5299997      -2.58880136E-16
  -14.5200005      -1.59828447E-16
  -14.5100002       6.55599795E-17
  -14.5000000       3.82198286E-16
  -14.4899998       6.95564292E-16
  -14.4799995       8.64021358E-16
  -14.4700003       7.38419501E-16
  -14.4600000       2.24544146E-16
  -14.4499998      -6.48334635E-16
  -14.4399996      -1.68015698E-15
  -14.4300003      -2.50474906E-15
  -14.4200001      -2.66865502E-15
  -14.4099998      -1.78420799E-15
  -14.3999996       2.75036442E-16
  -14.3900003       3.20070796E-15
  -14.3800001       6.18101033E-15
  -14.3699999       8.01204992E-15
  -14.3599997       7.42085226E-15
  -14.3500004       3.55713985E-15
  -14.3400002      -3.47675663E-15
  -14.3299999      -1.22582320E-14
  -14.3199997      -2.00552448E-14
  -14.3100004      -2.33660916E-14
  -14.3000002      -1.89860877E-14
  -14.2900000      -5.38807610E-15
  -14.2799997       1.60034102E-14
  -14.2700005       4.01843408E-14
  -14.2600002       5.90818627E-14
  -14.2500000       6.34385394E-14
  -14.2399998       4.58633308E-14
  -14.2299995       4.32087727E-15
  -14.2200003      -5.50975078E-14
  -14.2100000      -1.17418282E-13
  -14.1999998      -1.61042905E-13
  -14.1899996      -1.63241423E-13
  -14.1800003      -1.07988712E-13
  -14.1700001       5.90793665E-15
  -14.1599998       1.59227856E-13
  -14.1499996       3.12150289E-13
  -14.1400003       4.11295889E-13
  -14.1300001       4.03844845E-13
  -14.1199999       2.56034479E-13
  -14.1099997      -2.90270737E-14
  -14.1000004      -4.00600478E-13
  -14.0900002      -7.62453252E-13
  -14.0799999      -9.91052509E-13
  -14.0699997      -9.68425969E-13
  -14.0600004      -6.22956005E-13
  -14.0500002       3.31944928E-14
  -14.0400000       8.83357244E-13
  -14.0299997       1.71380705E-12
  -14.0200005       2.25472614E-12
  -14.0100002       2.25053765E-12
  -14.0000000       1.54487360E-12
  -13.9899998       1.56956005E-13
  -13.9799995      -1.67702560E-12
  -13.9700003      -3.51947464E-12
  -13.9600000      -4.81335501E-12
  -13.9499998      -5.02160076E-12
  -13.9399996      -3.79505585E-12
  -13.9300003      -1.12446489E-12
  -13.9200001       2.57339657E-12
  -13.9099998       6.47667770E-12
  -13.8999996       9.50462278E-12
  -13.8900003       1.05734805E-11
  -13.8800001       8.91062918E-12
  -13.8699999       4.34716282E-12
  -13.8599997      -2.50103258E-12
  -13.8500004      -1.02394404E-11
  -13.8400002      -1.69245711E-11
  -13.8299999      -2.04957648E-11
  -13.8199997      -1.93252758E-11
  -13.8100004      -1.27532559E-11
  -13.8000002      -1.45387717E-12
  -13.7900000       1.25003766E-11
  -13.7799997       2.59471455E-11
  -13.7700005       3.52930567E-11
  -13.7600002       3.73987646E-11
  -13.7500000       3.04829495E-11
  -13.7399998       1.48011482E-11
  -13.7299995      -7.11807046E-12
  -13.7200003      -3.08051015E-11
  -13.7100000      -5.07348608E-11
  -13.6999998      -6.15969289E-11
  -13.6899996      -5.96552252E-11
  -13.6800003      -4.38445426E-11
  -13.6700001      -1.62869093E-11
  -13.6599998       1.79597292E-11
  -13.6499996       5.19125368E-11
  -13.6400003       7.82158713E-11
  -13.6300001       9.08508546E-11
  -13.6199999       8.65538821E-11
  -13.6099997       6.55584753E-11
  -13.6000004       3.14582804E-11
  -13.5900002      -9.75684117E-12
  -13.5799999      -5.11877173E-11
  -13.5699997      -8.65684746E-11
  -13.5600004      -1.11381536E-10
  -13.5500002      -1.23215230E-10
  -13.5400000      -1.21318386E-10
  -13.5299997      -1.05632662E-10
  -13.5200005      -7.58361568E-11
  -13.5100002      -3.10022667E-11
  -13.5000000       2.96954752E-11
  -13.4899998       1.05196560E-10
  -13.4799995       1.90166174E-10
  -13.4700003       2.72952549E-10
  -13.4600000       3.35057010E-10
  -13.4499998       3.53118479E-10
  -13.4399996       3.03813974E-10
  -13.4300003       1.71140796E-10
  -13.4200001      -4.54944034E-11
  -13.4099998      -3.24763966E-10
  -13.3999996      -6.21130647E-10
  -13.3900003      -8.68901617E-10
  -13.3800001      -9.93406801E-10
  -13.3699999      -9.28150889E-10
  -13.3599997      -6.34710673E-10
  -13.3500004      -1.20518831E-10
  -13.3400002       5.50928747E-10
  -13.3299999       1.26206523E-09
  -13.3199997       1.85775739E-09
  -13.3100004       2.17517271E-09
  -13.3000002       2.08202056E-09
  -13.2900000       1.51496482E-09
  -13.2799997       5.08376008E-10
  -13.2700005      -7.95656541E-10
  -13.2600002      -2.16187401E-09
  -13.2500000      -3.30142380E-09
  -13.2399998      -3.93061228E-09
  -13.2299995      -3.83723453E-09
  -13.2200003      -2.93928770E-09
  -13.2100000      -1.32075051E-09
  -13.1999998       7.67161112E-10
  -13.1899996       2.94361491E-09
  -13.1800003       4.76986717E-09
  -13.1700001       5.84129456E-09
  -13.1599998       5.87958793E-09
  -13.1499996       4.80310236E-09
  -13.1400003       2.75689094E-09
  -13.1300001       9.25769739E-11
  -13.1199999      -2.69998468E-09
  -13.1099997      -5.09516163E-09
  -13.1000004      -6.64468747E-09
  -13.0900002      -7.07432246E-09
  -13.0799999      -6.33995789E-09
  -13.0699997      -4.62882310E-09
  -13.0600004      -2.30539055E-09
  -13.0500002       1.83758633E-10
  -13.0400000       2.42046672E-09
  -13.0299997       4.11067846E-09
  -13.0200005       5.13874188E-09
  -13.0100002       5.56532198E-09
  -13.0000000       5.57038859E-09
  -12.9899998       5.35954481E-09
  -12.9799995       5.06423437E-09
  -12.9700003       4.67012651E-09
  -12.9600000       4.00141165E-09
  -12.9499998       2.77301826E-09
  -12.9399996       7.01811442E-10
  -12.9300003      -2.35256103E-09
  -12.9200001      -6.26017282E-09
  -12.9099998      -1.05518767E-08
  -12.8999996      -1.44430068E-08
  -12.8900003      -1.69611329E-08
  -12.8800001      -1.71604881E-08
  -12.8699999      -1.43779424E-08
  -12.8599997      -8.46710080E-09
  -12.8500004       5.62403839E-11
  -12.8400002       1.00095727E-08
  -12.8299999       1.97022416E-08
  -12.8199997       2.72401603E-08
  -12.8100004       3.09206527E-08
  -12.8000002       2.96327958E-08
  -12.7900000       2.31685231E-08
  -12.7799997       1.23621025E-08
  -12.7700005      -9.90633686E-10
  -12.7600002      -1.44338301E-08
  -12.7500000      -2.53230059E-08
  -12.7399998      -3.13724406E-08
  -12.7299995      -3.11618606E-08
  -12.7200003      -2.44890117E-08
  -12.7100000      -1.24847777E-08
  -12.6999998       2.54191490E-09
  -12.6899996       1.75027317E-08
  -12.6800003       2.90914635E-08
  -12.6700001       3.43926949E-08
  -12.6599998       3.14145225E-08
  -12.6499996       1.94448333E-08
  -12.6400003      -8.22649560E-10
  -12.6300001      -2.73884329E-08
  -12.6199999      -5.72158392E-08
  -12.6099997      -8.65773089E-08
  -12.6000004      -1.11384963E-07
  -12.5900002      -1.27440714E-07
  -12.5799999      -1.30594373E-07
  -12.5699997      -1.16858025E-07
  -12.5600004      -8.25726332E-08
  -12.5500002      -2.47374654E-08
  -12.5400000       5.84138711E-08
  -12.5299997       1.66576442E-07
  -12.5200005       2.96358991E-07
  -12.5100002       4.40272942E-07
  -12.5000000       5.85980445E-07
  -12.4899998       7.16074851E-07
  -12.4799995       8.08619006E-07
  -12.4700003       8.38548317E-07
  -12.4600000       7.79883692E-07
  -12.4499998       6.08527216E-07
  -12.4399996       3.05264507E-07
  -12.4300003      -1.41474416E-07
  -12.4200001      -7.33534534E-07
  -12.4099998      -1.46196601E-06
  -12.3999996      -2.30712112E-06
  -12.3900003      -3.23987047E-06
  -12.3800001      -4.22369340E-06
  -12.3699999      -5.21728680E-06
  -12.3599997      -6.17727574E-06
  -12.3500004      -7.06068568E-06
  -12.3400002      -7.82695770E-06
  -12.3299999      -8.43943417E-06
  -12.3199997      -8.86640555E-06
  -12.3100004      -9.08189395E-06
  -12.3000002      -9.06634159E-06
  -12.2900000      -8.80732932E-06
  -12.2799997      -8.30030967E-06
  -12.2700005      -7.54920893E-06
  -12.2600002      -6.56667999E-06
  -12.2500000      -5.37377127E-06
  -12.2399998      -3.99881947E-06
  -12.2299995      -2.47557568E-06
  -12.2200003      -8.40715586E-07
  -12.2100000       8.68911343E-07
  -12.1999998       2.61884725E-06
  -12.1899996       4.37896870E-06
  -12.1800003       6.12445774E-06
  -12.1700001       7.83565974E-06
  -12.1599998       9.49694277E-06
  -12.1499996       1.10948877E-05
  -12.1400003       1.26162622E-05
  -12.1300001       1.40463089E-05
  -12.1199999       1.53677356E-05
  -12.1099997       1.65606325E-05
  -12.1000004       1.76033118E-05
  -12.0900002       1.84737673E-05
  -12.0799999       1.91514791E-05
  -12.0699997       1.96189903E-05
  -12.0600004       1.98630314E-05
  -12.0500002       1.98749694E-05
  -12.0400000       1.96505825E-05
  -12.0299997       1.91894105E-05
  -12.0200005       1.84940018E-05
  -12.0100002       1.75692894E-05
  -12.0000000       1.64224130E-05
  -11.9899998       1.50629694E-05
  -11.9799995       1.35035425E-05
  -11.9700003       1.17603122E-05
  -11.9600000       9.85341467E-06
  -11.9499998       7.80676328E-06
  -11.9399996       5.64732318E-06
  -11.9300003       3.40386759E-06
  -11.9200001       1.10549843E-06
  -11.9099998      -1.21972425E-06
  -11.8999996      -3.54571762E-06
  -11.8900003      -5.84864074E-06
  -11.8800001      -8.10652546E-06
  -11.8699999      -1.02984213E-05
  -11.8599997      -1.24034705E-05
  -11.8500004      -1.44002979E-05
  -11.8400002      -1.62671113E-05
  -11.8299999      -1.79826839E-05
  -11.8199997      -1.95281700E-05
  -11.8100004      -2.08894035E-05
  -11.8000002      -2.20591901E-05
  -11.7900000      -2.30390197E-05
  -11.7799997      -2.38396024E-05
  -11.7700005      -2.44799539E-05
  -11.7600002      -2.49849436E-05
  -11.7500000      -2.53814924E-05
  -11.7399998      -2.56939948E-05
  -11.7299995      -2.59396220E-05
  -11.7200003      -2.61242494E-05
  -11.7100000      -2.62397734E-05
  -11.6999998      -2.62632748E-05
  -11.6899996      -2.61583500E-05
  -11.6800003      -2.58785094E-05
  -11.6700001      -2.53723174E-05
  -11.6599998      -2.45895681E-05
  -11.6499996      -2.34876279E-05
  -11.6400003      -2.20370857E-05
  -11.6300001      -2.02257943E-05
  -11.6199999      -1.80607458E-05
  -11.6099997      -1.55675498E-05
  -11.6000004      -1.27876938E-05
  -11.5900002      -9.77414220E-06
  -11.5799999      -6.58619956E-06
  -11.5699997      -3.28450164E-06
  -11.5600004       7.30510266E-08
  -11.5500002       3.43395163E-06
  -11.5400000       6.75232377E-06
  -11.5299997       9.98912674E-06
  -11.5200005       1.31118841E-05
  -11.5100002       1.60946074E-05
  -11.5000000       1.89182283E-05
  -11.4899998       2.15714917E-05
  -11.4799995       2.40518275E-05
  -11.4700003       2.63654074E-05
  -11.4600000       2.85256247E-05
  -11.4499998       3.05495560E-05
  -11.4399996       3.24525608E-05
  -11.4300003       3.42419553E-05
  -11.4200001       3.59110854E-05
  -11.4099998       3.74355368E-05
  -11.3999996       3.87728360E-05
  -11.3900003       3.98662996E-05
  -11.3800001       4.06527070E-05
  -11.3699999       4.10724715E-05
  -11.3599997       4.10802204E-05
  -11.3500004       4.06535837E-05
  -11.3400002       3.97982403E-05
  -11.3299999       3.85484163E-05
  -11.3199997       3.69627596E-05
  -11.3100004       3.51169583E-05
  -11.3000002       3.30947441E-05
  -11.2900000       3.09792631E-05
  -11.2799997       2.88462070E-05
  -11.2700005       2.67592713E-05
  -11.2600002       2.47679145E-05
  -11.2500000       2.29064535E-05
  -11.2399998       2.11938386E-05
  -11.2299995       1.96333331E-05
  -11.2200003       1.82121275E-05
  -11.2100000       1.69015530E-05
  -11.1999998       1.56586266E-05
  -11.1899996       1.44298656E-05
  -11.1800003       1.31574270E-05
  -11.1700001       1.17871959E-05
  -11.1599998       1.02773192E-05
  -11.1499996       8.60562159E-06
  -11.1400003       6.77423304E-06
  -11.1300001       4.81036159E-06
  -11.1199999       2.76319292E-06
  -11.1099997       6.97756093E-07
  -11.1000004      -1.31276795E-06
  -11.0900002      -3.19463106E-06
  -11.0799999      -4.87968691E-06
  -11.0699997      -6.30956947E-06
  -11.0600004      -7.43798910E-06
  -11.0500002      -8.23181472E-06
  -11.0400000      -8.67169001E-06
  -11.0299997      -8.75264323E-06
  -11.0200005      -8.48470154E-06
  -11.0100002      -7.89293972E-06
  -11.0000000      -7.01633962E-06
  -10.9899998      -5.90495119E-06
  -10.9799995      -4.61550462E-06
  -10.9700003      -3.20605318E-06
  -10.9600000      -1.73086801E-06
  -10.9499998      -2.36674822E-07
  -10.9399996       1.23904283E-06
  -10.9300003       2.66768188E-06
  -10.9200001       4.02784690E-06
  -10.9099998       5.30346460E-06
  -10.8999996       6.48270179E-06
  -10.8900003       7.55801830E-06
  -10.8800001       8.52684389E-06
  -10.8699999       9.39167057E-06
  -10.8599997       1.01582336E-05
  -10.8500004       1.08309277E-05
  -10.8400002       1.14058830E-05
  -10.8299999       1.18633789E-05
  -10.8199997       1.21623234E-05
  -10.8100004       1.22395741E-05
  -10.8000002       1.20159621E-05
  -10.7900000       1.14089271E-05
  -10.7799997       1.03495795E-05
  -10.7700005       8.80012067E-06
  -10.7600002       6.76696618E-06
  -10.7500000       4.30568434E-06
  -10.7399998       1.51595498E-06
  -10.7299995      -1.47246726E-06
  -10.7200003      -4.51921824E-06
  -10.7100000      -7.49323726E-06
  -10.6999998      -1.02881950E-05
  -10.6899996      -1.28301663E-05
  -10.6800003      -1.50768501E-05
  -10.6700001      -1.70102649E-05
  -10.6599998      -1.86265461E-05
  -10.6499996      -1.99268106E-05
  -10.6400003      -2.09118225E-05
  -10.6300001      -2.15812015E-05
  -10.6199999      -2.19357917E-05
  -10.6099997      -2.19804733E-05
  -10.6000004      -2.17248980E-05
  -10.5900002      -2.11807801E-05
  -10.5799999      -2.03565487E-05
  -10.5699997      -1.92517564E-05
  -10.5600004      -1.78545251E-05
  -10.5500002      -1.61444350E-05
  -10.5400000      -1.41013670E-05
  -10.5299997      -1.17183099E-05
  -10.5200005      -9.01410658E-06
  -10.5100002      -6.04158822E-06
  -10.5000000      -2.88752130E-06
  -10.4899998       3.36509032E-07
  -10.4799995       3.51029485E-06
  -10.4700003       6.52369363E-06
  -10.4600000       9.29241833E-06
  -10.4499998       1.17665295E-05
  -10.4399996       1.39297481E-05
  -10.4300003       1.57909017E-05
  -10.4200001       1.73712833E-05
  -10.4099998       1.86927264E-05
  -10.3999996       1.97701629E-05
  -10.3900003       2.06102122E-05
  -10.3800001       2.12143786E-05
  -10.3699999       2.15835480E-05
  -10.3599997       2.17200886E-05
  -10.3500004       2.16253338E-05
  -10.3400002       2.12929808E-05
  -10.3299999       2.07016419E-05
  -10.3199997       1.98112757E-05
  -10.3100004       1.85676072E-05
  -10.3000002       1.69159648E-05
  -10.2900000       1.48220706E-05
  -10.2799997       1.22937145E-05
  -10.2700005       9.39552774E-06
  -10.2600002       6.25006851E-06
  -10.2500000       3.02208718E-06
  -10.2399998      -1.11811559E-07
  -10.2299995      -3.00081570E-06
  -10.2200003      -5.55449651E-06
  -10.2100000      -7.76411343E-06
  -10.1999998      -9.70395104E-06
  -10.1899996      -1.15118028E-05
  -10.1800003      -1.33537869E-05
  -10.1700001      -1.53833025E-05
  -10.1599998      -1.77052370E-05
  -10.1499996      -2.03543768E-05
  -10.1400003      -2.32922412E-05
  -10.1300001      -2.64207574E-05
  -10.1199999      -2.96065591E-05
  -10.1099997      -3.27074449E-05
  -10.1000004      -3.55934608E-05
  -10.0900002      -3.81582613E-05
  -10.0799999      -4.03207996E-05
  -10.0699997      -4.20207289E-05
  -10.0600004      -4.32127054E-05
  -10.0500002      -4.38637544E-05
  -10.0400000      -4.39553114E-05
  -10.0299997      -4.34886460E-05
  -10.0200005      -4.24897771E-05
  -10.0100002      -4.10100074E-05
  -10.0000000      -3.91196845E-05
  -9.98999977      -3.68956607E-05
  -9.97999954      -3.44059954E-05
  -9.97000027      -3.16968071E-05
  -9.96000004      -2.87861058E-05
  -9.94999981      -2.56668100E-05
  -9.93999958      -2.23180050E-05
  -9.93000031      -1.87205042E-05
  -9.92000008      -1.48711642E-05
  -9.90999985      -1.07911683E-05
  -9.89999962      -6.52601557E-06
  -9.89000034      -2.13815429E-06
  -9.88000011       2.30375281E-06
  -9.86999989       6.73405521E-06
  -9.85999966       1.10936726E-05
  -9.85000038       1.53268011E-05
  -9.84000015       1.93727756E-05
  -9.82999992       2.31576596E-05
  -9.81999969       2.65907966E-05
  -9.81000042       2.95698756E-05
  -9.80000019       3.19948340E-05
  -9.78999996       3.37869897E-05
  -9.77999973       3.49072980E-05
  -9.77000046       3.53669384E-05
  -9.76000023       3.52253919E-05
  -9.75000000       3.45753760E-05
  -9.73999977       3.35182049E-05
  -9.72999954       3.21366169E-05
  -9.72000027       3.04735368E-05
  -9.71000004       2.85233418E-05
  -9.69999981       2.62386056E-05
  -9.68999958       2.35503612E-05
  -9.68000031       2.03961190E-05
  -9.67000008       1.67473081E-05
  -9.65999985       1.26288096E-05
  -9.64999962       8.12557391E-06
  -9.64000034       3.37583629E-06
  -9.63000011      -1.44599869E-06
  -9.61999989      -6.15093995E-06
  -9.60999966      -1.05554836E-05
  -9.60000038      -1.44956402E-05
  -9.59000015      -1.78334467E-05
  -9.57999992      -2.04573607E-05
  -9.56999969      -2.22800008E-05
  -9.56000042      -2.32369875E-05
  -9.55000019      -2.32891889E-05
  -9.53999996      -2.24285286E-05
  -9.52999973      -2.06849236E-05
  -9.52000046      -1.81306987E-05
  -9.51000023      -1.48787803E-05
  -9.50000000      -1.10726305E-05
  -9.48999977      -6.86872363E-06
  -9.47999954      -2.41480302E-06
  -9.47000027       2.17072829E-06
  -9.46000004       6.81281517E-06
  -9.44999981       1.14831610E-05
  -9.43999958       1.61918942E-05
  -9.43000031       2.09696427E-05
  -9.42000008       2.58449836E-05
  -9.40999985       3.08233975E-05
  -9.39999962       3.58737416E-05
  -9.39000034       4.09253662E-05
  -9.38000011       4.58764189E-05
  -9.36999989       5.06098404E-05
  -9.35999966       5.50118348E-05
  -9.35000038       5.89866540E-05
  -9.34000015       6.24630411E-05
  -9.32999992       6.53905663E-05
  -9.31999969       6.77273347E-05
  -9.31000042       6.94239425E-05
  -9.30000019       7.04093036E-05
  -9.28999996       7.05841376E-05
  -9.27999973       6.98251024E-05
  -9.27000046       6.79994992E-05
  -9.26000023       6.49868598E-05
  -9.25000000       6.07017791E-05
  -9.23999977       5.51118937E-05
  -9.22999954       4.82460819E-05
  -9.22000027       4.01915458E-05
  -9.21000004       3.10806972E-05
  -9.19999981       2.10721355E-05
  -9.18999958       1.03304665E-05
  -9.18000031      -9.90458375E-07
  -9.17000008      -1.27582562E-05
  -9.15999985      -2.48659999E-05
  -9.14999962      -3.72310024E-05
  -9.14000034      -4.97900983E-05
  -9.13000011      -6.24932218E-05
  -9.11999989      -7.52961423E-05
  -9.10999966      -8.81520609E-05
  -9.10000038      -1.01001948E-04
  -9.09000015      -1.13764043E-04
  -9.07999992      -1.26324318E-04
  -9.06999969      -1.38531075E-04
  -9.06000042      -1.50196938E-04
  -9.05000019      -1.61110307E-04
  -9.03999996      -1.71055843E-04
  -9.02999973      -1.79840499E-04
  -9.02000046      -1.87318205E-04
  -9.01000023      -1.93406740E-04
  -9.00000000      -1.98090900E-04
  -8.98999977      -2.01410148E-04
  -8.97999954      -2.03433956E-04
  -8.97000027      -2.04232012E-04
  -8.96000004      -2.03848613E-04
  -8.94999981      -2.02289259E-04
  -8.93999958      -1.99523973E-04
  -8.93000031      -1.95505287E-04
  -8.92000008      -1.90195118E-04
  -8.90999985      -1.83590804E-04
  -8.89999962      -1.75741050E-04
  -8.89000034      -1.66747413E-04
  -8.88000011      -1.56750946E-04
  -8.86999989      -1.45909449E-04
  -8.85999966      -1.34374699E-04
  -8.85000038      -1.22276615E-04
  -8.84000015      -1.09720095E-04
  -8.82999992      -9.67927481E-05
  -8.81999969      -8.35792380E-05
  -8.81000042      -7.01734316E-05
  -8.80000019      -5.66825038E-05
  -8.78999996      -4.32195338E-05
  -8.77999973      -2.98874329E-05
  -8.77000046      -1.67609978E-05
  -8.76000023      -3.87541422E-06
  -8.75000000       8.77251114E-06
  -8.73999977       2.12088617E-05
  -8.72999954       3.34577671E-05
  -8.72000027       4.55156878E-05
  -8.71000004       5.73352809E-05
  -8.69999981       6.88254368E-05
  -8.68999958       7.98689434E-05
  -8.68000031       9.03518812E-05
  -8.67000008       1.00194746E-04
  -8.65999985       1.09373192E-04
  -8.64999962       1.17920936E-04
  -8.64000034       1.25912717E-04
  -8.63000011       1.33432681E-04
  -8.61999989       1.40539050E-04
  -8.60999966       1.47237079E-04
  -8.60000038       1.53469300E-04
  -8.59000015       1.59125353E-04
  -8.57999992       1.64068231E-04
  -8.56999969       1.68166356E-04
  -8.56000042       1.71322099E-04
  -8.55000019       1.73487526E-04
  -8.53999996       1.74665081E-04
  -8.52999973       1.74895875E-04
  -8.52000046       1.74242494E-04
  -8.51000023       1.72773900E-04
  -8.50000000       1.70557629E-04
  -8.48999977       1.67659979E-04
  -8.47999954       1.64150784E-04
  -8.47000027       1.60107564E-04
  -8.46000004       1.55614733E-04
  -8.44999981       1.50756532E-04
  -8.43999958       1.45607133E-04
  -8.43000031       1.40224249E-04
  -8.42000008       1.34650618E-04
  -8.40999985       1.28927859E-04
  -8.39999962       1.23117992E-04
  -8.39000034       1.17326759E-04
  -8.38000011       1.11717483E-04
  -8.36999989       1.06508429E-04
  -8.35999966       1.01949496E-04
  -8.35000038       9.82832717E-05
  -8.34000015       9.57011580E-05
  -8.32999992       9.43074992E-05
  -8.31999969       9.41042454E-05
  -8.31000042       9.50001631E-05
  -8.30000019       9.68429886E-05
  -8.28999996       9.94620204E-05
  -8.27999973       1.02707680E-04
  -8.27000046       1.06474530E-04
  -8.26000023       1.10700996E-04
  -8.25000000       1.15347502E-04
  -8.23999977       1.20363693E-04
  -8.22999954       1.25657796E-04
  -8.22000027       1.31081528E-04
  -8.21000004       1.36436836E-04
  -8.19999981       1.41502285E-04
  -8.18999958       1.46069622E-04
  -8.18000031       1.49976942E-04
  -8.17000008       1.53125977E-04
  -8.15999985       1.55477974E-04
  -8.14999962       1.57029892E-04
  -8.14000034       1.57781076E-04
  -8.13000011       1.57703500E-04
  -8.11999989       1.56727008E-04
  -8.10999966       1.54745227E-04
  -8.10000038       1.51639382E-04
  -8.09000015       1.47310318E-04
  -8.07999992       1.41705779E-04
  -8.06999969       1.34831571E-04
  -8.06000042       1.26742409E-04
  -8.05000019       1.17515345E-04
  -8.03999996       1.07215819E-04
  -8.02999973       9.58699602E-05
  -8.02000046       8.34539314E-05
  -8.01000023       6.99051743E-05
  -8.00000000       5.51521953E-05
  -7.98999977       3.91524336E-05
  -7.98000002       2.19251378E-05
  -7.96999979       3.56710461E-06
  -7.96000004      -1.57538743E-05
  -7.94999981      -3.58253492E-05
  -7.94000006      -5.64269030E-05
  -7.92999983      -7.73638385E-05
  -7.92000008      -9.84868602E-05
  -7.90999985      -1.19691045E-04
  -7.90000010      -1.40896460E-04
  -7.88999987      -1.62018405E-04
  -7.88000011      -1.82939577E-04
  -7.86999989      -2.03495336E-04
  -7.86000013      -2.23477677E-04
  -7.84999990      -2.42656140E-04
  -7.84000015      -2.60808971E-04
  -7.82999992      -2.77751329E-04
  -7.82000017      -2.93351331E-04
  -7.80999994      -3.07527400E-04
  -7.80000019      -3.20228748E-04
  -7.78999996      -3.31407442E-04
  -7.78000021      -3.40993487E-04
  -7.76999998      -3.48883215E-04
  -7.76000023      -3.54948279E-04
  -7.75000000      -3.59061291E-04
  -7.73999977      -3.61131271E-04
  -7.73000002      -3.61134647E-04
  -7.71999979      -3.59129946E-04
  -7.71000004      -3.55249736E-04
  -7.69999981      -3.49669717E-04
  -7.69000006      -3.42565909E-04
  -7.67999983      -3.34073324E-04
  -7.67000008      -3.24261113E-04
  -7.65999985      -3.13133525E-04
  -7.65000010      -3.00657644E-04
  -7.63999987      -2.86809372E-04
  -7.63000011      -2.71622150E-04
  -7.61999989      -2.55222199E-04
  -7.61000013      -2.37837186E-04
  -7.59999990      -2.19776237E-04
  -7.59000015      -2.01385657E-04
  -7.57999992      -1.82995878E-04
  -7.57000017      -1.64876823E-04
  -7.55999994      -1.47214756E-04
  -7.55000019      -1.30116881E-04
  -7.53999996      -1.13639500E-04
  -7.53000021      -9.78262033E-05
  -7.51999998      -8.27404510E-05
  -7.51000023      -6.84781407E-05
  -7.50000000      -5.51545781E-05
  -7.48999977      -4.28705462E-05
  -7.48000002      -3.16702753E-05
  -7.46999979      -2.15094751E-05
  -7.46000004      -1.22473048E-05
  -7.44999981      -3.66970403E-06
  -7.44000006       4.46113381E-06