  -16.0000000       0.00000000    
  -15.9899998       0.00000000    
  -15.9799995       0.00000000    
  -15.9700003       0.00000000    
  -15.9600000       0.00000000    
  -15.9499998       0.00000000    
  -15.9399996       0.00000000    
  -15.9300003       0.00000000    
  -15.9200001       0.00000000    
  -15.9099998       0.00000000    
  -15.8999996       0.00000000    
  -15.8900003       0.00000000    
  -15.8800001       0.00000000    
  -15.8699999       2.94272678E-44
  -15.8599997       3.00998910E-42
  -15.8500004       7.51796626E-42
  -15.8400002      -6.22427351E-40
  -15.8299999      -1.22636050E-38
  -15.8199997      -1.30827971E-37
  -15.8100004      -9.91710627E-37
  -15.8000002      -5.90320471E-36
  -15.7900000      -2.90068958E-35
  -15.7799997      -1.21379698E-34
  -15.7700005      -4.41338895E-34
  -15.7600002      -1.41321522E-33
  -15.7500000      -4.01897110E-33
  -15.7399998      -1.01916778E-32
  -15.7299995      -2.30293861E-32
  -15.7200003      -4.60220203E-32
  -15.7100000      -7.97395711E-32
  -15.6999998      -1.13934496E-31
  -15.6899996      -1.13986606E-31
  -15.6800003      -4.93467349E-33
  -15.6700001       3.34288118E-31
  -15.6599998       1.04039234E-30
  -15.6499996       2.16300383E-30
  -15.6400003       3.46425219E-30
  -15.6300001       4.15155302E-30
  -15.6199999       2.69508336E-30
  -15.6099997      -2.95390521E-30
  -15.6000004      -1.43215040E-29
  -15.5900002      -3.02861692E-29
  -15.5799999      -4.43010260E-29
  -15.5699997      -4.27120074E-29
  -15.5600004      -7.42178018E-30
  -15.5500002       7.35199682E-29
  -15.5400000       1.86828373E-28
  -15.5299997       2.73959442E-28
  -15.5200005       2.29685827E-28
  -15.5100002      -5.29714452E-29
  -15.5000000      -5.74173739E-28
  -15.4899998      -1.08306876E-27
  -15.4799995      -1.00695167E-27
  -15.4700003       3.59011205E-28
  -15.4600000       3.23108317E-27
  -15.4499998       6.34762782E-27
  -15.4399996       6.17962472E-27
  -15.4300003      -2.47203123E-27
  -15.4200001      -2.30879681E-26
  -15.4099998      -5.08347452E-26
  -15.3999996      -6.51897766E-26
  -15.3900003      -2.85122311E-26
  -15.3800001       9.94061253E-26
  -15.3699999       3.23154232E-25
  -15.3599997       5.55506038E-25
  -15.3500004       5.74266925E-25
  -15.3400002       5.18368759E-26
  -15.3299999      -1.27422010E-24
  -15.3199997      -3.26588040E-24
  -15.3100004      -4.98317912E-24
  -15.3000002      -4.49793776E-24
  -15.2900000       6.43374049E-25
  -15.2799997       1.19222647E-23
  -15.2700005       2.73705231E-23
  -15.2600002       3.90667334E-23
  -15.2500000       3.26782191E-23
  -15.2399998      -8.23253426E-24
  -15.2299995      -9.12867820E-23
  -15.2200003      -1.99199925E-22
  -15.2100000      -2.75633226E-22
  -15.1999998      -2.26118408E-22
  -15.1899996       5.07235227E-23
  -15.1800003       5.93863628E-22
  -15.1700001       1.28538758E-21
  -15.1599998       1.77537234E-21
  -15.1499996       1.50029894E-21
  -15.1400003      -1.26545545E-22
  -15.1300001      -3.32224572E-21
  -15.1199999      -7.42277066E-21
  -15.1099997      -1.04969438E-20
  -15.1000004      -9.46755548E-21
  -15.0900002      -1.11967347E-21
  -15.0799999       1.58822022E-20
  -15.0699997       3.84115955E-20
  -15.0600004       5.69309835E-20
  -15.0500002       5.59859168E-20
  -15.0400000       1.89039851E-20
  -15.0299997      -6.27532235E-20
  -15.0200005      -1.76978097E-19
  -15.0100002      -2.81668233E-19
  -15.0000000      -3.05515851E-19
  -14.9899998      -1.67274260E-19
  -14.9799995       1.83785871E-19
  -14.9700003       7.13882873E-19
  -14.9600000       1.25862323E-18
  -14.9499998       1.51754121E-18
  -14.9399996       1.12256733E-18
  -14.9300003      -2.04521854E-19
  -14.9200001      -2.43023637E-18
  -14.9099998      -5.00113233E-18
  -14.8999996      -6.77381885E-18
  -14.8900003      -6.21719867E-18
  -14.8800001      -1.96353673E-18
  -14.8699999       6.35246297E-18
  -14.8599997       1.72202493E-17
  -14.8500004       2.67825862E-17
  -14.8400002       2.92721153E-17
  -14.8299999       1.87089560E-17
  -14.8199997      -8.21591767E-18
  -14.8100004      -4.87915628E-17
  -14.8000002      -9.18663810E-17
  -14.7900000      -1.18109851E-16
  -14.7799997      -1.04420865E-16
  -14.7700005      -3.27672644E-17
  -14.7600002       9.82454126E-17
  -14.7500000       2.63034541E-16
  -14.7399998       4.05482560E-16
  -14.7299995       4.47562416E-16
  -14.7200003       3.12751325E-16
  -14.7100000      -3.85496970E-17
  -14.6999998      -5.71353740E-16
  -14.6899996      -1.15185152E-15
  -14.6800003      -1.55422023E-15
  -14.6700001      -1.51089936E-15
  -14.6599998      -8.06108974E-16
  -14.6499996       6.06775863E-16
  -14.6400003       2.50234603E-15
  -14.6300001       4.34480892E-15
  -14.6199999       5.35940023E-15
  -14.6099997       4.73448642E-15
  -14.6000004       1.92936191E-15
  -14.5900002      -2.98876041E-15
  -14.5799999      -9.09920739E-15
  -14.5699997      -1.46084943E-14
  -14.5600004      -1.71558748E-14
  -14.5500002      -1.44609751E-14
  -14.5400000      -5.20304133E-15
  -14.5299997       1.00992839E-14
  -14.5200005       2.85298281E-14
  -14.5100002       4.48510959E-14
  -14.5000000       5.24332537E-14
  -14.4899998       4.49993436E-14
  -14.4799995       1.89030733E-14
  -14.4700003      -2.46441695E-14
  -14.4600000      -7.81395754E-14
  -14.4499998      -1.27875778E-13
  -14.4399996      -1.56033267E-13
  -14.4300003      -1.44804944E-13
  -14.4200001      -8.19854370E-14
  -14.4099998       3.31292102E-14
  -14.3999996       1.85177408E-13
  -14.3900003       3.41290472E-13
  -14.3800001       4.54274747E-13
  -14.3699999       4.71310165E-13
  -14.3599997       3.47658995E-13
  -14.3500004       6.35145555E-14
  -14.3400002      -3.59755845E-13
  -14.3299999      -8.48934150E-13
  -14.3199997      -1.27961584E-12
  -14.3100004      -1.49279634E-12
  -14.3000002      -1.32964516E-12
  -14.2900000      -6.81484329E-13
  -14.2799997       4.54034976E-13
  -14.2700005       1.92596199E-12
  -14.2600002       3.41194499E-12
  -14.2500000       4.44804176E-12
  -14.2399998       4.51803959E-12
  -14.2299995       3.19870302E-12
  -14.2200003       3.36596338E-13
  -14.2100000      -3.78970640E-12
  -14.1999998      -8.38277277E-12
  -14.1899996      -1.21756667E-11
  -14.1800003      -1.36564076E-11
  -14.1700001      -1.14627934E-11
  -14.1599998      -4.88184883E-12
  -14.1499996       5.67405931E-12
  -14.1400003       1.83803684E-11
  -14.1300001       3.00686767E-11
  -14.1199999       3.67571459E-11
  -14.1099997       3.46313117E-11
  -14.1000004       2.13086580E-11
  -14.0900002      -2.92673611E-12
  -14.0799999      -3.43315480E-11
  -14.0699997      -6.57534374E-11
  -14.0600004      -8.77681122E-11
  -14.0500002      -9.08841405E-11
  -14.0400000      -6.84292623E-11
  -14.0299997      -1.94222693E-11
  -14.0200005       4.95028636E-11
  -14.0100002       1.23939969E-10
  -14.0000000       1.83903420E-10
  -13.9899998       2.08276285E-10
  -13.9799995       1.80757229E-10
  -13.9700003       9.58728791E-11
  -13.9600000      -3.67710064E-11
  -13.9499998      -1.91659077E-10
  -13.9399996      -3.31049188E-10
  -13.9300003      -4.13028917E-10
  -13.9200001      -4.02553074E-10
  -13.9099998      -2.82827844E-10
  -13.8999996      -6.37452036E-11
  -13.8900003       2.15620438E-10
  -13.8800001       4.92373475E-10
  -13.8699999       6.92887581E-10
  -13.8599997       7.51239182E-10
  -13.8500004       6.28630481E-10
  -13.8400002       3.28367888E-10
  -13.8299999      -9.85630327E-11
  -13.8199997      -5.60355817E-10
  -13.8100004      -9.43620959E-10
  -13.8000002      -1.14125009E-09
  -13.7900000      -1.08224796E-09
  -13.7799997      -7.55223495E-10
  -13.7700005      -2.18165791E-10
  -13.7600002       4.10096124E-10
  -13.7500000       9.76406400E-10
  -13.7399998       1.33233613E-09
  -13.7299995       1.37587142E-09
  -13.7200003       1.08403420E-09
  -13.7100000       5.25801624E-10
  -13.6999998      -1.50519180E-10
  -13.6899996      -7.54677598E-10
  -13.6800003      -1.10818132E-09
  -13.6700001      -1.10012932E-09
  -13.6599998      -7.28473226E-10
  -13.6499996      -1.12366304E-10
  -13.6400003       5.31984568E-10
  -13.6300001       9.49430090E-10
  -13.6199999       9.24993027E-10
  -13.6099997       3.62618713E-10
  -13.6000004      -6.60520139E-10
  -13.5900002      -1.88479055E-09
  -13.5799999      -2.91401792E-09
  -13.5699997      -3.31210415E-09
  -13.5600004      -2.73008127E-09
  -13.5500002      -1.03196141E-09
  -13.5400000       1.61801639E-09
  -13.5299997       4.73724437E-09
  -13.5200005       7.59297514E-09
  -13.5100002       9.35171585E-09
  -13.5000000       9.28212085E-09
  -13.4899998       6.96466618E-09
  -13.4799995       2.45452703E-09
  -13.4700003      -3.65226271E-09
  -13.4600000      -1.02785789E-08
  -13.4499998      -1.60518265E-08
  -13.4399996      -1.95838314E-08
  -13.4300003      -1.97857464E-08
  -13.4200001      -1.61435683E-08
  -13.4099998      -8.88599239E-09
  -13.3999996       1.00432529E-09
  -13.3900003       1.19462360E-08
  -13.3800001       2.20537224E-08
  -13.3699999       2.95020843E-08
  -13.3599997       3.28827277E-08
  -13.3500004       3.14644737E-08
  -13.3400002       2.53027626E-08
  -13.3299999       1.51797188E-08
  -13.3199997       2.40357667E-09
  -13.3100004      -1.14678018E-08
  -13.3000002      -2.48975187E-08
  -13.2900000      -3.65576724E-08
  -13.2799997      -4.53945574E-08
  -13.2700005      -5.05756468E-08
  -13.2600002      -5.13719982E-08
  -13.2500000      -4.70593626E-08
  -13.2399998      -3.69285971E-08
  -13.2299995      -2.04576267E-08
  -13.2200003       2.35239983E-09
  -13.2100000       3.05558849E-08
  -13.1999998       6.18849896E-08
  -13.1899996       9.25844290E-08
  -13.1800003       1.17601282E-07
  -13.1700001       1.31206932E-07
  -13.1599998       1.28019309E-07
  -13.1499996       1.04263428E-07
  -13.1400003       5.90158322E-08
  -13.1300001      -4.88340035E-09
  -13.1199999      -8.05516507E-08
  -13.1099997      -1.57597029E-07
  -13.1000004      -2.23496670E-07
  -13.0900002      -2.65640352E-07
  -13.0799999      -2.73699101E-07
  -13.0699997      -2.41828900E-07
  -13.0600004      -1.70252250E-07
  -13.0500002      -6.58013093E-08
  -13.0400000       5.87360951E-08
  -13.0299997       1.86445561E-07
  -13.0200005       2.98944741E-07
  -13.0100002       3.79379628E-07
  -13.0000000       4.15187998E-07
  -12.9899998       4.00061907E-07
  -12.9799995       3.34801484E-07
  -12.9700003       2.26912405E-07
  -12.9600000       8.91572540E-08
  -12.9499998      -6.25702583E-08
  -12.9399996      -2.11536658E-07
  -12.9300003      -3.42162224E-07
  -12.9200001      -4.41399862E-07
  -12.9099998      -4.99418036E-07
  -12.8999996      -5.09741142E-07
  -12.8900003      -4.69197346E-07
  -12.8800001      -3.77982843E-07
  -12.8699999      -2.40159551E-07
  -12.8599997      -6.45210108E-08
  -12.8500004       1.34439205E-07
  -12.8400002       3.35981611E-07
  -12.8299999       5.13694260E-07
  -12.8199997       6.37710855E-07
  -12.8100004       6.78817003E-07
  -12.8000002       6.14145108E-07
  -12.7900000       4.33624876E-07
  -12.7799997       1.45853377E-07
  -12.7700005      -2.18199986E-07
  -12.7600002      -6.05114224E-07
  -12.7500000      -9.43523617E-07
  -12.7399998      -1.15339947E-06
  -12.7299995      -1.15920443E-06
  -12.7200003      -9.05105594E-07
  -12.7100000      -3.69617908E-07
  -12.6999998       4.23074539E-07
  -12.6899996       1.39790336E-06
  -12.6800003       2.43146656E-06
  -12.6700001       3.36296512E-06
  -12.6599998       4.01273610E-06
  -12.6499996       4.20622246E-06
  -12.6400003       3.80022038E-06
  -12.6300001       2.70779219E-06
  -12.6199999       9.18285139E-07
  -12.6099997      -1.49018399E-06
  -12.6000004      -4.34798903E-06
  -12.5900002      -7.40108362E-06
  -12.5799999      -1.03277052E-05
  -12.5699997      -1.27632366E-05
  -12.5600004      -1.43308889E-05
  -12.5500002      -1.46762804E-05
  -12.5400000      -1.35031632E-05
  -12.5299997      -1.06083644E-05
  -12.5200005      -5.91336948E-06
  -12.5100002       5.09550318E-07
  -12.5000000       8.41926067E-06
  -12.4899998       1.73979970E-05
  -12.4799995       2.68559652E-05
  -12.4700003       3.60505292E-05
  -12.4600000       4.41194788E-05
  -12.4499998       5.01280447E-05
  -12.4399996       5.31271871E-05
  -12.4300003       5.22173141E-05
  -12.4200001       4.66131823E-05
  -12.4099998       3.57023564E-05
  -12.3999996       1.90921746E-05
  -12.3900003      -3.36058065E-06
  -12.3800001      -3.15390607E-05
  -12.3699999      -6.50748480E-05
  -12.3599997      -1.03372295E-04
  -12.3500004      -1.45645725E-04
  -12.3400002      -1.90960098E-04
  -12.3299999      -2.38272798E-04
  -12.3199997      -2.86467752E-04
  -12.3100004      -3.34380631E-04
  -12.3000002      -3.80814599E-04
  -12.2900000      -4.24546597E-04
  -12.2799997      -4.64328070E-04
  -12.2700005      -4.98882553E-04
  -12.2600002      -5.26909542E-04
  -12.2500000      -5.47093281E-04
  -12.2399998      -5.58114203E-04
  -12.2299995      -5.58679691E-04
  -12.2200003      -5.47553704E-04
  -12.2100000      -5.23598457E-04
  -12.1999998      -4.85815632E-04
  -12.1899996      -4.33393841E-04
  -12.1800003      -3.65756772E-04
  -12.1700001      -2.82606517E-04
  -12.1599998      -1.83970827E-04
  -12.1499996      -7.02390462E-05
  -12.1400003       5.78077961E-05
  -12.1300001       1.98976733E-04
  -12.1199999       3.51659546E-04
  -12.1099997       5.13855251E-04
  -12.1000004       6.83208462E-04
  -12.0900002       8.57073115E-04
  -12.0799999       1.03260158E-03
  -12.0699997       1.20684376E-03
  -12.0600004       1.37685298E-03
  -12.0500002       1.53979228E-03
  -12.0400000       1.69301836E-03
  -12.0299997       1.83414971E-03
  -12.0200005       1.96109829E-03
  -12.0100002       2.07208190E-03
  -12.0000000       2.16559134E-03
  -11.9899998       2.24035070E-03
  -11.9799995       2.29527336E-03
  -11.9700003       2.32939282E-03
  -11.9600000       2.34182412E-03
  -11.9499998       2.33174372E-03
  -11.9399996       2.29835347E-03
  -11.9300003       2.24091625E-03
  -11.9200001       2.15875520E-03
  -11.9099998       2.05129385E-03
  -11.8999996       1.91809481E-03
  -11.8900003       1.75887055E-03
  -11.8800001       1.57353433E-03
  -11.8699999       1.36220700E-03
  -11.8599997       1.12522487E-03
  -11.8500004       8.63179797E-04
  -11.8400002       5.76887629E-04
  -11.8299999       2.67428724E-04
  -11.8199997      -6.38573401E-05
  -11.8100004      -4.15365648E-04
  -11.8000002      -7.85217911E-04
  -11.7900000      -1.17127318E-03
  -11.7799997      -1.57113618E-03
  -11.7700005      -1.98216713E-03
  -11.7600002      -2.40151770E-03
  -11.7500000      -2.82614166E-03
  -11.7399998      -3.25283804E-03
  -11.7299995      -3.67824128E-03
  -11.7200003      -4.09887079E-03
  -11.7100000      -4.51109791E-03
  -11.6999998      -4.91119456E-03
  -11.6899996      -5.29530225E-03
  -11.6800003      -5.65946149E-03
  -11.6700001      -5.99962752E-03
  -11.6599998      -6.31169695E-03
  -11.6499996      -6.59158081E-03
  -11.6400003      -6.83523621E-03
  -11.6300001      -7.03875674E-03
  -11.6199999      -7.19843060E-03
  -11.6099997      -7.31082074E-03
  -11.6000004      -7.37281376E-03
  -11.5900002      -7.38167809E-03
  -11.5799999      -7.33507378E-03
  -11.5699997      -7.23108323E-03
  -11.5600004      -7.06819305E-03
  -11.5500002      -6.84529496E-03
  -11.5400000      -6.56164484E-03
  -11.5299997      -6.21684315E-03
  -11.5200005      -5.81080746E-03
  -11.5100002      -5.34371147E-03
  -11.5000000      -4.81597893E-03
  -11.4899998      -4.22823662E-03
  -11.4799995      -3.58128361E-03
  -11.4700003      -2.87608895E-03
  -11.4600000      -2.11375300E-03
  -11.4499998      -1.29552791E-03
  -11.4399996      -4.22796234E-04
  -11.4300003       5.02889045E-04
  -11.4200001       1.47978798E-03
  -11.4099998       2.50597601E-03
  -11.3999996       3.57928011E-03
  -11.3900003       4.69728420E-03
  -11.3800001       5.85729955E-03
  -11.3699999       7.05635082E-03
  -11.3599997       8.29116162E-03
  -11.3500004       9.55816265E-03
  -11.3400002       1.08534740E-02
  -11.3299999       1.21729523E-02
  -11.3199997       1.35121457E-02
  -11.3100004       1.48663893E-02
  -11.3000002       1.62307881E-02
  -11.2900000       1.76002849E-02
  -11.2799997       1.89697314E-02
  -11.2700005       2.03339551E-02
  -11.2600002       2.16878299E-02
  -11.2500000       2.30263900E-02
  -11.2399998       2.43449211E-02
  -11.2299995       2.56390125E-02
  -11.2200003       2.69046668E-02
  -11.2100000       2.81382948E-02
  -11.1999998       2.93367989E-02
  -11.1899996       3.04975472E-02
  -11.1800003       3.16183344E-02
  -11.1700001       3.26973796E-02
  -11.1599998       3.37332301E-02
  -11.1499996       3.47247012E-02
  -11.1400003       3.56708057E-02
  -11.1300001       3.65706719E-02
  -11.1199999       3.74235213E-02
  -11.1099997       3.82285826E-02
  -11.1000004       3.89850400E-02
  -11.0900002       3.96920666E-02
  -11.0799999       4.03487608E-02
  -11.0699997       4.09542136E-02
  -11.0600004       4.15074639E-02
  -11.0500002       4.20075431E-02
  -11.0400000       4.24535647E-02
  -11.0299997       4.28446531E-02
  -11.0200005       4.31800857E-02
  -11.0100002       4.34592888E-02
  -11.0000000       4.36818823E-02
  -10.9899998       4.38477136E-02
  -10.9799995       4.39569429E-02
  -10.9700003       4.40099984E-02
  -10.9600000       4.40076254E-02
  -10.9499998       4.39509377E-02
  -10.9399996       4.38412726E-02
  -10.9300003       4.36803177E-02
  -10.9200001       4.34699543E-02
  -10.9099998       4.32122834E-02
  -10.8999996       4.29094471E-02
  -10.8900003       4.25636768E-02
  -10.8800001       4.21770848E-02
  -10.8699999       4.17517312E-02
  -10.8599997       4.12893854E-02
  -10.8500004       4.07916233E-02
  -10.8400002       4.02597077E-02
  -10.8299999       3.96945626E-02
  -10.8199997       3.90968509E-02
  -10.8100004       3.84669490E-02
  -10.8000002       3.78050096E-02
  -10.7900000       3.71110551E-02
  -10.7799997       3.63850184E-02
  -10.7700005       3.56268585E-02
  -10.7600002       3.48365642E-02
  -10.7500000       3.40142958E-02
  -10.7399998       3.31603922E-02
  -10.7299995       3.22754048E-02
  -10.7200003       3.13601717E-02
  -10.7100000       3.04157455E-02
  -10.6999998       2.94435751E-02
  -10.6899996       2.84453314E-02
  -10.6800003       2.74231248E-02
  -10.6700001       2.63793264E-02
  -10.6599998       2.53167376E-02
  -10.6499996       2.42384169E-02
  -10.6400003       2.31477786E-02
  -10.6300001       2.20484696E-02
  -10.6199999       2.09443197E-02
  -10.6099997       1.98392868E-02
  -10.6000004       1.87373813E-02
  -10.5900002       1.76426005E-02
  -10.5799999       1.65588576E-02
  -10.5699997       1.54899769E-02
  -10.5600004       1.44396741E-02
  -10.5500002       1.34115014E-02
  -10.5400000       1.24088656E-02
  -10.5299997       1.14349695E-02
  -10.5200005       1.04928240E-02
  -10.5100002       9.58526134E-03
  -10.5000000       8.71474110E-03
  -10.4899998       7.88347144E-03
  -10.4799995       7.09332479E-03
  -10.4700003       6.34576147E-03
  -10.4600000       5.64201083E-03
  -10.4499998       4.98283980E-03
  -10.4399996       4.36893757E-03
  -10.4300003       3.80068133E-03
  -10.4200001       3.27834720E-03
  -10.4099998       2.80210073E-03
  -10.3999996       2.37217825E-03
  -10.3900003       1.98866962E-03
  -10.3800001       1.65169616E-03
  -10.3699999       1.36129081E-03
  -10.3599997       1.11737649E-03
  -10.3500004       9.19785991E-04
  -10.3400002       7.68154510E-04
  -10.3299999       6.61926286E-04
  -10.3199997       6.00421336E-04
  -10.3100004       5.82730339E-04
  -10.3000002       6.07936236E-04
  -10.2900000       6.74880401E-04
  -10.2799997       7.82437157E-04
  -10.2700005       9.29317961E-04
  -10.2600002       1.11428322E-03
  -10.2500000       1.33590214E-03
  -10.2399998       1.59271969E-03
  -10.2299995       1.88319001E-03
  -10.2200003       2.20558420E-03
  -10.2100000       2.55814102E-03
  -10.1999998       2.93898489E-03
  -10.1899996       3.34617053E-03
  -10.1800003       3.77768069E-03
  -10.1700001       4.23160475E-03
  -10.1599998       4.70600184E-03
  -10.1499996       5.19907800E-03
  -10.1400003       5.70916757E-03
  -10.1300001       6.23470778E-03
  -10.1199999       6.77446323E-03
  -10.1099997       7.32729305E-03
  -10.1000004       7.89237302E-03
  -10.0900002       8.46910011E-03
  -10.0799999       9.05699283E-03
  -10.0699997       9.65574849E-03
  -10.0600004       1.02652106E-02
  -10.0500002       1.08853402E-02
  -10.0400000       1.15159657E-02
  -10.0299997       1.21568544E-02
  -10.0200005       1.28078172E-02
  -10.0100002       1.34685179E-02
  -10.0000000       1.41385812E-02
  -9.98999977       1.48175312E-02
  -9.97999954       1.55050633E-02
  -9.97000027       1.62009429E-02
  -9.96000004       1.69050619E-02
  -9.94999981       1.76175404E-02
  -9.93999958       1.83386430E-02
  -9.93000031       1.90690160E-02
  -9.92000008       1.98094882E-02
  -9.90999985       2.05612928E-02
  -9.89999962       2.13257372E-02
  -9.89000034       2.21046805E-02
  -9.88000011       2.28999704E-02
  -9.86999989       2.37137824E-02
  -9.85999966       2.45483555E-02
  -9.85000038       2.54059937E-02
  -9.84000015       2.62888018E-02
  -9.82999992       2.71989871E-02
  -9.81999969       2.81381235E-02
  -9.81000042       2.91076899E-02
  -9.80000019       3.01087946E-02
  -9.78999996       3.11420728E-02
  -9.77999973       3.22079509E-02
  -9.77000046       3.33065465E-02
  -9.76000023       3.44378352E-02
  -9.75000000       3.56015898E-02
  -9.73999977       3.67976800E-02
  -9.72999954       3.80257443E-02
  -9.72000027       3.92854586E-02
  -9.71000004       4.05764095E-02
  -9.69999981       4.18979898E-02
  -9.68999958       4.32495177E-02
  -9.68000031       4.46299426E-02
  -9.67000008       4.60379384E-02
  -9.65999985       4.74719964E-02
  -9.64999962       4.89301533E-02
  -9.64000034       5.04102707E-02
  -9.63000011       5.19098975E-02
  -9.61999989       5.34267090E-02
  -9.60999966       5.49580269E-02
  -9.60000038       5.65013774E-02
  -9.59000015       5.80540709E-02
  -9.57999992       5.96137941E-02
  -9.56999969       6.11779876E-02
  -9.56000042       6.27440959E-02
  -9.55000019       6.43098131E-02
  -9.53999996       6.58725426E-02
  -9.52999973       6.74295500E-02
  -9.52000046       6.89783841E-02
  -9.51000023       7.05162138E-02
  -9.50000000       7.20403194E-02
  -9.48999977       7.35479668E-02
  -9.47999954       7.50363544E-02
  -9.47000027       7.65028298E-02
  -9.46000004       7.79448077E-02
  -9.44999981       7.93596730E-02
  -9.43999958       8.07451755E-02
  -9.43000031       8.20989311E-02
  -9.42000008       8.34189132E-02
  -9.40999985       8.47033039E-02
  -9.39999962       8.59504417E-02
  -9.39000034       8.71591195E-02
  -9.38000011       8.83286148E-02
  -9.36999989       8.94582123E-02
  -9.35999966       9.05481204E-02
  -9.35000038       9.15987492E-02
  -9.34000015       9.26110297E-02
  -9.32999992       9.35860723E-02
  -9.31999969       9.45256129E-02
  -9.31000042       9.54315737E-02
  -9.30000019       9.63061377E-02
  -9.28999996       9.71517563E-02
  -9.27999973       9.79712233E-02
  -9.27000046       9.87673327E-02
  -9.26000023       9.95434597E-02
  -9.25000000      0.100302689    
  -9.23999977      0.101048812    
  -9.22999954      0.101785459    
  -9.22000027      0.102516204    
  -9.21000004      0.103244610    
  -9.19999981      0.103974015    
  -9.18999958      0.104707316    
  -9.18000031      0.105447330    
  -9.17000008      0.106196262    
  -9.15999985      0.106956080    
  -9.14999962      0.107728191    
  -9.14000034      0.108514033    
  -9.13000011      0.109314740    
  -9.11999989      0.110131055    
  -9.10999966      0.110963762    
  -9.10000038      0.111813292    
  -9.09000015      0.112680048    
  -9.07999992      0.113564216    
  -9.06999969      0.114465907    
  -9.06000042      0.115385100    
  -9.05000019      0.116321616    
  -9.03999996      0.117275342    
  -9.02999973      0.118246064    
  -9.02000046      0.119233005    
  -9.01000023      0.120235831    
  -9.00000000      0.121253334    
  -8.98999977      0.122284465    
  -8.97999954      0.123327769    
  -8.97000027      0.124381632    
  -8.96000004      0.125444472    
  -8.94999981      0.126514688    
  -8.93999958      0.127591029    
  -8.93000031      0.128672138    
  -8.92000008      0.129757106    
  -8.90999985      0.130844787    
  -8.89999962      0.131934851    
  -8.89000034      0.133026630    
  -8.88000011      0.134119496    
  -8.86999989      0.135213390    
  -8.85999966      0.136308044    
  -8.85000038      0.137403697    
  -8.84000015      0.138501033    
  -8.82999992      0.139600724    
  -8.81999969      0.140704617    
  -8.81000042      0.141814291    
  -8.80000019      0.142932400    
  -8.78999996      0.144061998    
  -8.77999973      0.145205855    
  -8.77000046      0.146367699    
  -8.76000023      0.147551551    
  -8.75000000      0.148761630    
  -8.73999977      0.150002465    
  -8.72999954      0.151279137    
  -8.72000027      0.152596757    
  -8.71000004      0.153960526    
  -8.69999981      0.155375749    
  -8.68999958      0.156847402    
  -8.68000031      0.158380300    
  -8.67000008      0.159979016    
  -8.65999985      0.161647633    
  -8.64999962      0.163389519    
  -8.64000034      0.165208220    
  -8.63000011      0.167106628    
  -8.61999989      0.169086426    
  -8.60999966      0.171150059    
  -8.60000038      0.173298120    
  -8.59000015      0.175531328    
  -8.57999992      0.177849561    
  -8.56999969      0.180252507    
  -8.56000042      0.182738096    
  -8.55000019      0.185305253    
  -8.53999996      0.187951714    
  -8.52999973      0.190675139    
  -8.52000046      0.193472415    
  -8.51000023      0.196340635    
  -8.50000000      0.199276373    
  -8.48999977      0.202276930    
  -8.47999954      0.205338106    
  -8.47000027      0.208456948    
  -8.46000004      0.211630359    
  -8.44999981      0.214855000    
  -8.43999958      0.218127981    
  -8.43000031      0.221447274    
  -8.42000008      0.224810213    
  -8.40999985      0.228214979    
  -8.39999962      0.231659189    
  -8.39000034      0.235141575    
  -8.38000011      0.238659620    
  -8.36999989      0.242211446    
  -8.35999966      0.245795310    
  -8.35000038      0.249408677    
  -8.34000015      0.253049731    
  -8.32999992      0.256717145    
  -8.31999969      0.260409087    
  -8.31000042      0.264124215    
  -8.30000019      0.267860949    
  -8.28999996      0.271618247    
  -8.27999973      0.275394469    
  -8.27000046      0.279188275    
  -8.26000023      0.282997847    
  -8.25000000      0.286821395    
  -8.23999977      0.290657371    
  -8.22999954      0.294503361    
  -8.22000027      0.298358232    
  -8.21000004      0.302220225    
  -8.19999981      0.306087792    
  -8.18999958      0.309959531    
  -8.18000031      0.313834429    
  -8.17000008      0.317711145    
  -8.15999985      0.321587831    
  -8.14999962      0.325462729    
  -8.14000034      0.329333812    
  -8.13000011      0.333198935    
  -8.11999989      0.337055504    
  -8.10999966      0.340900153    
  -8.10000038      0.344729662    
  -8.09000015      0.348540038    
  -8.07999992      0.352326423    
  -8.06999969      0.356083959    
  -8.06000042      0.359806687    
  -8.05000019      0.363488615    
  -8.03999996      0.367122620    
  -8.02999973      0.370701969    
  -8.02000046      0.374218792    
  -8.01000023      0.377666354    
  -8.00000000      0.381037772    
  -7.98999977      0.384326667    
  -7.98000002      0.387526959    
  -7.96999979      0.390632570    
  -7.96000004      0.393638760    
  -7.94999981      0.396540135    
  -7.94000006      0.399332315    
  -7.92999983      0.402009904    
  -7.92000008      0.404569894    
  -7.90999985      0.407007664    
  -7.90000010      0.409320951    
  -7.88999987      0.411506236    
  -7.88000011      0.413562804    
  -7.86999989      0.415489525    
  -7.86000013      0.417286217    
  -7.84999990      0.418953508    
  -7.84000015      0.420492798    
  -7.82999992      0.421905965    
  -7.82000017      0.423196584    
  -7.80999994      0.424368829    
  -7.80000019      0.425427288    
  -7.78999996      0.426377445    
  -7.78000021      0.427226305    
  -7.76999998      0.427981347    
  -7.76000023      0.428651392    
  -7.75000000      0.429244876    
  -7.73999977      0.429772645    
  -7.73000002      0.430243939    
  -7.71999979      0.430670857    
  -7.71000004      0.431063205    
  -7.69999981      0.431433052    
  -7.69000006      0.431791604    
  -7.67999983      0.432151556    
  -7.67000008      0.432525128    
  -7.65999985      0.432923526    
  -7.65000010      0.433359772    
  -7.63999987      0.433846951    
  -7.63000011      0.434397429    
  -7.61999989      0.435023755    
  -7.61000013      0.435739160    
  -7.59999990      0.436554998    
  -7.59000015      0.437484920    
  -7.57999992      0.438541532    
  -7.57000017      0.439735949    
  -7.55999994      0.441080511    
  -7.55000019      0.442587018    
  -7.53999996      0.444266438    
  -7.53000021      0.446129054    
  -7.51999998      0.448183894    
  -7.51000023      0.450440377    
  -7.50000000      0.452907592    
  -7.48999977      0.455591500    
  -7.48000002      0.458499610    
  -7.46999979      0.461638302    
  -7.46000004      0.465012461    
  -7.44999981      0.468627721    
  -7.44000006      0.472488046    