  -16.0000000       0.00000000    
  -15.9899998       0.00000000    
  -15.9799995       0.00000000    
  -15.9700003       0.00000000    
  -15.9600000       0.00000000    
  -15.9499998       0.00000000    
  -15.9399996       0.00000000    
  -15.9300003       0.00000000    
  -15.9200001       0.00000000    
  -15.9099998       0.00000000    
  -15.8999996       0.00000000    
  -15.8900003       0.00000000    
  -15.8800001       0.00000000    
  -15.8699999      -0.00000000    
  -15.8599997      -0.00000000    
  -15.8500004      -2.80259693E-45
  -15.8400002      -4.34402524E-44
  -15.8299999      -5.04467447E-43
  -15.8199997      -4.22211227E-42
  -15.8100004      -2.78213797E-41
  -15.8000002      -1.51726993E-40
  -15.7900000      -7.07902353E-40
  -15.7799997      -2.88979413E-39
  -15.7700005      -1.04846875E-38
  -15.7600002      -3.41806067E-38
  -15.7500000      -1.00859903E-37
  -15.7399998      -2.70579613E-37
  -15.7299995      -6.61165529E-37
  -15.7200003      -1.47029356E-36
  -15.7100000      -2.96328645E-36
  -15.6999998      -5.36330311E-36
  -15.6899996      -8.55780048E-36
  -15.6800003      -1.15672906E-35
  -15.6700001      -1.18771615E-35
  -15.6599998      -5.05493350E-36
  -15.6499996       1.45111377E-35
  -15.6400003       5.07142185E-35
  -15.6300001       1.00188463E-34
  -15.6199999       1.45486103E-34
  -15.6099997       1.51376271E-34
  -15.6000004       7.14364160E-35
  -15.5900002      -1.28536553E-34
  -15.5799999      -4.31424702E-34
  -15.5699997      -7.30658452E-34
  -15.5600004      -8.27055785E-34
  -15.5500002      -4.98903680E-34
  -15.5400000       3.43637957E-34
  -15.5299997       1.47454333E-33
  -15.5200005       2.27372566E-33
  -15.5100002       1.92215697E-33
  -15.5000000      -5.86677521E-35
  -15.4899998      -3.10913995E-33
  -15.4799995      -5.28222897E-33
  -15.4700003      -3.87242957E-33
  -15.4600000       2.73509324E-33
  -15.4499998       1.27478366E-32
  -15.4399996       2.00838015E-32
  -15.4300003       1.70437968E-32
  -15.4200001       7.49425174E-34
  -15.4099998      -2.05865486E-32
  -15.3999996      -2.95377662E-32
  -15.3900003      -1.65161541E-32
  -15.3800001      -8.10940565E-33
  -15.3699999      -8.25656946E-32
  -15.3599997      -3.30887906E-31
  -15.3500004      -7.31775514E-31
  -15.3400002      -9.70131914E-31
  -15.3299999      -3.40378002E-31
  -15.3199997       2.02110662E-30
  -15.3100004       6.35841859E-30
  -15.3000002       1.10556271E-29
  -15.2900000       1.16183364E-29
  -15.2799997       1.23789834E-30
  -15.2700005      -2.55320081E-29
  -15.2600002      -6.55727086E-29
  -15.2500000      -9.89321323E-29
  -15.2399998      -8.59618007E-29
  -15.2299995       2.08917147E-29
  -15.2200003       2.43781516E-28
  -15.2100000       5.29014052E-28
  -15.1999998       7.03954550E-28
  -15.1899996       4.87099364E-28
  -15.1800003      -3.97191466E-28
  -15.1700001      -1.97941321E-27
  -15.1599998      -3.74325940E-27
  -15.1499996      -4.44201875E-27
  -15.1400003      -2.30960697E-27
  -15.1300001       4.08289483E-27
  -15.1199999       1.43252503E-26
  -15.1099997       2.45264590E-26
  -15.1000004       2.66631411E-26
  -15.0900002       1.04280047E-26
  -15.0799999      -3.12959579E-26
  -15.0699997      -9.38120784E-26
  -15.0600004      -1.52105559E-25
  -15.0500002      -1.58796739E-25
  -15.0400000      -5.62814600E-26
  -15.0299997       1.92031202E-25
  -15.0200005       5.55370699E-25
  -15.0100002       8.92356005E-25
  -15.0000000       9.43563924E-25
  -14.9899998       3.97766274E-25
  -14.9799995      -9.46135907E-25
  -14.9700003      -2.94385870E-24
  -14.9600000      -4.88739523E-24
  -14.9499998      -5.46071094E-24
  -14.9399996      -3.04838159E-24
  -14.9300003       3.49833937E-24
  -14.9200001       1.37351239E-23
  -14.9099998       2.45400838E-23
  -14.8999996       2.97749522E-23
  -14.8900003       2.15056562E-23
  -14.8800001      -6.70156824E-24
  -14.8699999      -5.47300968E-23
  -14.8599997      -1.10720755E-22
  -14.8500004      -1.48668701E-22
  -14.8400002      -1.32338838E-22
  -14.8299999      -2.80330211E-23
  -14.8199997       1.74430487E-22
  -14.8100004       4.38276074E-22
  -14.8000002       6.65135305E-22
  -14.7900000       7.03652871E-22
  -14.7799997       3.93162141E-22
  -14.7700005      -3.56570254E-22
  -14.7600002      -1.46731238E-21
  -14.7500000      -2.61567172E-21
  -14.7399998      -3.23264465E-21
  -14.7299995      -2.63069910E-21
  -14.7200003      -2.76936045E-22
  -14.7100000       3.83251519E-21
  -14.6999998       8.82228998E-21
  -14.6899996       1.28038455E-20
  -14.6800003       1.31613410E-20
  -14.6700001       7.37655921E-21
  -14.6599998      -5.68204499E-21
  -14.6499996      -2.43537595E-20
  -14.6400003      -4.32745612E-20
  -14.6300001      -5.36917378E-20
  -14.6199999      -4.55721071E-20
  -14.6099997      -1.15434307E-20
  -14.6000004       4.81332004E-20
  -14.5900002       1.21293371E-19
  -14.5799999       1.82667975E-19
  -14.5699997       1.97990681E-19
  -14.5600004       1.34433820E-19
  -14.5500002      -2.39413292E-20
  -14.5400000      -2.59983332E-19
  -14.5299997      -5.13317527E-19
  -14.5200005      -6.83898558E-19
  -14.5100002      -6.54694430E-19
  -14.5000000      -3.33289370E-19
  -14.4899998       2.96131228E-19
  -14.4799995       1.12759731E-18
  -14.4700003       1.91754052E-18
  -14.4600000       2.31913899E-18
  -14.4499998       1.97620914E-18
  -14.4399996       6.65412312E-19
  -14.4300003      -1.54973529E-18
  -14.4200001      -4.21099659E-18
  -14.4099998      -6.46848497E-18
  -14.3999996      -7.24283149E-18
  -14.3900003      -5.55114292E-18
  -14.3800001      -9.37481942E-19
  -14.3699999       6.11815248E-18
  -14.3599997       1.39826545E-17
  -14.3500004       2.00094229E-17
  -14.3400002       2.11273443E-17
  -14.3299999       1.48342253E-17
  -14.3199997       3.75992156E-19
  -14.3100004      -2.02639365E-17
  -14.3000002      -4.20128077E-17
  -14.2900000      -5.73717650E-17
  -14.2799997      -5.82318144E-17
  -14.2700005      -3.86008597E-17
  -14.2600002       2.42456977E-18
  -14.2500000       5.84395757E-17
  -14.2399998       1.15337671E-16
  -14.2299995       1.53530519E-16
  -14.2200003       1.52896832E-16
  -14.2100000       9.96389936E-17
  -14.1999998      -6.72722955E-18
  -14.1899996      -1.48655103E-16
  -14.1800003      -2.90507181E-16
  -14.1700001      -3.84682316E-16
  -14.1599998      -3.83793964E-16
  -14.1499996      -2.56646457E-16
  -14.1400003      -3.77262726E-18
  -14.1300001       3.32826456E-16
  -14.1199999       6.70724945E-16
  -14.1099997       9.01731900E-16
  -14.1000004       9.19282952E-16
  -14.0900002       6.53232444E-16
  -14.0799999       1.02809815E-16
  -14.0699997      -6.43398286E-16
  -14.0600004      -1.41037984E-15
  -14.0500002      -1.96773313E-15
  -14.0400000      -2.08636539E-15
  -14.0299997      -1.60964953E-15
  -14.0200005      -5.20506299E-16
  -14.0100002       1.01745068E-15
  -14.0000000       2.66374540E-15
  -13.9899998       3.95954318E-15
  -13.9799995       4.43595432E-15
  -13.9700003       3.75097190E-15
  -13.9600000       1.82040192E-15
  -13.9499998      -1.09772452E-15
  -13.9399996      -4.40062288E-15
  -13.9300003      -7.23860719E-15
  -13.9200001      -8.70592999E-15
  -13.9099998      -8.08824053E-15
  -13.8999996      -5.10630212E-15
  -13.8900003      -8.47327754E-17
  -13.8800001       6.01758294E-15
  -13.8699999       1.17508406E-14
  -13.8599997       1.54834455E-14
  -13.8500004       1.58199192E-14
  -13.8400002       1.20292350E-14
  -13.8299999       4.36500133E-15
  -13.8199997      -5.83108789E-15
  -13.8100004      -1.63080541E-14
  -13.8000002      -2.43636085E-14
  -13.7900000      -2.74993143E-14
  -13.7799997      -2.41226954E-14
  -13.7700005      -1.41100883E-14
  -13.7600002       9.45212642E-16
  -13.7500000       1.79126987E-14
  -13.7399998       3.27427396E-14
  -13.7299995       4.14130129E-14
  -13.7200003       4.09877956E-14
  -13.7100000       3.05155613E-14
  -13.6999998       1.15011175E-14
  -13.6899996      -1.22248089E-14
  -13.6800003      -3.52690323E-14
  -13.6700001      -5.19302551E-14
  -13.6599998      -5.76505193E-14
  -13.6499996      -5.02855102E-14
  -13.6400003      -3.08302476E-14
  -13.6300001      -3.35638944E-15
  -13.6199999       2.58807173E-14
  -13.6099997       4.99749405E-14
  -13.6000004       6.31540312E-14
  -13.5900002       6.23274354E-14
  -13.5799999       4.79437623E-14
  -13.5699997       2.38780773E-14
  -13.5600004      -3.65952538E-15
  -13.5500002      -2.79069658E-14
  -13.5400000      -4.35082810E-14
  -13.5299997      -4.80432277E-14
  -13.5200005      -4.26232163E-14
  -13.5100002      -3.13169832E-14
  -13.5000000      -1.95394932E-14
  -13.4899998      -1.18999447E-14
  -13.4799995      -1.02390842E-14
  -13.4700003      -1.26000073E-14
  -13.4600000      -1.36387102E-14
  -13.4499998      -6.53636225E-15
  -13.4399996       1.40543035E-14
  -13.4300003       4.89479063E-14
  -13.4200001       9.23800424E-14
  -13.4099998       1.31967178E-13
  -13.3999996       1.51164671E-13
  -13.3900003       1.33960375E-13
  -13.3800001       7.07284098E-14
  -13.3699999      -3.64463031E-14
  -13.3599997      -1.70856385E-13
  -13.3500004      -3.02182324E-13
  -13.3400002      -3.92023572E-13
  -13.3299999      -4.03272793E-13
  -13.3199997      -3.11344402E-13
  -13.3100004      -1.14317206E-13
  -13.3000002       1.61216472E-13
  -13.2900000       4.61163226E-13
  -13.2799997       7.12879462E-13
  -13.2700005       8.41074443E-13
  -13.2600002       7.87532366E-13
  -13.2500000       5.29904842E-13
  -13.2399998       9.42631999E-14
  -13.2299995      -4.43070656E-13
  -13.2200003      -9.66716616E-13
  -13.2100000      -1.34557046E-12
  -13.1999998      -1.46400242E-12
  -13.1899996      -1.25386908E-12
  -13.1800003      -7.19033882E-13
  -13.1700001       5.51414315E-14
  -13.1599998       9.11961262E-13
  -13.1499996       1.65329718E-12
  -13.1400003       2.08416314E-12
  -13.1300001       2.06238564E-12
  -13.1199999       1.54124294E-12
  -13.1099997       5.93253040E-13
  -13.1000004      -5.93286217E-13
  -13.0900002      -1.74737709E-12
  -13.0799999      -2.57312466E-12
  -13.0699997      -2.82053027E-12
  -13.0600004      -2.35301795E-12
  -13.0500002      -1.19462177E-12
  -13.0400000       4.56822026E-13
  -13.0299997       2.25697412E-12
  -13.0200005       3.77991215E-12
  -13.0100002       4.60844991E-12
  -13.0000000       4.43065246E-12
  -12.9899998       3.12067993E-12
  -12.9799995       7.84606755E-13
  -12.9700003      -2.24082341E-12
  -12.9600000      -5.43811090E-12
  -12.9499998      -8.19810799E-12
  -12.9399996      -9.93001254E-12
  -12.9300003      -1.01694391E-11
  -12.9200001      -8.66286470E-12
  -12.9099998      -5.41308925E-12
  -12.8999996      -6.80011982E-13
  -12.8900003       5.05838557E-12
  -12.8800001       1.11716114E-11
  -12.8699999       1.69515756E-11
  -12.8599997       2.16810962E-11
  -12.8500004       2.46863138E-11
  -12.8400002       2.53723396E-11
  -12.8299999       2.32496800E-11
  -12.8199997       1.79644129E-11
  -12.8100004       9.34461276E-12
  -12.8000002      -2.53066773E-12
  -12.7900000      -1.72442737E-11
  -12.7799997      -3.39525526E-11
  -12.7700005      -5.13224498E-11
  -12.7600002      -6.75253187E-11
  -12.7500000      -8.03147548E-11
  -12.7399998      -8.72030156E-11
  -12.7299995      -8.57324003E-11
  -12.7200003      -7.38166889E-11
  -12.7100000      -5.01091703E-11
  -12.6999998      -1.43430042E-11
  -12.6899996       3.24118059E-11
  -12.6800003       8.76201403E-11
  -12.6700001       1.47309248E-10
  -12.6599998       2.06256165E-10
  -12.6499996       2.58317867E-10
  -12.6400003       2.96870889E-10
  -12.6300001       3.15321907E-10
  -12.6199999       3.07652431E-10
  -12.6099997       2.68971984E-10
  -12.6000004       1.96063374E-10
  -12.5900002       8.79114628E-11
  -12.5799999      -5.37953744E-11
  -12.5699997      -2.24216215E-10
  -12.5600004      -4.15004753E-10
  -12.5500002      -6.14123752E-10
  -12.5400000      -8.05913503E-10
  -12.5299997      -9.71508873E-10
  -12.5200005      -1.08968046E-09
  -12.5100002      -1.13814247E-09
  -12.5000000      -1.09530984E-09
  -12.4899998      -9.42420475E-10
  -12.4799995      -6.65874966E-10
  -12.4700003      -2.59598232E-10
  -12.4600000       2.72803113E-10
  -12.4499998       9.16306420E-10
  -12.4399996       1.64333258E-09
  -12.4300003       2.41332621E-09
  -12.4200001       3.17309157E-09
  -12.4099998       3.85786825E-09
  -12.3999996       4.39304060E-09
  -12.3900003       4.69638239E-09
  -12.3800001       4.68067585E-09
  -12.3699999       4.25661595E-09
  -12.3599997       3.33587824E-09
  -12.3500004       1.83429283E-09
  -12.3400002      -3.24910793E-10
  -12.3299999      -3.20783178E-09
  -12.3199997      -6.86662327E-09
  -12.3100004      -1.13363159E-08
  -12.3000002      -1.66317644E-08
  -12.2900000      -2.27449171E-08
  -12.2799997      -2.96424716E-08
  -12.2700005      -3.72641082E-08
  -12.2600002      -4.55213716E-08
  -12.2500000      -5.42973915E-08
  -12.2399998      -6.34473523E-08
  -12.2299995      -7.27998213E-08
  -12.2200003      -8.21588486E-08
  -12.2100000      -9.13068803E-08
  -12.1999998      -1.00008293E-07
  -12.1899996      -1.08013531E-07
  -12.1800003      -1.15063820E-07
  -12.1700001      -1.20896289E-07
  -12.1599998      -1.25249684E-07
  -12.1499996      -1.27870052E-07
  -12.1400003      -1.28516831E-07
  -12.1300001      -1.26968700E-07
  -12.1199999      -1.23029281E-07
  -12.1099997      -1.16532128E-07
  -12.1000004      -1.07344896E-07
  -12.0900002      -9.53727337E-08
  -12.0799999      -8.05602625E-08
  -12.0699997      -6.28926955E-08
  -12.0600004      -4.23958575E-08
  -12.0500002      -1.91354808E-08
  -12.0400000       6.78400935E-09
  -12.0299997       3.52209533E-08
  -12.0200005       6.59980088E-08
  -12.0100002       9.89034774E-08
  -12.0000000       1.33692609E-07
  -11.9899998       1.70088754E-07
  -11.9799995       2.07784495E-07
  -11.9700003       2.46443278E-07
  -11.9600000       2.85700821E-07
  -11.9499998       3.25167179E-07
  -11.9399996       3.64428985E-07
  -11.9300003       4.03052098E-07
  -11.9200001       4.40584301E-07
  -11.9099998       4.76558284E-07
  -11.8999996       5.10494999E-07
  -11.8900003       5.41906786E-07
  -11.8800001       5.70302007E-07
  -11.8699999       5.95188965E-07
  -11.8599997       6.16081479E-07
  -11.8500004       6.32505021E-07
  -11.8400002       6.44002512E-07
  -11.8299999       6.50141601E-07
  -11.8199997       6.50520633E-07
  -11.8100004       6.44775412E-07
  -11.8000002       6.32583919E-07
  -11.7900000       6.13671432E-07
  -11.7799997       5.87813417E-07
  -11.7700005       5.54838834E-07
  -11.7600002       5.14631779E-07
  -11.7500000       4.67133816E-07
  -11.7399998       4.12345514E-07
  -11.7299995       3.50328918E-07
  -11.7200003       2.81209338E-07
  -11.7100000       2.05177969E-07
  -11.6999998       1.22493859E-07
  -11.6899996       3.34855947E-08
  -11.6800003      -6.14478424E-08
  -11.6700001      -1.61837519E-07
  -11.6599998      -2.67145907E-07
  -11.6499996      -3.76769435E-07
  -11.6400003      -4.90042794E-07
  -11.6300001      -6.06242963E-07
  -11.6199999      -7.24595338E-07
  -11.6099997      -8.44279157E-07
  -11.6000004      -9.64433411E-07
  -11.5900002      -1.08416327E-06
  -11.5799999      -1.20254526E-06
  -11.5699997      -1.31863294E-06
  -11.5600004      -1.43146144E-06
  -11.5500002      -1.54005238E-06
  -11.5400000      -1.64341793E-06
  -11.5299997      -1.74056470E-06
  -11.5200005      -1.83049781E-06
  -11.5100002      -1.91222421E-06
  -11.5000000      -1.98475777E-06
  -11.4899998      -2.04712296E-06
  -11.4799995      -2.09836230E-06
  -11.4700003      -2.13753970E-06
  -11.4600000      -2.16374974E-06
  -11.4499998      -2.17612364E-06
  -11.4399996      -2.17383831E-06
  -11.4300003      -2.15612113E-06
  -11.4200001      -2.12225882E-06
  -11.4099998      -2.07160201E-06
  -11.3999996      -2.00357022E-06
  -11.3900003      -1.91765457E-06
  -11.3800001      -1.81341898E-06
  -11.3699999      -1.69050020E-06
  -11.3599997      -1.54860675E-06
  -11.3500004      -1.38751568E-06
  -11.3400002      -1.20707034E-06
  -11.3299999      -1.00717637E-06
  -11.3199997      -7.87797944E-07
  -11.3100004      -5.48954517E-07
  -11.3000002      -2.90717793E-07
  -11.2900000      -1.32081501E-08
  -11.2799997       2.83407132E-07
  -11.2700005       5.98915733E-07
  -11.2600002       9.33062154E-07
  -11.2500000       1.28554711E-06
  -11.2399998       1.65602887E-06
  -11.2299995       2.04412231E-06
  -11.2200003       2.44939838E-06
  -11.2100000       2.87138369E-06
  -11.1999998       3.30955868E-06
  -11.1899996       3.76336106E-06
  -11.1800003       4.23218489E-06
  -11.1700001       4.71538442E-06
  -11.1599998       5.21227912E-06
  -11.1499996       5.72216140E-06
  -11.1400003       6.24430368E-06
  -11.1300001       6.77796788E-06
  -11.1199999       7.32241870E-06
  -11.1099997       7.87692625E-06
  -11.1000004       8.44078022E-06
  -11.0900002       9.01329349E-06
  -11.0799999       9.59380941E-06
  -11.0699997       1.01817004E-05
  -11.0600004       1.07763744E-05
  -11.0500002       1.13772685E-05
  -11.0400000       1.19838505E-05
  -11.0299997       1.25956176E-05
  -11.0200005       1.32120940E-05
  -11.0100002       1.38328160E-05
  -11.0000000       1.44573442E-05
  -10.9899998       1.50852375E-05
  -10.9799995       1.57160648E-05
  -10.9700003       1.63493787E-05
  -10.9600000       1.69847262E-05
  -10.9499998       1.76216272E-05
  -10.9399996       1.82595777E-05
  -10.9300003       1.88980448E-05
  -10.9200001       1.95364628E-05
  -10.9099998       2.01742423E-05
  -10.8999996       2.08107649E-05
  -10.8900003       2.14454030E-05
  -10.8800001       2.20775055E-05
  -10.8699999       2.27064193E-05
  -10.8599997       2.33314913E-05
  -10.8500004       2.39520614E-05
  -10.8400002       2.45674801E-05
  -10.8299999       2.51770889E-05
  -10.8199997       2.57802276E-05
  -10.8100004       2.63762449E-05
  -10.8000002       2.69644624E-05
  -10.7900000       2.75442235E-05
  -10.7799997       2.81148186E-05
  -10.7700005       2.86755658E-05
  -10.7600002       2.92257355E-05
  -10.7500000       2.97645947E-05
  -10.7399998       3.02913868E-05
  -10.7299995       3.08053204E-05
  -10.7200003       3.13055898E-05
  -10.7100000       3.17913327E-05
  -10.6999998       3.22616579E-05
  -10.6899996       3.27156376E-05
  -10.6800003       3.31522897E-05
  -10.6700001       3.35706245E-05
  -10.6599998       3.39696089E-05
  -10.6499996       3.43482170E-05
  -10.6400003       3.47054120E-05
  -10.6300001       3.50402188E-05
  -10.6199999       3.53516916E-05
  -10.6099997       3.56389755E-05
  -10.6000004       3.59012811E-05
  -10.5900002       3.61379280E-05
  -10.5799999       3.63483450E-05
  -10.5699997       3.65320557E-05
  -10.5600004       3.66886961E-05
  -10.5500002       3.68180081E-05
  -10.5400000       3.69198169E-05
  -10.5299997       3.69940499E-05
  -10.5200005       3.70407179E-05
  -10.5100002       3.70599046E-05
  -10.5000000       3.70517846E-05
  -10.4899998       3.70165908E-05
  -10.4799995       3.69546360E-05
  -10.4700003       3.68662913E-05
  -10.4600000       3.67519897E-05
  -10.4499998       3.66121967E-05
  -10.4399996       3.64474326E-05
  -10.4300003       3.62582141E-05
  -10.4200001       3.60451086E-05
  -10.4099998       3.58086654E-05
  -10.3999996       3.55494230E-05
  -10.3900003       3.52679381E-05
  -10.3800001       3.49647416E-05
  -10.3699999       3.46403467E-05
  -10.3599997       3.42952699E-05
  -10.3500004       3.39300204E-05
  -10.3400002       3.35450932E-05
  -10.3299999       3.31409756E-05
  -10.3199997       3.27181333E-05
  -10.3100004       3.22770175E-05
  -10.3000002       3.18180464E-05
  -10.2900000       3.13416022E-05
  -10.2799997       3.08480376E-05
  -10.2700005       3.03376601E-05
  -10.2600002       2.98107734E-05
  -10.2500000       2.92676668E-05
  -10.2399998       2.87086314E-05
  -10.2299995       2.81339981E-05
  -10.2200003       2.75441416E-05
  -10.2100000       2.69394823E-05
  -10.1999998       2.63205002E-05
  -10.1899996       2.56877356E-05
  -10.1800003       2.50417688E-05
  -10.1700001       2.43832128E-05
  -10.1599998       2.37126915E-05
  -10.1499996       2.30308324E-05
  -10.1400003       2.23382503E-05
  -10.1300001       2.16355511E-05
  -10.1199999       2.09233331E-05
  -10.1099997       2.02021911E-05
  -10.1000004       1.94727218E-05
  -10.0900002       1.87355381E-05
  -10.0799999       1.79912768E-05
  -10.0699997       1.72405926E-05
  -10.0600004       1.64841676E-05
  -10.0500002       1.57227041E-05
  -10.0400000       1.49569323E-05
  -10.0299997       1.41876008E-05
  -10.0200005       1.34154880E-05
  -10.0100002       1.26413997E-05
  -10.0000000       1.18661901E-05
  -9.98999977       1.10907349E-05
  -9.97999954       1.03159564E-05
  -9.97000027       9.54280858E-06
  -9.96000004       8.77227194E-06
  -9.94999981       8.00533780E-06
  -9.93999958       7.24298843E-06
  -9.93000031       6.48619925E-06
  -9.92000008       5.73591615E-06
  -9.90999985       4.99306452E-06
  -9.89999962       4.25854660E-06
  -9.89000034       3.53324594E-06
  -9.88000011       2.81804591E-06
  -9.86999989       2.11382985E-06
  -9.85999966       1.42150259E-06
  -9.85000038       7.41979420E-07
  -9.84000015       7.62027312E-08
  -9.82999992      -5.74871592E-07
  -9.81999969      -1.21027176E-06
  -9.81000042      -1.82902500E-06
  -9.80000019      -2.43017166E-06
  -9.78999996      -3.01276668E-06
  -9.77999973      -3.57589988E-06
  -9.77000046      -4.11869587E-06
  -9.76000023      -4.64033747E-06
  -9.75000000      -5.14005478E-06
  -9.73999977      -5.61715206E-06
  -9.72999954      -6.07098082E-06
  -9.72000027      -6.50095490E-06
  -9.71000004      -6.90655543E-06
  -9.69999981      -7.28731357E-06
  -9.68999958      -7.64281958E-06
  -9.68000031      -7.97272241E-06
  -9.67000008      -8.27674467E-06
  -9.65999985      -8.55469079E-06
  -9.64999962      -8.80644166E-06
  -9.64000034      -9.03197360E-06
  -9.63000011      -9.23136759E-06
  -9.61999989      -9.40479003E-06
  -9.60999966      -9.55248561E-06
  -9.60000038      -9.67477354E-06
  -9.59000015      -9.77205491E-06
  -9.57999992      -9.84475810E-06
  -9.56999969      -9.89336240E-06
  -9.56000042      -9.91837351E-06
  -9.55000019      -9.92032165E-06
  -9.53999996      -9.89973705E-06
  -9.52999973      -9.85716360E-06
  -9.52000046      -9.79312699E-06
  -9.51000023      -9.70812471E-06
  -9.50000000      -9.60261787E-06
  -9.48999977      -9.47701483E-06
  -9.47999954      -9.33167394E-06
  -9.47000027      -9.16689623E-06
  -9.46000004      -8.98294002E-06
  -9.44999981      -8.78003448E-06
  -9.43999958      -8.55838152E-06
  -9.43000031      -8.31817215E-06
  -9.42000008      -8.05958280E-06
  -9.40999985      -7.78279809E-06
  -9.39999962      -7.48799130E-06
  -9.39000034      -7.17533021E-06
  -9.38000011      -6.84499400E-06
  -9.36999989      -6.49716139E-06
  -9.35999966      -6.13204384E-06
  -9.35000038      -5.74989235E-06
  -9.34000015      -5.35101890E-06
  -9.32999992      -4.93582502E-06
  -9.31999969      -4.50482139E-06
  -9.31000042      -4.05861601E-06
  -9.30000019      -3.59795945E-06
  -9.28999996      -3.12370685E-06
  -9.27999973      -2.63685433E-06
  -9.27000046      -2.13850626E-06
  -9.26000023      -1.62988749E-06
  -9.25000000      -1.11235431E-06
  -9.23999977      -5.87377315E-07
  -9.22999954      -5.65297640E-08
  -9.22000027       4.78507616E-07
  -9.21000004       1.01594799E-06
  -9.19999981       1.55394582E-06
  -9.18999958       2.09059294E-06
  -9.18000031       2.62393291E-06
  -9.17000008       3.15199009E-06
  -9.15999985       3.67275743E-06
  -9.14999962       4.18421632E-06
  -9.14000034       4.68432336E-06
  -9.13000011       5.17101444E-06
  -9.11999989       5.64219181E-06
  -9.10999966       6.09573590E-06
  -9.10000038       6.52951530E-06
  -9.09000015       6.94140590E-06
  -9.07999992       7.32929129E-06
  -9.06999969       7.69112012E-06
  -9.06000042       8.02491195E-06
  -9.05000019       8.32879414E-06
  -9.03999996       8.60101682E-06
  -9.02999973       8.83998564E-06
  -9.02000046       9.04426179E-06
  -9.01000023       9.21256560E-06
  -9.00000000       9.34380751E-06
  -8.98999977       9.43709529E-06
  -8.97999954       9.49171408E-06
  -8.97000027       9.50718913E-06
  -8.96000004       9.48326579E-06
  -8.94999981       9.41994404E-06
  -8.93999958       9.31747672E-06
  -8.93000031       9.17639409E-06
  -8.92000008       8.99751285E-06
  -8.90999985       8.78192805E-06
  -8.89999962       8.53099846E-06
  -8.89000034       8.24637664E-06
  -8.88000011       7.92995797E-06
  -8.86999989       7.58390388E-06
  -8.85999966       7.21059905E-06
  -8.85000038       6.81265738E-06
  -8.84000015       6.39291238E-06
  -8.82999992       5.95439042E-06
  -8.81999969       5.50032519E-06
  -8.81000042       5.03413912E-06
  -8.80000019       4.55943791E-06
  -8.78999996       4.08002734E-06
  -8.77999973       3.59988371E-06
  -8.77000046       3.12317752E-06
  -8.76000023       2.65423273E-06
  -8.75000000       2.19750996E-06
  -8.73999977       1.75762136E-06
  -8.72999954       1.33927517E-06
  -8.72000027       9.47270962E-07
  -8.71000004       5.86500562E-07
  -8.69999981       2.61901903E-07
  -8.68999958      -2.15602558E-08
  -8.68000031      -2.58873996E-07
  -8.67000008      -4.45062028E-07
  -8.65999985      -5.75138472E-07
  -8.64999962      -6.44208285E-07
  -8.64000034      -6.47475076E-07
  -8.63000011      -5.80269557E-07
  -8.61999989      -4.38106667E-07
  -8.60999966      -2.16677989E-07
  -8.60000038       8.81167352E-08
  -8.59000015       4.80168410E-07
  -8.57999992       9.63154548E-07
  -8.56999969       1.54053134E-06
  -8.56000042       2.21554228E-06
  -8.55000019       2.99120825E-06
  -8.53999996       3.87028376E-06
  -8.52999973       4.85528608E-06
  -8.52000046       5.94844141E-06
  -8.51000023       7.15167744E-06
  -8.50000000       8.46664989E-06
  -8.48999977       9.89474120E-06
  -8.47999954       1.14370796E-05
  -8.47000027       1.30945709E-05
  -8.46000004       1.48679374E-05
  -8.44999981       1.67577055E-05
  -8.43999958       1.87642618E-05
  -8.43000031       2.08878173E-05
  -8.42000008       2.31284739E-05
  -8.40999985       2.54861588E-05
  -8.39999962       2.79607266E-05
  -8.39000034       3.05519061E-05
  -8.38000011       3.32593809E-05
  -8.36999989       3.60827871E-05
  -8.35999966       3.90217501E-05
  -8.35000038       4.20758988E-05
  -8.34000015       4.52448221E-05
  -8.32999992       4.85281271E-05
  -8.31999969       5.19253481E-05
  -8.31000042       5.54359649E-05
  -8.30000019       5.90593372E-05
  -8.28999996       6.27947738E-05
  -8.27999973       6.66413835E-05
  -8.27000046       7.05982311E-05
  -8.26000023       7.46642181E-05
  -8.25000000       7.88381731E-05
  -8.23999977       8.31187135E-05
  -8.22999954       8.75043552E-05
  -8.22000027       9.19934246E-05
  -8.21000004       9.65840591E-05
  -8.19999981       1.01274141E-04
  -8.18999958       1.06061350E-04
  -8.18000031       1.10943103E-04
  -8.17000008       1.15916504E-04
  -8.15999985       1.20978424E-04
  -8.14999962       1.26125422E-04
  -8.14000034       1.31353765E-04
  -8.13000011       1.36659393E-04
  -8.11999989       1.42037941E-04
  -8.10999966       1.47484679E-04
  -8.10000038       1.52994602E-04
  -8.09000015       1.58562412E-04
  -8.07999992       1.64182478E-04
  -8.06999969       1.69848892E-04
  -8.06000042       1.75555499E-04
  -8.05000019       1.81295865E-04
  -8.03999996       1.87063284E-04
  -8.02999973       1.92850741E-04
  -8.02000046       1.98651018E-04
  -8.01000023       2.04456548E-04
  -8.00000000       2.10259546E-04
  -7.98999977       2.16052023E-04
  -7.98000002       2.21825656E-04
  -7.96999979       2.27572062E-04
  -7.96000004       2.33282699E-04
  -7.94999981       2.38948924E-04
  -7.94000006       2.44561961E-04
  -7.92999983       2.50112964E-04
  -7.92000008       2.55593099E-04
  -7.90999985       2.60993314E-04
  -7.90000010       2.66304618E-04
  -7.88999987       2.71518016E-04
  -7.88000011       2.76624429E-04
  -7.86999989       2.81614921E-04
  -7.86000013       2.86480732E-04
  -7.84999990       2.91213189E-04
  -7.84000015       2.95803911E-04
  -7.82999992       3.00244748E-04
  -7.82000017       3.04527726E-04
  -7.80999994       3.08645365E-04
  -7.80000019       3.12590390E-04
  -7.78999996       3.16355785E-04
  -7.78000021       3.19935207E-04
  -7.76999998       3.23322543E-04
  -7.76000023       3.26512119E-04
  -7.75000000       3.29499046E-04
  -7.73999977       3.32278694E-04
  -7.73000002       3.34847078E-04
  -7.71999979       3.37200705E-04
  -7.71000004       3.39336635E-04
  -7.69999981       3.41252424E-04
  -7.69000006       3.42946150E-04
  -7.67999983       3.44416447E-04
  -7.67000008       3.45662469E-04
  -7.65999985       3.46683955E-04
  -7.65000010       3.47481167E-04
  -7.63999987       3.48055008E-04
  -7.63000011       3.48406902E-04
  -7.61999989       3.48538859E-04
  -7.61000013       3.48453352E-04
  -7.59999990       3.48153349E-04
  -7.59000015       3.47642286E-04
  -7.57999992       3.46923800E-04
  -7.57000017       3.46002111E-04
  -7.55999994       3.44881642E-04
  -7.55000019       3.43567284E-04
  -7.53999996       3.42064130E-04
  -7.53000021       3.40377796E-04
  -7.51999998       3.38513986E-04
  -7.51000023       3.36478697E-04
  -7.50000000       3.34278127E-04
  -7.48999977       3.31918767E-04
  -7.48000002       3.29407078E-04
  -7.46999979       3.26749869E-04
  -7.46000004       3.23953980E-04
  -7.44999981       3.21026309E-04
  -7.44000006       3.17974074E-04