  -16.0000000       0.00000000    
  -15.9899998       0.00000000    
  -15.9799995       0.00000000    
  -15.9700003       0.00000000    
  -15.9600000       0.00000000    
  -15.9499998       0.00000000    
  -15.9399996       0.00000000    
  -15.9300003       0.00000000    
  -15.9200001       0.00000000    
  -15.9099998       0.00000000    
  -15.8999996       0.00000000    
  -15.8900003       0.00000000    
  -15.8800001       0.00000000    
  -15.8699999      -1.27518160E-43
  -15.8599997      -9.24576727E-42
  -15.8500004      -2.72792173E-40
  -15.8400002      -4.04616384E-39
  -15.8299999      -4.08933588E-38
  -15.8199997      -3.13072386E-37
  -15.8100004      -1.93146963E-36
  -15.8000002      -9.98759665E-36
  -15.7900000      -4.44627581E-35
  -15.7799997      -1.73631903E-34
  -15.7700005      -6.02845023E-34
  -15.7600002      -1.87871640E-33
  -15.7500000      -5.28929332E-33
  -15.7399998      -1.35031534E-32
  -15.7299995      -3.12894497E-32
  -15.7200003      -6.56545803E-32
  -15.7100000      -1.23851084E-31
  -15.6999998      -2.06722460E-31
  -15.6899996      -2.94690392E-31
  -15.6800003      -3.26213318E-31
  -15.6700001      -1.75997177E-31
  -15.6599998       3.46501011E-31
  -15.6499996       1.44254570E-30
  -15.6400003       3.17277097E-30
  -15.6300001       5.19410629E-30
  -15.6199999       6.44849494E-30
  -15.6099997       5.00048827E-30
  -15.6000004      -1.63605172E-30
  -15.5900002      -1.53046039E-29
  -15.5799999      -3.50088293E-29
  -15.5699997      -5.42338562E-29
  -15.5600004      -5.93400141E-29
  -15.5500002      -3.15515834E-29
  -15.5400000       4.49204291E-29
  -15.5299997       1.68139281E-28
  -15.5200005       3.01377631E-28
  -15.5100002       3.64558437E-28
  -15.5000000       2.49848268E-28
  -15.4899998      -1.25765211E-28
  -15.4799995      -7.34482514E-28
  -15.4700003      -1.35267728E-27
  -15.4600000      -1.54615669E-27
  -15.4499998      -8.08771939E-28
  -15.4399996       1.10354014E-27
  -15.4300003       3.72060815E-27
  -15.4200001       5.54393533E-27
  -15.4099998       4.27659716E-27
  -15.3999996      -2.03348369E-27
  -15.3900003      -1.29528773E-26
  -15.3800001      -2.35121302E-26
  -15.3699999      -2.36448484E-26
  -15.3599997      -1.35111670E-27
  -15.3500004       4.91584251E-26
  -15.3400002       1.15874164E-25
  -15.3299999       1.59845653E-25
  -15.3199997       1.18325118E-25
  -15.3100004      -6.99230283E-26
  -15.3000002      -4.14882362E-25
  -15.2900000      -8.15477713E-25
  -15.2799997      -1.02518657E-24
  -15.2700005      -6.92734161E-25
  -15.2600002       4.82564064E-25
  -15.2500000       2.48860885E-24
  -15.2399998       4.72238841E-24
  -15.2299995       5.87566637E-24
  -15.2200003       4.20220091E-24
  -15.2100000      -1.69780320E-24
  -15.1999998      -1.16779324E-23
  -15.1899996      -2.28860602E-23
  -15.1800003      -2.94218896E-23
  -15.1700001      -2.36383306E-23
  -15.1599998       5.25489979E-25
  -15.1499996       4.27886927E-23
  -15.1400003       9.22402119E-23
  -15.1300001       1.26371188E-22
  -15.1199999       1.16119959E-22
  -15.1099997       3.77427408E-23
  -15.1000004      -1.11142588E-22
  -15.0900002      -2.97862342E-22
  -15.0799999      -4.52059102E-22
  -15.0699997      -4.81161885E-22
  -15.0600004      -3.04517980E-22
  -15.0500002       1.03098018E-22
  -15.0400000       6.76601126E-22
  -15.0299997       1.25450523E-21
  -15.0200005       1.61315123E-21
  -15.0100002       1.53470216E-21
  -15.0000000       8.82946339E-22
  -14.9899998      -3.47153350E-22
  -14.9799995      -2.02606986E-21
  -14.9700003      -3.91771075E-21
  -14.9600000      -5.68750931E-21
  -14.9499998      -6.83437302E-21
  -14.9399996      -6.55036209E-21
  -14.9300003      -3.62738732E-21
  -14.9200001       3.33833960E-21
  -14.9099998       1.51751825E-20
  -14.8999996       3.07310005E-20
  -14.8900003       4.52317998E-20
  -14.8800001       4.94446209E-20
  -14.8699999       3.10955933E-20
  -14.8599997      -2.02126672E-20
  -14.8500004      -1.04669457E-19
  -14.8400002      -2.02963368E-19
  -14.8299999      -2.71177464E-19
  -14.8199997      -2.46543250E-19
  -14.8100004      -6.92297246E-20
  -14.8000002       2.80544664E-19
  -14.7900000       7.40582919E-19
  -14.7799997       1.14100963E-18
  -14.7700005       1.22124170E-18
  -14.7600002       7.10298441E-19
  -14.7500000      -5.31140581E-19
  -14.7399998      -2.34417506E-18
  -14.7299995      -4.15646140E-18
  -14.7200003      -5.01409384E-18
  -14.7100000      -3.83956354E-18
  -14.6999998       7.99668456E-20
  -14.6899996       6.48682936E-18
  -14.6800003       1.36780965E-17
  -14.6700001       1.84836304E-17
  -14.6599998       1.69862019E-17
  -14.6499996       6.05213726E-18
  -14.6400003      -1.46289687E-17
  -14.6300001      -4.07142897E-17
  -14.6199999      -6.26295169E-17
  -14.6099997      -6.72207200E-17
  -14.6000004      -4.20810700E-17
  -14.5900002       1.80660415E-17
  -14.5799999       1.04852634E-16
  -14.5699997       1.92651172E-16
  -14.5600004       2.41071718E-16
  -14.5500002       2.05644035E-16
  -14.5400000       5.60127006E-17
  -14.5299997      -2.02783579E-16
  -14.5200005      -5.13971281E-16
  -14.5100002      -7.67407033E-16
  -14.5000000      -8.20666823E-16
  -14.4899998      -5.44774375E-16
  -14.4799995       1.13326656E-16
  -14.4700003       1.07021988E-15
  -14.4600000       2.07414440E-15
  -14.4499998       2.72843797E-15
  -14.4399996       2.58633506E-15
  -14.4300003       1.31066660E-15
  -14.4200001      -1.13708837E-15
  -14.4099998      -4.34161221E-15
  -14.3999996      -7.38954000E-15
  -14.3900003      -9.00223821E-15
  -14.3800001      -7.87110364E-15
  -14.3699999      -3.15230342E-15
  -14.3599997       5.00234704E-15
  -14.3500004       1.50627564E-14
  -14.3400002       2.40971438E-14
  -14.3299999       2.82635209E-14
  -14.3199997       2.38468167E-14
  -14.3100004       8.68386478E-15
  -14.3000002      -1.63907956E-14
  -14.2900000      -4.65897869E-14
  -14.2799997      -7.32593714E-14
  -14.2700005      -8.53834147E-14
  -14.2600002      -7.25347178E-14
  -14.2500000      -2.87986696E-14
  -14.2399998       4.33397316E-14
  -14.2299995       1.30509861E-13
  -14.2200003       2.08789922E-13
  -14.2100000       2.47816497E-13
  -14.1999998       2.18679865E-13
  -14.1899996       1.04335065E-13
  -14.1800003      -9.01025470E-14
  -14.1700001      -3.30718498E-13
  -14.1599998      -5.55402837E-13
  -14.1499996      -6.84106797E-13
  -14.1400003      -6.38812245E-13
  -14.1300001      -3.69953959E-13
  -14.1199999       1.17162465E-13
  -14.1099997       7.44749206E-13
  -14.1000004       1.36247827E-12
  -14.0900002       1.77092705E-12
  -14.0799999       1.76877371E-12
  -14.0699997       1.21617744E-12
  -14.0600004       9.92351004E-14
  -14.0500002      -1.42482770E-12
  -14.0400000      -3.02200604E-12
  -14.0299997      -4.22951257E-12
  -14.0200005      -4.55830686E-12
  -14.0100002      -3.63453733E-12
  -14.0000000      -1.34731603E-12
  -13.9899998       2.04074539E-12
  -13.9799995       5.86424312E-12
  -13.9700003       9.13816592E-12
  -13.9600000       1.07584462E-11
  -13.9499998       9.79126415E-12
  -13.9399996       5.78834853E-12
  -13.9300003      -9.56940581E-13
  -13.9200001      -9.30166794E-12
  -13.9099998      -1.73597699E-11
  -13.8999996      -2.28429151E-11
  -13.8900003      -2.35943053E-11
  -13.8800001      -1.82103204E-11
  -13.8699999      -6.59903772E-12
  -13.8599997       9.69024513E-12
  -13.8500004       2.75033052E-11
  -13.8400002       4.25498248E-11
  -13.8299999       5.02717937E-11
  -13.8199997       4.69657473E-11
  -13.8100004       3.09228372E-11
  -13.8000002       3.29813715E-12
  -13.7900000      -3.15640743E-11
  -13.7799997      -6.65403149E-11
  -13.7700005      -9.29180968E-11
  -13.7600002      -1.02234200E-10
  -13.7500000      -8.84331913E-11
  -13.7399998      -4.98843571E-11
  -13.7299995       9.26783303E-12
  -13.7200003       7.89001989E-11
  -13.7100000       1.44144197E-10
  -13.6999998       1.88069893E-10
  -13.6899996       1.95461786E-10
  -13.6800003       1.56979110E-10
  -13.6700001       7.27376770E-11
  -13.6599998      -4.57342393E-11
  -13.6499996      -1.76037129E-10
  -13.6400003      -2.88336965E-10
  -13.6300001      -3.51463053E-10
  -13.6199999      -3.40624112E-10
  -13.6099997      -2.45056503E-10
  -13.6000004      -7.35421585E-11
  -13.5900002       1.44137799E-10
  -13.5799999       3.61061736E-10
  -13.5699997       5.22365484E-10
  -13.5600004       5.78338766E-10
  -13.5500002       4.98576291E-10
  -13.5400000       2.83466056E-10
  -13.5299997      -3.07071243E-11
  -13.5200005      -3.75648818E-10
  -13.5100002      -6.64521160E-10
  -13.5000000      -8.12885814E-10
  -13.4899998      -7.62543029E-10
  -13.4799995      -5.01952646E-10
  -13.4700003      -7.68033623E-11
  -13.4600000       4.14011547E-10
  -13.4499998       8.38355052E-10
  -13.4399996       1.06371378E-09
  -13.4300003       9.95608262E-10
  -13.4200001       6.11395934E-10
  -13.4099998      -2.11737069E-11
  -13.3999996      -7.48635487E-10
  -13.3900003      -1.36231337E-09
  -13.3800001      -1.65020964E-09
  -13.3699999      -1.45898704E-09
  -13.3599997      -7.49804774E-10
  -13.3500004       3.69040604E-10
  -13.3400002       1.64604763E-09
  -13.3299999       2.73225575E-09
  -13.3199997       3.26294747E-09
  -13.3100004       2.95862024E-09
  -13.3000002       1.72012049E-09
  -13.2900000      -3.09442888E-10
  -13.2799997      -2.73865863E-09
  -13.2700005      -4.98895103E-09
  -13.2600002      -6.41703979E-09
  -13.2500000      -6.47604992E-09
  -13.2399998      -4.87807750E-09
  -13.2299995      -1.71521852E-09
  -13.2200003       2.49956900E-09
  -13.2100000       6.89490998E-09
  -13.1999998       1.04058735E-08
  -13.1899996       1.20141461E-08
  -13.1800003       1.10116041E-08
  -13.1700001       7.22430604E-09
  -13.1599998       1.13310950E-09
  -13.1499996      -6.15224005E-09
  -13.1400003      -1.30784734E-08
  -13.1300001      -1.79665918E-08
  -13.1199999      -1.93993053E-08
  -13.1099997      -1.65899809E-08
  -13.1000004      -9.64070423E-09
  -13.0900002       3.84082710E-10
  -13.0799999       1.16042651E-08
  -13.0699997       2.16749410E-08
  -13.0600004       2.82734653E-08
  -13.0500002       2.96183309E-08
  -13.0400000       2.48987639E-08
  -13.0299997       1.45102650E-08
  -13.0200005       3.40842597E-11
  -13.0100002      -1.60431988E-08
  -13.0000000      -3.08103090E-08
  -12.9899998      -4.15027159E-08
  -12.9799995      -4.60342093E-08
  -12.9700003      -4.33691731E-08
  -12.9600000      -3.36569634E-08
  -12.9499998      -1.81152107E-08
  -12.9399996       1.28792654E-09
  -12.9300003       2.22503349E-08
  -12.9200001       4.25293329E-08
  -12.9099998       6.02064247E-08
  -12.8999996       7.37633314E-08
  -12.8900003       8.19799055E-08
  -12.8800001       8.37266967E-08
  -12.8699999       7.77714391E-08
  -12.8599997       6.27257251E-08
  -12.8500004       3.72239377E-08
  -12.8400002       3.60121294E-10
  -12.8299999      -4.76807287E-08
  -12.8199997      -1.04939012E-07
  -12.8100004      -1.67138168E-07
  -12.8000002      -2.27484406E-07
  -12.7900000      -2.76957479E-07
  -12.7799997      -3.05160626E-07
  -12.7700005      -3.01669388E-07
  -12.7600002      -2.57712571E-07
  -12.7500000      -1.67932427E-07
  -12.7399998      -3.19241593E-08
  -12.7299995       1.44721469E-07
  -12.7200003       3.50068603E-07
  -12.7100000       5.66280221E-07
  -12.6999998       7.70823021E-07
  -12.6899996       9.38294988E-07
  -12.6800003       1.04267940E-06
  -12.6700001       1.05976142E-06
  -12.6599998       9.69546363E-07
  -12.6499996       7.58478564E-07
  -12.6400003       4.21381515E-07
  -12.6300001      -3.69216231E-08
  -12.6199999      -6.00364160E-07
  -12.6099997      -1.24081669E-06
  -12.6000004      -1.91784579E-06
  -12.5900002      -2.57923898E-06
  -12.5799999      -3.16254409E-06
  -12.5699997      -3.59787828E-06
  -12.5600004      -3.81214591E-06
  -12.5500002      -3.73469175E-06
  -12.5400000      -3.30406942E-06
  -12.5299997      -2.47549133E-06
  -12.5200005      -1.22828874E-06
  -12.5100002       4.27564970E-07
  -12.5000000       2.44651824E-06
  -12.4899998       4.74483613E-06
  -12.4799995       7.20063281E-06
  -12.4700003       9.65649633E-06
  -12.4600000       1.19243523E-05
  -12.4499998       1.37920169E-05
  -12.4399996       1.50305887E-05
  -12.4300003       1.54022437E-05
  -12.4200001       1.46682396E-05
  -12.4099998       1.25962151E-05
  -12.3999996       8.96870915E-06
  -12.3900003       3.59159253E-06
  -12.3800001      -3.69546206E-06
  -12.3699999      -1.30080716E-05
  -12.3599997      -2.44039111E-05
  -12.3500004      -3.78703990E-05
  -12.3400002      -5.33120765E-05
  -12.3299999      -7.05411148E-05
  -12.3199997      -8.92720200E-05
  -12.3100004      -1.09120716E-04
  -12.3000002      -1.29610620E-04
  -12.2900000      -1.50181979E-04
  -12.2799997      -1.70209954E-04
  -12.2700005      -1.89020720E-04
  -12.2600002      -2.05912642E-04
  -12.2500000      -2.20176618E-04
  -12.2399998      -2.31115147E-04
  -12.2299995      -2.38060107E-04
  -12.2200003      -2.40390233E-04
  -12.2100000      -2.37548244E-04
  -12.1999998      -2.29058394E-04
  -12.1899996      -2.14542146E-04
  -12.1800003      -1.93741420E-04
  -12.1700001      -1.66529731E-04
  -12.1599998      -1.32930480E-04
  -12.1499996      -9.31234317E-05
  -12.1400003      -4.74474073E-05
  -12.1300001       3.60723880E-06
  -12.1199999       5.94151679E-05
  -12.1099997       1.19240205E-04
  -12.1000004       1.82262025E-04
  -12.0900002       2.47608201E-04
  -12.0799999       3.14384379E-04
  -12.0699997       3.81699385E-04
  -12.0600004       4.48682375E-04
  -12.0500002       5.14496758E-04
  -12.0400000       5.78340841E-04
  -12.0299997       6.39451900E-04
  -12.0200005       6.97100826E-04
  -12.0100002       7.50581967E-04
  -12.0000000       7.99213827E-04
  -11.9899998       8.42335285E-04
  -11.9799995       8.79304134E-04
  -11.9700003       9.09503317E-04
  -11.9600000       9.32340685E-04
  -11.9499998       9.47260298E-04
  -11.9399996       9.53743525E-04
  -11.9300003       9.51314287E-04
  -11.9200001       9.39549296E-04
  -11.9099998       9.18072590E-04
  -11.8999996       8.86562804E-04
  -11.8900003       8.44754861E-04
  -11.8800001       7.92437000E-04
  -11.8699999       7.29461783E-04
  -11.8599997       6.55748416E-04
  -11.8500004       5.71284909E-04
  -11.8400002       4.76145884E-04
  -11.8299999       3.70503112E-04
  -11.8199997       2.54633283E-04
  -11.8100004       1.28944157E-04
  -11.8000002      -6.02104592E-06
  -11.7900000      -1.49568004E-04
  -11.7799997      -3.00843618E-04
  -11.7700005      -4.58835100E-04
  -11.7600002      -6.22371852E-04
  -11.7500000      -7.90142920E-04
  -11.7399998      -9.60710167E-04
  -11.7299995      -1.13253400E-03
  -11.7200003      -1.30400574E-03
  -11.7100000      -1.47347793E-03
  -11.6999998      -1.63929863E-03
  -11.6899996      -1.79984351E-03
  -11.6800003      -1.95354666E-03
  -11.6700001      -2.09892681E-03
  -11.6599998      -2.23460537E-03
  -11.6499996      -2.35931203E-03
  -11.6400003      -2.47189985E-03
  -11.6300001      -2.57132947E-03
  -11.6199999      -2.65666214E-03
  -11.6099997      -2.72704894E-03
  -11.6000004      -2.78170733E-03
  -11.5900002      -2.81990669E-03
  -11.5799999      -2.84094526E-03
  -11.5699997      -2.84414948E-03
  -11.5600004      -2.82884971E-03
  -11.5500002      -2.79439124E-03
  -11.5400000      -2.74013076E-03
  -11.5299997      -2.66542449E-03
  -11.5200005      -2.56966101E-03
  -11.5100002      -2.45224335E-03
  -11.5000000      -2.31261598E-03
  -11.4899998      -2.15027668E-03
  -11.4799995      -1.96479447E-03
  -11.4700003      -1.75582792E-03
  -11.4600000      -1.52315188E-03
  -11.4499998      -1.26668694E-03
  -11.4399996      -9.86514147E-04
  -11.4300003      -6.82897749E-04
  -11.4200001      -3.56279284E-04
  -11.4099998      -7.29590693E-06
  -11.3999996       3.63246683E-04
  -11.3900003       7.54401670E-04
  -11.3800001       1.16509793E-03
  -11.3699999       1.59418397E-03
  -11.3599997       2.04044906E-03
  -11.3500004       2.50265095E-03
  -11.3400002       2.97953491E-03
  -11.3299999       3.46984155E-03
  -11.3199997       3.97232221E-03
  -11.3100004       4.48571704E-03
  -11.3000002       5.00878785E-03
  -11.2900000       5.54030389E-03
  -11.2799997       6.07908005E-03
  -11.2700005       6.62396383E-03
  -11.2600002       7.17388000E-03
  -11.2500000       7.72783719E-03
  -11.2399998       8.28493107E-03
  -11.2299995       8.84437747E-03
  -11.2200003       9.40547045E-03
  -11.2100000       9.96760465E-03
  -11.1999998       1.05302231E-02
  -11.1899996       1.10928332E-02
  -11.1800003       1.16549274E-02
  -11.1700001       1.22160167E-02
  -11.1599998       1.27755953E-02
  -11.1499996       1.33331111E-02
  -11.1400003       1.38880191E-02
  -11.1300001       1.44397356E-02
  -11.1199999       1.49876727E-02
  -11.1099997       1.55312410E-02
  -11.1000004       1.60698760E-02
  -11.0900002       1.66030321E-02
  -11.0799999       1.71301775E-02
  -11.0699997       1.76508389E-02
  -11.0600004       1.81645472E-02
  -11.0500002       1.86708737E-02
  -11.0400000       1.91694144E-02
  -11.0299997       1.96597930E-02
  -11.0200005       2.01416537E-02
  -11.0100002       2.06146538E-02
  -11.0000000       2.10784804E-02
  -10.9899998       2.15328690E-02
  -10.9799995       2.19775531E-02
  -10.9700003       2.24122778E-02
  -10.9600000       2.28368510E-02
  -10.9499998       2.32510157E-02
  -10.9399996       2.36545745E-02
  -10.9300003       2.40472630E-02
  -10.9200001       2.44287979E-02
  -10.9099998       2.47988813E-02
  -10.8999996       2.51571331E-02
  -10.8900003       2.55031865E-02
  -10.8800001       2.58366745E-02
  -10.8699999       2.61571985E-02
  -10.8599997       2.64644530E-02
  -10.8500004       2.67581269E-02
  -10.8400002       2.70380061E-02
  -10.8299999       2.73039714E-02
  -10.8199997       2.75559090E-02
  -10.8100004       2.77938060E-02
  -10.8000002       2.80176997E-02
  -10.7900000       2.82276422E-02
  -10.7799997       2.84237638E-02
  -10.7700005       2.86061745E-02
  -10.7600002       2.87750475E-02
  -10.7500000       2.89305747E-02
  -10.7399998       2.90729981E-02
  -10.7299995       2.92025767E-02
  -10.7200003       2.93196607E-02
  -10.7100000       2.94246599E-02
  -10.6999998       2.95180771E-02
  -10.6899996       2.96005178E-02
  -10.6800003       2.96727102E-02
  -10.6700001       2.97355689E-02
  -10.6599998       2.97901221E-02
  -10.6499996       2.98375897E-02
  -10.6400003       2.98793744E-02
  -10.6300001       2.99169775E-02
  -10.6199999       2.99520008E-02
  -10.6099997       2.99861245E-02
  -10.6000004       3.00210193E-02
  -10.5900002       3.00582945E-02
  -10.5799999       3.00994981E-02
  -10.5699997       3.01460121E-02
  -10.5600004       3.01990733E-02
  -10.5500002       3.02597303E-02
  -10.5400000       3.03288735E-02
  -10.5299997       3.04072425E-02
  -10.5200005       3.04954126E-02
  -10.5100002       3.05938665E-02
  -10.5000000       3.07029355E-02
  -10.4899998       3.08229271E-02
  -10.4799995       3.09540145E-02
  -10.4700003       3.10962480E-02
  -10.4600000       3.12495604E-02
  -10.4499998       3.14137824E-02
  -10.4399996       3.15884911E-02
  -10.4300003       3.17731164E-02
  -10.4200001       3.19668055E-02
  -10.4099998       3.21684964E-02
  -10.3999996       3.23768891E-02
  -10.3900003       3.25905383E-02
  -10.3800001       3.28077860E-02
  -10.3699999       3.30268741E-02
  -10.3599997       3.32460888E-02
  -10.3500004       3.34636606E-02
  -10.3400002       3.36779281E-02
  -10.3299999       3.38873565E-02
  -10.3199997       3.40906344E-02
  -10.3100004       3.42866220E-02
  -10.3000002       3.44743580E-02
  -10.2900000       3.46530899E-02
  -10.2799997       3.48222926E-02
  -10.2700005       3.49815860E-02
  -10.2600002       3.51307169E-02
  -10.2500000       3.52695845E-02
  -10.2399998       3.53982523E-02
  -10.2299995       3.55169140E-02
  -10.2200003       3.56260240E-02
  -10.2100000       3.57261822E-02
  -10.1999998       3.58182415E-02
  -10.1899996       3.59032974E-02
  -10.1800003       3.59826609E-02
  -10.1700001       3.60579006E-02
  -10.1599998       3.61307599E-02
  -10.1499996       3.62030379E-02
  -10.1400003       3.62766348E-02
  -10.1300001       3.63535061E-02
  -10.1199999       3.64356562E-02
  -10.1099997       3.65250185E-02
  -10.1000004       3.66235860E-02
  -10.0900002       3.67334336E-02
  -10.0799999       3.68566215E-02
  -10.0699997       3.69951837E-02
  -10.0600004       3.71512398E-02
  -10.0500002       3.73267531E-02
  -10.0400000       3.75236422E-02
  -10.0299997       3.77437212E-02
  -10.0200005       3.79884690E-02
  -10.0100002       3.82592864E-02
  -10.0000000       3.85573767E-02
  -9.98999977       3.88837717E-02
  -9.97999954       3.92393842E-02
  -9.97000027       3.96250002E-02
  -9.96000004       4.00414467E-02
  -9.94999981       4.04895693E-02
  -9.93999958       4.09701876E-02
  -9.93000031       4.14841399E-02
  -9.92000008       4.20322530E-02
  -9.90999985       4.26153652E-02
  -9.89999962       4.32343595E-02
  -9.89000034       4.38902639E-02
  -9.88000011       4.45841439E-02
  -9.86999989       4.53171283E-02
  -9.85999966       4.60906997E-02
  -9.85000038       4.69063893E-02
  -9.84000015       4.77658287E-02
  -9.82999992       4.86707985E-02
  -9.81999969       4.96228300E-02
  -9.81000042       5.06236218E-02
  -9.80000019       5.16744517E-02
  -9.78999996       5.27763404E-02
  -9.77999973       5.39302118E-02
  -9.77000046       5.51364683E-02
  -9.76000023       5.63955121E-02
  -9.75000000       5.77075295E-02
  -9.73999977       5.90726286E-02
  -9.72999954       6.04909286E-02
  -9.72000027       6.19624257E-02
  -9.71000004       6.34872392E-02
  -9.69999981       6.50651529E-02
  -9.68999958       6.66958690E-02
  -9.68000031       6.83787167E-02
  -9.67000008       7.01126233E-02
  -9.65999985       7.18958899E-02
  -9.64999962       7.37260878E-02
  -9.64000034       7.56002814E-02
  -9.63000011       7.75144696E-02
  -9.61999989       7.94641525E-02
  -9.60999966       8.14439431E-02
  -9.60000038       8.34477991E-02
  -9.59000015       8.54690149E-02
  -9.57999992       8.75004977E-02
  -9.56999969       8.95344764E-02
  -9.56000042       9.15633962E-02
  -9.55000019       9.35790241E-02
  -9.53999996       9.55733582E-02
  -9.52999973       9.75382030E-02
  -9.52000046       9.94657204E-02
  -9.51000023      0.101348087    
  -9.50000000      0.103178069    
  -9.48999977      0.104948707    
  -9.47999954      0.106653646    
  -9.47000027      0.108287804    
  -9.46000004      0.109846644    
  -9.44999981      0.111326836    
  -9.43999958      0.112726383    
  -9.43000031      0.114044353    
  -9.42000008      0.115280941    
  -9.40999985      0.116437942    
  -9.39999962      0.117517889    
  -9.39000034      0.118525207    
  -9.38000011      0.119464867    
  -9.36999989      0.120343924    
  -9.35999966      0.121170260    
  -9.35000038      0.121953584    
  -9.34000015      0.122704461    
  -9.32999992      0.123435199    
  -9.31999969      0.124158785    
  -9.31000042      0.124888934    
  -9.30000019      0.125640348    
  -9.28999996      0.126427963    
  -9.27999973      0.127267003    
  -9.27000046      0.128172994    
  -9.26000023      0.129161343    
  -9.25000000      0.130247772    
  -9.23999977      0.131447688    
  -9.22999954      0.132776126    
  -9.22000027      0.134247705    
  -9.21000004      0.135875911    
  -9.19999981      0.137673259    
  -9.18999958      0.139650822    
  -9.18000031      0.141817808    
  -9.17000008      0.144181684    
  -9.15999985      0.146748081    
  -9.14999962      0.149520531    
  -9.14000034      0.152500898    
  -9.13000011      0.155689031    
  -9.11999989      0.159082860    
  -9.10999966      0.162678316    
  -9.10000038      0.166469634    
  -9.09000015      0.170449123    
  -9.07999992      0.174606755    
  -9.06999969      0.178931192    
  -9.06000042      0.183408931    
  -9.05000019      0.188024983    
  -9.03999996      0.192762882    
  -9.02999973      0.197605073    
  -9.02000046      0.202532828    
  -9.01000023      0.207526267    
  -9.00000000      0.212564707    
  -8.98999977      0.217627123    
  -8.97999954      0.222691745    
  -8.97000027      0.227736697    
  -8.96000004      0.232739523    
  -8.94999981      0.237677768    
  -8.93999958      0.242529675    
  -8.93000031      0.247272938    
  -8.92000008      0.251885533    
  -8.90999985      0.256346405    
  -8.89999962      0.260634989    
  -8.89000034      0.264730811    
  -8.88000011      0.268615127    
  -8.86999989      0.272270113    
  -8.85999966      0.275679469    
  -8.85000038      0.278828323    
  -8.84000015      0.281704009    
  -8.82999992      0.284294873    
  -8.81999969      0.286591589    
  -8.81000042      0.288586557    
  -8.80000019      0.290273517    
  -8.78999996      0.291648328    
  -8.77999973      0.292708665    
  -8.77000046      0.293453336    
  -8.76000023      0.293884039    
  -8.75000000      0.294003516    
  -8.73999977      0.293817312    
  -8.72999954      0.293331832    
  -8.72000027      0.292556345    
  -8.71000004      0.291501075    
  -8.69999981      0.290178299    
  -8.68999958      0.288601756    
  -8.68000031      0.286786109    
  -8.67000008      0.284747779    
  -8.65999985      0.282504052    
  -8.64999962      0.280072927    
  -8.64000034      0.277473480    
  -8.63000011      0.274723858    
  -8.61999989      0.271844000    
  -8.60999966      0.268852592    
  -8.60000038      0.265768260    
  -8.59000015      0.262609392    
  -8.57999992      0.259393781    
  -8.56999969      0.256138593    
  -8.56000042      0.252860337    
  -8.55000019      0.249574795    
  -8.53999996      0.246296719    
  -8.52999973      0.243041068    
  -8.52000046      0.239820331    
  -8.51000023      0.236647069    
  -8.50000000      0.233532384    
  -8.48999977      0.230485544    
  -8.47999954      0.227516055    
  -8.47000027      0.224630445    
  -8.46000004      0.221836179    
  -8.44999981      0.219137982    
  -8.43999958      0.216540724    
  -8.43000031      0.214047953    
  -8.42000008      0.211663514    
  -8.40999985      0.209389701    
  -8.39999962      0.207229152    
  -8.39000034      0.205184311    
  -8.38000011      0.203257278    
  -8.36999989      0.201450825    
  -8.35999966      0.199767336    
  -8.35000038      0.198209703    
  -8.34000015      0.196782604    
  -8.32999992      0.195489362    
  -8.31999969      0.194335490    
  -8.31000042      0.193325639    
  -8.30000019      0.192467138    
  -8.28999996      0.191765755    
  -8.27999973      0.191229418    
  -8.27000046      0.190865248    
  -8.26000023      0.190681905    
  -8.25000000      0.190687969    
  -8.23999977      0.190891221    
  -8.22999954      0.191302210    
  -8.22000027      0.191929057    
  -8.21000004      0.192781270    
  -8.19999981      0.193868890    
  -8.18999958      0.195201963    
  -8.18000031      0.196788788    
  -8.17000008      0.198640153    
  -8.15999985      0.200764686    
  -8.14999962      0.203170702    
  -8.14000034      0.205866218    
  -8.13000011      0.208859950    
  -8.11999989      0.212157711    
  -8.10999966      0.215765879    
  -8.10000038      0.219688728    
  -8.09000015      0.223932013    
  -8.07999992      0.228498355    
  -8.06999969      0.233389124    
  -8.06000042      0.238606155    
  -8.05000019      0.244149536    
  -8.03999996      0.250017196    
  -8.02999973      0.256206900    
  -8.02000046      0.262715250    
  -8.01000023      0.269537807    
  -8.00000000      0.276668668    
  -7.98999977      0.284101605    
  -7.98000002      0.291829884    
  -7.96999979      0.299845129    
  -7.96000004      0.308138192    
  -7.94999981      0.316699415    
  -7.94000006      0.325517118    
  -7.92999983      0.334581256    
  -7.92000008      0.343877435    
  -7.90999985      0.353393316    
  -7.90000010      0.363115549    
  -7.88999987      0.373029500    
  -7.88000011      0.383119971    
  -7.86999989      0.393372566    
  -7.86000013      0.403772175    
  -7.84999990      0.414302826    
  -7.84000015      0.424948424    
  -7.82999992      0.435693026    
  -7.82000017      0.446520776    
  -7.80999994      0.457415521    
  -7.80000019      0.468360126    
  -7.78999996      0.479340076    
  -7.78000021      0.490340263    
  -7.76999998      0.501345277    
  -7.76000023      0.512342215    
  -7.75000000      0.523316085    
  -7.73999977      0.534255505    
  -7.73000002      0.545146883    
  -7.71999979      0.555979371    
  -7.71000004      0.566741884    
  -7.69999981      0.577424467    
  -7.69000006      0.588018119    
  -7.67999983      0.598515987    
  -7.67000008      0.608910322    
  -7.65999985      0.619195223    
  -7.65000010      0.629368663    
  -7.63999987      0.639424741    
  -7.63000011      0.649363399    
  -7.61999989      0.659183562    
  -7.61000013      0.668885291    
  -7.59999990      0.678470790    
  -7.59000015      0.687944472    
  -7.57999992      0.697311997    
  -7.57000017      0.706578732    
  -7.55999994      0.715754569    
  -7.55000019      0.724847615    
  -7.53999996      0.733869135    
  -7.53000021      0.742828846    
  -7.51999998      0.751740038    
  -7.51000023      0.760612607    
  -7.50000000      0.769458950    
  -7.48999977      0.778292120    
  -7.48000002      0.787124336    
  -7.46999979      0.795969963    
  -7.46000004      0.804840386    
  -7.44999981      0.813750803    
  -7.44000006      0.822710812    