  -16.0000000       0.00000000    
  -15.9899998       0.00000000    
  -15.9799995       0.00000000    
  -15.9700003       0.00000000    
  -15.9600000       0.00000000    
  -15.9499998       0.00000000    
  -15.9399996       0.00000000    
  -15.9300003       0.00000000    
  -15.9200001       0.00000000    
  -15.9099998       0.00000000    
  -15.8999996       0.00000000    
  -15.8900003       0.00000000    
  -15.8800001       0.00000000    
  -15.8699999       0.00000000    
  -15.8599997      -0.00000000    
  -15.8500004      -1.40129846E-45
  -15.8400002      -1.68155816E-44
  -15.8299999      -2.36819440E-43
  -15.8199997      -2.25468923E-42
  -15.8100004      -1.66348141E-41
  -15.8000002      -1.00202649E-40
  -15.7900000      -5.10193153E-40
  -15.7799997      -2.24990800E-39
  -15.7700005      -8.74663036E-39
  -15.7600002      -3.03657818E-38
  -15.7500000      -9.50413868E-38
  -15.7399998      -2.70002816E-37
  -15.7299995      -6.99343267E-37
  -15.7200003      -1.65524675E-36
  -15.7100000      -3.57950227E-36
  -15.6999998      -7.04951366E-36
  -15.6899996      -1.25430399E-35
  -15.6800003      -1.98301219E-35
  -15.6700001      -2.68664314E-35
  -15.6599998      -2.83214902E-35
  -15.6499996      -1.44590741E-35
  -15.6400003       2.80379395E-35
  -15.6300001       1.10923079E-34
  -15.6199999       2.32754907E-34
  -15.6099997       3.61126581E-34
  -15.6000004       4.14986056E-34
  -15.5900002       2.61974436E-34
  -15.5799999      -2.46740833E-34
  -15.5699997      -1.18356357E-33
  -15.5600004      -2.39510390E-33
  -15.5500002      -3.34723522E-33
  -15.5400000      -3.08319789E-33
  -15.5299997      -4.64031676E-34
  -15.5200005       5.17027231E-33
  -15.5100002       1.29643905E-32
  -15.5000000       1.95424217E-32
  -15.4899998       1.88793855E-32
  -15.4799995       4.13243092E-33
  -15.4700003      -2.78778124E-32
  -15.4600000      -7.02489706E-32
  -15.4499998      -1.00731626E-31
  -15.4399996      -8.31693227E-32
  -15.4300003       1.81789379E-32
  -15.4200001       2.08991329E-31
  -15.4099998       4.27277056E-31
  -15.3999996       5.19724844E-31
  -15.3900003       2.66728249E-31
  -15.3800001      -5.10178654E-31
  -15.3699999      -1.75360454E-30
  -15.3599997      -2.94762844E-30
  -15.3500004      -3.01426073E-30
  -15.3400002      -5.45429520E-31
  -15.3299999       5.43543134E-30
  -15.3199997       1.41841280E-29
  -15.3100004       2.18308432E-29
  -15.3000002       2.08205109E-29
  -15.2900000       1.58402302E-30
  -15.2799997      -4.23253559E-29
  -15.2700005      -1.05646213E-28
  -15.2600002      -1.62011406E-28
  -15.2500000      -1.59923336E-28
  -15.2399998      -3.31195221E-29
  -15.2299995       2.66418680E-28
  -15.2200003       7.12309283E-28
  -15.2100000       1.14055854E-27
  -15.1999998       1.21807394E-27
  -15.1899996       5.00283222E-28
  -15.1800003      -1.36838834E-27
  -15.1700001      -4.30414220E-27
  -15.1599998      -7.37738096E-27
  -15.1499996      -8.58200007E-27
  -15.1400003      -5.12529863E-27
  -15.1300001       5.43475436E-27
  -15.1199999       2.31463961E-26
  -15.1099997       4.32324187E-26
  -15.1000004       5.45651021E-26
  -15.0900002       4.09739069E-26
  -15.0799999      -1.27836058E-26
  -15.0699997      -1.09996004E-25
  -15.0600004      -2.28570574E-25
  -15.0500002      -3.11913359E-25
  -15.0400000      -2.74061199E-25
  -15.0299997      -2.85508853E-26
  -15.0200005       4.56626564E-25
  -15.0100002       1.09053206E-24
  -15.0000000       1.60936489E-24
  -14.9899998       1.59278038E-24
  -14.9799995       5.92168940E-25
  -14.9700003      -1.61588897E-24
  -14.9600000      -4.70528945E-24
  -14.9499998      -7.54764917E-24
  -14.9399996      -8.24382286E-24
  -14.9300003      -4.64691177E-24
  -14.9200001       4.55229501E-24
  -14.9099998       1.83914116E-23
  -14.8999996       3.24404911E-23
  -14.8900003       3.87330957E-23
  -14.8800001       2.77134472E-23
  -14.8699999      -7.43709189E-24
  -14.8599997      -6.48506521E-23
  -14.8500004      -1.28644937E-22
  -14.8400002      -1.67711311E-22
  -14.8299999      -1.42241479E-22
  -14.8199997      -1.97711988E-23
  -14.8100004       2.01600334E-22
  -14.8000002       4.70775376E-22
  -14.7900000       6.74928590E-22
  -14.7799997       6.58540680E-22
  -14.7700005       2.78424102E-22
  -14.7600002      -5.11174697E-22
  -14.7500000      -1.56933166E-21
  -14.7399998      -2.51991607E-21
  -14.7299995      -2.79556593E-21
  -14.7200003      -1.80979424E-21
  -14.7100000       7.51967963E-22
  -14.6999998       4.59890247E-21
  -14.6899996       8.60402254E-21
  -14.6800003       1.08558869E-20
  -14.6700001       9.13642151E-21
  -14.6599998       1.83852705E-21
  -14.6499996      -1.08748199E-20
  -14.6400003      -2.61016374E-20
  -14.6300001      -3.80059118E-20
  -14.6199999      -3.89298274E-20
  -14.6099997      -2.20098415E-20
  -14.6000004       1.51223334E-20
  -14.5900002       6.67157289E-20
  -14.5799999       1.17100483E-19
  -14.5699997       1.42524615E-19
  -14.5600004       1.17691180E-19
  -14.5500002       2.64352497E-20
  -14.5400000      -1.26201498E-19
  -14.5299997      -3.05247534E-19
  -14.5200005      -4.46015063E-19
  -14.5100002      -4.67553863E-19
  -14.5000000      -2.99841495E-19
  -14.4899998       8.06073548E-20
  -14.4799995       6.18192138E-19
  -14.4700003       1.16416800E-18
  -14.4600000       1.49555537E-18
  -14.4499998       1.37389333E-18
  -14.4399996       6.36881147E-19
  -14.4300003      -7.00851315E-19
  -14.4200001      -2.37551838E-18
  -14.4099998      -3.87218299E-18
  -14.3999996      -4.52307446E-18
  -14.3900003      -3.70774652E-18
  -14.3800001      -1.11624405E-18
  -14.3699999       3.00400834E-18
  -14.3599997       7.72071359E-18
  -14.3500004       1.15037844E-17
  -14.3400002       1.25737616E-17
  -14.3299999       9.47438777E-18
  -14.3199997       1.73307811E-18
  -14.3100004      -9.60741661E-18
  -14.3000002      -2.18283286E-17
  -14.2900000      -3.09292095E-17
  -14.2799997      -3.26165256E-17
  -14.2700005      -2.37202958E-17
  -14.2600002      -3.66682755E-18
  -14.2500000       2.44964906E-17
  -14.2399998       5.40159065E-17
  -14.2299995       7.55861166E-17
  -14.2200003       7.96967543E-17
  -14.2100000       5.96990740E-17
  -14.1999998       1.47564968E-17
  -14.1899996      -4.83237425E-17
  -14.1800003      -1.15243994E-16
  -14.1700001      -1.66765845E-16
  -14.1599998      -1.83379245E-16
  -14.1499996      -1.51084883E-16
  -14.1400003      -6.67433838E-17
  -14.1300001       5.86890600E-17
  -14.1199999       2.00353534E-16
  -14.1099997       3.23597423E-16
  -14.1000004       3.91419907E-16
  -14.0900002       3.73670596E-16
  -14.0799999       2.55803500E-16
  -14.0699997       4.49558932E-17
  -14.0600004      -2.28294358E-16
  -14.0500002      -5.13144524E-16
  -14.0400000      -7.46309242E-16
  -14.0299997      -8.62994436E-16
  -14.0200005      -8.09394879E-16
  -14.0100002      -5.55035226E-16
  -14.0000000      -1.03480487E-16
  -13.9899998       4.99972420E-16
  -13.9799995       1.16528557E-15
  -13.9700003       1.76157326E-15
  -13.9600000       2.13052736E-15
  -13.9499998       2.11151359E-15
  -13.9399996       1.57842557E-15
  -13.9300003       4.84522433E-16
  -13.9200001      -1.09365040E-15
  -13.9099998      -2.92697995E-15
  -13.8999996      -4.63521628E-15
  -13.8900003      -5.73271348E-15
  -13.8800001      -5.72355155E-15
  -13.8699999      -4.23691937E-15
  -13.8599997      -1.17666958E-15
  -13.8500004       3.15572670E-15
  -13.8400002       8.01213886E-15
  -13.8299999       1.22631194E-14
  -13.8199997       1.45956415E-14
  -13.8100004       1.38259053E-14
  -13.8000002       9.26896719E-15
  -13.7900000       1.07237325E-15
  -13.7799997      -9.59442605E-15
  -13.7700005      -2.05893991E-14
  -13.7600002      -2.91343691E-14
  -13.7500000      -3.24140739E-14
  -13.7399998      -2.83309041E-14
  -13.7299995      -1.62374014E-14
  -13.7200003       2.56497818E-15
  -13.7100000       2.47519053E-14
  -13.6999998       4.54370021E-14
  -13.6899996       5.91484259E-14
  -13.6800003       6.11531632E-14
  -13.6700001       4.88310564E-14
  -13.6599998       2.27318351E-14
  -13.6499996      -1.30286407E-14
  -13.6400003      -5.12525203E-14
  -13.6300001      -8.30378111E-14
  -13.6199999      -9.98179065E-14
  -13.6099997      -9.56121169E-14
  -13.6000004      -6.89101825E-14
  -13.5900002      -2.36285668E-14
  -13.5799999       3.12485125E-14
  -13.5699997       8.34211172E-14
  -13.5600004       1.20121632E-13
  -13.5500002       1.31416891E-13
  -13.5400000       1.13110300E-13
  -13.5299997       6.83904498E-14
  -13.5200005       7.61411384E-15
  -13.5100002      -5.39388988E-14
  -13.5000000      -9.99442160E-14
  -13.4899998      -1.17629024E-13
  -13.4799995      -1.01841766E-13
  -13.4700003      -5.73365614E-14
  -13.4600000       1.63912681E-15
  -13.4499998       5.46997818E-14
  -13.4399996       8.10365298E-14
  -13.4300003       6.61221972E-14
  -13.4200001       7.53837554E-15
  -13.4099998      -8.19771429E-14
  -13.3999996      -1.75645739E-13
  -13.3900003      -2.38311459E-13
  -13.3800001      -2.35772095E-13
  -13.3699999      -1.45688705E-13
  -13.3599997       3.28171768E-14
  -13.3500004       2.73878495E-13
  -13.3400002       5.26188847E-13
  -13.3299999       7.21719451E-13
  -13.3199997       7.90758463E-13
  -13.3100004       6.80301085E-13
  -13.3000002       3.71459780E-13
  -13.2900000      -1.08828406E-13
  -13.2799997      -6.85711904E-13
  -13.2700005      -1.24594465E-12
  -13.2600002      -1.65833439E-12
  -13.2500000      -1.80161886E-12
  -13.2399998      -1.59401572E-12
  -13.2299995      -1.01762598E-12
  -13.2200003      -1.31386736E-13
  -13.2100000       9.31645603E-13
  -13.1999998       1.98364914E-12
  -13.1899996       2.81520835E-12
  -13.1800003       3.23616763E-12
  -13.1700001       3.11588884E-12
  -13.1599998       2.41430595E-12
  -13.1499996       1.19678551E-12
  -13.1400003      -3.70966170E-13
  -13.1300001      -2.04754898E-12
  -13.1199999      -3.55558725E-12
  -13.1099997      -4.62893656E-12
  -13.1000004      -5.05838166E-12
  -13.0900002      -4.72746495E-12
  -13.0799999      -3.63241251E-12
  -13.0699997      -1.88366727E-12
  -13.0600004       3.09766508E-13
  -13.0500002       2.66897702E-12
  -13.0400000       4.88093854E-12
  -13.0299997       6.63568376E-12
  -13.0200005       7.66042351E-12
  -13.0100002       7.74832802E-12
  -13.0000000       6.78166030E-12
  -12.9899998       4.74995911E-12
  -12.9799995       1.76372068E-12
  -12.9700003      -1.93754865E-12
  -12.9600000      -5.98614474E-12
  -12.9499998      -9.90075816E-12
  -12.9399996      -1.31200545E-11
  -12.9300003      -1.50584354E-11
  -12.9200001      -1.51830163E-11
  -12.9099998      -1.31049980E-11
  -12.8999996      -8.67267369E-12
  -12.8900003      -2.04885176E-12
  -12.8800001       6.24586710E-12
  -12.8699999       1.53394571E-11
  -12.8599997       2.40731567E-11
  -12.8500004       3.11229896E-11
  -12.8400002       3.51657696E-11
  -12.8299999       3.50678202E-11
  -12.8199997       3.00690445E-11
  -12.8100004       1.99346321E-11
  -12.8000002       5.05127624E-12
  -12.7900000      -1.35461980E-11
  -12.7799997      -3.42216429E-11
  -12.7700005      -5.48517412E-11
  -12.7600002      -7.29947977E-11
  -12.7500000      -8.60984964E-11
  -12.7399998      -9.17315113E-11
  -12.7299995      -8.78263712E-11
  -12.7200003      -7.29232230E-11
  -12.7100000      -4.64035407E-11
  -12.6999998      -8.69913776E-12
  -12.6899996       3.85446779E-11
  -12.6800003       9.23803117E-11
  -12.6700001       1.48576859E-10
  -12.6599998       2.01777969E-10
  -12.6499996       2.45819975E-10
  -12.6400003       2.74213152E-10
  -12.6300001       2.80762497E-10
  -12.6199999       2.60277577E-10
  -12.6099997       2.09297274E-10
  -12.6000004       1.26740965E-10
  -12.5900002       1.43977781E-11
  -12.5799999      -1.22818894E-10
  -12.5699997      -2.76897366E-10
  -12.5600004      -4.37042569E-10
  -12.5500002      -5.90252569E-10
  -12.5400000      -7.22101434E-10
  -12.5299997      -8.17652834E-10
  -12.5200005      -8.62432847E-10
  -12.5100002      -8.43399184E-10
  -12.5000000      -7.49868057E-10
  -12.4899998      -5.74386649E-10
  -12.4799995      -3.13554072E-10
  -12.4700003       3.11906022E-11
  -12.4600000       4.52809901E-10
  -12.4499998       9.37945277E-10
  -12.4399996       1.46627099E-09
  -12.4300003       2.00998218E-09
  -12.4200001       2.53351473E-09
  -12.4099998       2.99356717E-09
  -12.3999996       3.33951533E-09
  -12.3900003       3.51425800E-09
  -12.3800001       3.45550499E-09
  -12.3699999       3.09746473E-09
  -12.3599997       2.37286168E-09
  -12.3500004       1.21518706E-09
  -12.3400002      -4.38924036E-10
  -12.3299999      -2.64727418E-09
  -12.3199997      -5.45969314E-09
  -12.3100004      -8.91570640E-09
  -12.3000002      -1.30422384E-08
  -12.2900000      -1.78513790E-08
  -12.2799997      -2.33382096E-08
  -12.2700005      -2.94787661E-08
  -12.2600002      -3.62281511E-08
  -12.2500000      -4.35189662E-08
  -12.2399998      -5.12603080E-08
  -12.2299995      -5.93373315E-08
  -12.2200003      -6.76116940E-08
  -12.2100000      -7.59229906E-08
  -12.1999998      -8.40911483E-08
  -12.1899996      -9.19197660E-08
  -12.1800003      -9.92002143E-08
  -12.1700001      -1.05716396E-07
  -12.1599998      -1.11249690E-07
  -12.1499996      -1.15584065E-07
  -12.1400003      -1.18510883E-07
  -12.1300001      -1.19833217E-07
  -12.1199999      -1.19369886E-07
  -12.1099997      -1.16958766E-07
  -12.1000004      -1.12459489E-07
  -12.0900002      -1.05755745E-07
  -12.0799999      -9.67570557E-08
  -12.0699997      -8.54000888E-08
  -12.0600004      -7.16495663E-08
  -12.0500002      -5.54988908E-08
  -12.0400000      -3.69702526E-08
  -12.0299997      -1.61146438E-08
  -12.0200005       6.98847602E-09
  -12.0100002       3.22314797E-08
  -12.0000000       5.94788645E-08
  -11.9899998       8.85673472E-08
  -11.9799995       1.19305795E-07
  -11.9700003       1.51475021E-07
  -11.9600000       1.84827812E-07
  -11.9499998       2.19088918E-07
  -11.9399996       2.53955847E-07
  -11.9300003       2.89100257E-07
  -11.9200001       3.24170458E-07
  -11.9099998       3.58794580E-07
  -11.8999996       3.92584610E-07
  -11.8900003       4.25140826E-07
  -11.8800001       4.56056398E-07
  -11.8699999       4.84921657E-07
  -11.8599997       5.11327812E-07
  -11.8500004       5.34870367E-07
  -11.8400002       5.55151360E-07
  -11.8299999       5.71782209E-07
  -11.8199997       5.84385930E-07
  -11.8100004       5.92599633E-07
  -11.8000002       5.96078792E-07
  -11.7900000       5.94500591E-07
  -11.7799997       5.87569559E-07
  -11.7700005       5.75022682E-07
  -11.7600002       5.56634916E-07
  -11.7500000       5.32224647E-07
  -11.7399998       5.01658235E-07
  -11.7299995       4.64853883E-07
  -11.7200003       4.21784392E-07
  -11.7100000       3.72479434E-07
  -11.6999998       3.17026519E-07
  -11.6899996       2.55571763E-07
  -11.6800003       1.88319348E-07
  -11.6700001       1.15531208E-07
  -11.6599998       3.75254565E-08
  -11.6499996      -4.53258444E-08
  -11.6400003      -1.32599695E-07
  -11.6300001      -2.23826262E-07
  -11.6199999      -3.18493363E-07
  -11.6099997      -4.16052131E-07
  -11.6000004      -5.15922238E-07
  -11.5900002      -6.17497051E-07
  -11.5799999      -7.20148250E-07
  -11.5699997      -8.23228788E-07
  -11.5600004      -9.26074961E-07
  -11.5500002      -1.02800709E-06
  -11.5400000      -1.12832913E-06
  -11.5299997      -1.22632764E-06
  -11.5200005      -1.32126934E-06
  -11.5100002      -1.41240173E-06
  -11.5000000      -1.49895152E-06
  -11.4899998      -1.58012585E-06
  -11.4799995      -1.65511494E-06
  -11.4700003      -1.72309433E-06
  -11.4600000      -1.78323160E-06
  -11.4499998      -1.83469058E-06
  -11.4399996      -1.87663943E-06
  -11.4300003      -1.90825654E-06
  -11.4200001      -1.92873858E-06
  -11.4099998      -1.93730511E-06
  -11.3999996      -1.93320761E-06
  -11.3900003      -1.91572894E-06
  -11.3800001      -1.88419085E-06
  -11.3699999      -1.83795271E-06
  -11.3599997      -1.77641255E-06
  -11.3500004      -1.69900511E-06
  -11.3400002      -1.60520062E-06
  -11.3299999      -1.49450238E-06
  -11.3199997      -1.36644292E-06
  -11.3100004      -1.22058407E-06
  -11.3000002      -1.05651475E-06
  -11.2900000      -8.73852002E-07
  -11.2799997      -6.72242777E-07
  -11.2700005      -4.51365509E-07
  -11.2600002      -2.10934132E-07
  -11.2500000       4.92995937E-08
  -11.2399998       3.29542246E-07
  -11.2299995       6.29957526E-07
  -11.2200003       9.50666504E-07
  -11.2100000       1.29174691E-06
  -11.1999998       1.65323797E-06
  -11.1899996       2.03514219E-06
  -11.1800003       2.43743079E-06
  -11.1700001       2.86004979E-06
  -11.1599998       3.30292346E-06
  -11.1499996       3.76596199E-06
  -11.1400003       4.24906193E-06
  -11.1300001       4.75211436E-06
  -11.1199999       5.27500561E-06
  -11.1099997       5.81761833E-06
  -11.1000004       6.37983658E-06
  -11.0900002       6.96154166E-06
  -11.0799999       7.56261670E-06
  -11.0699997       8.18294029E-06
  -11.0600004       8.82238510E-06
  -11.0500002       9.48080924E-06
  -11.0400000       1.01580581E-05
  -11.0299997       1.08539480E-05
  -11.0200005       1.15682606E-05
  -11.0100002       1.23007412E-05
  -11.0000000       1.30510925E-05
  -10.9899998       1.38189616E-05
  -10.9799995       1.46039602E-05
  -10.9700003       1.54056561E-05
  -10.9600000       1.62235719E-05
  -10.9499998       1.70572039E-05
  -10.9399996       1.79060244E-05
  -10.9300003       1.87694695E-05
  -10.9200001       1.96469700E-05
  -10.9099998       2.05379383E-05
  -10.8999996       2.14417505E-05
  -10.8900003       2.23577790E-05
  -10.8800001       2.32853599E-05
  -10.8699999       2.42238220E-05
  -10.8599997       2.51724541E-05
  -10.8500004       2.61305413E-05
  -10.8400002       2.70973524E-05
  -10.8299999       2.80721597E-05
  -10.8199997       2.90542303E-05
  -10.8100004       3.00428437E-05
  -10.8000002       3.10373143E-05
  -10.7900000       3.20369436E-05
  -10.7799997       3.30410658E-05
  -10.7700005       3.40490333E-05
  -10.7600002       3.50602058E-05
  -10.7500000       3.60739323E-05
  -10.7399998       3.70895650E-05
  -10.7299995       3.81064492E-05
  -10.7200003       3.91239082E-05
  -10.7100000       4.01412544E-05
  -10.6999998       4.11578076E-05
  -10.6899996       4.21728691E-05
  -10.6800003       4.31857407E-05
  -10.6700001       4.41957600E-05
  -10.6599998       4.52022614E-05
  -10.6499996       4.62046337E-05
  -10.6400003       4.72022948E-05
  -10.6300001       4.81946881E-05
  -10.6199999       4.91813335E-05
  -10.6099997       5.01617906E-05
  -10.6000004       5.11356920E-05
  -10.5900002       5.21027250E-05
  -10.5799999       5.30626639E-05
  -10.5699997       5.40153669E-05
  -10.5600004       5.49607685E-05
  -10.5500002       5.58989123E-05
  -10.5400000       5.68299292E-05
  -10.5299997       5.77540377E-05
  -10.5200005       5.86715360E-05
  -10.5100002       5.95827987E-05
  -10.5000000       6.04882334E-05
  -10.4899998       6.13883094E-05
  -10.4799995       6.22835068E-05
  -10.4700003       6.31742732E-05
  -10.4600000       6.40611106E-05
  -10.4499998       6.49444773E-05
  -10.4399996       6.58247518E-05
  -10.4300003       6.67023705E-05
  -10.4200001       6.75776973E-05
  -10.4099998       6.84510524E-05
  -10.3999996       6.93227339E-05
  -10.3900003       7.01929966E-05
  -10.3800001       7.10620516E-05
  -10.3699999       7.19300588E-05
  -10.3599997       7.27970764E-05
  -10.3500004       7.36630973E-05
  -10.3400002       7.45280850E-05
  -10.3299999       7.53918575E-05
  -10.3199997       7.62542040E-05
  -10.3100004       7.71148480E-05
  -10.3000002       7.79734764E-05
  -10.2900000       7.88297039E-05
  -10.2799997       7.96832101E-05
  -10.2700005       8.05336094E-05
  -10.2600002       8.13805891E-05
  -10.2500000       8.22237998E-05
  -10.2399998       8.30629506E-05
  -10.2299995       8.38977430E-05
  -10.2200003       8.47279589E-05
  -10.2100000       8.55533144E-05
  -10.1999998       8.63736495E-05
  -10.1899996       8.71888187E-05
  -10.1800003       8.79987201E-05
  -10.1700001       8.88033246E-05
  -10.1599998       8.96027123E-05
  -10.1499996       9.03970067E-05
  -10.1400003       9.11864481E-05
  -10.1300001       9.19713202E-05
  -10.1199999       9.27519650E-05
  -10.1099997       9.35287826E-05
  -10.1000004       9.43022096E-05
  -10.0900002       9.50726826E-05
  -10.0799999       9.58407036E-05
  -10.0699997       9.66067746E-05
  -10.0600004       9.73714705E-05
  -10.0500002       9.81354169E-05
  -10.0400000       9.88993488E-05
  -10.0299997       9.96640229E-05
  -10.0200005       1.00430319E-04
  -10.0100002       1.01199228E-04
  -10.0000000       1.01971724E-04
  -9.98999977       1.02748898E-04
  -9.97999954       1.03531820E-04
  -9.97000027       1.04321625E-04
  -9.96000004       1.05119405E-04
  -9.94999981       1.05926280E-04
  -9.93999958       1.06743355E-04
  -9.93000031       1.07571803E-04
  -9.92000008       1.08412758E-04
  -9.90999985       1.09267414E-04
  -9.89999962       1.10137065E-04
  -9.89000034       1.11022964E-04
  -9.88000011       1.11926456E-04
  -9.86999989       1.12848909E-04
  -9.85999966       1.13791735E-04
  -9.85000038       1.14756323E-04
  -9.84000015       1.15744115E-04
  -9.82999992       1.16756528E-04
  -9.81999969       1.17795025E-04
  -9.81000042       1.18860982E-04
  -9.80000019       1.19955868E-04
  -9.78999996       1.21081095E-04
  -9.77999973       1.22238140E-04
  -9.77000046       1.23428472E-04
  -9.76000023       1.24653612E-04
  -9.75000000       1.25915132E-04
  -9.73999977       1.27214618E-04
  -9.72999954       1.28553715E-04
  -9.72000027       1.29934080E-04
  -9.71000004       1.31357461E-04
  -9.69999981       1.32825589E-04
  -9.68999958       1.34340182E-04
  -9.68000031       1.35902970E-04
  -9.67000008       1.37515657E-04
  -9.65999985       1.39179858E-04
  -9.64999962       1.40897188E-04
  -9.64000034       1.42669058E-04
  -9.63000011       1.44496837E-04
  -9.61999989       1.46381717E-04
  -9.60999966       1.48324689E-04
  -9.60000038       1.50326538E-04
  -9.59000015       1.52387831E-04
  -9.57999992       1.54508816E-04
  -9.56999969       1.56689595E-04
  -9.56000042       1.58929906E-04
  -9.55000019       1.61229269E-04
  -9.53999996       1.63586912E-04
  -9.52999973       1.66001773E-04
  -9.52000046       1.68472528E-04
  -9.51000023       1.70997591E-04
  -9.50000000       1.73575056E-04
  -9.48999977       1.76202841E-04
  -9.47999954       1.78878487E-04
  -9.47000027       1.81599404E-04
  -9.46000004       1.84362711E-04
  -9.44999981       1.87165395E-04
  -9.43999958       1.90004401E-04
  -9.43000031       1.92876454E-04
  -9.42000008       1.95778368E-04
  -9.40999985       1.98706883E-04
  -9.39999962       2.01658768E-04
  -9.39000034       2.04630982E-04
  -9.38000011       2.07620644E-04
  -9.36999989       2.10624974E-04
  -9.35999966       2.13641484E-04
  -9.35000038       2.16668021E-04
  -9.34000015       2.19702721E-04
  -9.32999992       2.22744173E-04
  -9.31999969       2.25791286E-04
  -9.31000042       2.28843623E-04
  -9.30000019       2.31901082E-04
  -9.28999996       2.34964245E-04
  -9.27999973       2.38034088E-04
  -9.27000046       2.41112299E-04
  -9.26000023       2.44201161E-04
  -9.25000000       2.47303484E-04
  -9.23999977       2.50422803E-04
  -9.22999954       2.53563107E-04
  -9.22000027       2.56729341E-04
  -9.21000004       2.59926717E-04
  -9.19999981       2.63161113E-04
  -9.18999958       2.66439049E-04
  -9.18000031       2.69767159E-04
  -9.17000008       2.73152837E-04
  -9.15999985       2.76603416E-04
  -9.14999962       2.80126667E-04
  -9.14000034       2.83730362E-04
  -9.13000011       2.87422270E-04
  -9.11999989       2.91210308E-04
  -9.10999966       2.95101956E-04
  -9.10000038       2.99104693E-04
  -9.09000015       3.03225650E-04
  -9.07999992       3.07471550E-04
  -9.06999969       3.11848707E-04
  -9.06000042       3.16362857E-04
  -9.05000019       3.21019033E-04
  -9.03999996       3.25821806E-04
  -9.02999973       3.30774928E-04
  -9.02000046       3.35881428E-04
  -9.01000023       3.41143517E-04
  -9.00000000       3.46562651E-04
  -8.98999977       3.52139614E-04
  -8.97999954       3.57874116E-04
  -8.97000027       3.63765168E-04
  -8.96000004       3.69810936E-04
  -8.94999981       3.76008684E-04
  -8.93999958       3.82354832E-04
  -8.93000031       3.88844928E-04
  -8.92000008       3.95473733E-04
  -8.90999985       4.02234989E-04
  -8.89999962       4.09121829E-04
  -8.89000034       4.16126393E-04
  -8.88000011       4.23240126E-04
  -8.86999989       4.30453918E-04
  -8.85999966       4.37757612E-04
  -8.85000038       4.45140788E-04
  -8.84000015       4.52592561E-04
  -8.82999992       4.60101292E-04
  -8.81999969       4.67655103E-04
  -8.81000042       4.75241686E-04
  -8.80000019       4.82848525E-04
  -8.78999996       4.90462757E-04
  -8.77999973       4.98071604E-04
  -8.77000046       5.05661941E-04
  -8.76000023       5.13221021E-04
  -8.75000000       5.20735979E-04
  -8.73999977       5.28194010E-04
  -8.72999954       5.35582891E-04
  -8.72000027       5.42890280E-04
  -8.71000004       5.50104771E-04
  -8.69999981       5.57214895E-04
  -8.68999958       5.64209942E-04
  -8.68000031       5.71079552E-04
  -8.67000008       5.77814353E-04
  -8.65999985       5.84405090E-04
  -8.64999962       5.90843731E-04
  -8.64000034       5.97122824E-04
  -8.63000011       6.03235560E-04
  -8.61999989       6.09176175E-04
  -8.60999966       6.14939723E-04
  -8.60000038       6.20521896E-04
  -8.59000015       6.25919201E-04
  -8.57999992       6.31128903E-04
  -8.56999969       6.36149314E-04
  -8.56000042       6.40978978E-04
  -8.55000019       6.45617256E-04
  -8.53999996       6.50064030E-04
  -8.52999973       6.54319767E-04
  -8.52000046       6.58385747E-04
  -8.51000023       6.62263250E-04
  -8.50000000       6.65954489E-04
  -8.48999977       6.69461850E-04
  -8.47999954       6.72788068E-04
  -8.47000027       6.75936346E-04
  -8.46000004       6.78910292E-04
  -8.44999981       6.81713340E-04
  -8.43999958       6.84349507E-04
  -8.43000031       6.86822983E-04
  -8.42000008       6.89138018E-04
  -8.40999985       6.91298977E-04
  -8.39999962       6.93310401E-04
  -8.39000034       6.95176888E-04
  -8.38000011       6.96903095E-04
  -8.36999989       6.98493910E-04
  -8.35999966       6.99954049E-04
  -8.35000038       7.01288343E-04
  -8.34000015       7.02501740E-04
  -8.32999992       7.03599304E-04
  -8.31999969       7.04586040E-04
  -8.31000042       7.05467304E-04
  -8.30000019       7.06248044E-04
  -8.28999996       7.06933963E-04
  -8.27999973       7.07530766E-04
  -8.27000046       7.08044448E-04
  -8.26000023       7.08481180E-04
  -8.25000000       7.08847307E-04
  -8.23999977       7.09149521E-04
  -8.22999954       7.09395041E-04
  -8.22000027       7.09591084E-04
  -8.21000004       7.09745218E-04
  -8.19999981       7.09865417E-04
  -8.18999958       7.09960179E-04
  -8.18000031       7.10038410E-04
  -8.17000008       7.10109132E-04
  -8.15999985       7.10182299E-04
  -8.14999962       7.10267923E-04
  -8.14000034       7.10376538E-04
  -8.13000011       7.10519205E-04
  -8.11999989       7.10707332E-04
  -8.10999966       7.10952561E-04
  -8.10000038       7.11267174E-04
  -8.09000015       7.11663684E-04
  -8.07999992       7.12154899E-04
  -8.06999969       7.12753681E-04
  -8.06000042       7.13473302E-04
  -8.05000019       7.14327092E-04
  -8.03999996       7.15328788E-04
  -8.02999973       7.16491835E-04
  -8.02000046       7.17829738E-04
  -8.01000023       7.19356176E-04
  -8.00000000       7.21084536E-04
  -7.98999977       7.23028206E-04
  -7.98000002       7.25200109E-04
  -7.96999979       7.27613282E-04
  -7.96000004       7.30280241E-04
  -7.94999981       7.33213092E-04
  -7.94000006       7.36423768E-04
  -7.92999983       7.39923562E-04
  -7.92000008       7.43723300E-04
  -7.90999985       7.47833401E-04
  -7.90000010       7.52263644E-04
  -7.88999987       7.57023576E-04
  -7.88000011       7.62121635E-04
  -7.86999989       7.67565914E-04
  -7.86000013       7.73363805E-04
  -7.84999990       7.79521943E-04
  -7.84000015       7.86046265E-04
  -7.82999992       7.92941952E-04
  -7.82000017       8.00213544E-04
  -7.80999994       8.07864533E-04
  -7.80000019       8.15897540E-04
  -7.78999996       8.24315008E-04
  -7.78000021       8.33117985E-04
  -7.76999998       8.42306821E-04
  -7.76000023       8.51881690E-04
  -7.75000000       8.61841429E-04
  -7.73999977       8.72184173E-04
  -7.73000002       8.82907887E-04
  -7.71999979       8.94009194E-04
  -7.71000004       9.05484892E-04
  -7.69999981       9.17330268E-04
  -7.69000006       9.29540722E-04
  -7.67999983       9.42111015E-04
  -7.67000008       9.55035794E-04
  -7.65999985       9.68308537E-04
  -7.65000010       9.81922960E-04
  -7.63999987       9.95872426E-04
  -7.63000011       1.01014983E-03
  -7.61999989       1.02474866E-03
  -7.61000013       1.03966088E-03
  -7.59999990       1.05488009E-03
  -7.59000015       1.07039860E-03
  -7.57999992       1.08620955E-03
  -7.57000017       1.10230595E-03
  -7.55999994       1.11868128E-03
  -7.55000019       1.13532890E-03
  -7.53999996       1.15224277E-03
  -7.53000021       1.16941694E-03
  -7.51999998       1.18684617E-03
  -7.51000023       1.20452547E-03
  -7.50000000       1.22245005E-03
  -7.48999977       1.24061550E-03
  -7.48000002       1.25901843E-03
  -7.46999979       1.27765560E-03
  -7.46000004       1.29652384E-03
  -7.44999981       1.31562061E-03
  -7.44000006       1.33494439E-03