  -16.0000000       0.00000000    
  -15.9899998       0.00000000    
  -15.9799995       0.00000000    
  -15.9700003       0.00000000    
  -15.9600000       0.00000000    
  -15.9499998       0.00000000    
  -15.9399996       0.00000000    
  -15.9300003       0.00000000    
  -15.9200001       0.00000000    
  -15.9099998       0.00000000    
  -15.8999996       0.00000000    
  -15.8900003       0.00000000    
  -15.8800001       0.00000000    
  -15.8699999      -8.40779079E-45
  -15.8599997      -2.14398665E-43
  -15.8500004      -2.83202420E-42
  -15.8400002      -2.44120205E-41
  -15.8299999      -1.54260540E-40
  -15.8199997      -7.54971968E-40
  -15.8100004      -2.92120003E-39
  -15.8000002      -8.78618341E-39
  -15.7900000      -1.84115736E-38
  -15.7799997      -1.05831287E-38
  -15.7700005       1.27330980E-37
  -15.7600002       7.90183281E-37
  -15.7500000       3.05181981E-36
  -15.7399998       9.23963169E-36
  -15.7299995       2.31998475E-35
  -15.7200003       4.87475384E-35
  -15.7100000       8.34367325E-35
  -15.6999998       1.04566433E-34
  -15.6899996       4.86562137E-35
  -15.6800003      -2.01358578E-34
  -15.6700001      -7.85718791E-34
  -15.6599998      -1.74447604E-33
  -15.6499996      -2.78226803E-33
  -15.6400003      -3.02709375E-33
  -15.6300001      -1.11062130E-33
  -15.6199999       3.92897930E-33
  -15.6099997       1.06678346E-32
  -15.6000004       1.31368561E-32
  -15.5900002       1.49700243E-33
  -15.5799999      -2.96346828E-32
  -15.5699997      -6.23018001E-32
  -15.5600004      -3.30885203E-32
  -15.5500002       1.64851504E-31
  -15.5400000       6.07879162E-31
  -15.5299997       1.15564533E-30
  -15.5200005       1.18939744E-30
  -15.5100002      -5.14491073E-31
  -15.5000000      -5.34480768E-30
  -15.4899998      -1.33476394E-29
  -15.4799995      -2.05724993E-29
  -15.4700003      -1.64450539E-29
  -15.4600000       1.56747015E-29
  -15.4499998       8.99378289E-29
  -15.4399996       1.97693387E-28
  -15.4300003       2.78453190E-28
  -15.4200001       1.99228088E-28
  -15.4099998      -2.23165279E-28
  -15.3999996      -1.11404195E-27
  -15.3900003      -2.32679589E-27
  -15.3800001      -3.17685438E-27
  -15.3699999      -2.30335944E-27
  -15.3599997       2.03312855E-27
  -15.3500004       1.08916215E-26
  -15.3400002       2.27590131E-26
  -15.3299999       3.13975638E-26
  -15.3199997       2.49600983E-26
  -15.3100004      -1.12636634E-26
  -15.3000002      -8.62415282E-26
  -15.2900000      -1.88643217E-25
  -15.2799997      -2.70960729E-25
  -15.2700005      -2.43384248E-25
  -15.2600002       6.44382648E-27
  -15.2500000       5.53515545E-25
  -15.2399998       1.33587086E-24
  -15.2299995       2.04613499E-24
  -15.2200003       2.08458249E-24
  -15.2100000       6.73548127E-25
  -15.1999998      -2.77938022E-24
  -15.1899996      -8.06908386E-24
  -15.1800003      -1.35053381E-23
  -15.1700001      -1.55479988E-23
  -15.1599998      -9.33149323E-24
  -15.1499996       9.40901538E-24
  -15.1400003       4.09438878E-23
  -15.1300001       7.75243525E-23
  -15.1199999       1.00742018E-22
  -15.1099997       8.32272363E-23
  -15.1000004      -2.46885478E-24
  -15.0900002      -1.66955822E-22
  -15.0799999      -3.82430250E-22
  -15.0699997      -5.65572072E-22
  -15.0600004      -5.79031477E-22
  -15.0500002      -2.66256131E-22
  -15.0400000       4.73225161E-22
  -15.0299997       1.57887473E-21
  -15.0200005       2.73119872E-21
  -15.0100002       3.32225744E-21
  -15.0000000       2.56503457E-21
  -14.9899998      -2.11940748E-22
  -14.9799995      -5.10620006E-21
  -14.9700003      -1.11468428E-20
  -14.9600000      -1.60052679E-20
  -14.9499998      -1.62170876E-20
  -14.9399996      -8.16746343E-21
  -14.9300003       1.01333300E-20
  -14.9200001       3.68528124E-20
  -14.9099998       6.45589911E-20
  -14.8999996       8.00605691E-20
  -14.8900003       6.70419159E-20
  -14.8800001       1.20392018E-20
  -14.8699999      -8.70097198E-20
  -14.8599997      -2.12179504E-19
  -14.8500004      -3.21105904E-19
  -14.8400002      -3.51446683E-19
  -14.8299999      -2.37694123E-19
  -14.8199997       6.00209361E-20
  -14.8100004       5.21397324E-19
  -14.8000002       1.03838619E-18
  -14.7900000       1.41146408E-18
  -14.7799997       1.38544140E-18
  -14.7700005       7.31357115E-19
  -14.7600002      -6.36203789E-19
  -14.7500000      -2.53891260E-18
  -14.7399998      -4.46333755E-18
  -14.7299995      -5.59652866E-18
  -14.7200003      -5.01078594E-18
  -14.7100000      -1.99718540E-18
  -14.6999998       3.51703548E-18
  -14.6899996       1.06012890E-17
  -14.6800003       1.71851338E-17
  -14.6700001       2.03257699E-17
  -14.6599998       1.69691305E-17
  -14.6499996       5.13302256E-18
  -14.6400003      -1.47670235E-17
  -14.6300001      -3.89180603E-17
  -14.6199999      -5.99905129E-17
  -14.6099997      -6.83533619E-17
  -14.6000004      -5.47503668E-17
  -14.5900002      -1.40427342E-17
  -14.5799999       5.09669187E-17
  -14.5699997       1.27069011E-16
  -14.5600004       1.91064468E-16
  -14.5500002       2.14119818E-16
  -14.5400000       1.70050282E-16
  -14.5299997       4.60355822E-17
  -14.5200005      -1.47229057E-16
  -14.5100002      -3.69903259E-16
  -14.5000000      -5.55699936E-16
  -14.4899998      -6.25104280E-16
  -14.4799995      -5.08300819E-16
  -14.4700003      -1.73205095E-16
  -14.4600000       3.49472136E-16
  -14.4499998       9.53969269E-16
  -14.4399996       1.46874507E-15
  -14.4300003       1.69140685E-15
  -14.4200001       1.44589816E-15
  -14.4099998       6.49787667E-16
  -14.3999996      -6.27794457E-16
  -14.3900003      -2.13989279E-15
  -14.3800001      -3.48557637E-15
  -14.3699999      -4.19106947E-15
  -14.3599997      -3.83844076E-15
  -14.3500004      -2.21373077E-15
  -14.3400002       5.67704986E-16
  -14.3299999       4.00482768E-15
  -14.3199997       7.25961446E-15
  -14.3100004       9.32257506E-15
  -14.3000002       9.27270091E-15
  -14.2900000       6.57438175E-15
  -14.2799997       1.32891147E-15
  -14.2700005      -5.60625739E-15
  -14.2600002      -1.26954907E-14
  -14.2500000      -1.80184609E-14
  -14.2399998      -1.97356220E-14
  -14.2299995      -1.66218273E-14
  -14.2200003      -8.52457007E-15
  -14.2100000       3.39951803E-15
  -14.1999998       1.67751656E-14
  -14.1899996       2.84516402E-14
  -14.1800003       3.52246952E-14
  -14.1700001       3.46717487E-14
  -14.1599998       2.58803446E-14
  -14.1499996       9.85457020E-15
  -14.1400003      -1.05463098E-14
  -14.1300001      -3.11617695E-14
  -14.1199999      -4.74611466E-14
  -14.1099997      -5.56186634E-14
  -14.1000004      -5.34423918E-14
  -14.0900002      -4.08964651E-14
  -14.0799999      -2.00670135E-14
  -14.0699997       5.41175279E-15
  -14.0600004       3.12863579E-14
  -14.0500002       5.36676010E-14
  -14.0400000       6.97507441E-14
  -14.0299997       7.80494579E-14
  -14.0200005       7.81040407E-14
  -14.0100002       6.98390930E-14
  -14.0000000       5.29144498E-14
  -13.9899998       2.64641570E-14
  -13.9799995      -1.04876926E-14
  -13.9700003      -5.78950272E-14
  -13.9600000      -1.13130032E-13
  -13.9499998      -1.69577514E-13
  -13.9399996      -2.16111146E-13
  -13.9300003      -2.38084183E-13
  -13.9200001      -2.20111283E-13
  -13.9099998      -1.50363012E-13
  -13.8999996      -2.54824204E-14
  -13.8900003       1.45241878E-13
  -13.8800001       3.37966525E-13
  -13.8699999       5.15883451E-13
  -13.8599997       6.34814033E-13
  -13.8500004       6.52270447E-13
  -13.8400002       5.38342537E-13
  -13.8299999       2.85917638E-13
  -13.8199997      -8.25728646E-14
  -13.8100004      -5.14278507E-13
  -13.8000002      -9.32199413E-13
  -13.7900000      -1.24823242E-12
  -13.7799997      -1.38084867E-12
  -13.7700005      -1.27380062E-12
  -13.7600002      -9.11559131E-13
  -13.7500000      -3.27502755E-13
  -13.7399998       3.97749216E-13
  -13.7299995       1.14830985E-12
  -13.7200003       1.79332254E-12
  -13.7100000       2.21147731E-12
  -13.6999998       2.31446416E-12
  -13.6899996       2.06414486E-12
  -13.6800003       1.47965461E-12
  -13.6700001       6.33073346E-13
  -13.6599998      -3.64876803E-13
  -13.6499996      -1.38520304E-12
  -13.6400003      -2.30180285E-12
  -13.6300001      -3.00828785E-12
  -13.6199999      -3.42700889E-12
  -13.6099997      -3.50954639E-12
  -13.6000004      -3.23095478E-12
  -13.5900002      -2.58231305E-12
  -13.5799999      -1.56694514E-12
  -13.5699997      -2.04435725E-13
  -13.5600004       1.45639338E-12
  -13.5500002       3.31843147E-12
  -13.5400000       5.21792158E-12
  -13.5299997       6.91592920E-12
  -13.5200005       8.10854162E-12
  -13.5100002       8.46145116E-12
  -13.5000000       7.66860360E-12
  -13.4899998       5.52729737E-12
  -13.4799995       2.01519790E-12
  -13.4700003      -2.64959322E-12
  -13.4600000      -7.98447246E-12
  -13.4499998      -1.32686136E-11
  -13.4399996      -1.76247298E-11
  -13.4300003      -2.01494915E-11
  -13.4200001      -2.00737257E-11
  -13.4099998      -1.69241860E-11
  -13.3999996      -1.06548294E-11
  -13.3900003      -1.71822398E-12
  -13.3800001       8.94274758E-12
  -13.3699999       1.99885872E-11
  -13.3599997       2.98517183E-11
  -13.3500004       3.69549981E-11
  -13.3400002       3.99455920E-11
  -13.3299999       3.79070490E-11
  -13.3199997       3.05170091E-11
  -13.3100004       1.81282593E-11
  -13.3000002       1.76434486E-12
  -13.2900000      -1.69656390E-11
  -13.2799997      -3.60187297E-11
  -13.2700005      -5.31165667E-11
  -13.2600002      -6.59707705E-11
  -13.2500000      -7.25185814E-11
  -13.2399998      -7.11554704E-11
  -13.2299995      -6.09535825E-11
  -13.2200003      -4.18523098E-11
  -13.2100000      -1.48019878E-11
  -13.1999998       1.81658594E-11
  -13.1899996       5.39733813E-11
  -13.1800003       8.86669349E-11
  -13.1700001       1.17742732E-10
  -13.1599998       1.36625836E-10
  -13.1499996       1.41270162E-10
  -13.1400003       1.28813488E-10
  -13.1300001       9.81929468E-11
  -13.1199999       5.06097352E-11
  -13.1099997      -1.02652062E-11
  -13.1000004      -7.84252177E-11
  -13.0900002      -1.46036433E-10
  -13.0799999      -2.04292999E-10
  -13.0699997      -2.44526899E-10
  -13.0600004      -2.59425453E-10
  -13.0500002      -2.44177234E-10
  -13.0400000      -1.97364611E-10
  -13.0299997      -1.21451030E-10
  -13.0200005      -2.27689239E-11
  -13.0100002       8.90102853E-11
  -13.0000000       2.01865274E-10
  -12.9899998       3.02746189E-10
  -12.9799995       3.79058368E-10
  -12.9700003       4.20124130E-10
  -12.9600000       4.18451940E-10
  -12.9499998       3.70680514E-10
  -12.9399996       2.78113726E-10
  -12.9300003       1.46812534E-10
  -12.9200001      -1.27485279E-11
  -12.9099998      -1.86424889E-10
  -12.8999996      -3.57493007E-10
  -12.8900003      -5.08029063E-10
  -12.8800001      -6.20504481E-10
  -12.8699999      -6.79510503E-10
  -12.8599997      -6.73498035E-10
  -12.8500004      -5.96380167E-10
  -12.8400002      -4.48816484E-10
  -12.8299999      -2.38976255E-10
  -12.8199997       1.74112703E-11
  -12.8100004       2.97861263E-10
  -12.8000002       5.74847114E-10
  -12.7900000       8.18352774E-10
  -12.7799997       9.99055838E-10
  -12.7700005       1.09180254E-09
  -12.7600002       1.07894293E-09
  -12.7500000       9.53061186E-10
  -12.7399998       7.18672122E-10
  -12.7299995       3.92573474E-10
  -12.7200003       2.71003597E-12
  -12.7100000      -4.14380558E-10
  -12.6999998      -8.17274859E-10
  -12.6899996      -1.16408472E-09
  -12.6800003      -1.41705303E-09
  -12.6700001      -1.54676438E-09
  -12.6599998      -1.53546731E-09
  -12.6499996      -1.37913925E-09
  -12.6400003      -1.08808584E-09
  -12.6300001      -6.86057877E-10
  -12.6199999      -2.08021114E-10
  -12.6099997       3.03147479E-10
  -12.6000004       8.00695732E-10
  -12.5900002       1.23838229E-09
  -12.5799999       1.57483904E-09
  -12.5699997       1.77755555E-09
  -12.5600004       1.82617244E-09
  -12.5500002       1.71479908E-09
  -12.5400000       1.45311929E-09
  -12.5299997       1.06610110E-09
  -12.5200005       5.92210392E-10
  -12.5100002       8.01345448E-11
  -12.5000000      -4.15827706E-10
  -12.4899998      -8.41391623E-10
  -12.4799995      -1.14844079E-09
  -12.4700003      -1.30109779E-09
  -12.4600000      -1.28102651E-09
  -12.4499998      -1.09130549E-09
  -12.4399996      -7.58323571E-10
  -12.4300003      -3.31364380E-10
  -12.4200001       1.20188373E-10
  -12.4099998       5.11816423E-10
  -12.3999996       7.50513374E-10
  -12.3900003       7.42449935E-10
  -12.3800001       4.00890321E-10
  -12.3699999      -3.46358053E-10
  -12.3599997      -1.55060231E-09
  -12.3500004      -3.23748983E-09
  -12.3400002      -5.40397727E-09
  -12.3299999      -8.01719313E-09
  -12.3199997      -1.10149943E-08
  -12.3100004      -1.43081609E-08
  -12.3000002      -1.77839272E-08
  -12.2900000      -2.13107736E-08
  -12.2799997      -2.47441925E-08
  -12.2700005      -2.79333729E-08
  -12.2600002      -3.07284438E-08
  -12.2500000      -3.29880976E-08
  -12.2399998      -3.45870923E-08
  -12.2299995      -3.54230885E-08
  -12.2200003      -3.54222713E-08
  -12.2100000      -3.45432127E-08
  -12.1999998      -3.27784377E-08
  -12.1899996      -3.01534975E-08
  -12.1800003      -2.67234999E-08
  -12.1700001      -2.25674857E-08
  -12.1599998      -1.77810371E-08
  -12.1499996      -1.24680026E-08
  -12.1400003      -6.73207445E-09
  -12.1300001      -6.69115596E-10
  -12.1199999       5.63920377E-09
  -12.1099997       1.21298660E-08
  -12.1000004       1.87608862E-08
  -12.0900002       2.55115342E-08
  -12.0799999       3.23805054E-08
  -12.0699997       3.93824742E-08
  -12.0600004       4.65431178E-08
  -12.0500002       5.38932312E-08
  -12.0400000       6.14620745E-08
  -12.0299997       6.92703992E-08
  -12.0200005       7.73236195E-08
  -12.0100002       8.56053077E-08
  -12.0000000       9.40716944E-08
  -11.9899998       1.02647533E-07
  -11.9799995       1.11223564E-07
  -11.9700003       1.19656477E-07
  -11.9600000       1.27771003E-07
  -11.9499998       1.35364502E-07
  -11.9399996       1.42214120E-07
  -11.9300003       1.48085419E-07
  -11.9200001       1.52742970E-07
  -11.9099998       1.55960905E-07
  -11.8999996       1.57533876E-07
  -11.8900003       1.57286706E-07
  -11.8800001       1.55082745E-07
  -11.8699999       1.50829479E-07
  -11.8599997       1.44482243E-07
  -11.8500004       1.36044648E-07
  -11.8400002       1.25566444E-07
  -11.8299999       1.13139201E-07
  -11.8199997       9.88892452E-08
  -11.8100004       8.29694002E-08
  -11.8000002       6.55497914E-08
  -11.7900000       4.68079264E-08
  -11.7799997       2.69194196E-08
  -11.7700005       6.04960926E-09
  -11.7600002      -1.56530149E-08
  -11.7500000      -3.80616001E-08
  -11.7399998      -6.10728321E-08
  -11.7299995      -8.46066328E-08
  -11.7200003      -1.08603231E-07
  -11.7100000      -1.33017878E-07
  -11.6999998      -1.57814156E-07
  -11.6899996      -1.82956228E-07
  -11.6800003      -2.08400351E-07
  -11.6700001      -2.34087381E-07
  -11.6599998      -2.59935604E-07
  -11.6499996      -2.85835142E-07
  -11.6400003      -3.11644754E-07
  -11.6300001      -3.37189135E-07
  -11.6199999      -3.62259186E-07
  -11.6099997      -3.86613124E-07
  -11.6000004      -4.09979179E-07
  -11.5900002      -4.32058982E-07
  -11.5799999      -4.52533186E-07
  -11.5699997      -4.71065846E-07
  -11.5600004      -4.87311524E-07
  -11.5500002      -5.00921260E-07
  -11.5400000      -5.11550468E-07
  -11.5299997      -5.18865988E-07
  -11.5200005      -5.22553023E-07
  -11.5100002      -5.22323546E-07
  -11.5000000      -5.17920910E-07
  -11.4899998      -5.09125812E-07
  -11.4799995      -4.95759480E-07
  -11.4700003      -4.77685205E-07
  -11.4600000      -4.54809424E-07
  -11.4499998      -4.27078817E-07
  -11.4399996      -3.94478150E-07
  -11.4300003      -3.57026124E-07
  -11.4200001      -3.14770062E-07
  -11.4099998      -2.67780678E-07
  -11.3999996      -2.16146589E-07
  -11.3900003      -1.59968238E-07
  -11.3800001      -9.93524338E-08
  -11.3699999      -3.44074245E-08
  -11.3599997       3.47620741E-08
  -11.3500004       1.08058693E-07
  -11.3400002       1.85395564E-07
  -11.3299999       2.66697839E-07
  -11.3199997       3.51903452E-07
  -11.3100004       4.40962623E-07
  -11.3000002       5.33835930E-07
  -11.2900000       6.30490831E-07
  -11.2799997       7.30898705E-07
  -11.2700005       8.35029368E-07
  -11.2600002       9.42846896E-07
  -11.2500000       1.05430456E-06
  -11.2399998       1.16934007E-06
  -11.2299995       1.28787042E-06
  -11.2200003       1.40978682E-06
  -11.2100000       1.53495250E-06
  -11.1999998       1.66319762E-06
  -11.1899996       1.79431856E-06
  -11.1800003       1.92807761E-06
  -11.1700001       2.06420236E-06
  -11.1599998       2.20239235E-06
  -11.1499996       2.34232039E-06
  -11.1400003       2.48364313E-06
  -11.1300001       2.62600838E-06
  -11.1199999       2.76906349E-06
  -11.1099997       2.91246602E-06
  -11.1000004       3.05589310E-06
  -11.0900002       3.19904711E-06
  -11.0799999       3.34166180E-06
  -11.0699997       3.48350454E-06
  -11.0600004       3.62438277E-06
  -11.0500002       3.76413573E-06
  -11.0400000       3.90263949E-06
  -11.0299997       4.03980221E-06
  -11.0200005       4.17555975E-06
  -11.0100002       4.30987211E-06
  -11.0000000       4.44272018E-06
  -10.9899998       4.57409851E-06
  -10.9799995       4.70401119E-06
  -10.9700003       4.83246049E-06
  -10.9600000       4.95945278E-06
  -10.9499998       5.08497942E-06
  -10.9399996       5.20902131E-06
  -10.9300003       5.33154434E-06
  -10.9200001       5.45248849E-06
  -10.9099998       5.57178328E-06
  -10.8999996       5.68934047E-06
  -10.8900003       5.80505321E-06
  -10.8800001       5.91880735E-06
  -10.8699999       6.03047465E-06
  -10.8599997       6.13992597E-06
  -10.8500004       6.24702398E-06
  -10.8400002       6.35163406E-06
  -10.8299999       6.45362661E-06
  -10.8199997       6.55286794E-06
  -10.8100004       6.64923664E-06
  -10.8000002       6.74262310E-06
  -10.7900000       6.83292910E-06
  -10.7799997       6.92007961E-06
  -10.7700005       7.00402416E-06
  -10.7600002       7.08473544E-06
  -10.7500000       7.16221120E-06
  -10.7399998       7.23648236E-06
  -10.7299995       7.30760394E-06
  -10.7200003       7.37564824E-06
  -10.7100000       7.44071167E-06
  -10.6999998       7.50290565E-06
  -10.6899996       7.56235113E-06
  -10.6800003       7.61918227E-06
  -10.6700001       7.67353777E-06
  -10.6599998       7.72556814E-06
  -10.6499996       7.77542755E-06
  -10.6400003       7.82327697E-06
  -10.6300001       7.86928922E-06
  -10.6199999       7.91363618E-06
  -10.6099997       7.95649703E-06
  -10.6000004       7.99806185E-06
  -10.5900002       8.03852072E-06
  -10.5799999       8.07806737E-06
  -10.5699997       8.11690097E-06
  -10.5600004       8.15521616E-06
  -10.5500002       8.19322486E-06
  -10.5400000       8.23112896E-06
  -10.5299997       8.26914311E-06
  -10.5200005       8.30747467E-06
  -10.5100002       8.34633556E-06
  -10.5000000       8.38593041E-06
  -10.4899998       8.42645386E-06
  -10.4799995       8.46808689E-06
  -10.4700003       8.51098048E-06
  -10.4600000       8.55527014E-06
  -10.4499998       8.60103955E-06
  -10.4399996       8.64835420E-06
  -10.4300003       8.69723408E-06
  -10.4200001       8.74765465E-06
  -10.4099998       8.79957315E-06
  -10.3999996       8.85291593E-06
  -10.3900003       8.90758747E-06
  -10.3800001       8.96349138E-06
  -10.3699999       9.02053034E-06
  -10.3599997       9.07861522E-06
  -10.3500004       9.13766689E-06
  -10.3400002       9.19763079E-06
  -10.3299999       9.25847507E-06
  -10.3199997       9.32017610E-06
  -10.3100004       9.38274025E-06
  -10.3000002       9.44618205E-06
  -10.2900000       9.51053516E-06
  -10.2799997       9.57583779E-06
  -10.2700005       9.64213632E-06
  -10.2600002       9.70948167E-06
  -10.2500000       9.77793297E-06
  -10.2399998       9.84754661E-06
  -10.2299995       9.91838715E-06
  -10.2200003       9.99051736E-06
  -10.2100000       1.00639945E-05
  -10.1999998       1.01388778E-05
  -10.1899996       1.02152244E-05
  -10.1800003       1.02930790E-05
  -10.1700001       1.03724860E-05
  -10.1599998       1.04534784E-05
  -10.1499996       1.05360832E-05
  -10.1400003       1.06203142E-05
  -10.1300001       1.07061769E-05
  -10.1199999       1.07936676E-05
  -10.1099997       1.08827699E-05
  -10.1000004       1.09734501E-05
  -10.0900002       1.10656702E-05
  -10.0799999       1.11593772E-05
  -10.0699997       1.12545040E-05
  -10.0600004       1.13509768E-05
  -10.0500002       1.14487229E-05
  -10.0400000       1.15476623E-05
  -10.0299997       1.16477377E-05
  -10.0200005       1.17488917E-05
  -10.0100002       1.18510943E-05
  -10.0000000       1.19543665E-05
  -9.98999977       1.20587383E-05
  -9.97999954       1.21643134E-05
  -9.97000027       1.22712172E-05
  -9.96000004       1.23796526E-05
  -9.94999981       1.24898588E-05
  -9.93999958       1.26021296E-05
  -9.93000031       1.27167996E-05
  -9.92000008       1.28342499E-05
  -9.90999985       1.29548971E-05
  -9.89999962       1.30791796E-05
  -9.89000034       1.32075593E-05
  -9.88000011       1.33405156E-05
  -9.86999989       1.34785323E-05
  -9.85999966       1.36220960E-05
  -9.85000038       1.37717025E-05
  -9.84000015       1.39278363E-05
  -9.82999992       1.40909760E-05
  -9.81999969       1.42615881E-05
  -9.81000042       1.44401283E-05
  -9.80000019       1.46270295E-05
  -9.78999996       1.48227036E-05
  -9.77999973       1.50275391E-05
  -9.77000046       1.52419007E-05
  -9.76000023       1.54661248E-05
  -9.75000000       1.57005179E-05
  -9.73999977       1.59453521E-05
  -9.72999954       1.62008728E-05
  -9.72000027       1.64672674E-05
  -9.71000004       1.67446869E-05
  -9.69999981       1.70332314E-05
  -9.68999958       1.73329208E-05
  -9.68000031       1.76437024E-05
  -9.67000008       1.79654562E-05
  -9.65999985       1.82979729E-05
  -9.64999962       1.86409543E-05
  -9.64000034       1.89940256E-05
  -9.63000011       1.93567339E-05
  -9.61999989       1.97285590E-05
  -9.60999966       2.01088969E-05
  -9.60000038       2.04970929E-05
  -9.59000015       2.08924448E-05
  -9.57999992       2.12941923E-05
  -9.56999969       2.17015277E-05
  -9.56000042       2.21136106E-05
  -9.55000019       2.25295662E-05
  -9.53999996       2.29485213E-05
  -9.52999973       2.33695664E-05
  -9.52000046       2.37918321E-05
  -9.51000023       2.42144706E-05
  -9.50000000       2.46366599E-05
  -9.48999977       2.50576486E-05
  -9.47999954       2.54767401E-05
  -9.47000027       2.58933469E-05
  -9.46000004       2.63069560E-05
  -9.44999981       2.67171836E-05
  -9.43999958       2.71237386E-05
  -9.43000031       2.75264465E-05
  -9.42000008       2.79252581E-05
  -9.40999985       2.83202535E-05
  -9.39999962       2.87116090E-05
  -9.39000034       2.90996231E-05
  -9.38000011       2.94847232E-05
  -9.36999989       2.98674240E-05
  -9.35999966       3.02483313E-05
  -9.35000038       3.06281727E-05
  -9.34000015       3.10077594E-05
  -9.32999992       3.13879609E-05
  -9.31999969       3.17697377E-05
  -9.31000042       3.21541156E-05
  -9.30000019       3.25421788E-05
  -9.28999996       3.29350369E-05
  -9.27999973       3.33338539E-05
  -9.27000046       3.37398233E-05
  -9.26000023       3.41541381E-05
  -9.25000000       3.45780390E-05
  -9.23999977       3.50127484E-05
  -9.22999954       3.54594486E-05
  -9.22000027       3.59193327E-05
  -9.21000004       3.63935287E-05
  -9.19999981       3.68831315E-05
  -9.18999958       3.73891526E-05
  -9.18000031       3.79125122E-05
  -9.17000008       3.84540326E-05
  -9.15999985       3.90143941E-05
  -9.14999962       3.95941861E-05
  -9.14000034       4.01938414E-05
  -9.13000011       4.08136584E-05
  -9.11999989       4.14537753E-05
  -9.10999966       4.21141813E-05
  -9.10000038       4.27947307E-05
  -9.09000015       4.34950707E-05
  -9.07999992       4.42147393E-05
  -9.06999969       4.49530671E-05
  -9.06000042       4.57092574E-05
  -9.05000019       4.64823788E-05
  -9.03999996       4.72713364E-05
  -9.02999973       4.80749004E-05
  -9.02000046       4.88916994E-05
  -9.01000023       4.97203182E-05
  -9.00000000       5.05591815E-05
  -8.98999977       5.14066851E-05
  -8.97999954       5.22611444E-05
  -8.97000027       5.31207806E-05
  -8.96000004       5.39838147E-05
  -8.94999981       5.48484495E-05
  -8.93999958       5.57128733E-05
  -8.93000031       5.65752744E-05
  -8.92000008       5.74338919E-05
  -8.90999985       5.82870089E-05
  -8.89999962       5.91329590E-05
  -8.89000034       5.99701925E-05
  -8.88000011       6.07972252E-05
  -8.86999989       6.16127072E-05
  -8.85999966       6.24153763E-05
  -8.85000038       6.32041265E-05
  -8.84000015       6.39779682E-05
  -8.82999992       6.47360794E-05
  -8.81999969       6.54777396E-05
  -8.81000042       6.62024468E-05
  -8.80000019       6.69098445E-05
  -8.78999996       6.75996998E-05
  -8.77999973       6.82719838E-05
  -8.77000046       6.89267545E-05
  -8.76000023       6.95642448E-05
  -8.75000000       7.01847675E-05
  -8.73999977       7.07887739E-05
  -8.72999954       7.13767658E-05
  -8.72000027       7.19493764E-05
  -8.71000004       7.25073041E-05
  -8.69999981       7.30512475E-05
  -8.68999958       7.35820140E-05
  -8.68000031       7.41004551E-05
  -8.67000008       7.46074293E-05
  -8.65999985       7.51037733E-05
  -8.64999962       7.55904257E-05
  -8.64000034       7.60682742E-05
  -8.63000011       7.65381774E-05
  -8.61999989       7.70010229E-05
  -8.60999966       7.74577566E-05
  -8.60000038       7.79092152E-05
  -8.59000015       7.83562791E-05
  -8.57999992       7.87998433E-05
  -8.56999969       7.92408100E-05
  -8.56000042       7.96799795E-05
  -8.55000019       8.01181595E-05
  -8.53999996       8.05562449E-05
  -8.52999973       8.09948833E-05
  -8.52000046       8.14348532E-05
  -8.51000023       8.18768749E-05
  -8.50000000       8.23215087E-05
  -8.48999977       8.27694530E-05
  -8.47999954       8.32212536E-05
  -8.47000027       8.36773834E-05
  -8.46000004       8.41384026E-05
  -8.44999981       8.46047478E-05
  -8.43999958       8.50768047E-05
  -8.43000031       8.55549879E-05
  -8.42000008       8.60396394E-05
  -8.40999985       8.65311740E-05
  -8.39999962       8.70299555E-05
  -8.39000034       8.75363694E-05
  -8.38000011       8.80508305E-05
  -8.36999989       8.85737390E-05
  -8.35999966       8.91055315E-05
  -8.35000038       8.96468046E-05
  -8.34000015       9.01980529E-05
  -8.32999992       9.07599388E-05
  -8.31999969       9.13331969E-05
  -8.31000042       9.19185986E-05
  -8.30000019       9.25169661E-05
  -8.28999996       9.31292307E-05
  -8.27999973       9.37564037E-05
  -8.27000046       9.43994673E-05
  -8.26000023       9.50595495E-05
  -8.25000000       9.57377415E-05
  -8.23999977       9.64352439E-05
  -8.22999954       9.71532281E-05
  -8.22000027       9.78929747E-05
  -8.21000004       9.86557279E-05
  -8.19999981       9.94427537E-05
  -8.18999958       1.00255231E-04
  -8.18000031       1.01094483E-04
  -8.17000008       1.01961712E-04
  -8.15999985       1.02858074E-04
  -8.14999962       1.03784667E-04
  -8.14000034       1.04742583E-04
  -8.13000011       1.05732783E-04
  -8.11999989       1.06756124E-04
  -8.10999966       1.07813350E-04
  -8.10000038       1.08905180E-04
  -8.09000015       1.10032161E-04
  -8.07999992       1.11194662E-04
  -8.06999969       1.12393012E-04
  -8.06000042       1.13627364E-04
  -8.05000019       1.14897688E-04
  -8.03999996       1.16203919E-04
  -8.02999973       1.17545809E-04
  -8.02000046       1.18922930E-04
  -8.01000023       1.20334844E-04
  -8.00000000       1.21780904E-04
  -7.98999977       1.23260543E-04
  -7.98000002       1.24772807E-04
  -7.96999979       1.26316940E-04
  -7.96000004       1.27891850E-04
  -7.94999981       1.29496548E-04
  -7.94000006       1.31129957E-04
  -7.92999983       1.32790898E-04
  -7.92000008       1.34478119E-04
  -7.90999985       1.36190443E-04
  -7.90000010       1.37926574E-04
  -7.88999987       1.39685115E-04
  -7.88000011       1.41464843E-04
  -7.86999989       1.43264406E-04
  -7.86000013       1.45082493E-04
  -7.84999990       1.46917781E-04
  -7.84000015       1.48768988E-04
  -7.82999992       1.50634922E-04
  -7.82000017       1.52514200E-04
  -7.80999994       1.54405803E-04
  -7.80000019       1.56308539E-04
  -7.78999996       1.58221446E-04
  -7.78000021       1.60143478E-04
  -7.76999998       1.62073877E-04
  -7.76000023       1.64011799E-04
  -7.75000000       1.65956561E-04
  -7.73999977       1.67907638E-04
  -7.73000002       1.69864536E-04
  -7.71999979       1.71826978E-04
  -7.71000004       1.73794630E-04
  -7.69999981       1.75767418E-04
  -7.69000006       1.77745358E-04
  -7.67999983       1.79728464E-04
  -7.67000008       1.81717027E-04
  -7.65999985       1.83711381E-04
  -7.65000010       1.85711833E-04
  -7.63999987       1.87719052E-04
  -7.63000011       1.89733561E-04
  -7.61999989       1.91756160E-04
  -7.61000013       1.93787680E-04
  -7.59999990       1.95828979E-04
  -7.59000015       1.97880901E-04
  -7.57999992       1.99944465E-04
  -7.57000017       2.02020849E-04
  -7.55999994       2.04111057E-04
  -7.55000019       2.06216180E-04
  -7.53999996       2.08337413E-04
  -7.53000021       2.10476006E-04
  -7.51999998       2.12633153E-04
  -7.51000023       2.14810207E-04
  -7.50000000       2.17008506E-04
  -7.48999977       2.19229245E-04
  -7.48000002       2.21473892E-04
  -7.46999979       2.23743744E-04
  -7.46000004       2.26040254E-04
  -7.44999981       2.28364646E-04
  -7.44000006       2.30718200E-04