  -16.0000000       0.00000000    
  -15.9899998       0.00000000    
  -15.9799995       0.00000000    
  -15.9700003       0.00000000    
  -15.9600000       0.00000000    
  -15.9499998       0.00000000    
  -15.9399996       0.00000000    
  -15.9300003       0.00000000    
  -15.9200001       0.00000000    
  -15.9099998       0.00000000    
  -15.8999996       0.00000000    
  -15.8900003       0.00000000    
  -15.8800001       0.00000000    
  -15.8699999       0.00000000    
  -15.8599997       0.00000000    
  -15.8500004       0.00000000    
  -15.8400002      -0.00000000    
  -15.8299999       0.00000000    
  -15.8199997      -0.00000000    
  -15.8100004      -1.40129846E-45
  -15.8000002      -8.40779079E-45
  -15.7900000      -4.90454463E-44
  -15.7799997      -2.36819440E-43
  -15.7700005      -9.92119313E-43
  -15.7600002      -3.69382275E-42
  -15.7500000      -1.23678602E-41
  -15.7399998      -3.74595105E-41
  -15.7299995      -1.03118751E-40
  -15.7200003      -2.58774985E-40
  -15.7100000      -5.92487208E-40
  -15.6999998      -1.23525581E-39
  -15.6899996      -2.33016457E-39
  -15.6800003      -3.91973168E-39
  -15.6700001      -5.68981967E-39
  -15.6599998      -6.52392156E-39
  -15.6499996      -3.91025330E-39
  -15.6400003       6.54494244E-39
  -15.6300001       3.08894162E-38
  -15.6199999       7.48523193E-38
  -15.6099997       1.38888072E-37
  -15.6000004       2.09558042E-37
  -15.5900002       2.48660412E-37
  -15.5799999       1.85662551E-37
  -15.5699997      -7.54399734E-38
  -15.5600004      -6.19741353E-37
  -15.5500002      -1.44417631E-36
  -15.5400000      -2.34728658E-36
  -15.5299997      -2.83261727E-36
  -15.5200005      -2.12159117E-36
  -15.5100002       5.99858206E-37
  -15.5000000       5.62196029E-36
  -15.4899998       1.19312512E-35
  -15.4799995       1.65988512E-35
  -15.4700003       1.50301761E-35
  -15.4600000       2.81600760E-36
  -15.4499998      -2.06297393E-35
  -15.4399996      -4.78077742E-35
  -15.4300003      -6.12393527E-35
  -15.4200001      -3.81485971E-35
  -15.4099998       3.52358134E-35
  -15.3999996       1.41849567E-34
  -15.3900003       2.15435605E-34
  -15.3800001       1.45665584E-34
  -15.3699999      -1.71827072E-34
  -15.3599997      -7.34407499E-34
  -15.3500004      -1.31098165E-33
  -15.3400002      -1.38029807E-33
  -15.3299999      -2.44431538E-34
  -15.3199997       2.58867403E-33
  -15.3100004       6.77657506E-33
  -15.3000002       1.05042212E-32
  -15.2900000       1.03133136E-32
  -15.2799997       1.98989098E-33
  -15.2700005      -1.71084548E-32
  -15.2600002      -4.45748692E-32
  -15.2500000      -6.96803546E-32
  -15.2399998      -7.27346240E-32
  -15.2299995      -2.98821537E-32
  -15.2200003       7.50081300E-32
  -15.2100000       2.32850972E-31
  -15.1999998       3.92513833E-31
  -15.1899996       4.55657533E-31
  -15.1800003       2.96128092E-31
  -15.1700001      -1.87505808E-31
  -15.1599998      -9.90273117E-31
  -15.1499996      -1.91400705E-30
  -15.1400003      -2.52137181E-30
  -15.1300001      -2.18983200E-30
  -15.1199999      -3.15408973E-31
  -15.1099997       3.32783579E-30
  -15.1000004       8.14850277E-30
  -15.0900002       1.24000676E-29
  -15.0799999       1.32165588E-29
  -15.0699997       7.30737393E-30
  -15.0600004      -7.53800404E-30
  -15.0500002      -3.03176070E-29
  -15.0400000      -5.47486212E-29
  -15.0299997      -6.84968059E-29
  -15.0200005      -5.52223398E-29
  -15.0100002      -5.97591800E-31
  -15.0000000       9.79000807E-29
  -14.9899998       2.19995559E-28
  -14.9799995       3.15836887E-28
  -14.9700003       3.10820802E-28
  -14.9600000       1.28602804E-28
  -14.9499998      -2.66537173E-28
  -14.9399996      -8.17294083E-28
  -14.9300003      -1.33356898E-27
  -14.9200001      -1.49842704E-27
  -14.9099998      -9.51820097E-28
  -14.8999996       5.36744590E-28
  -14.8900003       2.83886966E-27
  -14.8800001       5.27097675E-27
  -14.8699999       6.56870532E-27
  -14.8599997       5.17295115E-27
  -14.8500004      -1.07572649E-28
  -14.8400002      -9.16086759E-27
  -14.8299999      -1.96966273E-26
  -14.8199997      -2.69671330E-26
  -14.8100004      -2.46595284E-26
  -14.8000002      -7.27849371E-27
  -14.7900000       2.62726458E-26
  -14.7799997       6.90657891E-26
  -14.7700005       1.04430171E-25
  -14.7600002       1.08352671E-25
  -14.7500000       5.74240264E-26
  -14.7399998      -5.83019238E-26
  -14.7299995      -2.21207790E-25
  -14.7200003      -3.77440459E-25
  -14.7100000      -4.41669465E-25
  -14.6999998      -3.21218762E-25
  -14.6899996       4.09126808E-26
  -14.6800003       6.14686876E-25
  -14.6700001       1.24449602E-24
  -14.6599998       1.65071777E-24
  -14.6499996       1.49436485E-24
  -14.6400003       5.09567956E-25
  -14.6300001      -1.32247305E-24
  -14.6199999      -3.61993084E-24
  -14.6099997      -5.55380520E-24
  -14.6000004      -5.99096234E-24
  -14.5900002      -3.86289250E-24
  -14.5799999       1.29245758E-24
  -14.5699997       8.77924485E-24
  -14.5600004       1.64372249E-23
  -14.5500002       2.08528139E-23
  -14.5400000       1.82598281E-23
  -14.5299997       6.07051265E-24
  -14.5200005      -1.53422465E-23
  -14.5100002      -4.12943472E-23
  -14.5000000      -6.26943544E-23
  -14.4899998      -6.78604720E-23
  -14.4799995      -4.63699729E-23
  -14.4700003       5.78398180E-24
  -14.4600000       8.13686169E-23
  -14.4499998       1.59673664E-22
  -14.4399996       2.09015273E-22
  -14.4300003       1.95063289E-22
  -14.4200001       9.40597543E-23
  -14.4099998      -9.24925717E-23
  -14.3999996      -3.27195674E-22
  -14.3900003      -5.36354481E-22
  -14.3800001      -6.24326482E-22
  -14.3699999      -5.02915210E-22
  -14.3599997      -1.30033471E-22
  -14.3500004       4.54253423E-22
  -14.3400002       1.10987443E-21
  -14.3299999       1.61144901E-21
  -14.3199997       1.70243383E-21
  -14.3100004       1.18258141E-21
  -14.3000002       7.10571982E-24
  -14.2900000      -1.63665863E-21
  -14.2799997      -3.31303627E-21
  -14.2700005      -4.41043898E-21
  -14.2600002      -4.30653895E-21
  -14.2500000      -2.59631820E-21
  -14.2399998       6.81019808E-22
  -14.2299995       4.90147690E-21
  -14.2200003       8.88320650E-21
  -14.2100000       1.11263345E-20
  -14.1999998       1.02468654E-20
  -14.1899996       5.50863958E-21
  -14.1800003      -2.70827495E-21
  -14.1700001      -1.26905872E-20
  -14.1599998      -2.15794200E-20
  -14.1499996      -2.60157964E-20
  -14.1400003      -2.31494346E-20
  -14.1300001      -1.17609775E-20
  -14.1199999       6.86123781E-21
  -14.1099997       2.86594689E-20
  -14.1000004       4.74137762E-20
  -14.0900002       5.62364168E-20
  -14.0799999       4.96712458E-20
  -14.0699997       2.58389510E-20
  -14.0600004      -1.20806643E-20
  -14.0500002      -5.56797695E-20
  -14.0400000      -9.28217752E-20
  -14.0299997      -1.10681147E-19
  -14.0200005      -9.96525680E-20
  -14.0100002      -5.70271304E-20
  -14.0000000       1.08119752E-20
  -13.9899998       8.86747504E-20
  -13.9799995       1.55695786E-19
  -13.9700003       1.90798462E-19
  -13.9600000       1.79112378E-19
  -13.9499998       1.17409654E-19
  -13.9399996       1.66352968E-20
  -13.9300003      -9.97261419E-20
  -13.9200001      -2.01490664E-19
  -13.9099998      -2.60435360E-19
  -13.8999996      -2.59214080E-19
  -13.8900003      -1.97498095E-19
  -13.8800001      -9.28520383E-20
  -13.8699999       2.46108899E-20
  -13.8599997       1.22603961E-19
  -13.8500004       1.78794986E-19
  -13.8400002       1.90167970E-19
  -13.8299999       1.75339982E-19
  -13.8199997       1.67490503E-19
  -13.8100004       1.98840403E-19
  -13.8000002       2.81294141E-19
  -13.7900000       3.90643747E-19
  -13.7799997       4.62352603E-19
  -13.7700005       4.04615242E-19
  -13.7600002       1.29237781E-19
  -13.7500000      -4.05950078E-19
  -13.7399998      -1.15589206E-18
  -13.7299995      -1.96470884E-18
  -13.7200003      -2.57491047E-18
  -13.7100000      -2.67764816E-18
  -13.6999998      -2.00040231E-18
  -13.6899996      -4.14445430E-19
  -13.6800003       1.96764285E-18
  -13.6700001       4.73979040E-18
  -13.6599998       7.22661875E-18
  -13.6499996       8.59963931E-18
  -13.6400003       8.07665933E-18
  -13.6300001       5.16755280E-18
  -13.6199999      -9.43295833E-20
  -13.6099997      -7.00726948E-18
  -13.6000004      -1.42078759E-17
  -13.5900002      -1.98662859E-17
  -13.5799999      -2.20617606E-17
  -13.5699997      -1.92773515E-17
  -13.5600004      -1.09054036E-17
  -13.5500002       2.37145154E-18
  -13.5400000       1.84538965E-17
  -13.5299997       3.40424097E-17
  -13.5200005       4.52106813E-17
  -13.5100002       4.82582695E-17
  -13.5000000       4.06765735E-17
  -13.4899998       2.20027214E-17
  -13.4799995      -5.67488955E-18
  -13.4700003      -3.77465906E-17
  -13.4600000      -6.77289530E-17
  -13.4499998      -8.84692098E-17
  -13.4399996      -9.36987515E-17
  -13.4300003      -7.96119319E-17
  -13.4200001      -4.60969524E-17
  -13.4099998       2.71704864E-18
  -13.3999996       5.88074461E-17
  -13.3900003       1.11520689E-16
  -13.3800001       1.49556280E-16
  -13.3699999       1.63291620E-16
  -13.3599997       1.46957636E-16
  -13.3500004       1.00175304E-16
  -13.3400002       2.84812148E-17
  -13.3299999      -5.73203474E-17
  -13.3199997      -1.42884016E-16
  -13.3100004      -2.12798115E-16
  -13.3000002      -2.53316876E-16
  -13.2900000      -2.54818480E-16
  -13.2799997      -2.13541956E-16
  -13.2700005      -1.32335716E-16
  -13.2600002      -2.03754619E-17
  -13.2500000       1.07992042E-16
  -13.2399998       2.35004315E-16
  -13.2299995       3.41548539E-16
  -13.2200003       4.09325178E-16
  -13.2100000       4.23012410E-16
  -13.1999998       3.72421064E-16
  -13.1899996       2.54620645E-16
  -13.1800003       7.58874486E-17
  -13.1700001      -1.46891342E-16
  -13.1599998      -3.85942674E-16
  -13.1499996      -6.04158373E-16
  -13.1400003      -7.59036653E-16
  -13.1300001      -8.09162898E-16
  -13.1199999      -7.22692799E-16
  -13.1099997      -4.86500467E-16
  -13.1000004      -1.13950204E-16
  -13.0900002       3.51071863E-16
  -13.0799999       8.35969109E-16
  -13.0699997       1.24824821E-15
  -13.0600004       1.49097852E-15
  -13.0500002       1.48275299E-15
  -13.0400000       1.17837434E-15
  -13.0299997       5.85541859E-16
  -13.0200005      -2.27096336E-16
  -13.0100002      -1.13385408E-15
  -13.0000000      -1.96886964E-15
  -12.9899998      -2.55398708E-15
  -12.9799995      -2.73293253E-15
  -12.9700003      -2.40515027E-15
  -12.9600000      -1.55217030E-15
  -12.9499998      -2.50589827E-16
  -12.9399996       1.33163765E-15
  -12.9300003       2.95546863E-15
  -12.9200001       4.34410164E-15
  -12.9099998       5.22350734E-15
  -12.8999996       5.36343210E-15
  -12.8900003       4.61302910E-15
  -12.8800001       2.92730267E-15
  -12.8699999       3.83042328E-16
  -12.8599997      -2.81524360E-15
  -12.8500004      -6.33844114E-15
  -12.8400002      -9.74504714E-15
  -12.8299999      -1.25047813E-14
  -12.8199997      -1.40379440E-14
  -12.8100004      -1.37753468E-14
  -12.8000002      -1.12415003E-14
  -12.7900000      -6.15813747E-15
  -12.7799997       1.44294043E-15
  -12.7700005       1.11175310E-14
  -12.7600002       2.19440300E-14
  -12.7500000       3.25245168E-14
  -12.7399998       4.10756058E-14
  -12.7299995       4.56198630E-14
  -12.7200003       4.42692080E-14
  -12.7100000       3.55697934E-14
  -12.6999998       1.88574928E-14
  -12.6899996      -5.43960620E-15
  -12.6800003      -3.56169663E-14
  -12.6700001      -6.86809008E-14
  -12.6599998      -1.00536963E-13
  -12.6499996      -1.26377058E-13
  -12.6400003      -1.41228812E-13
  -12.6300001      -1.40602116E-13
  -12.6199999      -1.21150784E-13
  -12.6099997      -8.12624436E-14
  -12.6000004      -2.15031087E-14
  -12.5900002       5.51377385E-14
  -12.5799999       1.43227579E-13
  -12.5699997       2.35097234E-13
  -12.5600004       3.21256151E-13
  -12.5500002       3.90988918E-13
  -12.5400000       4.33104399E-13
  -12.5299997       4.36816517E-13
  -12.5200005       3.92734564E-13
  -12.5100002       2.93942659E-13
  -12.5000000       1.37135502E-13
  -12.4899998      -7.62470938E-14
  -12.4799995      -3.38967949E-13
  -12.4700003      -6.37132653E-13
  -12.4600000      -9.49654526E-13
  -12.4499998      -1.24817788E-12
  -12.4399996      -1.49757572E-12
  -12.4300003      -1.65710317E-12
  -12.4200001      -1.68222348E-12
  -12.4099998      -1.52706146E-12
  -12.3999996      -1.14737180E-12
  -12.3900003      -5.03827394E-13
  -12.3800001       4.34605450E-13
  -12.3699999       1.68745736E-12
  -12.3599997       3.25996153E-12
  -12.3500004       5.14093195E-12
  -12.3400002       7.30147540E-12
  -12.3299999       9.69467215E-12
  -12.3199997       1.22563036E-11
  -12.3100004       1.49065361E-11
  -12.3000002       1.75525098E-11
  -12.2900000       2.00916766E-11
  -12.2799997       2.24157290E-11
  -12.2700005       2.44148070E-11
  -12.2600002       2.59819111E-11
  -12.2500000       2.70171489E-11
  -12.2399998       2.74317773E-11
  -12.2299995       2.71518016E-11
  -12.2200003       2.61209474E-11
  -12.2100000       2.43028549E-11
  -12.1999998       2.16825516E-11
  -12.1899996       1.82667804E-11
  -12.1800003       1.40834757E-11
  -12.1700001       9.18015403E-12
  -12.1599998       3.62147074E-12
  -12.1499996      -2.51400680E-12
  -12.1400003      -9.13738789E-12
  -12.1300001      -1.61532194E-11
  -12.1199999      -2.34629642E-11
  -12.1099997      -3.09678984E-11
  -12.1000004      -3.85711359E-11
  -12.0900002      -4.61788351E-11
  -12.0799999      -5.37003497E-11
  -12.0699997      -6.10478265E-11
  -12.0600004      -6.81352336E-11
  -12.0500002      -7.48772780E-11
  -12.0400000      -8.11885351E-11
  -12.0299997      -8.69828862E-11
  -12.0200005      -9.21733870E-11
  -12.0100002      -9.66727323E-11
  -12.0000000      -1.00393693E-10
  -11.9899998      -1.03250221E-10
  -11.9799995      -1.05158229E-10
  -11.9700003      -1.06036707E-10
  -11.9600000      -1.05808876E-10
  -11.9499998      -1.04403534E-10
  -11.9399996      -1.01756867E-10
  -11.9300003      -9.78144093E-11
  -11.9200001      -9.25338972E-11
  -11.9099998      -8.58877691E-11
  -11.8999996      -7.78661718E-11
  -11.8900003      -6.84791668E-11
  -11.8800001      -5.77584543E-11
  -11.8699999      -4.57579877E-11
  -11.8599997      -3.25529499E-11
  -11.8500004      -1.82383362E-11
  -11.8400002      -2.92560962E-12
  -11.8299999       1.32609488E-11
  -11.8199997       3.01882824E-11
  -11.8100004       4.77185721E-11
  -11.8000002       6.57129628E-11
  -11.7900000       8.40345293E-11
  -11.7799997       1.02550045E-10
  -11.7700005       1.21131077E-10
  -11.7600002       1.39653525E-10
  -11.7500000       1.57996519E-10
  -11.7399998       1.76039752E-10
  -11.7299995       1.93660768E-10
  -11.7200003       2.10731266E-10
  -11.7100000       2.27113967E-10
  -11.6999998       2.42659975E-10
  -11.6899996       2.57207339E-10
  -11.6800003       2.70581696E-10
  -11.6700001       2.82598639E-10
  -11.6599998       2.93068042E-10
  -11.6499996       3.01800029E-10
  -11.6400003       3.08612469E-10
  -11.6300001       3.13337079E-10
  -11.6199999       3.15826726E-10
  -11.6099997       3.15958454E-10
  -11.6000004       3.13636894E-10
  -11.5900002       3.08792991E-10
  -11.5799999       3.01382169E-10
  -11.5699997       2.91380253E-10
  -11.5600004       2.78778084E-10
  -11.5500002       2.63578326E-10
  -11.5400000       2.45791110E-10
  -11.5299997       2.25432298E-10
  -11.5200005       2.02522499E-10
  -11.5100002       1.77089343E-10
  -11.5000000       1.49168414E-10
  -11.4899998       1.18807228E-10
  -11.4799995       8.60664109E-11
  -11.4700003       5.10228318E-11
  -11.4600000       1.37700025E-11
  -11.4499998      -2.55814293E-11
  -11.4399996      -6.69044889E-11
  -11.4300003      -1.10057463E-10
  -11.4200001      -1.54887062E-10
  -11.4099998      -2.01230532E-10
  -11.3999996      -2.48919108E-10
  -11.3900003      -2.97780606E-10
  -11.3800001      -3.47642609E-10
  -11.3699999      -3.98335254E-10
  -11.3599997      -4.49692922E-10
  -11.3500004      -5.01555963E-10
  -11.3400002      -5.53771640E-10
  -11.3299999      -6.06193984E-10
  -11.3199997      -6.58683219E-10
  -11.3100004      -7.11105064E-10
  -11.3000002      -7.63328567E-10
  -11.2900000      -8.15225831E-10
  -11.2799997      -8.66670069E-10
  -11.2700005      -9.17534881E-10
  -11.2600002      -9.67694702E-10
  -11.2500000      -1.01702580E-09
  -11.2399998      -1.06540543E-09
  -11.2299995      -1.11271592E-09
  -11.2200003      -1.15884535E-09
  -11.2100000      -1.20368959E-09
  -11.1999998      -1.24715438E-09
  -11.1899996      -1.28915301E-09
  -11.1800003      -1.32961098E-09
  -11.1700001      -1.36846123E-09
  -11.1599998      -1.40564438E-09
  -11.1499996      -1.44110390E-09
  -11.1400003      -1.47478707E-09
  -11.1300001      -1.50664059E-09
  -11.1199999      -1.53661195E-09
  -11.1099997      -1.56465241E-09
  -11.1000004      -1.59071256E-09
  -11.0900002      -1.61475922E-09
  -11.0799999      -1.63676728E-09
  -11.0699997      -1.65673764E-09
  -11.0600004      -1.67469105E-09
  -11.0500002      -1.69067749E-09
  -11.0400000      -1.70477232E-09
  -11.0299997      -1.71707026E-09
  -11.0200005      -1.72767867E-09
  -11.0100002      -1.73670889E-09
  -11.0000000      -1.74426296E-09
  -10.9899998      -1.75042503E-09
  -10.9799995      -1.75525550E-09
  -10.9700003      -1.75878245E-09
  -10.9600000      -1.76099901E-09
  -10.9499998      -1.76187509E-09
  -10.9399996      -1.76135528E-09
  -10.9300003      -1.75937143E-09
  -10.9200001      -1.75585058E-09
  -10.9099998      -1.75072601E-09
  -10.8999996      -1.74394288E-09
  -10.8900003      -1.73546533E-09
  -10.8800001      -1.72527725E-09
  -10.8699999      -1.71338765E-09
  -10.8599997      -1.69982572E-09
  -10.8500004      -1.68463143E-09
  -10.8400002      -1.66785230E-09
  -10.8299999      -1.64952574E-09
  -10.8199997      -1.62968528E-09
  -10.8100004      -1.60833247E-09
  -10.8000002      -1.58545366E-09
  -10.7900000      -1.56099678E-09
  -10.7799997      -1.53488300E-09
  -10.7700005      -1.50702295E-09
  -10.7600002      -1.47731338E-09
  -10.7500000      -1.44565748E-09
  -10.7399998      -1.41197731E-09
  -10.7299995      -1.37622369E-09
  -10.7200003      -1.33837652E-09
  -10.7100000      -1.29844246E-09
  -10.6999998      -1.25645983E-09
  -10.6899996      -1.21248322E-09
  -10.6800003      -1.16657628E-09
  -10.6700001      -1.11880871E-09
  -10.6599998      -1.06923925E-09
  -10.6499996      -1.01791586E-09
  -10.6400003      -9.64883062E-10
  -10.6300001      -9.10172548E-10
  -10.6199999      -8.53808302E-10
  -10.6099997      -7.95821686E-10
  -10.6000004      -7.36241235E-10
  -10.5900002      -6.75106970E-10
  -10.5799999      -6.12472795E-10
  -10.5699997      -5.48408985E-10
  -10.5600004      -4.83009022E-10
  -10.5500002      -4.16389950E-10
  -10.5400000      -3.48694407E-10
  -10.5299997      -2.80089479E-10
  -10.5200005      -2.10761991E-10
  -10.5100002      -1.40913295E-10
  -10.5000000      -7.07558109E-11
  -10.4899998      -5.02331575E-13
  -10.4799995       6.96368727E-11
  -10.4700003       1.39457335E-10
  -10.4600000       2.08769044E-10
  -10.4499998       2.77374790E-10
  -10.4399996       3.45088486E-10
  -10.4300003       4.11725126E-10
  -10.4200001       4.77093920E-10
  -10.4099998       5.41004241E-10
  -10.3999996       6.03263717E-10
  -10.3900003       6.63683719E-10
  -10.3800001       7.22082005E-10
  -10.3699999       7.78288878E-10
  -10.3599997       8.32146518E-10
  -10.3500004       8.83506324E-10
  -10.3400002       9.32235400E-10
  -10.3299999       9.78216952E-10
  -10.3199997       1.02133613E-09
  -10.3100004       1.06150233E-09
  -10.3000002       1.09863363E-09
  -10.2900000       1.13267162E-09
  -10.2799997       1.16357080E-09
  -10.2700005       1.19131416E-09
  -10.2600002       1.21590127E-09
  -10.2500000       1.23735078E-09
  -10.2399998       1.25569688E-09
  -10.2299995       1.27098676E-09
  -10.2200003       1.28328292E-09
  -10.2100000       1.29265421E-09
  -10.1999998       1.29919275E-09
  -10.1899996       1.30300148E-09
  -10.1800003       1.30420874E-09
  -10.1700001       1.30296851E-09
  -10.1599998       1.29945565E-09
  -10.1499996       1.29386746E-09
  -10.1400003       1.28641697E-09
  -10.1300001       1.27732658E-09
  -10.1199999       1.26682631E-09
  -10.1099997       1.25514310E-09
  -10.1000004       1.24250432E-09
  -10.0900002       1.22913191E-09
  -10.0799999       1.21524124E-09
  -10.0699997       1.20104304E-09
  -10.0600004       1.18673948E-09
  -10.0500002       1.17252041E-09
  -10.0400000       1.15856380E-09
  -10.0299997       1.14503274E-09
  -10.0200005       1.13207332E-09
  -10.0100002       1.11981813E-09
  -10.0000000       1.10838683E-09
  -9.98999977       1.09789222E-09
  -9.97999954       1.08844056E-09
  -9.97000027       1.08013498E-09
  -9.96000004       1.07307430E-09
  -9.94999981       1.06735065E-09
  -9.93999958       1.06304610E-09
  -9.93000031       1.06022757E-09
  -9.92000008       1.05894271E-09
  -9.90999985       1.05921882E-09
  -9.89999962       1.06106179E-09
  -9.89000034       1.06445686E-09
  -9.88000011       1.06937326E-09
  -9.86999989       1.07576581E-09
  -9.85999966       1.08357956E-09
  -9.85000038       1.09275389E-09
  -9.84000015       1.10322662E-09
  -9.82999992       1.11494269E-09
  -9.81999969       1.12785903E-09
  -9.81000042       1.14195697E-09
  -9.80000019       1.15724930E-09
  -9.78999996       1.17379040E-09
  -9.77999973       1.19167942E-09
  -9.77000046       1.21106314E-09
  -9.76000023       1.23213217E-09
  -9.75000000       1.25511190E-09
  -9.73999977       1.28025535E-09
  -9.72999954       1.30782696E-09
  -9.72000027       1.33809230E-09
  -9.71000004       1.37130907E-09
  -9.69999981       1.40771517E-09
  -9.68999958       1.44752277E-09
  -9.68000031       1.49090784E-09
  -9.67000008       1.53800461E-09
  -9.65999985       1.58889535E-09
  -9.64999962       1.64359282E-09
  -9.64000034       1.70203851E-09
  -9.63000011       1.76408332E-09
  -9.61999989       1.82947923E-09
  -9.60999966       1.89787608E-09
  -9.60000038       1.96880867E-09
  -9.59000015       2.04170414E-09
  -9.57999992       2.11588036E-09
  -9.56999969       2.19055107E-09
  -9.56000042       2.26483232E-09
  -9.55000019       2.33775821E-09
  -9.53999996       2.40829090E-09
  -9.52999973       2.47533993E-09
  -9.52000046       2.53777821E-09
  -9.51000023       2.59448019E-09
  -9.50000000       2.64433520E-09
  -9.48999977       2.68627720E-09
  -9.47999954       2.71932099E-09
  -9.47000027       2.74259193E-09
  -9.46000004       2.75534262E-09
  -9.44999981       2.75698242E-09
  -9.43999958       2.74711098E-09
  -9.43000031       2.72552314E-09
  -9.42000008       2.69222977E-09
  -9.40999985       2.64747579E-09
  -9.39999962       2.59172594E-09
  -9.39000034       2.52568833E-09
  -9.38000011       2.45028930E-09
  -9.36999989       2.36666753E-09
  -9.35999966       2.27616637E-09
  -9.35000038       2.18029217E-09
  -9.34000015       2.08071360E-09
  -9.32999992       1.97922345E-09
  -9.31999969       1.87770866E-09
  -9.31000042       1.77814163E-09
  -9.30000019       1.68252801E-09
  -9.28999996       1.59290048E-09
  -9.27999973       1.51128476E-09
  -9.27000046       1.43967094E-09
  -9.26000023       1.37999534E-09
  -9.25000000       1.33409617E-09
  -9.23999977       1.30370692E-09
  -9.22999954       1.29041977E-09
  -9.22000027       1.29567079E-09
  -9.21000004       1.32070088E-09
  -9.19999981       1.36655254E-09
  -9.18999958       1.43406986E-09
  -9.18000031       1.52386015E-09
  -9.17000008       1.63631475E-09
  -9.15999985       1.77159143E-09
  -9.14999962       1.92963534E-09
  -9.14000034       2.11016871E-09
  -9.13000011       2.31270691E-09
  -9.11999989       2.53654497E-09
  -9.10999966       2.78076739E-09
  -9.10000038       3.04426040E-09
  -9.09000015       3.32570371E-09
  -9.07999992       3.62358543E-09
  -9.06999969       3.93622335E-09
  -9.06000042       4.26176028E-09
  -9.05000019       4.59820848E-09
  -9.03999996       4.94343944E-09
  -9.02999973       5.29522914E-09
  -9.02000046       5.65124880E-09
  -9.01000023       6.00908567E-09
  -9.00000000       6.36627329E-09
  -8.98999977       6.72029365E-09
  -8.97999954       7.06860614E-09
  -8.97000027       7.40867057E-09
  -8.96000004       7.73796582E-09
  -8.94999981       8.05401967E-09
  -8.93999958       8.35442027E-09
  -8.93000031       8.63682281E-09
  -8.92000008       8.89899088E-09
  -8.90999985       9.13877241E-09
  -8.89999962       9.35412903E-09
  -8.89000034       9.54313606E-09
  -8.88000011       9.70403669E-09
  -8.86999989       9.83521620E-09
  -8.85999966       9.93524640E-09
  -8.85000038       1.00029061E-08
  -8.84000015       1.00371595E-08
  -8.82999992       1.00371587E-08
  -8.81999969       1.00022479E-08
  -8.81000042       9.93193527E-09
  -8.80000019       9.82587078E-09
  -8.78999996       9.68385905E-09
  -8.77999973       9.50585211E-09
  -8.77000046       9.29192989E-09
  -8.76000023       9.04236774E-09
  -8.75000000       8.75760175E-09
  -8.73999977       8.43820569E-09
  -8.72999954       8.08494249E-09
  -8.72000027       7.69872077E-09
  -8.71000004       7.28058858E-09
  -8.69999981       6.83174006E-09
  -8.68999958       6.35345110E-09
  -8.68000031       5.84715210E-09
  -8.67000008       5.31437694E-09
  -8.65999985       4.75676520E-09
  -8.64999962       4.17607371E-09
  -8.64000034       3.57417074E-09
  -8.63000011       2.95296099E-09
  -8.61999989       2.31441000E-09
  -8.60999966       1.66046599E-09
  -8.60000038       9.93057969E-10
  -8.59000015       3.14045234E-10
  -8.57999992      -3.74787562E-10
  -8.56999969      -1.07173126E-09
  -8.56000042      -1.77517856E-09
  -8.55000019      -2.48360998E-09
  -8.53999996      -3.19562110E-09
  -8.52999973      -3.90994082E-09
  -8.52000046      -4.62543426E-09
  -8.51000023      -5.34109645E-09
  -8.50000000      -6.05611783E-09
  -8.48999977      -6.76982514E-09
  -8.47999954      -7.48168816E-09
  -8.47000027      -8.19128054E-09
  -8.46000004      -8.89828300E-09
  -8.44999981      -9.60241398E-09
  -8.43999958      -1.03034168E-08
  -8.43000031      -1.10010774E-08
  -8.42000008      -1.16951631E-08
  -8.40999985      -1.23854207E-08
  -8.39999962      -1.30715732E-08
  -8.39000034      -1.37532910E-08
  -8.38000011      -1.44301771E-08
  -8.36999989      -1.51017403E-08
  -8.35999966      -1.57673803E-08
  -8.35000038      -1.64263909E-08
  -8.34000015      -1.70779639E-08
  -8.32999992      -1.77211774E-08
  -8.31999969      -1.83550473E-08
  -8.31000042      -1.89785201E-08
  -8.30000019      -1.95904981E-08
  -8.28999996      -2.01898622E-08
  -8.27999973      -2.07754525E-08
  -8.27000046      -2.13461124E-08
  -8.26000023      -2.19006573E-08
  -8.25000000      -2.24378969E-08
  -8.23999977      -2.29566623E-08
  -8.22999954      -2.34558044E-08
  -8.22000027      -2.39342040E-08
  -8.21000004      -2.43907685E-08
  -8.19999981      -2.48244749E-08
  -8.18999958      -2.52342982E-08
  -8.18000031      -2.56192720E-08
  -8.17000008      -2.59784176E-08
  -8.15999985      -2.63107847E-08
  -8.14999962      -2.66154139E-08
  -8.14000034      -2.68913674E-08
  -8.13000011      -2.71377232E-08
  -8.11999989      -2.73535932E-08
  -8.10999966      -2.75381282E-08
  -8.10000038      -2.76905059E-08
  -8.09000015      -2.78099730E-08
  -8.07999992      -2.78958154E-08
  -8.06999969      -2.79473689E-08
  -8.06000042      -2.79640382E-08
  -8.05000019      -2.79453012E-08
  -8.03999996      -2.78907262E-08
  -8.02999973      -2.78000041E-08
  -8.02000046      -2.76729644E-08
  -8.01000023      -2.75095999E-08
  -8.00000000      -2.73100689E-08
  -7.98999977      -2.70747122E-08
  -7.98000002      -2.68040594E-08
  -7.96999979      -2.64988280E-08
  -7.96000004      -2.61599151E-08
  -7.94999981      -2.57884221E-08
  -7.94000006      -2.53856012E-08
  -7.92999983      -2.49529304E-08
  -7.92000008      -2.44920280E-08
  -7.90999985      -2.40046951E-08
  -7.90000010      -2.34928770E-08
  -7.88999987      -2.29586359E-08
  -7.88000011      -2.24041212E-08
  -7.86999989      -2.18315694E-08
  -7.86000013      -2.12432578E-08
  -7.84999990      -2.06414761E-08
  -7.84000015      -2.00285211E-08
  -7.82999992      -1.94066843E-08
  -7.82000017      -1.87782394E-08
  -7.80999994      -1.81454372E-08
  -7.80000019      -1.75104677E-08
  -7.78999996      -1.68754859E-08
  -7.78000021      -1.62425930E-08
  -7.76999998      -1.56138071E-08
  -7.76000023      -1.49910218E-08
  -7.75000000      -1.43760746E-08
  -7.73999977      -1.37706522E-08
  -7.73000002      -1.31763640E-08
  -7.71999979      -1.25947199E-08
  -7.71000004      -1.20271109E-08
  -7.69999981      -1.14748193E-08
  -7.69000006      -1.09390408E-08
  -7.67999983      -1.04208571E-08
  -7.67000008      -9.92122207E-09
  -7.65999985      -9.44098222E-09
  -7.65000010      -8.98082853E-09
  -7.63999987      -8.54132232E-09
  -7.63000011      -8.12290324E-09
  -7.61999989      -7.72588749E-09
  -7.61000013      -7.35047179E-09
  -7.59999990      -6.99673652E-09
  -7.59000015      -6.66465150E-09
  -7.57999992      -6.35408082E-09
  -7.57000017      -6.06474559E-09
  -7.55999994      -5.79623904E-09
  -7.55000019      -5.54799451E-09
  -7.53999996      -5.31931343E-09
  -7.53000021      -5.10936271E-09
  -7.51999998      -4.91718355E-09
  -7.51000023      -4.74174477E-09
  -7.50000000      -4.58191041E-09
  -7.48999977      -4.43651293E-09
  -7.48000002      -4.30432312E-09
  -7.46999979      -4.18407220E-09
  -7.46000004      -4.07446477E-09
  -7.44999981      -3.97417876E-09
  -7.44000006      -3.88188726E-09