  -16.0000000       0.00000000    
  -15.9899998       0.00000000    
  -15.9799995       0.00000000    
  -15.9700003       0.00000000    
  -15.9600000       0.00000000    
  -15.9499998       0.00000000    
  -15.9399996       0.00000000    
  -15.9300003       0.00000000    
  -15.9200001       0.00000000    
  -15.9099998       0.00000000    
  -15.8999996       0.00000000    
  -15.8900003       0.00000000    
  -15.8800001       0.00000000    
  -15.8699999      -1.40129846E-45
  -15.8599997      -1.66754517E-43
  -15.8500004      -1.98704122E-42
  -15.8400002      -1.66460245E-41
  -15.8299999      -9.23749961E-41
  -15.8199997      -2.77499135E-40
  -15.8100004       7.38156387E-40
  -15.8000002       1.74815094E-38
  -15.7900000       1.43920437E-37
  -15.7799997       8.46539065E-37
  -15.7700005       4.01681716E-36
  -15.7600002       1.61118777E-35
  -15.7500000       5.60439546E-35
  -15.7399998       1.71657107E-34
  -15.7299995       4.67262311E-34
  -15.7200003       1.13560294E-33
  -15.7100000       2.46397667E-33
  -15.6999998       4.74317885E-33
  -15.6899996       7.96233147E-33
  -15.6800003       1.11679442E-32
  -15.6700001       1.14847275E-32
  -15.6599998       3.13108863E-33
  -15.6499996      -2.26557772E-32
  -15.6400003      -7.52285058E-32
  -15.6300001      -1.57925609E-31
  -15.6199999      -2.56614484E-31
  -15.6099997      -3.25950407E-31
  -15.6000004      -2.81244006E-31
  -15.5900002      -9.21612771E-33
  -15.5799999       5.88080263E-31
  -15.5699997       1.51164295E-30
  -15.5600004       2.56580907E-30
  -15.5500002       3.29313445E-30
  -15.5400000       3.01834938E-30
  -15.5299997       1.05313677E-30
  -15.5200005      -2.97552979E-30
  -15.5100002      -8.84309090E-30
  -15.5000000      -1.57280136E-29
  -15.4899998      -2.25641757E-29
  -15.4799995      -2.83048236E-29
  -15.4700003      -3.10117543E-29
  -15.4600000      -2.46117296E-29
  -15.4499998       6.20496448E-30
  -15.4399996       8.84299822E-29
  -15.4300003       2.50758101E-28
  -15.4200001       4.89623633E-28
  -15.4099998       7.09053354E-28
  -15.3999996       6.59276346E-28
  -15.3900003      -5.97451455E-29
  -15.3800001      -1.83236596E-27
  -15.3699999      -4.62679401E-27
  -15.3599997      -7.42143546E-27
  -15.3500004      -7.77097017E-27
  -15.3400002      -2.10342615E-27
  -15.3299999       1.25868928E-26
  -15.3199997       3.54291977E-26
  -15.3100004       5.76972681E-26
  -15.3000002       6.07974175E-26
  -15.2900000       2.01541913E-26
  -15.2799997      -8.16751391E-26
  -15.2700005      -2.33387063E-25
  -15.2600002      -3.73174990E-25
  -15.2500000      -3.83882791E-25
  -15.2399998      -1.25689294E-25
  -15.2299995       4.81972665E-25
  -15.2200003       1.34424699E-24
  -15.2100000       2.09471877E-24
  -15.1999998       2.10765293E-24
  -15.1899996       7.04568899E-25
  -15.1800003      -2.42556190E-24
  -15.1700001      -6.70852678E-24
  -15.1599998      -1.03458524E-23
  -15.1499996      -1.05196968E-23
  -15.1400003      -4.40660423E-24
  -15.1300001       9.08703865E-24
  -15.1199999       2.74889847E-23
  -15.1099997       4.39072028E-23
  -15.1000004       4.82535929E-23
  -15.0900002       3.09218676E-23
  -15.0799999      -1.21056796E-23
  -15.0699997      -7.51312767E-23
  -15.0600004      -1.42382780E-22
  -15.0500002      -1.92511949E-22
  -15.0400000      -2.05486490E-22
  -15.0299997      -1.65836157E-22
  -15.0200005      -5.63136498E-23
  -15.0100002       1.56909899E-22
  -15.0000000       5.32338081E-22
  -14.9899998       1.12551726E-21
  -14.9799995       1.89679724E-21
  -14.9700003       2.55714304E-21
  -14.9600000       2.42216295E-21
  -14.9499998       4.29493793E-22
  -14.9399996      -4.47828596E-21
  -14.9300003      -1.24768224E-20
  -14.9200001      -2.16169048E-20
  -14.9099998      -2.67775877E-20
  -14.8999996      -1.98217823E-20
  -14.8900003       7.88019588E-21
  -14.8800001       5.99446481E-20
  -14.8699999       1.27377646E-19
  -14.8599997       1.82050821E-19
  -14.8500004       1.76667736E-19
  -14.8400002       5.71683973E-20
  -14.8299999      -2.09193137E-19
  -14.8199997      -5.94226079E-19
  -14.8100004      -9.72493395E-19
  -14.8000002      -1.11349657E-18
  -14.7900000      -7.30847882E-19
  -14.7799997       3.94988850E-19
  -14.7700005       2.23402334E-18
  -14.7600002       4.32445888E-18
  -14.7500000       5.69621964E-18
  -14.7399998       5.02473179E-18
  -14.7299995       1.09959383E-18
  -14.7200003      -6.42216658E-18
  -14.7100000      -1.61895293E-17
  -14.6999998      -2.46585287E-17
  -14.6899996      -2.64205028E-17
  -14.6800003      -1.57564920E-17
  -14.6700001       1.05764297E-17
  -14.6599998       4.99630490E-17
  -14.6499996       9.13251204E-17
  -14.6400003       1.15151879E-16
  -14.6300001       9.78420331E-17
  -14.6199999       2.09105882E-17
  -14.6099997      -1.16549100E-16
  -14.6000004      -2.86331229E-16
  -14.5900002      -4.26815720E-16
  -14.5799999      -4.52369327E-16
  -14.5699997      -2.80020437E-16
  -14.5600004       1.29315938E-16
  -14.5500002       7.26390098E-16
  -14.5400000       1.34526355E-15
  -14.5299997       1.71349662E-15
  -14.5200005       1.51769532E-15
  -14.5100002       5.24387510E-16
  -14.5000000      -1.26920666E-15
  -14.4899998      -3.50761913E-15
  -14.4799995      -5.44290412E-15
  -14.4700003      -6.05812533E-15
  -14.4600000      -4.37502004E-15
  -14.4499998       9.65035622E-17
  -14.4399996       6.89393424E-15
  -14.4300003       1.43176469E-14
  -14.4200001       1.95394424E-14
  -14.4099998       1.92474837E-14
  -14.3999996       1.08099048E-14
  -14.3900003      -6.29142573E-15
  -14.3800001      -2.92364603E-14
  -14.3699999      -5.14584747E-14
  -14.3599997      -6.35960739E-14
  -14.3500004      -5.60244600E-14
  -14.3400002      -2.26294186E-14
  -14.3299999       3.51618081E-14
  -14.3199997       1.05613482E-13
  -14.3100004       1.66823383E-13
  -14.3000002       1.90948643E-13
  -14.2900000       1.52540957E-13
  -14.2799997       3.94082519E-14
  -14.2700005      -1.37197762E-13
  -14.2600002      -3.37287435E-13
  -14.2500000      -4.95689319E-13
  -14.2399998      -5.36544062E-13
  -14.2299995      -3.97436478E-13
  -14.2200003      -5.77657225E-14
  -14.2100000       4.37700386E-13
  -14.1999998       9.70530839E-13
  -14.1899996       1.36422785E-12
  -14.1800003       1.42651310E-12
  -14.1700001       1.01240208E-12
  -14.1599998       9.25059251E-14
  -14.1499996      -1.19600955E-12
  -14.1400003      -2.53979043E-12
  -14.1300001      -3.49809049E-12
  -14.1199999      -3.61199503E-12
  -14.1099997      -2.55550138E-12
  -14.1000004      -2.89703645E-13
  -14.0900002       2.83199267E-12
  -14.0799999       6.05827671E-12
  -14.0699997       8.36619836E-12
  -14.0600004       8.71568095E-12
  -14.0500002       6.38563811E-12
  -14.0400000       1.30315843E-12
  -14.0299997      -5.74392617E-12
  -14.0200005      -1.31130324E-11
  -14.0100002      -1.85894286E-11
  -14.0000000      -1.99285727E-11
  -13.9899998      -1.55537701E-11
  -13.9799995      -5.22679859E-12
  -13.9700003       9.52614550E-12
  -13.9600000       2.54287754E-11
  -13.9499998       3.80132037E-11
  -13.9399996       4.26808727E-11
  -13.9300003       3.60588573E-11
  -13.9200001       1.73046126E-11
  -13.9099998      -1.10493871E-11
  -13.8999996      -4.30696000E-11
  -13.8900003      -7.04014208E-11
  -13.8800001      -8.41797188E-11
  -13.8699999      -7.74967243E-11
  -13.8599997      -4.78109184E-11
  -13.8500004       1.42254307E-12
  -13.8400002       6.05342790E-11
  -13.8299999       1.15172781E-10
  -13.8199997       1.49472115E-10
  -13.8100004       1.50240265E-10
  -13.8000002       1.11140160E-10
  -13.7900000       3.56662026E-11
  -13.7799997      -6.21539556E-11
  -13.7700005      -1.59910682E-10
  -13.7600002      -2.31668823E-10
  -13.7500000      -2.54573418E-10
  -13.7399998      -2.15597110E-10
  -13.7299995      -1.16515991E-10
  -13.7200003       2.45519629E-11
  -13.7100000       1.75984866E-10
  -13.6999998       2.99661379E-10
  -13.6899996       3.60685481E-10
  -13.6800003       3.37392447E-10
  -13.6700001       2.28775374E-10
  -13.6599998       5.68630143E-11
  -13.6499996      -1.37279785E-10
  -13.6400003      -3.03498698E-10
  -13.6300001      -3.96208927E-10
  -13.6199999      -3.88118898E-10
  -13.6099997      -2.79834877E-10
  -13.6000004      -1.01967566E-10
  -13.5900002       9.18735088E-11
  -13.5799999       2.40122311E-10
  -13.5699997       2.92620900E-10
  -13.5600004       2.28695354E-10
  -13.5500002       6.79215920E-11
  -13.5400000      -1.31029645E-10
  -13.5299997      -2.84963414E-10
  -13.5200005      -3.11599663E-10
  -13.5100002      -1.59406238E-10
  -13.5000000       1.67161063E-10
  -13.4899998       5.96108607E-10
  -13.4799995       9.96434935E-10
  -13.4700003       1.20792509E-09
  -13.4600000       1.08703158E-09
  -13.4499998       5.57603241E-10
  -13.4399996      -3.48196860E-10
  -13.4300003      -1.47321999E-09
  -13.4200001      -2.55268295E-09
  -13.4099998      -3.26693383E-09
  -13.3999996      -3.32087868E-09
  -13.3900003      -2.53213495E-09
  -13.3800001      -9.04453790E-10
  -13.3699999       1.33677192E-09
  -13.3599997       3.76285536E-09
  -13.3500004       5.81771031E-09
  -13.3400002       6.93942637E-09
  -13.3299999       6.70151978E-09
  -13.3199997       4.93945285E-09
  -13.3100004       1.82659687E-09
  -13.3000002      -2.12562545E-09
  -13.2900000      -6.15271123E-09
  -13.2799997      -9.39402245E-09
  -13.2700005      -1.10882237E-08
  -13.2600002      -1.07604166E-08
  -13.2500000      -8.35228242E-09
  -13.2399998      -4.25679669E-09
  -13.2299995       7.57441720E-10
  -13.2200003       5.71941783E-09
  -13.2100000       9.68566738E-09
  -13.1999998       1.19678658E-08
  -13.1899996       1.22955957E-08
  -13.1800003       1.08659171E-08
  -13.1700001       8.26025026E-09
  -13.1599998       5.24683230E-09
  -13.1499996       2.52239607E-09
  -13.1400003       4.69572492E-10
  -13.1300001      -9.90260762E-10
  -13.1199999      -2.39021403E-09
  -13.1099997      -4.53934490E-09
  -13.1000004      -8.20609447E-09
  -13.0900002      -1.37450060E-08
  -13.0799999      -2.07784048E-08
  -13.0699997      -2.80460224E-08
  -13.0600004      -3.35036425E-08
  -13.0500002      -3.46929632E-08
  -13.0400000      -2.93301810E-08
  -13.0299997      -1.59910094E-08
  -13.0200005       5.27437827E-09
  -13.0100002       3.25707816E-08
  -13.0000000       6.21655474E-08
  -12.9899998       8.89299088E-08
  -12.9799995       1.07167345E-07
  -12.9700003       1.11686738E-07
  -12.9600000       9.89040672E-08
  -12.9499998       6.77339216E-08
  -12.9399996       2.00705905E-08
  -12.9300003      -3.92631883E-08
  -12.9200001      -1.03103211E-07
  -12.9099998      -1.62954578E-07
  -12.8999996      -2.10223533E-07
  -12.8900003      -2.37434122E-07
  -12.8800001      -2.39209413E-07
  -12.8699999      -2.12874156E-07
  -12.8599997      -1.58640205E-07
  -12.8500004      -7.94365178E-08
  -12.8400002       1.94804493E-08
  -12.8299999       1.30981178E-07
  -12.8199997       2.46463713E-07
  -12.8100004       3.56159717E-07
  -12.8000002       4.49406173E-07
  -12.7900000       5.15002910E-07
  -12.7799997       5.41818110E-07
  -12.7700005       5.19749960E-07
  -12.7600002       4.41052549E-07
  -12.7500000       3.01905203E-07
  -12.7399998       1.03962854E-07
  -12.7299995      -1.44452059E-07
  -12.7200003      -4.27857287E-07
  -12.7100000      -7.24073573E-07
  -12.6999998      -1.00571356E-06
  -12.6899996      -1.24257349E-06
  -12.6800003      -1.40459588E-06
  -12.6700001      -1.46494278E-06
  -12.6599998      -1.40271266E-06
  -12.6499996      -1.20492155E-06
  -12.6400003      -8.67583935E-07
  -12.6300001      -3.95973643E-07
  -12.6199999       1.95667681E-07
  -12.6099997       8.84513554E-07
  -12.6000004       1.63924221E-06
  -12.5900002       2.41960288E-06
  -12.5799999       3.17547233E-06
  -12.5699997       3.84584746E-06
  -12.5600004       4.35845232E-06
  -12.5500002       4.63087918E-06
  -12.5400000       4.57411761E-06
  -12.5299997       4.09906215E-06
  -12.5200005       3.12621137E-06
  -12.5100002       1.59806518E-06
  -12.5000000      -5.06824506E-07
  -12.4899998      -3.15971056E-06
  -12.4799995      -6.26931114E-06
  -12.4700003      -9.67312099E-06
  -12.4600000      -1.31340375E-05
  -12.4499998      -1.63432123E-05
  -12.4399996      -1.89297189E-05
  -12.4300003      -2.04763037E-05
  -12.4200001      -2.05405668E-05
  -12.4099998      -1.86795769E-05
  -12.3999996      -1.44768928E-05
  -12.3900003      -7.56983809E-06
  -12.3800001       2.32442812E-06
  -12.3699999       1.53846195E-05
  -12.3599997       3.16641090E-05
  -12.3500004       5.10736827E-05
  -12.3400002       7.33679699E-05
  -12.3299999       9.81381017E-05
  -12.3199997       1.24809914E-04
  -12.3100004       1.52650304E-04
  -12.3000002       1.80781572E-04
  -12.2900000       2.08205267E-04
  -12.2799997       2.33835613E-04
  -12.2700005       2.56538624E-04
  -12.2600002       2.75179511E-04
  -12.2500000       2.88670621E-04
  -12.2399998       2.96016398E-04
  -12.2299995       2.96357815E-04
  -12.2200003       2.89001997E-04
  -12.2100000       2.73446727E-04
  -12.1999998       2.49389530E-04
  -12.1899996       2.16731321E-04
  -12.1800003       1.75570574E-04
  -12.1700001       1.26188301E-04
  -12.1599998       6.90403176E-05
  -12.1499996       4.74377293E-06
  -12.1400003      -6.59420912E-05
  -12.1300001      -1.42121396E-04
  -12.1199999      -2.22779563E-04
  -12.1099997      -3.06799746E-04
  -12.1000004      -3.92987014E-04
  -12.0900002      -4.80094575E-04
  -12.0799999      -5.66854258E-04
  -12.0699997      -6.52011018E-04
  -12.0600004      -7.34348723E-04
  -12.0500002      -8.12718237E-04
  -12.0400000      -8.86042661E-04
  -12.0299997      -9.53329261E-04
  -12.0200005      -1.01365382E-03
  -12.0100002      -1.06614898E-03
  -12.0000000      -1.10998494E-03
  -11.9899998      -1.14435202E-03
  -11.9799995      -1.16844522E-03
  -11.9700003      -1.18146872E-03
  -11.9600000      -1.18263136E-03
  -11.9499998      -1.17117085E-03
  -11.9399996      -1.14637113E-03
  -11.9300003      -1.10758748E-03
  -11.9200001      -1.05427171E-03
  -11.9099998      -9.85993771E-04
  -11.8999996      -9.02463449E-04
  -11.8900003      -8.03546049E-04
  -11.8800001      -6.89282257E-04
  -11.8699999      -5.59896813E-04
  -11.8599997      -4.15822549E-04
  -11.8500004      -2.57709238E-04
  -11.8400002      -8.64397807E-05
  -11.8299999       9.68694585E-05
  -11.8199997       2.90864409E-04
  -11.8100004       4.93969594E-04
  -11.8000002       7.04419450E-04
  -11.7900000       9.20293620E-04
  -11.7799997       1.13956491E-03
  -11.7700005       1.36015296E-03
  -11.7600002       1.57997222E-03
  -11.7500000       1.79697899E-03
  -11.7399998       2.00920296E-03
  -11.7299995       2.21476611E-03
  -11.7200003       2.41188915E-03
  -11.7100000       2.59888265E-03
  -11.6999998       2.77413148E-03
  -11.6899996       2.93607730E-03
  -11.6800003       3.08319111E-03
  -11.6700001       3.21395951E-03
  -11.6599998       3.32686980E-03
  -11.6499996       3.42041068E-03
  -11.6400003       3.49307037E-03
  -11.6300001       3.54335574E-03
  -11.6199999       3.56980739E-03
  -11.6099997       3.57102137E-03
  -11.6000004       3.54568171E-03
  -11.5900002       3.49258329E-03
  -11.5799999       3.41066485E-03
  -11.5699997       3.29902954E-03
  -11.5600004       3.15697747E-03
  -11.5500002       2.98401946E-03
  -11.5400000       2.77990685E-03
  -11.5299997       2.54463288E-03
  -11.5200005       2.27845414E-03
  -11.5100002       1.98188471E-03
  -11.5000000       1.65570097E-03
  -11.4899998       1.30091130E-03
  -11.4799995       9.18756647E-04
  -11.4700003       5.10662736E-04
  -11.4600000       7.82219940E-05
  -11.4499998      -3.76854965E-04
  -11.4399996      -8.52770638E-04
  -11.4300003      -1.34767464E-03
  -11.4200001      -1.85967737E-03
  -11.4099998      -2.38688523E-03
  -11.3999996      -2.92739528E-03
  -11.3900003      -3.47930426E-03
  -11.3800001      -4.04069759E-03
  -11.3699999      -4.60966723E-03
  -11.3599997      -5.18428767E-03
  -11.3500004      -5.76263620E-03
  -11.3400002      -6.34280080E-03
  -11.3299999      -6.92288857E-03
  -11.3199997      -7.50104524E-03
  -11.3100004      -8.07546265E-03
  -11.3000002      -8.64440016E-03
  -11.2900000      -9.20618977E-03
  -11.2799997      -9.75922495E-03
  -11.2700005      -1.03019802E-02
  -11.2600002      -1.08329812E-02
  -11.2500000      -1.13508096E-02
  -11.2399998      -1.18540963E-02
  -11.2299995      -1.23415105E-02
  -11.2200003      -1.28117455E-02
  -11.2100000      -1.32635301E-02
  -11.1999998      -1.36956228E-02
  -11.1899996      -1.41068036E-02
  -11.1800003      -1.44958980E-02
  -11.1700001      -1.48617765E-02
  -11.1599998      -1.52033782E-02
  -11.1499996      -1.55197326E-02
  -11.1400003      -1.58099905E-02
  -11.1300001      -1.60734542E-02
  -11.1199999      -1.63096078E-02
  -11.1099997      -1.65181495E-02
  -11.1000004      -1.66990012E-02
  -11.0900002      -1.68523211E-02
  -11.0799999      -1.69784985E-02
  -11.0699997      -1.70781184E-02
  -11.0600004      -1.71519406E-02
  -11.0500002      -1.72008518E-02
  -11.0400000      -1.72258317E-02
  -11.0299997      -1.72278881E-02
  -11.0200005      -1.72080379E-02
  -11.0100002      -1.71672609E-02
  -11.0000000      -1.71064902E-02
  -10.9899998      -1.70265641E-02
  -10.9799995      -1.69282630E-02
  -10.9700003      -1.68122537E-02
  -10.9600000      -1.66791137E-02
  -10.9499998      -1.65293049E-02
  -10.9399996      -1.63631961E-02
  -10.9300003      -1.61810406E-02
  -10.9200001      -1.59830004E-02
  -10.9099998      -1.57691166E-02
  -10.8999996      -1.55393519E-02
  -10.8900003      -1.52936047E-02
  -10.8800001      -1.50316982E-02
  -10.8699999      -1.47534274E-02
  -10.8599997      -1.44585660E-02
  -10.8500004      -1.41468979E-02
  -10.8400002      -1.38181997E-02
  -10.8299999      -1.34722870E-02
  -10.8199997      -1.31089892E-02
  -10.8100004      -1.27281686E-02
  -10.8000002      -1.23296883E-02
  -10.7900000      -1.19134523E-02
  -10.7799997      -1.14793452E-02
  -10.7700005      -1.10272774E-02
  -10.7600002      -1.05571430E-02
  -10.7500000      -1.00688608E-02
  -10.7399998      -9.56235453E-03
  -10.7299995      -9.03758965E-03
  -10.7200003      -8.49456433E-03
  -10.7100000      -7.93335121E-03
  -10.6999998      -7.35404762E-03
  -10.6899996      -6.75684074E-03
  -10.6800003      -6.14193222E-03
  -10.6700001      -5.50955068E-03
  -10.6599998      -4.85993223E-03
  -10.6499996      -4.19329014E-03
  -10.6400003      -3.50983045E-03
  -10.6300001      -2.80974270E-03
  -10.6199999      -2.09323433E-03
  -10.6099997      -1.36058568E-03
  -10.6000004      -6.12189819E-04
  -10.5900002       1.51397544E-04
  -10.5799999       9.29419242E-04
  -10.5699997       1.72088936E-03
  -10.5600004       2.52458919E-03
  -10.5500002       3.33911390E-03
  -10.5400000       4.16287640E-03
  -10.5299997       4.99419542E-03
  -10.5200005       5.83133521E-03
  -10.5100002       6.67253742E-03
  -10.5000000       7.51606887E-03
  -10.4899998       8.36023781E-03
  -10.4799995       9.20336414E-03
  -10.4700003       1.00437952E-02
  -10.4600000       1.08798454E-02
  -10.4499998       1.17097702E-02
  -10.4399996       1.25317555E-02
  -10.4300003       1.33438604E-02
  -10.4200001       1.41440164E-02
  -10.4099998       1.49299949E-02
  -10.3999996       1.56994350E-02
  -10.3900003       1.64498538E-02
  -10.3800001       1.71786603E-02
  -10.3699999       1.78832114E-02
  -10.3599997       1.85608529E-02
  -10.3500004       1.92089751E-02
  -10.3400002       1.98251009E-02
  -10.3299999       2.04068795E-02
  -10.3199997       2.09522080E-02
  -10.3100004       2.14592423E-02
  -10.3000002       2.19264533E-02
  -10.2900000       2.23526694E-02
  -10.2799997       2.27371082E-02
  -10.2700005       2.30793860E-02
  -10.2600002       2.33795755E-02
  -10.2500000       2.36381367E-02
  -10.2399998       2.38559823E-02
  -10.2299995       2.40343940E-02
  -10.2200003       2.41749790E-02
  -10.2100000       2.42796764E-02
  -10.1999998       2.43506506E-02
  -10.1899996       2.43902765E-02
  -10.1800003       2.44010948E-02
  -10.1700001       2.43857671E-02
  -10.1599998       2.43470743E-02
  -10.1499996       2.42878813E-02
  -10.1400003       2.42111068E-02
  -10.1300001       2.41196882E-02
  -10.1199999       2.40165256E-02
  -10.1099997       2.39044465E-02
  -10.1000004       2.37861406E-02
  -10.0900002       2.36640964E-02
  -10.0799999       2.35405769E-02
  -10.0699997       2.34176163E-02
  -10.0600004       2.32969727E-02
  -10.0500002       2.31801514E-02
  -10.0400000       2.30684131E-02
  -10.0299997       2.29628012E-02
  -10.0200005       2.28641257E-02
  -10.0100002       2.27730144E-02
  -10.0000000       2.26898994E-02
  -9.98999977       2.26150900E-02
  -9.97999954       2.25487743E-02
  -9.97000027       2.24910825E-02
  -9.96000004       2.24421248E-02
  -9.94999981       2.24020854E-02
  -9.93999958       2.23712288E-02
  -9.93000031       2.23499648E-02
  -9.92000008       2.23388672E-02
  -9.90999985       2.23387033E-02
  -9.89999962       2.23504193E-02
  -9.89000034       2.23751049E-02
  -9.88000011       2.24139877E-02
  -9.86999989       2.24683974E-02
  -9.85999966       2.25397125E-02
  -9.85000038       2.26293020E-02
  -9.84000015       2.27385145E-02
  -9.82999992       2.28686035E-02
  -9.81999969       2.30206959E-02
  -9.81000042       2.31957845E-02
  -9.80000019       2.33946797E-02
  -9.78999996       2.36180779E-02
  -9.77999973       2.38665268E-02
  -9.77000046       2.41404995E-02
  -9.76000023       2.44404152E-02
  -9.75000000       2.47666724E-02
  -9.73999977       2.51197163E-02
  -9.72999954       2.54999679E-02
  -9.72000027       2.59079114E-02
  -9.71000004       2.63439585E-02
  -9.69999981       2.68084686E-02
  -9.68999958       2.73016077E-02
  -9.68000031       2.78232675E-02
  -9.67000008       2.83729862E-02
  -9.65999985       2.89498214E-02
  -9.64999962       2.95523405E-02
  -9.64000034       3.01784724E-02
  -9.63000011       3.08255926E-02
  -9.61999989       3.14904638E-02
  -9.60999966       3.21692750E-02
  -9.60000038       3.28577198E-02
  -9.59000015       3.35510224E-02
  -9.57999992       3.42440717E-02
  -9.56999969       3.49313281E-02
  -9.56000042       3.56070735E-02
  -9.55000019       3.62652726E-02
  -9.53999996       3.68998051E-02
  -9.52999973       3.75043787E-02
  -9.52000046       3.80727313E-02
  -9.51000023       3.85986827E-02
  -9.50000000       3.90761495E-02
  -9.48999977       3.94993648E-02
  -9.47999954       3.98629159E-02
  -9.47000027       4.01617661E-02
  -9.46000004       4.03914787E-02
  -9.44999981       4.05482166E-02
  -9.43999958       4.06288840E-02
  -9.43000031       4.06312533E-02
  -9.42000008       4.05541435E-02
  -9.40999985       4.03975658E-02
  -9.39999962       4.01627794E-02
  -9.39000034       3.98524143E-02
  -9.38000011       3.94705944E-02
  -9.36999989       3.90227996E-02
  -9.35999966       3.85159552E-02
  -9.35000038       3.79581451E-02
  -9.34000015       3.73587944E-02
  -9.32999992       3.67282890E-02
  -9.31999969       3.60780805E-02
  -9.31000042       3.54203843E-02
  -9.30000019       3.47681791E-02
  -9.28999996       3.41350101E-02
  -9.27999973       3.35348137E-02
  -9.27000046       3.29817720E-02
  -9.26000023       3.24900858E-02
  -9.25000000       3.20738554E-02
  -9.23999977       3.17468569E-02
  -9.22999954       3.15224752E-02
  -9.22000027       3.14134434E-02
  -9.21000004       3.14318873E-02
  -9.19999981       3.15890349E-02
  -9.18999958       3.18951309E-02
  -9.18000031       3.23592573E-02
  -9.17000008       3.29891704E-02
  -9.15999985       3.37911323E-02
  -9.14999962       3.47697362E-02
  -9.14000034       3.59278768E-02
  -9.13000011       3.72667313E-02
  -9.11999989       3.87857333E-02
  -9.10999966       4.04824466E-02
  -9.10000038       4.23527956E-02
  -9.09000015       4.43908572E-02
  -9.07999992       4.65889238E-02
  -9.06999969       4.89374250E-02
  -9.06000042       5.14250100E-02
  -9.05000019       5.40387593E-02
  -9.03999996       5.67640997E-02
  -9.02999973       5.95851876E-02
  -9.02000046       6.24850802E-02
  -9.01000023       6.54460117E-02
  -9.00000000       6.84496537E-02
  -8.98999977       7.14771301E-02
  -8.97999954       7.45092034E-02
  -8.97000027       7.75263086E-02
  -8.96000004       8.05086121E-02
  -8.94999981       8.34361762E-02
  -8.93999958       8.62890780E-02
  -8.93000031       8.90475139E-02
  -8.92000008       9.16922241E-02
  -8.90999985       9.42045376E-02
  -8.89999962       9.65666845E-02
  -8.89000034       9.87617075E-02
  -8.88000011      0.100773640    
  -8.86999989      0.102587551    
  -8.85999966      0.104189537    
  -8.85000038      0.105566770    
  -8.84000015      0.106707864    
  -8.82999992      0.107602470    
  -8.81999969      0.108242340    
  -8.81000042      0.108620621    
  -8.80000019      0.108732462    
  -8.78999996      0.108574927    
  -8.77999973      0.108146705    
  -8.77000046      0.107448205    
  -8.76000023      0.106481209    
  -8.75000000      0.105249010    
  -8.73999977      0.103756219    
  -8.72999954      0.102008685    
  -8.72000027      0.100014001    
  -8.71000004       9.77805704E-02
  -8.69999981       9.53185186E-02
  -8.68999958       9.26388726E-02
  -8.68000031       8.97535756E-02
  -8.67000008       8.66750479E-02
  -8.65999985       8.34161267E-02
  -8.64999962       7.99896792E-02
  -8.64000034       7.64084458E-02
  -8.63000011       7.26853088E-02
  -8.61999989       6.88326061E-02
  -8.60999966       6.48629591E-02
  -8.60000038       6.07885048E-02
  -8.59000015       5.66213466E-02
  -8.57999992       5.23731411E-02
  -8.56999969       4.80551943E-02
  -8.56000042       4.36781161E-02
  -8.55000019       3.92519534E-02
  -8.53999996       3.47861499E-02
  -8.52999973       3.02896276E-02
  -8.52000046       2.57706027E-02
  -8.51000023       2.12369934E-02
  -8.50000000       1.66961625E-02
  -8.48999977       1.21547347E-02
  -8.47999954       7.61870435E-03
  -8.47000027       3.09354183E-03
  -8.46000004      -1.41626666E-03
  -8.44999981      -5.90671180E-03
  -8.43999958      -1.03743160E-02
  -8.43000031      -1.48156779E-02
  -8.42000008      -1.92276426E-02
  -8.40999985      -2.36066189E-02
  -8.39999962      -2.79486626E-02
  -8.39000034      -3.22495550E-02
  -8.38000011      -3.65048051E-02
  -8.36999989      -4.07093056E-02
  -8.35999966      -4.48578894E-02
  -8.35000038      -4.89451513E-02
  -8.34000015      -5.29651828E-02
  -8.32999992      -5.69118746E-02
  -8.31999969      -6.07783273E-02
  -8.31000042      -6.45571500E-02
  -8.30000019      -6.82404712E-02
  -8.28999996      -7.18197897E-02
  -8.27999973      -7.52861500E-02
  -8.27000046      -7.86305219E-02
  -8.26000023      -8.18437114E-02
  -8.25000000      -8.49163160E-02
  -8.23999977      -8.78390819E-02
  -8.22999954      -9.06025022E-02
  -8.22000027      -9.31969658E-02
  -8.21000004      -9.56126675E-02
  -8.19999981      -9.78396386E-02
  -8.18999958      -9.98676941E-02
  -8.18000031     -0.101686716    
  -8.17000008     -0.103286743    
  -8.15999985     -0.104658194    
  -8.14999962     -0.105791561    
  -8.14000034     -0.106678002    
  -8.13000011     -0.107309006    
  -8.11999989     -0.107676692    
  -8.10999966     -0.107773483    
  -8.10000038     -0.107592404    
  -8.09000015     -0.107127436    
  -8.07999992     -0.106373332    
  -8.06999969     -0.105326094    
  -8.06000042     -0.103982806    
  -8.05000019     -0.102342032    
  -8.03999996     -0.100403875    
  -8.02999973      -9.81693864E-02
  -8.02000046      -9.56409127E-02
  -8.01000023      -9.28216055E-02
  -8.00000000      -8.97156969E-02
  -7.98999977      -8.63281563E-02
  -7.98000002      -8.26649517E-02
  -7.96999979      -7.87328482E-02
  -7.96000004      -7.45396987E-02
  -7.94999981      -7.00942799E-02
  -7.94000006      -6.54064566E-02
  -7.92999983      -6.04868941E-02
  -7.92000008      -5.53470775E-02
  -7.90999985      -4.99991588E-02
  -7.90000010      -4.44559455E-02
  -7.88999987      -3.87306213E-02
  -7.88000011      -3.28373723E-02
  -7.86999989      -2.67907120E-02
  -7.86000013      -2.06059199E-02
  -7.84999990      -1.42989652E-02
  -7.84000015      -7.88612850E-03
  -7.82999992      -1.38430821E-03
  -7.82000017       5.18996920E-03
  -7.80999994       1.18200742E-02
  -7.80000019       1.84899364E-02
  -7.78999996       2.51837727E-02
  -7.78000021       3.18863019E-02
  -7.76999998       3.85831781E-02
  -7.76000023       4.52596173E-02
  -7.75000000       5.19018061E-02
  -7.73999977       5.84960096E-02
  -7.73000002       6.50294349E-02
  -7.71999979       7.14894459E-02
  -7.71000004       7.78648704E-02
  -7.69999981       8.41453448E-02
  -7.69000006       9.03215632E-02
  -7.67999983       9.63855237E-02
  -7.67000008      0.102330431    
  -7.65999985      0.108149834    
  -7.65000010      0.113838889    
  -7.63999987      0.119393475    
  -7.63000011      0.124810129    
  -7.61999989      0.130086929    
  -7.61000013      0.135223091    
  -7.59999990      0.140218675    
  -7.59000015      0.145074934    
  -7.57999992      0.149794385    
  -7.57000017      0.154380217    
  -7.55999994      0.158836290    
  -7.55000019      0.163167238    
  -7.53999996      0.167377576    
  -7.53000021      0.171473145    
  -7.51999998      0.175460026    
  -7.51000023      0.179344669    
  -7.50000000      0.183134750    
  -7.48999977      0.186838314    
  -7.48000002      0.190463796    
  -7.46999979      0.194019943    
  -7.46000004      0.197515681    
  -7.44999981      0.200959742    
  -7.44000006      0.204360962    