  -16.0000000       0.00000000    
  -15.9899998       0.00000000    
  -15.9799995       0.00000000    
  -15.9700003       0.00000000    
  -15.9600000       0.00000000    
  -15.9499998       0.00000000    
  -15.9399996       0.00000000    
  -15.9300003       0.00000000    
  -15.9200001       0.00000000    
  -15.9099998       0.00000000    
  -15.8999996       0.00000000    
  -15.8900003       0.00000000    
  -15.8800001       0.00000000    
  -15.8699999       0.00000000    
  -15.8599997       0.00000000    
  -15.8500004       0.00000000    
  -15.8400002       1.12103877E-44
  -15.8299999       1.51340234E-43
  -15.8199997       1.44754131E-42
  -15.8100004       1.09889826E-41
  -15.8000002       6.91316584E-41
  -15.7900000       3.71404349E-40
  -15.7799997       1.74074060E-39
  -15.7700005       7.23238724E-39
  -15.7600002       2.69635160E-38
  -15.7500000       9.10508923E-38
  -15.7399998       2.80493609E-37
  -15.7299995       7.92557820E-37
  -15.7200003       2.06186258E-36
  -15.7100000       4.94998203E-36
  -15.6999998       1.09738582E-35
  -15.6899996       2.24381797E-35
  -15.6800003       4.21508856E-35
  -15.6700001       7.21666058E-35
  -15.6599998       1.10866015E-34
  -15.6499996       1.47946674E-34
  -15.6400003       1.58010731E-34
  -15.6300001       9.57296139E-35
  -15.6199999      -1.01186473E-34
  -15.6099997      -4.92233208E-34
  -15.6000004      -1.08941345E-33
  -15.5900002      -1.78801250E-33
  -15.5799999      -2.29261347E-33
  -15.5699997      -2.08599168E-33
  -15.5600004      -5.12945097E-34
  -15.5500002       2.95105708E-33
  -15.5400000       8.23289648E-33
  -15.5299997       1.41082759E-32
  -15.5200005       1.78441189E-32
  -15.5100002       1.54543653E-32
  -15.5000000       2.95571516E-33
  -15.4899998      -2.13123738E-32
  -15.4799995      -5.38726710E-32
  -15.4700003      -8.41280501E-32
  -15.4600000      -9.50024778E-32
  -15.4499998      -6.76396141E-32
  -15.4399996       9.90153348E-33
  -15.4300003       1.32392990E-31
  -15.4200001       2.70313225E-31
  -15.4099998       3.71147130E-31
  -15.3999996       3.72183587E-31
  -15.3900003       2.22988645E-31
  -15.3800001      -8.97602902E-32
  -15.3699999      -5.25171473E-31
  -15.3599997      -9.86411383E-31
  -15.3500004      -1.33503912E-30
  -15.3400002      -1.41529454E-30
  -15.3299999      -1.08157593E-30
  -15.3199997      -2.29445683E-31
  -15.3100004       1.16188335E-30
  -15.3000002       2.97303549E-30
  -15.2900000       4.89669231E-30
  -15.2799997       6.44934656E-30
  -15.2700005       7.07915273E-30
  -15.2600002       6.30737054E-30
  -15.2500000       3.68251009E-30
  -15.2399998      -1.73333695E-30
  -15.2299995      -1.23203506E-29
  -15.2200003      -3.24199642E-29
  -15.2100000      -6.63945450E-29
  -15.1999998      -1.11793793E-28
  -15.1899996      -1.47172814E-28
  -15.1800003      -1.19797910E-28
  -15.1700001       5.30082847E-29
  -15.1599998       4.48846062E-28
  -15.1499996       1.05685290E-27
  -15.1400003       1.65820623E-27
  -15.1300001       1.73309582E-27
  -15.1199999       5.12902444E-28
  -15.1099997      -2.68494702E-27
  -15.1000004      -7.78046038E-27
  -15.0900002      -1.30727117E-26
  -15.0799999      -1.46913125E-26
  -15.0699997      -7.14550054E-27
  -15.0600004       1.42557812E-26
  -15.0500002       4.89734033E-26
  -15.0400000       8.60489291E-26
  -15.0299997       1.01251511E-25
  -15.0200005       6.10116487E-26
  -15.0100002      -6.30021297E-26
  -15.0000000      -2.68751204E-25
  -14.9899998      -4.95790894E-25
  -14.9799995      -6.11102588E-25
  -14.9700003      -4.31284999E-25
  -14.9600000       2.01025375E-25
  -14.9499998       1.28938082E-24
  -14.9399996       2.54394074E-24
  -14.9300003       3.31123261E-24
  -14.9200001       2.67769565E-24
  -14.9099998      -1.73631416E-25
  -14.8999996      -5.37006293E-24
  -14.8900003      -1.16990920E-23
  -14.8800001      -1.62585952E-23
  -14.8699999      -1.48601168E-23
  -14.8599997      -3.52841272E-24
  -14.8500004       1.89609976E-23
  -14.8400002       4.82306844E-23
  -14.8299999       7.25866007E-23
  -14.8199997       7.42871324E-23
  -14.8100004       3.52431624E-23
  -14.8000002      -5.29277074E-23
  -14.7900000      -1.77119039E-22
  -14.7799997      -2.94671229E-22
  -14.7700005      -3.36138428E-22
  -14.7600002      -2.24806350E-22
  -14.7500000       8.64058471E-23
  -14.7399998       5.69159281E-22
  -14.7299995       1.08396668E-21
  -14.7200003       1.38037098E-21
  -14.7100000       1.15626299E-21
  -14.6999998       1.82889361E-22
  -14.6899996      -1.52847649E-21
  -14.6800003      -3.57902108E-21
  -14.6700001      -5.14234801E-21
  -14.6599998      -5.11852416E-21
  -14.6499996      -2.52156175E-21
  -14.6400003       2.95558681E-21
  -14.6300001       1.03770002E-20
  -14.6199999       1.72827611E-20
  -14.6099997       1.99948133E-20
  -14.6000004       1.46972417E-20
  -14.5900002      -7.95438162E-22
  -14.5799999      -2.50511649E-20
  -14.5699997      -5.16486986E-20
  -14.5600004      -6.94160987E-20
  -14.5500002      -6.50450437E-20
  -14.5400000      -2.81330201E-20
  -14.5299997       4.24069941E-20
  -14.5200005       1.32821851E-19
  -14.5100002       2.12887235E-19
  -14.5000000       2.40932018E-19
  -14.4899998       1.76642080E-19
  -14.4799995      -1.92578744E-22
  -14.4700003      -2.70405859E-19
  -14.4600000      -5.63970139E-19
  -14.4499998      -7.65185907E-19
  -14.4399996      -7.40360304E-19
  -14.4300003      -3.86713761E-19
  -14.4200001       3.08549665E-19
  -14.4099998       1.21958558E-18
  -14.3999996       2.06923552E-18
  -14.3900003       2.47421343E-18
  -14.3800001       2.05543856E-18
  -14.3699999       5.96739830E-19
  -14.3599997      -1.79231014E-18
  -14.3500004      -4.57457142E-18
  -14.3400002      -6.81256026E-18
  -14.3299999      -7.36902617E-18
  -14.3199997      -5.27367428E-18
  -14.3100004      -1.79145892E-19
  -14.3000002       7.23765003E-18
  -14.2900000       1.51092645E-17
  -14.2799997       2.06066192E-17
  -14.2700005       2.06322271E-17
  -14.2600002       1.28938962E-17
  -14.2500000      -2.90346475E-18
  -14.2399998      -2.41551380E-17
  -14.2299995      -4.51936646E-17
  -14.2200003      -5.82049807E-17
  -14.2100000      -5.52839181E-17
  -14.1999998      -3.12885037E-17
  -14.1899996       1.32634077E-17
  -14.1800003       7.02940467E-17
  -14.1700001       1.24300259E-16
  -14.1599998       1.55184642E-16
  -14.1499996       1.43703097E-16
  -14.1400003       7.84935308E-17
  -14.1300001      -3.72507389E-17
  -14.1199999      -1.81905408E-16
  -14.1099997      -3.16590793E-16
  -14.1000004      -3.92624282E-16
  -14.0900002      -3.64704832E-16
  -14.0799999      -2.07166286E-16
  -14.0699997       7.12122966E-17
  -14.0600004       4.19217702E-16
  -14.0500002       7.46735405E-16
  -14.0400000       9.42060197E-16
  -14.0299997       9.01365770E-16
  -14.0200005       5.64289644E-16
  -14.0100002      -5.40775116E-17
  -14.0000000      -8.46021696E-16
  -13.9899998      -1.61838901E-15
  -13.9799995      -2.12848029E-15
  -13.9700003      -2.14511835E-15
  -13.9600000      -1.52256798E-15
  -13.9499998      -2.67857282E-16
  -13.9399996       1.42077749E-15
  -13.9300003       3.16326529E-15
  -13.9200001       4.46386702E-15
  -13.9099998       4.82810178E-15
  -13.8999996       3.90775940E-15
  -13.8900003       1.63774403E-15
  -13.8800001      -1.67727071E-15
  -13.8699999      -5.36293998E-15
  -13.8599997      -8.48127229E-15
  -13.8500004      -1.00350839E-14
  -13.8400002      -9.23346719E-15
  -13.8299999      -5.75576675E-15
  -13.8199997       6.04978062E-17
  -13.8100004       7.17528894E-15
  -13.8000002       1.39852788E-14
  -13.7900000       1.86428072E-14
  -13.7799997       1.95001926E-14
  -13.7700005       1.55809966E-14
  -13.7600002       6.95597136E-15
  -13.7500000      -5.09263059E-15
  -13.7399998      -1.81955959E-14
  -13.7299995      -2.93213736E-14
  -13.7200003      -3.54335092E-14
  -13.7100000      -3.42426926E-14
  -13.6999998      -2.48725347E-14
  -13.6899996      -8.25886007E-15
  -13.6800003       1.28484302E-14
  -13.6700001       3.43226322E-14
  -13.6599998       5.14691913E-14
  -13.6499996       6.00382713E-14
  -13.6400003       5.72094862E-14
  -13.6300001       4.23107628E-14
  -13.6199999       1.70906261E-14
  -13.6099997      -1.45298897E-14
  -13.6000004      -4.71693065E-14
  -13.5900002      -7.49896361E-14
  -13.5799999      -9.27532722E-14
  -13.5699997      -9.66966782E-14
  -13.5600004      -8.50566498E-14
  -13.5500002      -5.82036521E-14
  -13.5400000      -1.84604868E-14
  -13.5299997       3.02314157E-14
  -13.5200005       8.26267697E-14
  -13.5100002       1.32376369E-13
  -13.5000000       1.72152819E-13
  -13.4899998       1.93888552E-13
  -13.4799995       1.89400728E-13
  -13.4700003       1.51646463E-13
  -13.4600000       7.66752520E-14
  -13.4499998      -3.39546438E-14
  -13.4399996      -1.70876225E-13
  -13.4300003      -3.15583199E-13
  -13.4200001      -4.40993243E-13
  -13.4099998      -5.14603876E-13
  -13.3999996      -5.04389987E-13
  -13.3900003      -3.86802867E-13
  -13.3800001      -1.55372920E-13
  -13.3699999       1.72250072E-13
  -13.3599997       5.51219498E-13
  -13.3500004       9.12377270E-13
  -13.3400002       1.17203068E-12
  -13.3299999       1.24793719E-12
  -13.3199997       1.07900093E-12
  -13.3100004       6.44608607E-13
  -13.3000002      -2.12981234E-14
  -13.2900000      -8.26041709E-13
  -13.2799997      -1.62700886E-12
  -13.2700005      -2.25388588E-12
  -13.2600002      -2.54153924E-12
  -13.2500000      -2.36764883E-12
  -13.2399998      -1.68703940E-12
  -13.2299995      -5.54157523E-13
  -13.2200003       8.73310701E-13
  -13.2100000       2.35321615E-12
  -13.1999998       3.59884345E-12
  -13.1899996       4.33353483E-12
  -13.1800003       4.34948128E-12
  -13.1700001       3.55802388E-12
  -13.1599998       2.01950414E-12
  -13.1499996      -5.56541202E-14
  -13.1400003      -2.33706023E-12
  -13.1300001      -4.43116247E-12
  -13.1199999      -5.95393700E-12
  -13.1099997      -6.60452942E-12
  -13.1000004      -6.22418523E-12
  -13.0900002      -4.82772589E-12
  -13.0799999      -2.60092447E-12
  -13.0699997       1.35099763E-13
  -13.0600004       2.98379290E-12
  -13.0500002       5.54330800E-12
  -13.0400000       7.47106023E-12
  -13.0299997       8.52923114E-12
  -13.0200005       8.60361175E-12
  -13.0100002       7.69592723E-12
  -13.0000000       5.89719679E-12
  -12.9899998       3.35461802E-12
  -12.9799995       2.45257238E-13
  -12.9700003      -3.23376655E-12
  -12.9600000      -6.85604958E-12
  -12.9499998      -1.03436513E-11
  -12.9399996      -1.33450802E-11
  -12.9300003      -1.54303098E-11
  -12.9200001      -1.61175413E-11
  -12.9099998      -1.49389858E-11
  -12.8999996      -1.15413191E-11
  -12.8900003      -5.80392852E-12
  -12.8800001       2.05212084E-12
  -12.8699999       1.13956899E-11
  -12.8599997       2.11855550E-11
  -12.8500004       3.00552049E-11
  -12.8400002       3.64814325E-11
  -12.8299999       3.90164220E-11
  -12.8199997       3.65459711E-11
  -12.8100004       2.85266307E-11
  -12.8000002       1.51542164E-11
  -12.7900000      -2.57365288E-12
  -12.7799997      -2.29194354E-11
  -12.7700005      -4.35871096E-11
  -12.7600002      -6.19956933E-11
  -12.7500000      -7.56003732E-11
  -12.7399998      -8.22095586E-11
  -12.7299995      -8.02500011E-11
  -12.7200003      -6.89455992E-11
  -12.7100000      -4.83955168E-11
  -12.6999998      -1.95580201E-11
  -12.6899996       1.58366566E-11
  -12.6800003       5.54125391E-11
  -12.6700001       9.62827318E-11
  -12.6599998       1.35172901E-10
  -12.6499996       1.68530370E-10
  -12.6400003       1.92632604E-10
  -12.6300001       2.03722234E-10
  -12.6199999       1.98200595E-10
  -12.6099997       1.72904413E-10
  -12.6000004       1.25474825E-10
  -12.5900002       5.48055663E-11
  -12.5799999      -3.84692278E-11
  -12.5699997      -1.51505433E-10
  -12.5600004      -2.78868401E-10
  -12.5500002      -4.12311379E-10
  -12.5400000      -5.40774203E-10
  -12.5299997      -6.50642262E-10
  -12.5200005      -7.26288640E-10
  -12.5100002      -7.50899842E-10
  -12.5000000      -7.07576719E-10
  -12.4899998      -5.80692161E-10
  -12.4799995      -3.57495894E-10
  -12.4700003      -2.99440681E-11
  -12.4600000       4.03263006E-10
  -12.4499998       9.34484490E-10
  -12.4399996       1.54486379E-09
  -12.4300003       2.20211227E-09
  -12.4200001       2.85854673E-09
  -12.4099998       3.44963214E-09
  -12.3999996       3.89332211E-09
  -12.3900003       4.09047773E-09
  -12.3800001       3.92659993E-09
  -12.3699999       3.27504224E-09
  -12.3599997       2.00168615E-09
  -12.3500004      -2.90260992E-11
  -12.3400002      -2.94700997E-09
  -12.3299999      -6.86884460E-09
  -12.3199997      -1.18899370E-08
  -12.3100004      -1.80770794E-08
  -12.3000002      -2.54618691E-08
  -12.2900000      -3.40353949E-08
  -12.2799997      -4.37444569E-08
  -12.2700005      -5.44894583E-08
  -12.2600002      -6.61240378E-08
  -12.2500000      -7.84563952E-08
  -12.2399998      -9.12521472E-08
  -12.2299995      -1.04238829E-07
  -12.2200003      -1.17111533E-07
  -12.2100000      -1.29539984E-07
  -12.1999998      -1.41176429E-07
  -12.1899996      -1.51664395E-07
  -12.1800003      -1.60647815E-07
  -12.1700001      -1.67780101E-07
  -12.1599998      -1.72732683E-07
  -12.1499996      -1.75202828E-07
  -12.1400003      -1.74919847E-07
  -12.1300001      -1.71650086E-07
  -12.1199999      -1.65200021E-07
  -12.1099997      -1.55418121E-07
  -12.1000004      -1.42195276E-07
  -12.0900002      -1.25464496E-07
  -12.0799999      -1.05200101E-07
  -12.0699997      -8.14166654E-08
  -12.0600004      -5.41682148E-08
  -12.0500002      -2.35475390E-08
  -12.0400000       1.03143316E-08
  -12.0299997       4.72484807E-08
  -12.0200005       8.70483419E-08
  -12.0100002       1.29470010E-07
  -12.0000000       1.74232483E-07
  -11.9899998       2.21017842E-07
  -11.9799995       2.69471315E-07
  -11.9700003       3.19201064E-07
  -11.9600000       3.69778377E-07
  -11.9499998       4.20737337E-07
  -11.9399996       4.71575646E-07
  -11.9300003       5.21755965E-07
  -11.9200001       5.70708892E-07
  -11.9099998       6.17837145E-07
  -11.8999996       6.62521416E-07
  -11.8900003       7.04128865E-07
  -11.8800001       7.42020802E-07
  -11.8699999       7.75563137E-07
  -11.8599997       8.04134970E-07
  -11.8500004       8.27137683E-07
  -11.8400002       8.44003011E-07
  -11.8299999       8.54199243E-07
  -11.8199997       8.57237012E-07
  -11.8100004       8.52673452E-07
  -11.8000002       8.40116286E-07
  -11.7900000       8.19227637E-07
  -11.7799997       7.89727721E-07
  -11.7700005       7.51398943E-07
  -11.7600002       7.04090212E-07
  -11.7500000       6.47721265E-07
  -11.7399998       5.82286702E-07
  -11.7299995       5.07858942E-07
  -11.7200003       4.24590638E-07
  -11.7100000       3.32715530E-07
  -11.6999998       2.32548075E-07
  -11.6899996       1.24480906E-07
  -11.6800003       8.98237662E-09
  -11.6700001      -1.13407921E-07
  -11.6599998      -2.42083757E-07
  -11.6499996      -3.76377642E-07
  -11.6400003      -5.15565318E-07
  -11.6300001      -6.58870022E-07
  -11.6199999      -8.05466982E-07
  -11.6099997      -9.54485927E-07
  -11.6000004      -1.10501344E-06
  -11.5900002      -1.25609427E-06
  -11.5799999      -1.40673160E-06
  -11.5699997      -1.55588839E-06
  -11.5600004      -1.70248677E-06
  -11.5500002      -1.84540977E-06
  -11.5400000      -1.98350199E-06
  -11.5299997      -2.11557267E-06
  -11.5200005      -2.24039945E-06
  -11.5100002      -2.35673406E-06
  -11.5000000      -2.46330796E-06
  -11.4899998      -2.55884288E-06
  -11.4799995      -2.64205869E-06
  -11.4700003      -2.71168460E-06
  -11.4600000      -2.76647211E-06
  -11.4499998      -2.80520339E-06
  -11.4399996      -2.82670453E-06
  -11.4300003      -2.82985297E-06
  -11.4200001      -2.81358598E-06
  -11.4099998      -2.77690606E-06
  -11.3999996      -2.71888348E-06
  -11.3900003      -2.63865763E-06
  -11.3800001      -2.53543612E-06
  -11.3699999      -2.40849340E-06
  -11.3599997      -2.25716781E-06
  -11.3500004      -2.08086021E-06
  -11.3400002      -1.87903299E-06
  -11.3299999      -1.65120889E-06
  -11.3199997      -1.39697090E-06
  -11.3100004      -1.11596387E-06
  -11.3000002      -8.07893400E-07
  -11.2900000      -4.72526381E-07
  -11.2799997      -1.09689957E-07
  -11.2700005       2.80731001E-07
  -11.2600002       6.98795361E-07
  -11.2500000       1.14450961E-06
  -11.2399998       1.61783089E-06
  -11.2299995       2.11866859E-06
  -11.2200003       2.64688833E-06
  -11.2100000       3.20231379E-06
  -11.1999998       3.78472623E-06
  -11.1899996       4.39386758E-06
  -11.1800003       5.02943931E-06
  -11.1700001       5.69110398E-06
  -11.1599998       6.37848689E-06
  -11.1499996       7.09117148E-06
  -11.1400003       7.82870484E-06
  -11.1300001       8.59059492E-06
  -11.1199999       9.37630557E-06
  -11.1099997       1.01852729E-05
  -11.1000004       1.10168858E-05
  -11.0900002       1.18705148E-05
  -11.0799999       1.27454905E-05
  -11.0699997       1.36411400E-05
  -11.0600004       1.45567710E-05
  -11.0500002       1.54916943E-05
  -11.0400000       1.64452140E-05
  -11.0299997       1.74166471E-05
  -11.0200005       1.84053188E-05
  -11.0100002       1.94105505E-05
  -11.0000000       2.04316639E-05
  -10.9899998       2.14679749E-05
  -10.9799995       2.25187814E-05
  -10.9700003       2.35833650E-05
  -10.9600000       2.46609779E-05
  -10.9499998       2.57508491E-05
  -10.9399996       2.68521817E-05
  -10.9300003       2.79641590E-05
  -10.9200001       2.90859352E-05
  -10.9099998       3.02166663E-05
  -10.8999996       3.13554738E-05
  -10.8900003       3.25014844E-05
  -10.8800001       3.36538069E-05
  -10.8699999       3.48115391E-05
  -10.8599997       3.59737642E-05
  -10.8500004       3.71395472E-05
  -10.8400002       3.83079314E-05
  -10.8299999       3.94779490E-05
  -10.8199997       4.06486070E-05
  -10.8100004       4.18188974E-05
  -10.8000002       4.29878128E-05
  -10.7900000       4.41543380E-05
  -10.7799997       4.53174689E-05
  -10.7700005       4.64762234E-05
  -10.7600002       4.76296264E-05
  -10.7500000       4.87767429E-05
  -10.7399998       4.99166708E-05
  -10.7299995       5.10485479E-05
  -10.7200003       5.21715410E-05
  -10.7100000       5.32848680E-05
  -10.6999998       5.43877904E-05
  -10.6899996       5.54796170E-05
  -10.6800003       5.65597074E-05
  -10.6700001       5.76274761E-05
  -10.6599998       5.86823917E-05
  -10.6499996       5.97239778E-05
  -10.6400003       6.07518268E-05
  -10.6300001       6.17655824E-05
  -10.6199999       6.27649861E-05
  -10.6099997       6.37497942E-05
  -10.6000004       6.47198758E-05
  -10.5900002       6.56751508E-05
  -10.5799999       6.66156266E-05
  -10.5699997       6.75413830E-05
  -10.5600004       6.84525658E-05
  -10.5500002       6.93494367E-05
  -10.5400000       7.02322795E-05
  -10.5299997       7.11015018E-05
  -10.5200005       7.19575328E-05
  -10.5100002       7.28008963E-05
  -10.5000000       7.36321381E-05
  -10.4899998       7.44518547E-05
  -10.4799995       7.52606720E-05
  -10.4700003       7.60592593E-05
  -10.4600000       7.68482714E-05
  -10.4499998       7.76283996E-05
  -10.4399996       7.84003350E-05
  -10.4300003       7.91647471E-05
  -10.4200001       7.99223126E-05
  -10.4099998       8.06736425E-05
  -10.3999996       8.14193772E-05
  -10.3900003       8.21600552E-05
  -10.3800001       8.28962511E-05
  -10.3699999       8.36284235E-05
  -10.3599997       8.43570306E-05
  -10.3500004       8.50824581E-05
  -10.3400002       8.58050189E-05
  -10.3299999       8.65250186E-05
  -10.3199997       8.72426463E-05
  -10.3100004       8.79581203E-05
  -10.3000002       8.86715134E-05
  -10.2900000       8.93829347E-05
  -10.2799997       9.00923988E-05
  -10.2700005       9.07999565E-05
  -10.2600002       9.15055643E-05
  -10.2500000       9.22092586E-05
  -10.2399998       9.29110174E-05
  -10.2299995       9.36108700E-05
  -10.2200003       9.43088162E-05
  -10.2100000       9.50049216E-05
  -10.1999998       9.56991717E-05
  -10.1899996       9.63916609E-05
  -10.1800003       9.70824040E-05
  -10.1700001       9.77715536E-05
  -10.1599998       9.84591388E-05
  -10.1499996       9.91453198E-05
  -10.1400003       9.98302276E-05
  -10.1300001       1.00514080E-04
  -10.1199999       1.01197125E-04
  -10.1099997       1.01879661E-04
  -10.1000004       1.02562066E-04
  -10.0900002       1.03244733E-04
  -10.0799999       1.03928171E-04
  -10.0699997       1.04612911E-04
  -10.0600004       1.05299616E-04
  -10.0500002       1.05988918E-04
  -10.0400000       1.06681589E-04
  -10.0299997       1.07378401E-04
  -10.0200005       1.08080232E-04
  -10.0100002       1.08788015E-04
  -10.0000000       1.09502675E-04
  -9.98999977       1.10225243E-04
  -9.97999954       1.10956753E-04
  -9.97000027       1.11698282E-04
  -9.96000004       1.12450951E-04
  -9.94999981       1.13215887E-04
  -9.93999958       1.13994240E-04
  -9.93000031       1.14787224E-04
  -9.92000008       1.15596013E-04
  -9.90999985       1.16421848E-04
  -9.89999962       1.17265947E-04
  -9.89000034       1.18129537E-04
  -9.88000011       1.19013857E-04
  -9.86999989       1.19920187E-04
  -9.85999966       1.20849792E-04
  -9.85000038       1.21803932E-04
  -9.84000015       1.22783938E-04
  -9.82999992       1.23791091E-04
  -9.81999969       1.24826736E-04
  -9.81000042       1.25892155E-04
  -9.80000019       1.26988671E-04
  -9.78999996       1.28117637E-04
  -9.77999973       1.29280248E-04
  -9.77000046       1.30477900E-04
  -9.76000023       1.31711859E-04
  -9.75000000       1.32983478E-04
  -9.73999977       1.34294125E-04
  -9.72999954       1.35645096E-04
  -9.72000027       1.37037845E-04
  -9.71000004       1.38473813E-04
  -9.69999981       1.39954427E-04
  -9.68999958       1.41481214E-04
  -9.68000031       1.43055571E-04
  -9.67000008       1.44679027E-04
  -9.65999985       1.46352977E-04
  -9.64999962       1.48078732E-04
  -9.64000034       1.49857646E-04
  -9.63000011       1.51690809E-04
  -9.61999989       1.53579269E-04
  -9.60999966       1.55523841E-04
  -9.60000038       1.57525210E-04
  -9.59000015       1.59583826E-04
  -9.57999992       1.61699907E-04
  -9.56999969       1.63873410E-04
  -9.56000042       1.66104059E-04
  -9.55000019       1.68391343E-04
  -9.53999996       1.70734478E-04
  -9.52999973       1.73132386E-04
  -9.52000046       1.75583700E-04
  -9.51000023       1.78086790E-04
  -9.50000000       1.80639792E-04
  -9.48999977       1.83240496E-04
  -9.47999954       1.85886529E-04
  -9.47000027       1.88575272E-04
  -9.46000004       1.91303916E-04
  -9.44999981       1.94069493E-04
  -9.43999958       1.96868918E-04
  -9.43000031       1.99699090E-04
  -9.42000008       2.02556796E-04
  -9.40999985       2.05438948E-04
  -9.39999962       2.08342506E-04
  -9.39000034       2.11264574E-04
  -9.38000011       2.14202446E-04
  -9.36999989       2.17153676E-04
  -9.35999966       2.20116126E-04
  -9.35000038       2.23087947E-04
  -9.34000015       2.26067801E-04
  -9.32999992       2.29054742E-04
  -9.31999969       2.32048333E-04
  -9.31000042       2.35048719E-04
  -9.30000019       2.38056513E-04
  -9.28999996       2.41072965E-04
  -9.27999973       2.44099909E-04
  -9.27000046       2.47139717E-04
  -9.26000023       2.50195357E-04
  -9.25000000       2.53270438E-04
  -9.23999977       2.56369036E-04
  -9.22999954       2.59495806E-04
  -9.22000027       2.62655696E-04
  -9.21000004       2.65854411E-04
  -9.19999981       2.69097742E-04
  -9.18999958       2.72391830E-04
  -9.18000031       2.75743310E-04
  -9.17000008       2.79158732E-04
  -9.15999985       2.82644964E-04
  -9.14999962       2.86208640E-04
  -9.14000034       2.89856602E-04
  -9.13000011       2.93595484E-04
  -9.11999989       2.97431543E-04
  -9.10999966       3.01371008E-04
  -9.10000038       3.05419730E-04
  -9.09000015       3.09582974E-04
  -9.07999992       3.13865807E-04
  -9.06999969       3.18272709E-04
  -9.06000042       3.22807522E-04
  -9.05000019       3.27473506E-04
  -9.03999996       3.32273426E-04
  -9.02999973       3.37209436E-04
  -9.02000046       3.42282670E-04
  -9.01000023       3.47493828E-04
  -9.00000000       3.52842850E-04
  -8.98999977       3.58328776E-04
  -8.97999954       3.63950297E-04
  -8.97000027       3.69705114E-04
  -8.96000004       3.75590316E-04
  -8.94999981       3.81602382E-04
  -8.93999958       3.87736945E-04
  -8.93000031       3.93989380E-04
  -8.92000008       4.00354009E-04
  -8.90999985       4.06824925E-04
  -8.89999962       4.13395697E-04
  -8.89000034       4.20058932E-04
  -8.88000011       4.26807324E-04
  -8.86999989       4.33632755E-04
  -8.85999966       4.40527103E-04
  -8.85000038       4.47481725E-04
  -8.84000015       4.54487628E-04
  -8.82999992       4.61535936E-04
  -8.81999969       4.68617363E-04
  -8.81000042       4.75722394E-04
  -8.80000019       4.82841657E-04
  -8.78999996       4.89965663E-04
  -8.77999973       4.97084868E-04
  -8.77000046       5.04190044E-04
  -8.76000023       5.11271646E-04
  -8.75000000       5.18320594E-04
  -8.73999977       5.25327981E-04
  -8.72999954       5.32285136E-04
  -8.72000027       5.39183791E-04
  -8.71000004       5.46016148E-04
  -8.69999981       5.52774582E-04
  -8.68999958       5.59452223E-04
  -8.68000031       5.66042436E-04
  -8.67000008       5.72539342E-04
  -8.65999985       5.78937819E-04
  -8.64999962       5.85232920E-04
  -8.64000034       5.91420801E-04
  -8.63000011       5.97498030E-04
  -8.61999989       6.03461638E-04
  -8.60999966       6.09309704E-04
  -8.60000038       6.15040597E-04
  -8.59000015       6.20653504E-04
  -8.57999992       6.26147958E-04
  -8.56999969       6.31524250E-04
  -8.56000042       6.36782730E-04
  -8.55000019       6.41924446E-04
  -8.53999996       6.46950968E-04
  -8.52999973       6.51863811E-04
  -8.52000046       6.56664895E-04
  -8.51000023       6.61356607E-04
  -8.50000000       6.65940985E-04
  -8.48999977       6.70420530E-04
  -8.47999954       6.74797921E-04
  -8.47000027       6.79075834E-04
  -8.46000004       6.83256832E-04
  -8.44999981       6.87343476E-04
  -8.43999958       6.91339024E-04
  -8.43000031       6.95245806E-04
  -8.42000008       6.99066848E-04
  -8.40999985       7.02804886E-04
  -8.39999962       7.06463063E-04
  -8.39000034       7.10044347E-04
  -8.38000011       7.13551766E-04
  -8.36999989       7.16988696E-04
  -8.35999966       7.20358628E-04
  -8.35000038       7.23665114E-04
  -8.34000015       7.26912054E-04
  -8.32999992       7.30103464E-04
  -8.31999969       7.33243593E-04
  -8.31000042       7.36337388E-04
  -8.30000019       7.39389565E-04
  -8.28999996       7.42405304E-04
  -8.27999973       7.45390193E-04
  -8.27000046       7.48349819E-04
  -8.26000023       7.51290761E-04
  -8.25000000       7.54218956E-04
  -8.23999977       7.57141330E-04
  -8.22999954       7.60064751E-04
  -8.22000027       7.62996322E-04
  -8.21000004       7.65943551E-04
  -8.19999981       7.68913829E-04
  -8.18999958       7.71914900E-04
  -8.18000031       7.74954795E-04
  -8.17000008       7.78041489E-04
  -8.15999985       7.81183015E-04
  -8.14999962       7.84387987E-04
  -8.14000034       7.87664670E-04
  -8.13000011       7.91021506E-04
  -8.11999989       7.94467342E-04
  -8.10999966       7.98011082E-04
  -8.10000038       8.01661576E-04
  -8.09000015       8.05427495E-04
  -8.07999992       8.09318095E-04
  -8.06999969       8.13342165E-04
  -8.06000042       8.17509077E-04
  -8.05000019       8.21827562E-04
  -8.03999996       8.26306990E-04
  -8.02999973       8.30956269E-04
  -8.02000046       8.35784129E-04
  -8.01000023       8.40799417E-04
  -8.00000000       8.46010575E-04
  -7.98999977       8.51426506E-04
  -7.98000002       8.57054838E-04
  -7.96999979       8.62903369E-04
  -7.96000004       8.68979783E-04
  -7.94999981       8.75290949E-04
  -7.94000006       8.81843735E-04
  -7.92999983       8.88644077E-04
  -7.92000008       8.95697798E-04
  -7.90999985       9.03009961E-04
  -7.90000010       9.10585222E-04
  -7.88999987       9.18427366E-04
  -7.88000011       9.26539826E-04
  -7.86999989       9.34925047E-04
  -7.86000013       9.43584950E-04
  -7.84999990       9.52521106E-04
  -7.84000015       9.61734040E-04
  -7.82999992       9.71224043E-04
  -7.82000017       9.80990357E-04
  -7.80999994       9.91031760E-04
  -7.80000019       1.00134639E-03
  -7.78999996       1.01193204E-03
  -7.78000021       1.02278625E-03
  -7.76999998       1.03390578E-03
  -7.76000023       1.04528677E-03
  -7.75000000       1.05692493E-03
  -7.73999977       1.06881652E-03
  -7.73000002       1.08095643E-03
  -7.71999979       1.09333976E-03
  -7.71000004       1.10596186E-03
  -7.69999981       1.11881725E-03
  -7.69000006       1.13190117E-03
  -7.67999983       1.14520814E-03
  -7.67000008       1.15873246E-03
  -7.65999985       1.17246923E-03
  -7.65000010       1.18641346E-03
  -7.63999987       1.20055990E-03
  -7.63000011       1.21490331E-03
  -7.61999989       1.22943963E-03
  -7.61000013       1.24416361E-03
  -7.59999990       1.25907152E-03
  -7.59000015       1.27415883E-03
  -7.57999992       1.28942227E-03
  -7.57000017       1.30485801E-03
  -7.55999994       1.32046291E-03
  -7.55000019       1.33623462E-03
  -7.53999996       1.35217002E-03
  -7.53000021       1.36826758E-03
  -7.51999998       1.38452614E-03
  -7.51000023       1.40094408E-03
  -7.50000000       1.41752069E-03
  -7.48999977       1.43425586E-03
  -7.48000002       1.45114947E-03
  -7.46999979       1.46820268E-03
  -7.46000004       1.48541608E-03
  -7.44999981       1.50279130E-03
  -7.44000006       1.52033009E-03