  -16.0000000       0.00000000    
  -15.9899998       0.00000000    
  -15.9799995       0.00000000    
  -15.9700003       0.00000000    
  -15.9600000       0.00000000    
  -15.9499998       0.00000000    
  -15.9399996       0.00000000    
  -15.9300003       0.00000000    
  -15.9200001       0.00000000    
  -15.9099998       0.00000000    
  -15.8999996       0.00000000    
  -15.8900003       0.00000000    
  -15.8800001       2.16063408E-40
  -15.8699999       2.90915587E-39
  -15.8599997       1.56778912E-38
  -15.8500004       2.29835719E-38
  -15.8400002      -2.26441200E-37
  -15.8299999      -1.85160557E-36
  -15.8199997      -7.28039815E-36
  -15.8100004      -1.61636873E-35
  -15.8000002      -5.52773636E-36
  -15.7900000       1.17141640E-34
  -15.7799997       5.62941168E-34
  -15.7700005       1.58004202E-33
  -15.7600002       2.95690902E-33
  -15.7500000       2.82527790E-33
  -15.7399998      -3.99112291E-33
  -15.7299995      -2.64964420E-32
  -15.7200003      -7.36061120E-32
  -15.7100000      -1.41938404E-31
  -15.6999998      -1.94098191E-31
  -15.6899996      -1.32861660E-31
  -15.6800003       2.13469092E-31
  -15.6700001       1.06388793E-30
  -15.6599998       2.55206613E-30
  -15.6499996       4.36265337E-30
  -15.6400003       4.96758007E-30
  -15.6300001       4.82706129E-31
  -15.6199999      -1.59931344E-29
  -15.6099997      -5.18771740E-29
  -15.6000004      -1.04669345E-28
  -15.5900002      -1.39530603E-28
  -15.5799999      -6.01904325E-29
  -15.5699997       2.98103357E-28
  -15.5600004       1.09195423E-27
  -15.5500002       2.23332146E-27
  -15.5400000       2.97865519E-27
  -15.5299997       1.53253728E-27
  -15.5200005      -4.79871253E-27
  -15.5100002      -1.80544084E-26
  -15.5000000      -3.59765408E-26
  -15.4899998      -4.68241333E-26
  -15.4799995      -2.58652946E-26
  -15.4700003       5.98191930E-26
  -15.4600000       2.29979282E-25
  -15.4499998       4.49639228E-25
  -15.4399996       5.78814166E-25
  -15.4300003       3.50420149E-25
  -15.4200001      -5.61533231E-25
  -15.4099998      -2.32092522E-24
  -15.3999996      -4.55037610E-24
  -15.3900003      -5.92548372E-24
  -15.3800001      -4.06764253E-24
  -15.3699999       3.78896401E-24
  -15.3599997       1.89552089E-23
  -15.3500004       3.83703080E-23
  -15.3400002       5.17152692E-23
  -15.3299999       4.09177986E-23
  -15.3199997      -1.48081829E-23
  -15.3100004      -1.26066915E-22
  -15.3000002      -2.73703407E-22
  -15.2900000      -3.90015936E-22
  -15.2799997      -3.55487053E-22
  -15.2700005      -2.95947511E-23
  -15.2600002       6.71471789E-22
  -15.2500000       1.65784120E-21
  -15.2399998       2.55219025E-21
  -15.2299995       2.66005533E-21
  -15.2200003       1.12423145E-21
  -15.2100000      -2.66713766E-21
  -15.1999998      -8.45270907E-21
  -15.1899996      -1.44569409E-20
  -15.1800003      -1.71318960E-20
  -15.1700001      -1.17779121E-20
  -15.1599998       5.58714581E-21
  -15.1499996       3.51978760E-20
  -15.1400003       7.02125638E-20
  -15.1300001       9.48207864E-20
  -15.1199999       8.60505651E-20
  -15.1099997       2.11505462E-20
  -15.1000004      -1.09340999E-19
  -15.0900002      -2.85868527E-19
  -15.0799999      -4.48238265E-19
  -15.0699997      -4.97540556E-19
  -15.0600004      -3.20447133E-19
  -15.0500002       1.61102329E-19
  -15.0400000       9.23229413E-19
  -15.0299997       1.77955894E-18
  -15.0200005       2.36228907E-18
  -15.0100002       2.18264964E-18
  -15.0000000       7.92964080E-19
  -14.9899998      -1.96399478E-18
  -14.9799995      -5.68495013E-18
  -14.9700003      -9.23365091E-18
  -14.9600000      -1.08100074E-17
  -14.9499998      -8.37701192E-18
  -14.9399996      -4.62620558E-19
  -14.9300003       1.28105420E-17
  -14.9200001       2.88046987E-17
  -14.9099998       4.20363228E-17
  -14.8999996       4.49226174E-17
  -14.8900003       2.98871440E-17
  -14.8800001      -7.33309675E-18
  -14.8699999      -6.39413525E-17
  -14.8599997      -1.27254207E-16
  -14.8500004      -1.74485545E-16
  -14.8400002      -1.76630960E-16
  -14.8299999      -1.07026875E-16
  -14.8199997       4.64537121E-17
  -14.8100004       2.68599494E-16
  -14.8000002       5.08263973E-16
  -14.7900000       6.79542029E-16
  -14.7799997       6.77248899E-16
  -14.7700005       4.07948987E-16
  -14.7600002      -1.67593635E-16
  -14.7500000      -9.91068147E-16
  -14.7399998      -1.87842876E-15
  -14.7299995      -2.52514794E-15
  -14.7200003      -2.55964590E-15
  -14.7100000      -1.64888950E-15
  -14.6999998       3.57248030E-16
  -14.6899996       3.27734899E-15
  -14.6800003       6.49853291E-15
  -14.6700001       8.98639361E-15
  -14.6599998       9.45543557E-15
  -14.6499996       6.71628306E-15
  -14.6400003       1.58806396E-16
  -14.6300001      -9.74004880E-15
  -14.6199999      -2.10578472E-14
  -14.6099997      -3.04216626E-14
  -14.6000004      -3.35285016E-14
  -14.5900002      -2.62521870E-14
  -14.5799999      -6.21147344E-15
  -14.5699997       2.55544284E-14
  -14.5600004       6.33617643E-14
  -14.5500002       9.67608968E-14
  -14.5400000       1.12066166E-13
  -14.5299997       9.57306337E-14
  -14.5200005       3.91774456E-14
  -14.5100002      -5.59997436E-14
  -14.5000000      -1.74160260E-13
  -14.4899998      -2.85009240E-13
  -14.4799995      -3.47856184E-13
  -14.4700003      -3.21266776E-13
  -14.4600000      -1.76939247E-13
  -14.4499998       8.53269752E-14
  -14.4399996       4.26329138E-13
  -14.4300003       7.65154650E-13
  -14.4200001       9.90121613E-13
  -14.4099998       9.84223120E-13
  -14.3999996       6.61824057E-13
  -14.3900003       8.32153628E-15
  -14.3800001      -8.89467753E-13
  -14.3699999      -1.83555558E-12
  -14.3599997      -2.54999450E-12
  -14.3500004      -2.72983849E-12
  -14.3400002      -2.13767936E-12
  -14.3299999      -6.97908582E-13
  -14.3199997       1.42790445E-12
  -14.3100004       3.81706212E-12
  -14.3000002       5.83627938E-12
  -14.2900000       6.77256385E-12
  -14.2799997       6.02639856E-12
  -14.2700005       3.32443491E-12
  -14.2600002      -1.10872043E-12
  -14.2500000      -6.48302158E-12
  -14.2399998      -1.15270102E-11
  -14.2299995      -1.47355878E-11
  -14.2200003      -1.47465581E-11
  -14.2100000      -1.07639739E-11
  -14.1999998      -2.91386381E-12
  -14.1899996       7.58630051E-12
  -14.1800003       1.85323337E-11
  -14.1700001       2.71366454E-11
  -14.1599998       3.06718366E-11
  -14.1499996       2.72160523E-11
  -14.1400003       1.63081250E-11
  -14.1300001      -6.84379745E-13
  -14.1199999      -2.06299873E-11
  -14.1099997      -3.91749307E-11
  -14.1000004      -5.16776795E-11
  -14.0900002      -5.43325801E-11
  -14.0799999      -4.52032300E-11
  -14.0699997      -2.48835934E-11
  -14.0600004       3.41839599E-12
  -14.0500002       3.44368839E-11
  -14.0400000       6.19356233E-11
  -14.0299997       8.00681327E-11
  -14.0200005       8.46684736E-11
  -14.0100002       7.41434275E-11
  -14.0000000       4.97472306E-11
  -13.9899998       1.51960423E-11
  -13.9799995      -2.42291569E-11
  -13.9700003      -6.27997931E-11
  -13.9600000      -9.53387438E-11
  -13.9499998      -1.17830953E-10
  -13.9399996      -1.27540006E-10
  -13.9300003      -1.22730173E-10
  -13.9200001      -1.02266605E-10
  -13.9099998      -6.54362189E-11
  -13.8999996      -1.22622563E-11
  -13.8900003       5.56195437E-11
  -13.8800001       1.33733788E-10
  -13.8699999       2.13658660E-10
  -13.8599997       2.82650625E-10
  -13.8500004       3.24552829E-10
  -13.8400002       3.22261023E-10
  -13.8299999       2.61575761E-10
  -13.8199997       1.35762443E-10
  -13.8100004      -5.02680050E-11
  -13.8000002      -2.77421003E-10
  -13.7900000      -5.12630716E-10
  -13.7799997      -7.12436388E-10
  -13.7700005      -8.29792235E-10
  -13.7600002      -8.23148938E-10
  -13.7500000      -6.66144473E-10
  -13.7399998      -3.55853402E-10
  -13.7299995       8.23940222E-11
  -13.7200003       5.95084038E-10
  -13.7100000       1.10605036E-09
  -13.6999998       1.52694857E-09
  -13.6899996       1.77114245E-09
  -13.6800003       1.76873227E-09
  -13.6700001       1.48016288E-09
  -13.6599998       9.06049236E-10
  -13.6499996       9.14825368E-11
  -13.6400003      -8.76007267E-10
  -13.6300001      -1.87470017E-09
  -13.6199999      -2.76215251E-09
  -13.6099997      -3.39230199E-09
  -13.6000004      -3.63434083E-09
  -13.5900002      -3.39142692E-09
  -13.5799999      -2.61742250E-09
  -13.5699997      -1.32994971E-09
  -13.5600004       3.81849607E-10
  -13.5500002       2.35644415E-09
  -13.5400000       4.36741354E-09
  -13.5299997       6.14046947E-09
  -13.5200005       7.38041139E-09
  -13.5100002       7.80716647E-09
  -13.5000000       7.19835391E-09
  -13.4899998       5.43377743E-09
  -13.4799995       2.53546162E-09
  -13.4700003      -1.30443223E-09
  -13.4600000      -5.71550052E-09
  -13.4499998      -1.01670228E-08
  -13.4399996      -1.40150966E-08
  -13.4300003      -1.65776424E-08
  -13.4200001      -1.72308443E-08
  -13.4099998      -1.55153845E-08
  -13.3999996      -1.12371383E-08
  -13.3900003      -4.54502391E-09
  -13.3800001       4.03022504E-09
  -13.3699999       1.35887834E-08
  -13.3599997       2.29320509E-08
  -13.3500004       3.06883265E-08
  -13.3400002       3.54832963E-08
  -13.3299999       3.61364876E-08
  -13.3199997       3.18592726E-08
  -13.3100004       2.24267804E-08
  -13.3000002       8.29636004E-09
  -13.2900000      -9.35059408E-09
  -13.2799997      -2.86597253E-08
  -13.2700005      -4.72539519E-08
  -13.2600002      -6.24772767E-08
  -13.2500000      -7.17137212E-08
  -13.2399998      -7.27504244E-08
  -13.2299995      -6.41429168E-08
  -13.2200003      -4.55334614E-08
  -13.2100000      -1.78703630E-08
  -13.1999998       1.65182978E-08
  -13.1899996       5.40315597E-08
  -13.1800003       9.00976787E-08
  -13.1700001       1.19659632E-07
  -13.1599998       1.37802573E-07
  -13.1499996       1.40453565E-07
  -13.1400003       1.25061703E-07
  -13.1300001       9.11562452E-08
  -13.1199999       4.06850624E-08
  -13.1099997      -2.19435901E-08
  -13.1000004      -9.01564192E-08
  -13.0900002      -1.55841960E-07
  -13.0799999      -2.10253631E-07
  -13.0699997      -2.45088700E-07
  -13.0600004      -2.53610295E-07
  -13.0500002      -2.31666505E-07
  -13.0400000      -1.78466237E-07
  -13.0299997      -9.69985052E-08
  -13.0200005       5.97695538E-09
  -13.0100002       1.20391135E-07
  -13.0000000       2.33750427E-07
  -12.9899998       3.32371485E-07
  -12.9799995       4.02854937E-07
  -12.9700003       4.33660546E-07
  -12.9600000       4.16630058E-07
  -12.9499998       3.48296027E-07
  -12.9399996       2.30818742E-07
  -12.9300003       7.24019955E-08
  -12.9200001      -1.12926926E-07
  -12.9099998      -3.06248978E-07
  -12.8999996      -4.85399880E-07
  -12.8900003      -6.27248937E-07
  -12.8800001      -7.10426093E-07
  -12.8699999      -7.18213755E-07
  -12.8599997      -6.41239467E-07
  -12.8500004      -4.79567973E-07
  -12.8400002      -2.43809012E-07
  -12.8299999       4.50525839E-08
  -12.8199997       3.57244772E-07
  -12.8100004       6.57154089E-07
  -12.8000002       9.07351932E-07
  -12.7900000       1.07322853E-06
  -12.7799997       1.12762450E-06
  -12.7700005       1.05481081E-06
  -12.7600002       8.53223582E-07
  -12.7500000       5.36527011E-07
  -12.7399998       1.32802839E-07
  -12.7299995      -3.18058881E-07
  -12.7200003      -7.68452310E-07
  -12.7100000      -1.16811930E-06
  -12.6999998      -1.46957052E-06
  -12.6899996      -1.63324444E-06
  -12.6800003      -1.63187042E-06
  -12.6700001      -1.45363606E-06
  -12.6599998      -1.10392841E-06
  -12.6499996      -6.05566242E-07
  -12.6400003       2.44616283E-09
  -12.6300001       6.67539496E-07
  -12.6199999       1.32742639E-06
  -12.6099997       1.91499862E-06
  -12.6000004       2.36404594E-06
  -12.5900002       2.61548598E-06
  -12.5799999       2.62368098E-06
  -12.5699997       2.36227970E-06
  -12.5600004       1.82893154E-06
  -12.5500002       1.04816013E-06
  -12.5400000       7.17880440E-08
  -12.5299997      -1.02352658E-06
  -12.5200005      -2.14171291E-06
  -12.5100002      -3.17536797E-06
  -12.5000000      -4.01573561E-06
  -12.4899998      -4.56349335E-06
  -12.4799995      -4.73903447E-06
  -12.4700003      -4.49093523E-06
  -12.4600000      -3.80151596E-06
  -12.4499998      -2.68881286E-06
  -12.4399996      -1.20478785E-06
  -12.4300003       5.69820656E-07
  -12.4200001       2.53319286E-06
  -12.4099998       4.57152146E-06
  -12.3999996       6.56833163E-06
  -12.3900003       8.41297697E-06
  -12.3800001       1.00075786E-05
  -12.3699999       1.12720845E-05
  -12.3599997       1.21474486E-05
  -12.3500004       1.25972392E-05
  -12.3400002       1.26080222E-05
  -12.3299999       1.21888861E-05
  -12.3199997       1.13702163E-05
  -12.3100004       1.02016847E-05
  -12.3000002       8.74924172E-06
  -12.2900000       7.09086635E-06
  -12.2799997       5.31097248E-06
  -12.2700005       3.49364382E-06
  -12.2600002       1.71520469E-06
  -12.2500000       3.69591717E-08
  -12.2399998      -1.50087942E-06
  -12.2299995      -2.88304363E-06
  -12.2200003      -4.12009285E-06
  -12.2100000      -5.24598317E-06
  -12.1999998      -6.31256762E-06
  -12.1899996      -7.38178323E-06
  -12.1800003      -8.51673030E-06
  -12.1700001      -9.77296622E-06
  -12.1599998      -1.11912877E-05
  -12.1499996      -1.27928452E-05
  -12.1400003      -1.45769336E-05
  -12.1300001      -1.65212568E-05
  -12.1199999      -1.85839453E-05
  -12.1099997      -2.07064695E-05
  -12.1000004      -2.28165391E-05
  -12.0900002      -2.48304714E-05
  -12.0799999      -2.66549087E-05
  -12.0699997      -2.81883840E-05
  -12.0600004      -2.93233898E-05
  -12.0500002      -2.99499825E-05
  -12.0400000      -2.99615276E-05
  -12.0299997      -2.92628065E-05
  -12.0200005      -2.77800300E-05
  -12.0100002      -2.54715633E-05
  -12.0000000      -2.23376919E-05
  -11.9899998      -1.84275414E-05
  -11.9799995      -1.38414880E-05
  -11.9700003      -8.72801411E-06
  -11.9600000      -3.27486441E-06
  -11.9499998       2.30464707E-06
  -11.9399996       7.78847516E-06
  -11.9300003       1.29635891E-05
  -11.9200001       1.76422582E-05
  -11.9099998       2.16749668E-05
  -11.8999996       2.49586537E-05
  -11.8900003       2.74400300E-05
  -11.8800001       2.91144661E-05
  -11.8699999       3.00215706E-05
  -11.8599997       3.02389053E-05
  -11.8500004       2.98749237E-05
  -11.8400002       2.90619937E-05
  -11.8299999       2.79494616E-05
  -11.8199997       2.66965471E-05
  -11.8100004       2.54643164E-05
  -11.8000002       2.44062921E-05
  -11.7900000       2.36576452E-05
  -11.7799997       2.33235678E-05
  -11.7700005       2.34680774E-05
  -11.7600002       2.41049765E-05
  -11.7500000       2.51926849E-05
  -11.7399998       2.66343413E-05
  -11.7299995       2.82837373E-05
  -11.7200003       2.99567146E-05
  -11.7100000       3.14467361E-05
  -11.6999998       3.25426045E-05
  -11.6899996       3.30460825E-05
  -11.6800003       3.27873677E-05
  -11.6700001       3.16369042E-05
  -11.6599998       2.95128975E-05
  -11.6499996       2.63846177E-05
  -11.6400003       2.22722501E-05
  -11.6300001       1.72442542E-05
  -11.6199999       1.14131481E-05
  -11.6099997       4.93035077E-06
  -11.6000004      -2.01978787E-06
  -11.5900002      -9.22692652E-06
  -11.5799999      -1.64630128E-05
  -11.5699997      -2.34921008E-05
  -11.5600004      -3.00816191E-05
  -11.5500002      -3.60144950E-05
  -11.5400000      -4.11011861E-05
  -11.5299997      -4.51903870E-05
  -11.5200005      -4.81772768E-05
  -11.5100002      -5.00084279E-05
  -11.5000000      -5.06830474E-05
  -11.4899998      -5.02507282E-05
  -11.4799995      -4.88064907E-05
  -11.4700003      -4.64839213E-05
  -11.4600000      -4.34474423E-05
  -11.4499998      -3.98843840E-05
  -11.4399996      -3.59971928E-05
  -11.4300003      -3.19956343E-05
  -11.4200001      -2.80887962E-05
  -11.4099998      -2.44764869E-05
  -11.3999996      -2.13398362E-05
  -11.3900003      -1.88313879E-05
  -11.3800001      -1.70653220E-05
  -11.3699999      -1.61087628E-05
  -11.3599997      -1.59754454E-05
  -11.3500004      -1.66227637E-05
  -11.3400002      -1.79530016E-05
  -11.3299999      -1.98189355E-05
  -11.3199997      -2.20334132E-05
  -11.3100004      -2.43820177E-05
  -11.3000002      -2.66374682E-05
  -11.2900000      -2.85743299E-05
  -11.2799997      -2.99827589E-05
  -11.2700005      -3.06801776E-05
  -11.2600002      -3.05204449E-05
  -11.2500000      -2.94002002E-05
  -11.2399998      -2.72627185E-05
  -11.2299995      -2.40996524E-05
  -11.2200003      -1.99511323E-05
  -11.2100000      -1.49045818E-05
  -11.1999998      -9.09249593E-06
  -11.1899996      -2.68906251E-06
  -11.1800003       4.09460290E-06
  -11.1700001       1.10170431E-05
  -11.1599998       1.78152477E-05
  -11.1499996       2.42159003E-05
  -11.1400003       2.99490002E-05
  -11.1300001       3.47633577E-05
  -11.1199999       3.84428895E-05
  -11.1099997       4.08222804E-05
  -11.1000004       4.18001764E-05
  -11.0900002       4.13481284E-05
  -11.0799999       3.95138632E-05
  -11.0699997       3.64180014E-05
  -11.0600004       3.22443957E-05
  -11.0500002       2.72251455E-05
  -11.0400000       2.16222779E-05
  -11.0299997       1.57085342E-05
  -11.0200005       9.74977957E-06
  -11.0100002       3.99098099E-06
  -11.0000000      -1.35311598E-06
  -10.9899998      -6.10262532E-06
  -10.9799995      -1.01134874E-05
  -10.9700003      -1.32764317E-05
  -10.9600000      -1.55157049E-05
  -10.9499998      -1.67889866E-05
  -10.9399996      -1.70890326E-05
  -10.9300003      -1.64466364E-05
  -10.9200001      -1.49336392E-05
  -10.9099998      -1.26642653E-05
  -10.8999996      -9.79312244E-06
  -10.8900003      -6.50875654E-06
  -10.8800001      -3.02276953E-06
  -10.8699999       4.44750071E-07
  -10.8599997       3.68159817E-06
  -10.8500004       6.49942876E-06
  -10.8400002       8.74717443E-06
  -10.8299999       1.03201946E-05
  -10.8199997       1.11643030E-05
  -10.8100004       1.12747703E-05
  -10.8000002       1.06910702E-05
  -10.7900000       9.48882825E-06
  -10.7799997       7.77051173E-06
  -10.7700005       5.65633081E-06
  -10.7600002       3.27643647E-06
  -10.7500000       7.64944616E-07
  -10.7399998      -1.74411593E-06
  -10.7299995      -4.11942528E-06
  -10.7200003      -6.23421101E-06
  -10.7100000      -7.96821223E-06
  -10.6999998      -9.21047376E-06
  -10.6899996      -9.86338546E-06
  -10.6800003      -9.84793769E-06
  -10.6700001      -9.10959989E-06
  -10.6599998      -7.62378431E-06
  -10.6499996      -5.39950543E-06
  -10.6400003      -2.47998878E-06
  -10.6300001       1.06059088E-06
  -10.6199999       5.12449969E-06
  -10.6099997       9.60097168E-06
  -10.6000004       1.43784191E-05
  -10.5900002       1.93559681E-05
  -10.5799999       2.44522489E-05
  -10.5699997       2.96095313E-05
  -10.5600004       3.47926543E-05
  -10.5500002       3.99829187E-05
  -10.5400000       4.51686610E-05
  -10.5299997       5.03346382E-05
  -10.5200005       5.54525795E-05
  -10.5100002       6.04749221E-05
  -10.5000000       6.53326570E-05
  -10.4899998       6.99373122E-05
  -10.4799995       7.41860058E-05
  -10.4700003       7.79681577E-05
  -10.4600000       8.11720092E-05
  -10.4499998       8.36899562E-05
  -10.4399996       8.54219470E-05
  -10.4300003       8.62771631E-05
  -10.4200001       8.61744338E-05
  -10.4099998       8.50427168E-05
  -10.3999996       8.28218472E-05
  -10.3900003       7.94643711E-05
  -10.3800001       7.49386236E-05
  -10.3699999       6.92324611E-05
  -10.3599997       6.23575252E-05
  -10.3500004       5.43534770E-05
  -10.3400002       4.52916684E-05
  -10.3299999       3.52781717E-05
  -10.3199997       2.44556177E-05
  -10.3100004       1.30034578E-05
  -10.3000002       1.13638237E-06
  -10.2900000      -1.08996837E-05
  -10.2799997      -2.28341742E-05
  -10.2700005      -3.43810279E-05
  -10.2600002      -4.52497879E-05
  -10.2500000      -5.51579433E-05
  -10.2399998      -6.38431957E-05
  -10.2299995      -7.10746172E-05
  -10.2200003      -7.66617159E-05
  -10.2100000      -8.04611336E-05
  -10.1999998      -8.23808514E-05
  -10.1899996      -8.23824084E-05
  -10.1800003      -8.04817610E-05
  -10.1700001      -7.67490710E-05
  -10.1599998      -7.13075133E-05
  -10.1499996      -6.43309031E-05
  -10.1400003      -5.60393855E-05
  -10.1300001      -4.66928759E-05
  -10.1199999      -3.65818669E-05
  -10.1099997      -2.60159686E-05
  -10.1000004      -1.53111087E-05
  -10.0900002      -4.77674803E-06
  -10.0799999       5.29551062E-06
  -10.0699997       1.46406837E-05
  -10.0600004       2.30260030E-05
  -10.0500002       3.02536355E-05
  -10.0400000       3.61614839E-05
  -10.0299997       4.06233594E-05
  -10.0200005       4.35498441E-05
  -10.0100002       4.48908650E-05
  -10.0000000       4.46398371E-05
  -9.98999977       4.28389576E-05
  -9.97999954       3.95839161E-05
  -9.97000027       3.50267619E-05
  -9.96000004       2.93750709E-05
  -9.94999981       2.28867520E-05
  -9.93999958       1.58606217E-05
  -9.93000031       8.62320303E-06
  -9.92000008       1.51362838E-06
  -9.90999985      -5.13183431E-06
  -9.89999962      -1.09937810E-05
  -9.89000034      -1.57814375E-05
  -9.88000011      -1.92412936E-05
  -9.86999989      -2.11631832E-05
  -9.85999966      -2.13838848E-05
  -9.85000038      -1.97890586E-05
  -9.84000015      -1.63138757E-05
  -9.82999992      -1.09421126E-05
  -9.81999969      -3.70390376E-06
  -9.81000042       5.32853346E-06
  -9.80000019       1.60467644E-05
  -9.78999996       2.83135323E-05
  -9.77999973       4.19703101E-05
  -9.77000046       5.68438954E-05
  -9.76000023       7.27502047E-05
  -9.75000000       8.94951227E-05
  -9.73999977       1.06871536E-04
  -9.72999954       1.24654078E-04
  -9.72000027       1.42593330E-04
  -9.71000004       1.60411742E-04
  -9.69999981       1.77803886E-04
  -9.68999958       1.94441585E-04
  -9.68000031       2.09984632E-04
  -9.67000008       2.24095071E-04
  -9.65999985       2.36452994E-04
  -9.64999962       2.46770418E-04
  -9.64000034       2.54800863E-04
  -9.63000011       2.60343630E-04
  -9.61999989       2.63242109E-04
  -9.60999966       2.63378199E-04
  -9.60000038       2.60664761E-04
  -9.59000015       2.55039311E-04
  -9.57999992       2.46459997E-04
  -9.56999969       2.34906271E-04
  -9.56000042       2.20382644E-04
  -9.55000019       2.02925774E-04
  -9.53999996       1.82612872E-04
  -9.52999973       1.59569739E-04
  -9.52000046       1.33978305E-04
  -9.51000023       1.06082487E-04
  -9.50000000       7.61921110E-05
  -9.48999977       4.46847371E-05
  -9.47999954       1.20041623E-05
  -9.47000027      -2.13456024E-05
  -9.46000004      -5.48118842E-05
  -9.44999981      -8.78112478E-05
  -9.43999958      -1.19753204E-04
  -9.43000031      -1.50067193E-04
  -9.42000008      -1.78229529E-04
  -9.40999985      -2.03785559E-04
  -9.39999962      -2.26363802E-04
  -9.39000034      -2.45678704E-04
  -9.38000011      -2.61522742E-04
  -9.36999989      -2.73750396E-04
  -9.35999966      -2.82258290E-04
  -9.35000038      -2.86967319E-04
  -9.34000015      -2.87811097E-04
  -9.32999992      -2.84733193E-04
  -9.31999969      -2.77693383E-04
  -9.31000042      -2.66679708E-04
  -9.30000019      -2.51721911E-04
  -9.28999996      -2.32902312E-04
  -9.27999973      -2.10360624E-04
  -9.27000046      -1.84291886E-04
  -9.26000023      -1.54939320E-04
  -9.25000000      -1.22584548E-04
  -9.23999977      -8.75391852E-05
  -9.22999954      -5.01399700E-05
  -9.22000027      -1.07478500E-05
  -9.21000004       3.02502031E-05
  -9.19999981       7.24399069E-05
  -9.18999958       1.15381583E-04
  -9.18000031       1.58617084E-04
  -9.17000008       2.01681731E-04
  -9.15999985       2.44119350E-04
  -9.14999962       2.85496324E-04
  -9.14000034       3.25411413E-04
  -9.13000011       3.63498781E-04
  -9.11999989       3.99424607E-04
  -9.10999966       4.32878209E-04
  -9.10000038       4.63562319E-04
  -9.09000015       4.91186336E-04
  -9.07999992       5.15465275E-04
  -9.06999969       5.36125794E-04
  -9.06000042       5.52917365E-04
  -9.05000019       5.65626309E-04
  -9.03999996       5.74087782E-04
  -9.02999973       5.78193576E-04
  -9.02000046       5.77894039E-04
  -9.01000023       5.73194295E-04
  -9.00000000       5.64148067E-04
  -8.98999977       5.50850644E-04
  -8.97999954       5.33434388E-04
  -8.97000027       5.12066705E-04
  -8.96000004       4.86950652E-04
  -8.94999981       4.58325347E-04
  -8.93999958       4.26465151E-04
  -8.93000031       3.91674956E-04
  -8.92000008       3.54284130E-04
  -8.90999985       3.14638339E-04
  -8.89999962       2.73094338E-04
  -8.89000034       2.30018544E-04
  -8.88000011       1.85790705E-04
  -8.86999989       1.40811884E-04
  -8.85999966       9.55129726E-05
  -8.85000038       5.03600677E-05
  -8.84000015       5.85228781E-06
  -8.82999992      -3.74890260E-05
  -8.81999969      -7.91397833E-05
  -8.81000042      -1.18596668E-04
  -8.80000019      -1.55400936E-04
  -8.78999996      -1.89155573E-04
  -8.77999973      -2.19532929E-04
  -8.77000046      -2.46272451E-04
  -8.76000023      -2.69169919E-04
  -8.75000000      -2.88063864E-04
  -8.73999977      -3.02824104E-04
  -8.72999954      -3.13347206E-04
  -8.72000027      -3.19560640E-04
  -8.71000004      -3.21434170E-04
  -8.69999981      -3.18994164E-04
  -8.68999958      -3.12336517E-04
  -8.68000031      -3.01632972E-04
  -8.67000008      -2.87128612E-04
  -8.65999985      -2.69132084E-04
  -8.64999962      -2.48001073E-04
  -8.64000034      -2.24127652E-04
  -8.63000011      -1.97927555E-04
  -8.61999989      -1.69835257E-04
  -8.60999966      -1.40302684E-04
  -8.60000038      -1.09799323E-04
  -8.59000015      -7.88083416E-05
  -8.57999992      -4.78154616E-05
  -8.56999969      -1.72905184E-05
  -8.56000042       1.23363443E-05
  -8.55000019       4.06970976E-05
  -8.53999996       6.75008268E-05
  -8.52999973       9.25349595E-05
  -8.52000046       1.15651208E-04
  -8.51000023       1.36738468E-04
  -8.50000000       1.55689791E-04
  -8.48999977       1.72372558E-04
  -8.47999954       1.86611462E-04
  -8.47000027       1.98189649E-04
  -8.46000004       2.06869096E-04
  -8.44999981       2.12425526E-04
  -8.43999958       2.14689135E-04
  -8.43000031       2.13579973E-04
  -8.42000008       2.09131569E-04
  -8.40999985       2.01495815E-04
  -8.39999962       1.90932231E-04
  -8.39000034       1.77785070E-04
  -8.38000011       1.62457232E-04
  -8.36999989       1.45387748E-04
  -8.35999966       1.27036154E-04
  -8.35000038       1.07875654E-04
  -8.34000015       8.83897592E-05
  -8.32999992       6.90683664E-05
  -8.31999969       5.03973970E-05
  -8.31000042       3.28407477E-05
  -8.30000019       1.68159459E-05
  -8.28999996       2.66887810E-06
  -8.27999973      -9.34447235E-06
  -8.27000046      -1.90647115E-05
  -8.26000023      -2.64197770E-05
  -8.25000000      -3.14026911E-05
  -8.23999977      -3.40409097E-05
  -8.22999954      -3.43656830E-05
  -8.22000027      -3.23894783E-05
  -8.21000004      -2.80960812E-05
  -8.19999981      -2.14444426E-05
  -8.18999958      -1.23830778E-05
  -8.18000031      -8.69574535E-07
  -8.17000008       1.31117849E-05
  -8.15999985       2.95375976E-05
  -8.14999962       4.83406366E-05
  -8.14000034       6.94112459E-05
  -8.13000011       9.26005887E-05
  -8.11999989       1.17723866E-04
  -8.10999966       1.44560792E-04
  -8.10000038       1.72854721E-04
  -8.09000015       2.02312862E-04
  -8.07999992       2.32611244E-04
  -8.06999969       2.63406720E-04
  -8.06000042       2.94354104E-04
  -8.05000019       3.25127301E-04
  -8.03999996       3.55436438E-04
  -8.02999973       3.85037478E-04
  -8.02000046       4.13730508E-04
  -8.01000023       4.41346812E-04
  -8.00000000       4.67729522E-04
  -7.98999977       4.92714054E-04
  -7.98000002       5.16115455E-04
  -7.96999979       5.37727610E-04
  -7.96000004       5.57333231E-04
  -7.94999981       5.74722188E-04
  -7.94000006       5.89710660E-04
  -7.92999983       6.02154352E-04
  -7.92000008       6.11951749E-04
  -7.90999985       6.19036437E-04
  -7.90000010       6.23362954E-04
  -7.88999987       6.24893757E-04
  -7.88000011       6.23591826E-04
  -7.86999989       6.19425788E-04
  -7.86000013       6.12384407E-04
  -7.84999990       6.02495566E-04
  -7.84000015       5.89843781E-04
  -7.82999992       5.74576727E-04
  -7.82000017       5.56898012E-04
  -7.80999994       5.37047104E-04
  -7.80000019       5.15275402E-04
  -7.78999996       4.91823652E-04
  -7.78000021       4.66911762E-04
  -7.76999998       4.40743548E-04
  -7.76000023       4.13525559E-04
  -7.75000000       3.85489955E-04
  -7.73999977       3.56914359E-04
  -7.73000002       3.28124792E-04
  -7.71999979       2.99482461E-04
  -7.71000004       2.71352968E-04
  -7.69999981       2.44069510E-04
  -7.69000006       2.17900699E-04
  -7.67999983       1.93035783E-04
  -7.67000008       1.69591411E-04
  -7.65999985       1.47638522E-04
  -7.65000010       1.27240215E-04
  -7.63999987       1.08487489E-04
  -7.63000011       9.15201235E-05
  -7.61999989       7.65258446E-05
  -7.61000013       6.37179546E-05
  -7.59999990       5.33008024E-05
  -7.59000015       4.54343099E-05
  -7.57999992       4.02109945E-05
  -7.57000017       3.76517819E-05
  -7.55999994       3.77219112E-05
  -7.55000019       4.03584854E-05
  -7.53999996       4.54993642E-05
  -7.53000021       5.31008227E-05
  -7.51999998       6.31387447E-05
  -7.51000023       7.55933070E-05
  -7.50000000       9.04244662E-05
  -7.48999977       1.07549276E-04
  -7.48000002       1.26828876E-04
  -7.46999979       1.48072140E-04
  -7.46000004       1.71053631E-04
  -7.44999981       1.95539062E-04
  -7.44000006       2.21307055E-04