  -16.0000000       0.00000000    
  -15.9899998       0.00000000    
  -15.9799995       0.00000000    
  -15.9700003       0.00000000    
  -15.9600000       0.00000000    
  -15.9499998       0.00000000    
  -15.9399996       0.00000000    
  -15.9300003       0.00000000    
  -15.9200001       0.00000000    
  -15.9099998       0.00000000    
  -15.8999996       0.00000000    
  -15.8900003       0.00000000    
  -15.8800001       0.00000000    
  -15.8699999       0.00000000    
  -15.8599997      -0.00000000    
  -15.8500004      -0.00000000    
  -15.8400002       0.00000000    
  -15.8299999       4.20389539E-45
  -15.8199997       2.38220739E-44
  -15.8100004       1.10702579E-43
  -15.8000002       4.62428493E-43
  -15.7900000       1.77684645E-42
  -15.7799997       6.23297557E-42
  -15.7700005       1.97372889E-41
  -15.7600002       5.56637789E-41
  -15.7500000       1.37887769E-40
  -15.7399998       2.94339940E-40
  -15.7299995       5.22027118E-40
  -15.7200003       6.97423443E-40
  -15.7100000       4.19393216E-40
  -15.6999998      -1.17701224E-39
  -15.6899996      -5.51412767E-39
  -15.6800003      -1.43853867E-38
  -15.6700001      -2.93085862E-38
  -15.6599998      -5.02339603E-38
  -15.6499996      -7.30515218E-38
  -15.6400003      -8.42412768E-38
  -15.6300001      -4.99795462E-38
  -15.6199999       1.00091812E-37
  -15.6099997       4.80151309E-37
  -15.6000004       1.20218117E-36
  -15.5900002       2.19993079E-36
  -15.5799999       2.86477996E-36
  -15.5699997       1.59896845E-36
  -15.5600004      -4.22864434E-36
  -15.5500002      -1.69531411E-35
  -15.5400000      -3.48420888E-35
  -15.5299997      -4.60225467E-35
  -15.5200005      -2.36223138E-35
  -15.5100002       6.92753489E-35
  -15.5000000       2.52965650E-34
  -15.4899998       4.76590639E-34
  -15.4799995       5.52678597E-34
  -15.4700003       1.39105327E-34
  -15.4600000      -1.13235959E-33
  -15.4499998      -3.28917462E-33
  -15.4399996      -5.44228391E-33
  -15.4300003      -5.30338235E-33
  -15.4200001       5.50627543E-34
  -15.4099998       1.48371015E-32
  -15.3999996       3.57551057E-32
  -15.3900003       5.22440882E-32
  -15.3800001       4.17242308E-32
  -15.3699999      -2.40686862E-32
  -15.3599997      -1.59846120E-31
  -15.3500004      -3.34556366E-31
  -15.3400002      -4.39282850E-31
  -15.3299999      -2.84817344E-31
  -15.3199997       3.31449252E-31
  -15.3100004       1.46269517E-30
  -15.3000002       2.77915885E-30
  -15.2900000       3.38025532E-30
  -15.2799997       1.86595058E-30
  -15.2700005      -3.08982828E-30
  -15.2600002      -1.15597197E-29
  -15.2500000      -2.08497309E-29
  -15.2399998      -2.44915155E-29
  -15.2299995      -1.30897348E-29
  -15.2200003       2.16295174E-29
  -15.2100000       7.92646140E-29
  -15.1999998       1.41710010E-28
  -15.1899996       1.67855977E-28
  -15.1800003       9.97012103E-29
  -15.1700001      -1.13115559E-28
  -15.1599998      -4.69716836E-28
  -15.1499996      -8.67517040E-28
  -15.1400003      -1.07341185E-27
  -15.1300001      -7.56832546E-28
  -15.1199999       3.80213406E-28
  -15.1099997       2.37426679E-27
  -15.1000004       4.73463376E-27
  -15.0900002       6.28121174E-27
  -15.0799999       5.28116954E-27
  -15.0699997       5.56047933E-29
  -15.0600004      -9.92511511E-27
  -15.0500002      -2.27276266E-26
  -15.0400000      -3.30492691E-26
  -15.0299997      -3.26009095E-26
  -15.0200005      -1.25851510E-26
  -15.0100002       3.15403353E-26
  -15.0000000       9.40225009E-26
  -14.9899998       1.54013900E-25
  -14.9799995       1.75709066E-25
  -14.9700003       1.17030326E-25
  -14.9600000      -5.17037310E-26
  -14.9499998      -3.22227247E-25
  -14.9399996      -6.24993492E-25
  -14.9300003      -8.22296676E-25
  -14.9200001      -7.33029669E-25
  -14.9099998      -1.97645698E-25
  -14.8999996       8.23643015E-25
  -14.8900003       2.14841949E-24
  -14.8800001       3.31543921E-24
  -14.8699999       3.63252776E-24
  -14.8599997       2.37179965E-24
  -14.8500004      -8.92564757E-25
  -14.8400002      -5.88260795E-24
  -14.8299999      -1.13089577E-23
  -14.8199997      -1.48638355E-23
  -14.8100004      -1.36975047E-23
  -14.8000002      -5.43561333E-24
  -14.7900000       1.04289510E-23
  -14.7799997       3.12063687E-23
  -14.7700005       5.03928291E-23
  -14.7600002       5.84453161E-23
  -14.7500000       4.53581862E-23
  -14.7399998       4.85597687E-24
  -14.7299995      -6.08054364E-23
  -14.7200003      -1.37227050E-22
  -14.7100000      -1.97636011E-22
  -14.6999998      -2.07852921E-22
  -14.6899996      -1.36937494E-22
  -14.6800003       2.82014082E-23
  -14.6700001       2.68433538E-22
  -14.6599998       5.24356576E-22
  -14.6499996       7.00859268E-22
  -14.6400003       6.88281317E-22
  -14.6300001       3.99228671E-22
  -14.6199999      -1.86611686E-22
  -14.6099997      -9.83789874E-22
  -14.6000004      -1.78633914E-21
  -14.5900002      -2.29285479E-21
  -14.5799999      -2.17865964E-21
  -14.5699997      -1.20722093E-21
  -14.5600004       6.44759267E-22
  -14.5500002       3.08943033E-21
  -14.5400000       5.50347091E-21
  -14.5299997       7.01488822E-21
  -14.5200005       6.71224513E-21
  -14.5100002       3.94862137E-21
  -14.5000000      -1.33068137E-21
  -14.4899998      -8.34121821E-21
  -14.4799995      -1.54063488E-20
  -14.4700003      -2.01847951E-20
  -14.4600000      -2.02011690E-20
  -14.4499998      -1.36097238E-20
  -14.4399996      -2.28086809E-23
  -14.4300003       1.88401112E-20
  -14.4200001       3.89501514E-20
  -14.4099998       5.44233338E-20
  -14.3999996       5.87085494E-20
  -14.3900003       4.63828927E-20
  -14.3800001       1.52062131E-20
  -14.3699999      -3.21010184E-20
  -14.3599997      -8.69809301E-20
  -14.3500004      -1.35612759E-19
  -14.3400002      -1.61244436E-19
  -14.3299999      -1.48166194E-19
  -14.3199997      -8.66982217E-20
  -14.3100004       2.19298020E-20
  -14.3000002       1.62268189E-19
  -14.2900000       3.04379046E-19
  -14.2799997       4.07700703E-19
  -14.2700005       4.29274969E-19
  -14.2600002       3.35389918E-19
  -14.2500000       1.14368887E-19
  -14.2399998      -2.12845605E-19
  -14.2299995      -5.88121176E-19
  -14.2200003      -9.20857990E-19
  -14.2100000      -1.10362396E-18
  -14.1999998      -1.03760306E-18
  -14.1899996      -6.63498992E-19
  -14.1800003       9.42977820E-21
  -14.1700001       8.85274438E-19
  -14.1599998       1.78288545E-18
  -14.1499996       2.46213246E-18
  -14.1400003       2.67459959E-18
  -14.1300001       2.23090466E-18
  -14.1199999       1.06979269E-18
  -14.1099997      -6.90476350E-19
  -14.1000004      -2.73789421E-18
  -14.0900002      -4.60324977E-18
  -14.0799999      -5.74968612E-18
  -14.0699997      -5.70264808E-18
  -14.0600004      -4.19286768E-18
  -14.0500002      -1.27507720E-18
  -14.0400000       2.61622587E-18
  -14.0299997       6.70278471E-18
  -14.0200005       9.99898737E-18
  -14.0100002       1.15304114E-17
  -14.0000000       1.05895869E-17
  -13.9899998       6.96543978E-18
  -13.9799995       1.07924974E-18
  -13.9700003      -6.02468190E-18
  -13.9600000      -1.28532427E-17
  -13.9499998      -1.77795326E-17
  -13.9399996      -1.94326481E-17
  -13.9300003      -1.70663308E-17
  -13.9200001      -1.08048151E-17
  -13.9099998      -1.68706309E-18
  -13.8999996       8.52140374E-18
  -13.8900003       1.77175950E-17
  -13.8800001       2.39595247E-17
  -13.8699999       2.59438482E-17
  -13.8599997       2.33277622E-17
  -13.8500004       1.67962580E-17
  -13.8400002       7.84424805E-18
  -13.8299999      -1.67210911E-18
  -13.8199997      -1.00847991E-17
  -13.8100004      -1.63915384E-17
  -13.8000002      -2.04971518E-17
  -13.7900000      -2.31168907E-17
  -13.7799997      -2.53429627E-17
  -13.7700005      -2.79938500E-17
  -13.7600002      -3.09607979E-17
  -13.7500000      -3.28063206E-17
  -13.7399998      -3.08315294E-17
  -13.7299995      -2.17135126E-17
  -13.7200003      -2.64137030E-18
  -13.7100000       2.73040922E-17
  -13.6999998       6.59241044E-17
  -13.6899996       1.07275935E-16
  -13.6800003       1.42017210E-16
  -13.6700001       1.58887446E-16
  -13.6599998       1.47197690E-16
  -13.6499996       9.98824163E-17
  -13.6400003       1.64070050E-17
  -13.6300001      -9.52871302E-17
  -13.6199999      -2.18529220E-16
  -13.6099997      -3.29785528E-16
  -13.6000004      -4.02600980E-16
  -13.5900002      -4.13033303E-16
  -13.5799999      -3.45520542E-16
  -13.5699997      -1.97840440E-16
  -13.5600004       1.61530143E-17
  -13.5500002       2.66967897E-16
  -13.5400000       5.13400222E-16
  -13.5299997       7.09451556E-16
  -13.5200005       8.12978782E-16
  -13.5100002       7.94292917E-16
  -13.5000000       6.42800386E-16
  -13.4899998       3.70127722E-16
  -13.4799995       8.93633656E-18
  -13.4700003      -3.92368372E-16
  -13.4600000      -7.77831944E-16
  -13.4499998      -1.09315489E-15
  -13.4399996      -1.29381339E-15
  -13.4300003      -1.35039879E-15
  -13.4200001      -1.25035256E-15
  -13.4099998      -9.96420442E-16
  -13.3999996      -6.03175868E-16
  -13.3900003      -9.35589911E-17
  -13.3800001       5.02727077E-16
  -13.3699999       1.14795813E-15
  -13.3599997       1.79262750E-15
  -13.3500004       2.37104808E-15
  -13.3400002       2.79931048E-15
  -13.3299999       2.97884102E-15
  -13.3199997       2.80793370E-15
  -13.3100004       2.20162328E-15
  -13.3000002       1.11754382E-15
  -13.2900000      -4.17332577E-16
  -13.2799997      -2.28618406E-15
  -13.2700005      -4.27557329E-15
  -13.2600002      -6.08839998E-15
  -13.2500000      -7.37899274E-15
  -13.2399998      -7.80789211E-15
  -13.2299995      -7.10857917E-15
  -13.2200003      -5.15404175E-15
  -13.2100000      -2.00894023E-15
  -13.1999998       2.04606272E-15
  -13.1899996       6.52725156E-15
  -13.1800003       1.08007526E-14
  -13.1700001       1.41702175E-14
  -13.1599998       1.59862205E-14
  -13.1499996       1.57589904E-14
  -13.1400003       1.32539387E-14
  -13.1300001       8.55177338E-15
  -13.1199999       2.06089723E-15
  -13.1099997      -5.52131862E-15
  -13.1000004      -1.32925482E-14
  -13.0900002      -2.02605859E-14
  -13.0799999      -2.54707805E-14
  -13.0699997      -2.81258984E-14
  -13.0600004      -2.76823005E-14
  -13.0500002      -2.39124669E-14
  -13.0400000      -1.69314060E-14
  -13.0299997      -7.19108865E-15
  -13.0200005       4.54973117E-15
  -13.0100002       1.72723977E-14
  -13.0000000       2.97579547E-14
  -12.9899998       4.06599159E-14
  -12.9799995       4.85953136E-14
  -12.9700003       5.22602557E-14
  -12.9600000       5.05731490E-14
  -12.9499998       4.28403989E-14
  -12.9399996       2.89281606E-14
  -12.9300003       9.41166175E-15
  -12.9200001      -1.43339269E-14
  -12.9099998      -4.01389059E-14
  -12.8999996      -6.51693868E-14
  -12.8900003      -8.61927310E-14
  -12.8800001      -9.99633454E-14
  -12.8699999      -1.03685527E-13
  -12.8599997      -9.54863765E-14
  -12.8500004      -7.48181356E-14
  -12.8400002      -4.27100135E-14
  -12.8299999      -1.80773475E-15
  -12.8199997       4.38297944E-14
  -12.8100004       8.91647867E-14
  -12.8000002       1.28793420E-13
  -12.7900000       1.57648512E-13
  -12.7799997       1.71685108E-13
  -12.7700005       1.68442178E-13
  -12.7600002       1.47392935E-13
  -12.7500000       1.10033273E-13
  -12.7399998       5.97013419E-14
  -12.7299995       1.16548112E-15
  -12.7200003      -5.99484113E-14
  -12.7100000      -1.17800802E-13
  -12.6999998      -1.66964519E-13
  -12.6899996      -2.02957741E-13
  -12.6800003      -2.22636606E-13
  -12.6700001      -2.24427749E-13
  -12.6599998      -2.08405477E-13
  -12.6499996      -1.76231547E-13
  -12.6400003      -1.30979036E-13
  -12.6300001      -7.68545790E-14
  -12.6199999      -1.88252276E-14
  -12.6099997       3.78501280E-14
  -12.6000004       8.81792740E-14
  -12.5900002       1.28061868E-13
  -12.5799999       1.54929712E-13
  -12.5699997       1.68316560E-13
  -12.5600004       1.70247659E-13
  -12.5500002       1.65327360E-13
  -12.5400000       1.60422714E-13
  -12.5299997       1.63883989E-13
  -12.5200005       1.84319424E-13
  -12.5100002       2.29022395E-13
  -12.5000000       3.02237266E-13
  -12.4899998       4.03511073E-13
  -12.4799995       5.26403411E-13
  -12.4700003       6.57802263E-13
  -12.4600000       7.78028466E-13
  -12.4499998       8.61796420E-13
  -12.4399996       8.79975834E-13
  -12.4300003       8.01980390E-13
  -12.4200001       5.98506487E-13
  -12.4099998       2.44306582E-13
  -12.3999996      -2.79314278E-13
  -12.3900003      -9.82534041E-13
  -12.3800001      -1.86574063E-12
  -12.3699999      -2.91900640E-12
  -12.3599997      -4.12225939E-12
  -12.3500004      -5.44602774E-12
  -12.3400002      -6.85262567E-12
  -12.3299999      -8.29760653E-12
  -12.3199997      -9.73139885E-12
  -12.3100004      -1.11010420E-11
  -12.3000002      -1.23520222E-11
  -12.2900000      -1.34301745E-11
  -12.2799997      -1.42836689E-11
  -12.2700005      -1.48649790E-11
  -12.2600002      -1.51327961E-11
  -12.2500000      -1.50536753E-11
  -12.2399998      -1.46032630E-11
  -12.2299995      -1.37669988E-11
  -12.2200003      -1.25401200E-11
  -12.2100000      -1.09270318E-11
  -12.1999998      -8.94013249E-12
  -12.1899996      -6.59828095E-12
  -12.1800003      -3.92519914E-12
  -12.1700001      -9.48079939E-13
  -12.1599998       2.30338231E-12
  -12.1499996       5.79738774E-12
  -12.1400003       9.49988439E-12
  -12.1300001       1.33739721E-11
  -12.1199999       1.73791311E-11
  -12.1099997       2.14705406E-11
  -12.1000004       2.55987263E-11
  -12.0900002       2.97098110E-11
  -12.0799999       3.37462384E-11
  -12.0699997       3.76481797E-11
  -12.0600004       4.13551866E-11
  -12.0500002       4.48078866E-11
  -12.0400000       4.79495853E-11
  -12.0299997       5.07273494E-11
  -12.0200005       5.30926206E-11
  -12.0100002       5.50012882E-11
  -12.0000000       5.64133497E-11
  -11.9899998       5.72924798E-11
  -11.9799995       5.76056425E-11
  -11.9700003       5.73230109E-11
  -11.9600000       5.64183041E-11
  -11.9499998       5.48697129E-11
  -11.9399996       5.26610318E-11
  -11.9300003       4.97830666E-11
  -11.9200001       4.62350991E-11
  -11.9099998       4.20258238E-11
  -11.8999996       3.71740486E-11
  -11.8900003       3.17087849E-11
  -11.8800001       2.56687813E-11
  -11.8699999       1.91014825E-11
  -11.8599997       1.20618454E-11
  -11.8500004       4.61083255E-12
  -11.8400002      -3.18623752E-12
  -11.8299999      -1.12611830E-11
  -11.8199997      -1.95445275E-11
  -11.8100004      -2.79668545E-11
  -11.8000002      -3.64602931E-11
  -11.7900000      -4.49598796E-11
  -11.7799997      -5.34047979E-11
  -11.7700005      -6.17394330E-11
  -11.7600002      -6.99140815E-11
  -11.7500000      -7.78852816E-11
  -11.7399998      -8.56155563E-11
  -11.7299995      -9.30724525E-11
  -11.7200003      -1.00227084E-10
  -11.7100000      -1.07052381E-10
  -11.6999998      -1.13520804E-10
  -11.6899996      -1.19602425E-10
  -11.6800003      -1.25263216E-10
  -11.6700001      -1.30463876E-10
  -11.6599998      -1.35159564E-10
  -11.6499996      -1.39300266E-10
  -11.6400003      -1.42831830E-10
  -11.6300001      -1.45697884E-10
  -11.6199999      -1.47841461E-10
  -11.6099997      -1.49207327E-10
  -11.6000004      -1.49743551E-10
  -11.5900002      -1.49403198E-10
  -11.5799999      -1.48145066E-10
  -11.5699997      -1.45934403E-10
  -11.5600004      -1.42742457E-10
  -11.5500002      -1.38546272E-10
  -11.5400000      -1.33327988E-10
  -11.5299997      -1.27074032E-10
  -11.5200005      -1.19773969E-10
  -11.5100002      -1.11419873E-10
  -11.5000000      -1.02005494E-10
  -11.4899998      -9.15258286E-11
  -11.4799995      -7.99769626E-11
  -11.4700003      -6.73558986E-11
  -11.4600000      -5.36606870E-11
  -11.4499998      -3.88908072E-11
  -11.4399996      -2.30477061E-11
  -11.4300003      -6.13480620E-12
  -11.4200001       1.18420985E-11
  -11.4099998       3.08752052E-11
  -11.3999996       5.09551082E-11
  -11.3900003       7.20716542E-11
  -11.3800001       9.42152745E-11
  -11.3699999       1.17378385E-10
  -11.3599997       1.41556905E-10
  -11.3500004       1.66751571E-10
  -11.3400002       1.92968932E-10
  -11.3299999       2.20221508E-10
  -11.3199997       2.48527671E-10
  -11.3100004       2.77910334E-10
  -11.3000002       3.08395809E-10
  -11.2900000       3.40011269E-10
  -11.2799997       3.72782638E-10
  -11.2700005       4.06731787E-10
  -11.2600002       4.41874842E-10
  -11.2500000       4.78219964E-10
  -11.2399998       5.15765874E-10
  -11.2299995       5.54500557E-10
  -11.2200003       5.94401195E-10
  -11.2100000       6.35433262E-10
  -11.1999998       6.77551903E-10
  -11.1899996       7.20700666E-10
  -11.1800003       7.64814323E-10
  -11.1700001       8.09818101E-10
  -11.1599998       8.55630899E-10
  -11.1499996       9.02165898E-10
  -11.1400003       9.49331835E-10
  -11.1300001       9.97036675E-10
  -11.1199999       1.04518671E-09
  -11.1099997       1.09369036E-09
  -11.1000004       1.14245768E-09
  -11.0900002       1.19140209E-09
  -11.0799999       1.24043986E-09
  -11.0699997       1.28949107E-09
  -11.0600004       1.33847877E-09
  -11.0500002       1.38732781E-09
  -11.0400000       1.43596612E-09
  -11.0299997       1.48432178E-09
  -11.0200005       1.53232427E-09
  -11.0100002       1.57990321E-09
  -11.0000000       1.62698499E-09
  -10.9899998       1.67349679E-09
  -10.9799995       1.71936276E-09
  -10.9700003       1.76450521E-09
  -10.9600000       1.80884352E-09
  -10.9499998       1.85229554E-09
  -10.9399996       1.89477611E-09
  -10.9300003       1.93620031E-09
  -10.9200001       1.97648187E-09
  -10.9099998       2.01553263E-09
  -10.8999996       2.05326556E-09
  -10.8900003       2.08959161E-09
  -10.8800001       2.12442020E-09
  -10.8699999       2.15766005E-09
  -10.8599997       2.18921703E-09
  -10.8500004       2.21899521E-09
  -10.8400002       2.24689534E-09
  -10.8299999       2.27281816E-09
  -10.8199997       2.29666752E-09
  -10.8100004       2.31834596E-09
  -10.8000002       2.33776754E-09
  -10.7900000       2.35485165E-09
  -10.7799997       2.36953168E-09
  -10.7700005       2.38175835E-09
  -10.7600002       2.39150233E-09
  -10.7500000       2.39875209E-09
  -10.7399998       2.40352072E-09
  -10.7299995       2.40584619E-09
  -10.7200003       2.40578912E-09
  -10.7100000       2.40342990E-09
  -10.6999998       2.39887266E-09
  -10.6899996       2.39223796E-09
  -10.6800003       2.38366193E-09
  -10.6700001       2.37329556E-09
  -10.6599998       2.36129405E-09
  -10.6499996       2.34782194E-09
  -10.6400003       2.33304220E-09
  -10.6300001       2.31711561E-09
  -10.6199999       2.30019981E-09
  -10.6099997       2.28244357E-09
  -10.6000004       2.26398189E-09
  -10.5900002       2.24494401E-09
  -10.5799999       2.22544028E-09
  -10.5699997       2.20556950E-09
  -10.5600004       2.18541585E-09
  -10.5500002       2.16504925E-09
  -10.5400000       2.14452212E-09
  -10.5299997       2.12387374E-09
  -10.5200005       2.10312590E-09
  -10.5100002       2.08229078E-09
  -10.5000000       2.06136064E-09
  -10.4899998       2.04031791E-09
  -10.4799995       2.01912931E-09
  -10.4700003       1.99775085E-09
  -10.4600000       1.97612504E-09
  -10.4499998       1.95418925E-09
  -10.4399996       1.93186755E-09
  -10.4300003       1.90908134E-09
  -10.4200001       1.88574822E-09
  -10.4099998       1.86178828E-09
  -10.3999996       1.83712379E-09
  -10.3900003       1.81168447E-09
  -10.3800001       1.78541237E-09
  -10.3699999       1.75826198E-09
  -10.3599997       1.73020831E-09
  -10.3500004       1.70124059E-09
  -10.3400002       1.67136716E-09
  -10.3299999       1.64060843E-09
  -10.3199997       1.60900149E-09
  -10.3100004       1.57659441E-09
  -10.3000002       1.54344360E-09
  -10.2900000       1.50960888E-09
  -10.2799997       1.47516233E-09
  -10.2700005       1.44017809E-09
  -10.2600002       1.40474221E-09
  -10.2500000       1.36894518E-09
  -10.2399998       1.33289357E-09
  -10.2299995       1.29670252E-09
  -10.2200003       1.26049915E-09
  -10.2100000       1.22441890E-09
  -10.1999998       1.18860410E-09
  -10.1899996       1.15319920E-09
  -10.1800003       1.11834841E-09
  -10.1700001       1.08418619E-09
  -10.1599998       1.05084352E-09
  -10.1499996       1.01843878E-09
  -10.1400003       9.87083526E-10
  -10.1300001       9.56876689E-10
  -10.1199999       9.27912913E-10
  -10.1099997       9.00280961E-10
  -10.1000004       8.74068151E-10
  -10.0900002       8.49360693E-10
  -10.0799999       8.26243796E-10
  -10.0699997       8.04798950E-10
  -10.0600004       7.85108867E-10
  -10.0500002       7.67247821E-10
  -10.0400000       7.51283147E-10
  -10.0299997       7.37268135E-10
  -10.0200005       7.25246696E-10
  -10.0100002       7.15244808E-10
  -10.0000000       7.07278291E-10
  -9.98999977       7.01345204E-10
  -9.97999954       6.97435443E-10
  -9.97000027       6.95524693E-10
  -9.96000004       6.95587588E-10
  -9.94999981       6.97590208E-10
  -9.93999958       7.01499803E-10
  -9.93000031       7.07283787E-10
  -9.92000008       7.14913961E-10
  -9.90999985       7.24372451E-10
  -9.89999962       7.35648820E-10
  -9.89000034       7.48743623E-10
  -9.88000011       7.63673513E-10
  -9.86999989       7.80464304E-10
  -9.85999966       7.99153910E-10
  -9.85000038       8.19790791E-10
  -9.84000015       8.42428516E-10
  -9.82999992       8.67120098E-10
  -9.81999969       8.93920937E-10
  -9.81000042       9.22881216E-10
  -9.80000019       9.54044399E-10
  -9.78999996       9.87446569E-10
  -9.77999973       1.02311859E-09
  -9.77000046       1.06108111E-09
  -9.76000023       1.10135057E-09
  -9.75000000       1.14393550E-09
  -9.73999977       1.18883969E-09
  -9.72999954       1.23606170E-09
  -9.72000027       1.28558653E-09
  -9.71000004       1.33739564E-09
  -9.69999981       1.39145928E-09
  -9.68999958       1.44773549E-09
  -9.68000031       1.50617396E-09
  -9.67000008       1.56671409E-09
  -9.65999985       1.62928748E-09
  -9.64999962       1.69381920E-09
  -9.64000034       1.76023651E-09
  -9.63000011       1.82846638E-09
  -9.61999989       1.89844496E-09
  -9.60999966       1.97011563E-09
  -9.60000038       2.04343120E-09
  -9.59000015       2.11835904E-09
  -9.57999992       2.19487384E-09
  -9.56999969       2.27296115E-09
  -9.56000042       2.35260988E-09
  -9.55000019       2.43381049E-09
  -9.53999996       2.51654986E-09
  -9.52999973       2.60081201E-09
  -9.52000046       2.68656342E-09
  -9.51000023       2.77376566E-09
  -9.50000000       2.86236035E-09
  -9.48999977       2.95227554E-09
  -9.47999954       3.04341818E-09
  -9.47000027       3.13567838E-09
  -9.46000004       3.22892779E-09
  -9.44999981       3.32301342E-09
  -9.43999958       3.41776984E-09
  -9.43000031       3.51301588E-09
  -9.42000008       3.60855767E-09
  -9.40999985       3.70419673E-09
  -9.39999962       3.79973075E-09
  -9.39000034       3.89495236E-09
  -9.38000011       3.98966371E-09
  -9.36999989       4.08366319E-09
  -9.35999966       4.17674917E-09
  -9.35000038       4.26872493E-09
  -9.34000015       4.35938663E-09
  -9.32999992       4.44853221E-09
  -9.31999969       4.53595295E-09
  -9.31000042       4.62143879E-09
  -9.30000019       4.70478323E-09
  -9.28999996       4.78578821E-09
  -9.27999973       4.86425700E-09
  -9.27000046       4.94000663E-09
  -9.26000023       5.01287190E-09
  -9.25000000       5.08269427E-09
  -9.23999977       5.14934140E-09
  -9.22999954       5.21269827E-09
  -9.22000027       5.27267385E-09
  -9.21000004       5.32919620E-09
  -9.19999981       5.38222356E-09
  -9.18999958       5.43173329E-09
  -9.18000031       5.47773649E-09
  -9.17000008       5.52025892E-09
  -9.15999985       5.55935653E-09
  -9.14999962       5.59509283E-09
  -9.14000034       5.62755886E-09
  -9.13000011       5.65684655E-09
  -9.11999989       5.68306779E-09
  -9.10999966       5.70633674E-09
  -9.10000038       5.72676706E-09
  -9.09000015       5.74449155E-09
  -9.07999992       5.75964165E-09
  -9.06999969       5.77235415E-09
  -9.06000042       5.78277826E-09
  -9.05000019       5.79106008E-09
  -9.03999996       5.79734349E-09
  -9.02999973       5.80178616E-09
  -9.02000046       5.80453996E-09
  -9.01000023       5.80575499E-09
  -9.00000000       5.80558268E-09
  -8.98999977       5.80417936E-09
  -8.97999954       5.80170445E-09
  -8.97000027       5.79832848E-09
  -8.96000004       5.79423531E-09
  -8.94999981       5.78962167E-09
  -8.93999958       5.78470072E-09
  -8.93000031       5.77971537E-09
  -8.92000008       5.77493209E-09
  -8.90999985       5.77063242E-09
  -8.89999962       5.76712322E-09
  -8.89000034       5.76474468E-09
  -8.88000011       5.76384229E-09
  -8.86999989       5.76479486E-09
  -8.85999966       5.76799186E-09
  -8.85000038       5.77384940E-09
  -8.84000015       5.78279735E-09
  -8.82999992       5.79528336E-09
  -8.81999969       5.81177906E-09
  -8.81000042       5.83276583E-09
  -8.80000019       5.85873616E-09
  -8.78999996       5.89019633E-09
  -8.77999973       5.92765348E-09
  -8.77000046       5.97161787E-09
  -8.76000023       6.02258865E-09
  -8.75000000       6.08106987E-09
  -8.73999977       6.14753404E-09
  -8.72999954       6.22244523E-09
  -8.72000027       6.30623420E-09
  -8.71000004       6.39930509E-09
  -8.69999981       6.50202603E-09
  -8.68999958       6.61472832E-09
  -8.68000031       6.73769485E-09
  -8.67000008       6.87117430E-09
  -8.65999985       7.01535940E-09
  -8.64999962       7.17038962E-09
  -8.64000034       7.33635863E-09
  -8.63000011       7.51328777E-09
  -8.61999989       7.70115971E-09
  -8.60999966       7.89987720E-09
  -8.60000038       8.10929546E-09
  -8.59000015       8.32921199E-09
  -8.57999992       8.55937721E-09
  -8.56999969       8.79951223E-09
  -8.56000042       9.04929287E-09
  -8.55000019       9.30839317E-09
  -8.53999996       9.57646673E-09
  -8.52999973       9.85317250E-09
  -8.52000046       1.01381650E-08
  -8.51000023       1.04311120E-08
  -8.50000000       1.07316920E-08
  -8.48999977       1.10395879E-08
  -8.47999954       1.13545182E-08
  -8.47000027       1.16762031E-08
  -8.46000004       1.20044072E-08
  -8.44999981       1.23388899E-08
  -8.43999958       1.26794424E-08
  -8.43000031       1.30258888E-08
  -8.42000008       1.33780240E-08
  -8.40999985       1.37356926E-08
  -8.39999962       1.40987133E-08
  -8.39000034       1.44669219E-08
  -8.38000011       1.48401282E-08
  -8.36999989       1.52181432E-08
  -8.35999966       1.56007669E-08
  -8.35000038       1.59878031E-08
  -8.34000015       1.63790190E-08
  -8.32999992       1.67741820E-08
  -8.31999969       1.71730026E-08
  -8.31000042       1.75751893E-08
  -8.30000019       1.79804154E-08
  -8.28999996       1.83882953E-08
  -8.27999973       1.87984437E-08
  -8.27000046       1.92104341E-08
  -8.26000023       1.96238261E-08
  -8.25000000       2.00381596E-08
  -8.23999977       2.04529584E-08
  -8.22999954       2.08677307E-08
  -8.22000027       2.12819540E-08
  -8.21000004       2.16951221E-08
  -8.19999981       2.21066685E-08
  -8.18999958       2.25160015E-08
  -8.18000031       2.29225243E-08
  -8.17000008       2.33255921E-08
  -8.15999985       2.37245548E-08
  -8.14999962       2.41187301E-08
  -8.14000034       2.45074236E-08
  -8.13000011       2.48899479E-08
  -8.11999989       2.52655745E-08
  -8.10999966       2.56335646E-08
  -8.10000038       2.59931863E-08
  -8.09000015       2.63436561E-08
  -8.07999992       2.66841944E-08
  -8.06999969       2.70139999E-08
  -8.06000042       2.73322485E-08
  -8.05000019       2.76381318E-08
  -8.03999996       2.79308523E-08
  -8.02999973       2.82096284E-08
  -8.02000046       2.84736750E-08
  -8.01000023       2.87222459E-08
  -8.00000000       2.89546787E-08
  -7.98999977       2.91703017E-08
  -7.98000002       2.93685165E-08
  -7.96999979       2.95487848E-08
  -7.96000004       2.97106162E-08
  -7.94999981       2.98535845E-08
  -7.94000006       2.99773539E-08
  -7.92999983       3.00816687E-08
  -7.92000008       3.01663192E-08
  -7.90999985       3.02311953E-08
  -7.90000010       3.02762899E-08
  -7.88999987       3.03016421E-08
  -7.88000011       3.03073406E-08
  -7.86999989       3.02935774E-08
  -7.86000013       3.02606438E-08
  -7.84999990       3.02088665E-08
  -7.84000015       3.01386613E-08
  -7.82999992       3.00505363E-08
  -7.82000017       2.99450669E-08
  -7.80999994       2.98228784E-08
  -7.80000019       2.96847134E-08
  -7.78999996       2.95313551E-08
  -7.78000021       2.93636333E-08
  -7.76999998       2.91824467E-08
  -7.76000023       2.89887065E-08
  -7.75000000       2.87833579E-08
  -7.73999977       2.85674044E-08
  -7.73000002       2.83418800E-08
  -7.71999979       2.81078218E-08
  -7.71000004       2.78662959E-08
  -7.69999981       2.76184018E-08
  -7.69000006       2.73652372E-08
  -7.67999983       2.71079212E-08
  -7.67000008       2.68475642E-08
  -7.65999985       2.65852957E-08
  -7.65000010       2.63222049E-08
  -7.63999987       2.60593858E-08
  -7.63000011       2.57979327E-08
  -7.61999989       2.55389523E-08
  -7.61000013       2.52834909E-08
  -7.59999990       2.50326213E-08
  -7.59000015       2.47873988E-08
  -7.57999992       2.45488163E-08
  -7.57000017       2.43179130E-08
  -7.55999994       2.40956712E-08
  -7.55000019       2.38830431E-08
  -7.53999996       2.36809434E-08
  -7.53000021       2.34902657E-08
  -7.51999998       2.33118556E-08
  -7.51000023       2.31465069E-08
  -7.50000000       2.29950192E-08
  -7.48999977       2.28580497E-08
  -7.48000002       2.27362698E-08
  -7.46999979       2.26302532E-08
  -7.46000004       2.25405810E-08
  -7.44999981       2.24676828E-08
  -7.44000006       2.24119923E-08