  -16.0000000       0.00000000    
  -15.9899998       0.00000000    
  -15.9799995       0.00000000    
  -15.9700003       0.00000000    
  -15.9600000       0.00000000    
  -15.9499998       0.00000000    
  -15.9399996       0.00000000    
  -15.9300003       0.00000000    
  -15.9200001       0.00000000    
  -15.9099998       0.00000000    
  -15.8999996       0.00000000    
  -15.8900003       0.00000000    
  -15.8800001       0.00000000    
  -15.8699999       0.00000000    
  -15.8599997       0.00000000    
  -15.8500004       0.00000000    
  -15.8400002      -0.00000000    
  -15.8299999       0.00000000    
  -15.8199997       1.40129846E-45
  -15.8100004       9.80908925E-45
  -15.8000002       6.02558340E-44
  -15.7900000       3.15292154E-43
  -15.7799997       1.42792314E-42
  -15.7700005       5.73551461E-42
  -15.7600002       2.06509355E-41
  -15.7500000       6.72595237E-41
  -15.7399998       1.99530888E-40
  -15.7299995       5.41873708E-40
  -15.7200003       1.35171632E-39
  -15.7100000       3.10243136E-39
  -15.6999998       6.54983157E-39
  -15.6899996       1.26840352E-38
  -15.6800003       2.23833089E-38
  -15.6700001       3.55206656E-38
  -15.6599998       4.93279592E-38
  -15.6499996       5.61518624E-38
  -15.6400003       4.14860576E-38
  -15.6300001      -1.56914950E-38
  -15.6199999      -1.37144431E-37
  -15.6099997      -3.31010015E-37
  -15.6000004      -5.68266526E-37
  -15.5900002      -7.55980746E-37
  -15.5799999      -7.23331882E-37
  -15.5699997      -2.46113614E-37
  -15.5600004       8.63623876E-37
  -15.5500002       2.59488154E-36
  -15.5400000       4.53975933E-36
  -15.5299997       5.76375968E-36
  -15.5200005       4.90299382E-36
  -15.5100002       6.37433363E-37
  -15.5000000      -7.44143312E-36
  -15.4899998      -1.78171309E-35
  -15.4799995      -2.64602975E-35
  -15.4700003      -2.74160984E-35
  -15.4600000      -1.50831265E-35
  -15.4499998       1.21209826E-35
  -15.4399996       4.82685761E-35
  -15.4300003       7.92205419E-35
  -15.4200001       8.71444931E-35
  -15.4099998       6.03770116E-35
  -15.3999996       4.47687174E-36
  -15.3900003      -5.39370073E-35
  -15.3800001      -7.94477200E-35
  -15.3699999      -5.79864820E-35
  -15.3599997      -3.14429988E-35
  -15.3500004      -1.06248228E-34
  -15.3400002      -4.00236220E-34
  -15.3299999      -9.14869070E-34
  -15.3199997      -1.37717603E-33
  -15.3100004      -1.16995364E-33
  -15.3000002       4.88968548E-34
  -15.2900000       4.01424268E-33
  -15.2799997       8.66421989E-33
  -15.2700005       1.19046398E-32
  -15.2600002       9.60175745E-33
  -15.2500000      -2.31006258E-33
  -15.2399998      -2.46138481E-32
  -15.2299995      -5.11116757E-32
  -15.2200003      -6.68071584E-32
  -15.2100000      -5.09513618E-32
  -15.1999998       1.31552438E-32
  -15.1899996       1.23076269E-31
  -15.1800003       2.43299236E-31
  -15.1700001       3.03079918E-31
  -15.1599998       2.16587961E-31
  -15.1499996      -7.16993720E-32
  -15.1400003      -5.28498263E-31
  -15.1300001      -9.89737467E-31
  -15.1199999      -1.17421532E-30
  -15.1099997      -7.81653526E-31
  -15.1000004       3.32493608E-31
  -15.0900002       1.96801471E-30
  -15.0799999       3.48761049E-30
  -15.0699997       3.93803811E-30
  -15.0600004       2.43505931E-30
  -15.0500002      -1.27528263E-30
  -15.0400000      -6.32581094E-30
  -15.0299997      -1.06437218E-29
  -15.0200005      -1.15293125E-29
  -15.0100002      -6.87047597E-30
  -15.0000000       3.44287324E-30
  -14.9899998       1.66615765E-29
  -14.9799995       2.76059939E-29
  -14.9700003       3.05747999E-29
  -14.9600000       2.20191586E-29
  -14.9499998       2.46425708E-30
  -14.9399996      -2.38422559E-29
  -14.9300003      -5.18204794E-29
  -14.9200001      -7.89916495E-29
  -14.9099998      -1.05511338E-28
  -14.8999996      -1.27241834E-28
  -14.8900003      -1.22683579E-28
  -14.8800001      -4.24291425E-29
  -14.8699999       1.82629376E-28
  -14.8599997       5.97955699E-28
  -14.8500004       1.14485606E-27
  -14.8400002       1.57134554E-27
  -14.8299999       1.40072654E-27
  -14.8199997       4.56946349E-29
  -14.8100004      -2.86911350E-27
  -14.8000002      -7.00820870E-27
  -14.7900000      -1.08391561E-26
  -14.7799997      -1.15111046E-26
  -14.7700005      -5.51175304E-27
  -14.7600002       9.64674274E-27
  -14.7500000       3.29233995E-26
  -14.7399998       5.73307683E-26
  -14.7299995       6.91844449E-26
  -14.7200003       5.08137634E-26
  -14.7100000      -1.21838457E-26
  -14.6999998      -1.19949210E-25
  -14.6899996      -2.47229254E-25
  -14.6800003      -3.38393768E-25
  -14.6700001      -3.15881970E-25
  -14.6599998      -1.06910165E-25
  -14.6499996       3.13527639E-25
  -14.6400003       8.75598923E-25
  -14.6300001       1.38607200E-24
  -14.6199999       1.54572532E-24
  -14.6099997       1.03356428E-24
  -14.6000004      -3.42986072E-25
  -14.5900002      -2.46738652E-24
  -14.5799999      -4.77570949E-24
  -14.5699997      -6.25630832E-24
  -14.5600004      -5.67086703E-24
  -14.5500002      -2.01933581E-24
  -14.5400000       4.83542468E-24
  -14.5299997       1.35933040E-23
  -14.5200005       2.12966649E-23
  -14.5100002       2.37670901E-23
  -14.5000000       1.68569241E-23
  -14.4899998      -1.62413533E-24
  -14.4799995      -2.98347100E-23
  -14.4700003      -6.05514043E-23
  -14.4600000      -8.15341514E-23
  -14.4499998      -7.83263085E-23
  -14.4399996      -3.94782569E-23
  -14.4300003       3.69023168E-23
  -14.4200001       1.37490542E-22
  -14.4099998       2.31873635E-22
  -14.3999996       2.77101088E-22
  -14.3900003       2.29759159E-22
  -14.3800001       6.39739436E-23
  -14.3699999      -2.09492275E-22
  -14.3599997      -5.30529179E-22
  -14.3500004      -7.91490475E-22
  -14.3400002      -8.59247897E-22
  -14.3299999      -6.17383396E-22
  -14.3199997      -2.01965005E-23
  -14.3100004       8.58074476E-22
  -14.3000002       1.80041353E-21
  -14.2900000       2.47055544E-21
  -14.2799997       2.49274957E-21
  -14.2700005       1.57962568E-21
  -14.2600002      -3.21784466E-22
  -14.2500000      -2.91443255E-21
  -14.2399998      -5.52167373E-21
  -14.2299995      -7.18794668E-21
  -14.2200003      -6.92177709E-21
  -14.2100000      -4.04469469E-21
  -14.1999998       1.44244749E-21
  -14.1899996       8.60253297E-21
  -14.1800003       1.55466884E-20
  -14.1700001       1.97517579E-20
  -14.1599998       1.87153911E-20
  -14.1499996       1.08357171E-20
  -14.1400003      -3.71400056E-21
  -14.1300001      -2.24200051E-20
  -14.1199999      -4.04691814E-20
  -14.1099997      -5.15830961E-20
  -14.1000004      -4.96221481E-20
  -14.0900002      -3.06706551E-20
  -14.0799999       4.93606823E-21
  -14.0699997       5.13290353E-20
  -14.0600004       9.72174776E-20
  -14.0500002       1.27787139E-19
  -14.0400000       1.28315307E-19
  -14.0299997       8.88619905E-20
  -14.0200005       8.86897641E-21
  -14.0100002      -9.98071733E-20
  -14.0000000      -2.12827639E-19
  -13.9899998      -2.97135374E-19
  -13.9799995      -3.18472006E-19
  -13.9700003      -2.51393914E-19
  -13.9600000      -8.94337662E-20
  -13.9499998       1.47613340E-19
  -13.9399996       4.12228896E-19
  -13.9300003       6.35505390E-19
  -13.9200001       7.41430779E-19
  -13.9099998       6.66972065E-19
  -13.8999996       3.83575050E-19
  -13.8900003      -8.57861452E-20
  -13.8800001      -6.59985646E-19
  -13.8699999      -1.20793650E-18
  -13.8599997      -1.57275593E-18
  -13.8500004      -1.60879681E-18
  -13.8400002      -1.22412350E-18
  -13.8299999      -4.17883942E-19
  -13.8199997       6.98781140E-19
  -13.8100004       1.90743693E-18
  -13.8000002       2.91663553E-18
  -13.7900000       3.42247840E-18
  -13.7799997       3.18449564E-18
  -13.7700005       2.09979116E-18
  -13.7600002       2.55905486E-19
  -13.7500000      -2.05485085E-18
  -13.7399998      -4.36964197E-18
  -13.7299995      -6.13709161E-18
  -13.7200003      -6.83401526E-18
  -13.7100000      -6.09352607E-18
  -13.6999998      -3.81539250E-18
  -13.6899996      -2.30423205E-19
  -13.6800003       4.10150310E-18
  -13.6700001       8.36677390E-18
  -13.6599998       1.16376826E-17
  -13.6499996       1.30525213E-17
  -13.6400003       1.20019539E-17
  -13.6300001       8.28438837E-18
  -13.6199999       2.19765635E-18
  -13.6099997      -5.45463079E-18
  -13.6000004      -1.34487813E-17
  -13.5900002      -2.03098682E-17
  -13.5799999      -2.45414578E-17
  -13.5699997      -2.48848205E-17
  -13.5600004      -2.05710173E-17
  -13.5500002      -1.15288017E-17
  -13.5400000       1.48690658E-18
  -13.5299997       1.68761868E-17
  -13.5200005       3.23073685E-17
  -13.5100002       4.49723474E-17
  -13.5000000       5.19761949E-17
  -13.4899998       5.08293123E-17
  -13.4799995       3.99830421E-17
  -13.4700003       1.93234305E-17
  -13.4600000      -9.48001425E-18
  -13.4499998      -4.28753321E-17
  -13.4399996      -7.56622570E-17
  -13.4300003      -1.01597268E-16
  -13.4200001      -1.14340289E-16
  -13.4099998      -1.08635390E-16
  -13.3999996      -8.15459132E-17
  -13.3900003      -3.35117435E-17
  -13.3800001       3.10168411E-17
  -13.3699999       1.03580066E-16
  -13.3599997       1.72473113E-16
  -13.3500004       2.24278866E-16
  -13.3400002       2.46025908E-16
  -13.3299999       2.27683859E-16
  -13.3199997       1.64590162E-16
  -13.3100004       5.93408850E-17
  -13.3000002      -7.73068839E-17
  -13.2900000      -2.26874810E-16
  -13.2799997      -3.65110455E-16
  -13.2700005      -4.65354766E-16
  -13.2600002      -5.02959694E-16
  -13.2500000      -4.60114120E-16
  -13.2399998      -3.30239485E-16
  -13.2299995      -1.21049571E-16
  -13.2200003       1.44531349E-16
  -13.2100000       4.30115575E-16
  -13.1999998       6.90342281E-16
  -13.1899996       8.77656206E-16
  -13.1800003       9.50396272E-16
  -13.1700001       8.80816698E-16
  -13.1599998       6.61506580E-16
  -13.1499996       3.08825830E-16
  -13.1400003      -1.37567878E-16
  -13.1300001      -6.19310892E-16
  -13.1199999      -1.06746067E-15
  -13.1099997      -1.41283073E-15
  -13.1000004      -1.59673704E-15
  -13.0900002      -1.58024574E-15
  -13.0799999      -1.35032161E-15
  -13.0699997      -9.21918601E-16
  -13.0600004      -3.35877760E-16
  -13.0500002       3.46708002E-16
  -13.0400000       1.05241228E-15
  -13.0299997       1.70419503E-15
  -13.0200005       2.22958066E-15
  -13.0100002       2.56734458E-15
  -13.0000000       2.67229175E-15
  -12.9899998       2.51815081E-15
  -12.9799995       2.09888369E-15
  -12.9700003       1.42871927E-15
  -12.9600000       5.41103440E-16
  -12.9499998      -5.13385399E-16
  -12.9399996      -1.67010121E-15
  -12.9300003      -2.85410356E-15
  -12.9200001      -3.98401608E-15
  -12.9099998      -4.97495738E-15
  -12.8999996      -5.73959732E-15
  -12.8900003      -6.18679133E-15
  -12.8800001      -6.21846528E-15
  -12.8699999      -5.72682618E-15
  -12.8599997      -4.59544681E-15
  -12.8500004      -2.70856318E-15
  -12.8400002       2.78517503E-17
  -12.8299999       3.65178138E-15
  -12.8199997       8.10011424E-15
  -12.8100004       1.31599697E-14
  -12.8000002       1.84277964E-14
  -12.7900000       2.32901958E-14
  -12.7799997       2.69397897E-14
  -12.7700005       2.84354754E-14
  -12.7600002       2.68086809E-14
  -12.7500000       2.12081194E-14
  -12.7399998       1.10659129E-14
  -12.7299995      -3.73876362E-15
  -12.7200003      -2.27448929E-14
  -12.7100000      -4.48275043E-14
  -12.6999998      -6.81845734E-14
  -12.6899996      -9.03995439E-14
  -12.6800003      -1.08575949E-13
  -12.6700001      -1.19533520E-13
  -12.6599998      -1.20053178E-13
  -12.6499996      -1.07160266E-13
  -12.6400003      -7.84406380E-14
  -12.6300001      -3.23889881E-14
  -12.6199999       3.12115920E-14
  -12.6099997       1.10888051E-13
  -12.6000004       2.03079551E-13
  -12.5900002       3.01793367E-13
  -12.5799999       3.98388462E-13
  -12.5699997       4.81582222E-13
  -12.5600004       5.37777722E-13
  -12.5500002       5.51797703E-13
  -12.5400000       5.08071775E-13
  -12.5299997       3.92268629E-13
  -12.5200005       1.93296171E-13
  -12.5100002      -9.44792408E-14
  -12.5000000      -4.68998213E-13
  -12.4899998      -9.18503663E-13
  -12.4799995      -1.42001363E-12
  -12.4700003      -1.93850101E-12
  -12.4600000      -2.42695339E-12
  -12.4499998      -2.82742211E-12
  -12.4399996      -3.07308389E-12
  -12.4300003      -3.09125468E-12
  -12.4200001      -2.80722819E-12
  -12.4099998      -2.14874147E-12
  -12.3999996      -1.05081699E-12
  -12.3900003       5.39296201E-13
  -12.3800001       2.65740555E-12
  -12.3699999       5.31816475E-12
  -12.3599997       8.51168875E-12
  -12.3500004       1.22012678E-11
  -12.3400002       1.63223410E-11
  -12.3299999       2.07828824E-11
  -12.3199997       2.54652324E-11
  -12.3100004       3.02292774E-11
  -12.3000002       3.49168264E-11
  -12.2900000       3.93570281E-11
  -12.2799997       4.33723821E-11
  -12.2700005       4.67852423E-11
  -12.2600002       4.94243674E-11
  -12.2500000       5.11312485E-11
  -12.2399998       5.17660151E-11
  -12.2299995       5.12125897E-11
  -12.2200003       4.93828659E-11
  -12.2100000       4.62196600E-11
  -12.1999998       4.16982976E-11
  -12.1899996       3.58267895E-11
  -12.1800003       2.86443057E-11
  -12.1700001       2.02184849E-11
  -12.1599998       1.06414938E-11
  -12.1499996       2.54074495E-14
  -12.1400003      -1.15027996E-11
  -12.1300001      -2.38058670E-11
  -12.1199999      -3.67403920E-11
  -12.1099997      -5.01599630E-11
  -12.1000004      -6.39172118E-11
  -12.0900002      -7.78647494E-11
  -12.0799999      -9.18552595E-11
  -12.0699997      -1.05741083E-10
  -12.0600004      -1.19373261E-10
  -12.0500002      -1.32600667E-10
  -12.0400000      -1.45269297E-10
  -12.0299997      -1.57221444E-10
  -12.0200005      -1.68295503E-10
  -12.0100002      -1.78325812E-10
  -12.0000000      -1.87142760E-10
  -11.9899998      -1.94573441E-10
  -11.9799995      -2.00443023E-10
  -11.9700003      -2.04576814E-10
  -11.9600000      -2.06803366E-10
  -11.9499998      -2.06958631E-10
  -11.9399996      -2.04891076E-10
  -11.9300003      -2.00467296E-10
  -11.9200001      -1.93577515E-10
  -11.9099998      -1.84140661E-10
  -11.8999996      -1.72108550E-10
  -11.8900003      -1.57467900E-10
  -11.8800001      -1.40241208E-10
  -11.8699999      -1.20485510E-10
  -11.8599997      -9.82901607E-11
  -11.8500004      -7.37733763E-11
  -11.8400002      -4.70789137E-11
  -11.8299999      -1.83724130E-11
  -11.8199997       1.21611558E-11
  -11.8100004       4.43191248E-11
  -11.8000002       7.78824921E-11
  -11.7900000       1.12616208E-10
  -11.7799997       1.48269369E-10
  -11.7700005       1.84575633E-10
  -11.7600002       2.21253446E-10
  -11.7500000       2.58007643E-10
  -11.7399998       2.94531760E-10
  -11.7299995       3.30510730E-10
  -11.7200003       3.65624919E-10
  -11.7100000       3.99554334E-10
  -11.6999998       4.31983144E-10
  -11.6899996       4.62603844E-10
  -11.6800003       4.91121199E-10
  -11.6700001       5.17255072E-10
  -11.6599998       5.40741063E-10
  -11.6499996       5.61331315E-10
  -11.6400003       5.78792680E-10
  -11.6300001       5.92904947E-10
  -11.6199999       6.03457839E-10
  -11.6099997       6.10248574E-10
  -11.6000004       6.13081030E-10
  -11.5900002       6.11765083E-10
  -11.5799999       6.06117878E-10
  -11.5699997       5.95968053E-10
  -11.5600004       5.81158510E-10
  -11.5500002       5.61552027E-10
  -11.5400000       5.37036304E-10
  -11.5299997       5.07526410E-10
  -11.5200005       4.72968609E-10
  -11.5100002       4.33341779E-10
  -11.5000000       3.88656718E-10
  -11.4899998       3.38955281E-10
  -11.4799995       2.84308910E-10
  -11.4700003       2.24815597E-10
  -11.4600000       1.60597521E-10
  -11.4499998       9.17993945E-11
  -11.4399996       1.85855983E-11
  -11.4300003      -5.88619847E-11
  -11.4200001      -1.40345582E-10
  -11.4099998      -2.25654162E-10
  -11.3999996      -3.14564125E-10
  -11.3900003      -4.06840839E-10
  -11.3800001      -5.02240249E-10
  -11.3699999      -6.00509309E-10
  -11.3599997      -7.01385672E-10
  -11.3500004      -8.04598221E-10
  -11.3400002      -9.09868070E-10
  -11.3299999      -1.01691067E-09
  -11.3199997      -1.12543619E-09
  -11.3100004      -1.23515531E-09
  -11.3000002      -1.34578215E-09
  -11.2900000      -1.45703916E-09
  -11.2799997      -1.56866209E-09
  -11.2700005      -1.68040315E-09
  -11.2600002      -1.79203430E-09
  -11.2500000      -1.90334815E-09
  -11.2399998      -2.01415418E-09
  -11.2299995      -2.12428253E-09
  -11.2200003      -2.23357377E-09
  -11.2100000      -2.34188047E-09
  -11.1999998      -2.44905962E-09
  -11.1899996      -2.55497135E-09
  -11.1800003      -2.65947508E-09
  -11.1700001      -2.76242784E-09
  -11.1599998      -2.86368662E-09
  -11.1499996      -2.96310865E-09
  -11.1400003      -3.06055359E-09
  -11.1300001      -3.15589155E-09
  -11.1199999      -3.24900440E-09
  -11.1099997      -3.33979888E-09
  -11.1000004      -3.42820727E-09
  -11.0900002      -3.51419072E-09
  -11.0799999      -3.59774166E-09
  -11.0699997      -3.67888653E-09
  -11.0600004      -3.75767772E-09
  -11.0500002      -3.83418541E-09
  -11.0400000      -3.90848376E-09
  -11.0299997      -3.98064648E-09
  -11.0200005      -4.05073175E-09
  -11.0100002      -4.11877243E-09
  -11.0000000      -4.18477653E-09
  -10.9899998      -4.24872182E-09
  -10.9799995      -4.31055724E-09
  -10.9700003      -4.37022685E-09
  -10.9600000      -4.42765113E-09
  -10.9499998      -4.48276394E-09
  -10.9399996      -4.53550175E-09
  -10.9300003      -4.58582372E-09
  -10.9200001      -4.63369654E-09
  -10.9099998      -4.67911354E-09
  -10.8999996      -4.72206940E-09
  -10.8900003      -4.76257123E-09
  -10.8800001      -4.80061857E-09
  -10.8699999      -4.83620477E-09
  -10.8599997      -4.86931295E-09
  -10.8500004      -4.89989516E-09
  -10.8400002      -4.92788965E-09
  -10.8299999      -4.95321739E-09
  -10.8199997      -4.97578512E-09
  -10.8100004      -4.99548181E-09
  -10.8000002      -5.01220798E-09
  -10.7900000      -5.02585218E-09
  -10.7799997      -5.03632469E-09
  -10.7700005      -5.04355269E-09
  -10.7600002      -5.04748066E-09
  -10.7500000      -5.04808551E-09
  -10.7399998      -5.04536546E-09
  -10.7299995      -5.03935071E-09
  -10.7200003      -5.03008390E-09
  -10.7100000      -5.01764763E-09
  -10.6999998      -5.00213782E-09
  -10.6899996      -4.98367303E-09
  -10.6800003      -4.96238917E-09
  -10.6700001      -4.93845009E-09
  -10.6599998      -4.91203567E-09
  -10.6499996      -4.88335727E-09
  -10.6400003      -4.85265961E-09
  -10.6300001      -4.82018470E-09
  -10.6199999      -4.78621498E-09
  -10.6099997      -4.75104622E-09
  -10.6000004      -4.71498529E-09
  -10.5900002      -4.67834571E-09
  -10.5799999      -4.64145078E-09
  -10.5699997      -4.60462157E-09
  -10.5600004      -4.56816807E-09
  -10.5500002      -4.53239934E-09
  -10.5400000      -4.49759519E-09
  -10.5299997      -4.46402648E-09
  -10.5200005      -4.43191484E-09
  -10.5100002      -4.40147385E-09
  -10.5000000      -4.37286474E-09
  -10.4899998      -4.34622516E-09
  -10.4799995      -4.32166125E-09
  -10.4700003      -4.29927249E-09
  -10.4600000      -4.27912905E-09
  -10.4499998      -4.26129088E-09
  -10.4399996      -4.24582547E-09
  -10.4300003      -4.23278612E-09
  -10.4200001      -4.22223234E-09
  -10.4099998      -4.21421520E-09
  -10.3999996      -4.20876756E-09
  -10.3900003      -4.20592050E-09
  -10.3800001      -4.20569402E-09
  -10.3699999      -4.20808499E-09
  -10.3599997      -4.21305213E-09
  -10.3500004      -4.22054880E-09
  -10.3400002      -4.23050084E-09
  -10.3299999      -4.24281499E-09
  -10.3199997      -4.25737623E-09
  -10.3100004      -4.27407576E-09
  -10.3000002      -4.29278790E-09
  -10.2900000      -4.31339142E-09
  -10.2799997      -4.33577485E-09
  -10.2700005      -4.35985292E-09
  -10.2600002      -4.38555015E-09
  -10.2500000      -4.41281856E-09
  -10.2399998      -4.44160042E-09
  -10.2299995      -4.47186288E-09
  -10.2200003      -4.50357796E-09
  -10.2100000      -4.53668969E-09
  -10.1999998      -4.57112481E-09
  -10.1899996      -4.60680294E-09
  -10.1800003      -4.64364280E-09
  -10.1700001      -4.68154671E-09
  -10.1599998      -4.72043649E-09
  -10.1499996      -4.76023665E-09
  -10.1400003      -4.80090234E-09
  -10.1300001      -4.84241758E-09
  -10.1199999      -4.88481122E-09
  -10.1099997      -4.92814234E-09
  -10.1000004      -4.97250419E-09
  -10.0900002      -5.01800468E-09
  -10.0799999      -5.06482367E-09
  -10.0699997      -5.11316767E-09
  -10.0600004      -5.16324228E-09
  -10.0500002      -5.21530152E-09
  -10.0400000      -5.26960475E-09
  -10.0299997      -5.32642996E-09
  -10.0200005      -5.38605249E-09
  -10.0100002      -5.44873169E-09
  -10.0000000      -5.51470292E-09
  -9.98999977      -5.58420643E-09
  -9.97999954      -5.65741631E-09
  -9.97000027      -5.73451153E-09
  -9.96000004      -5.81565951E-09
  -9.94999981      -5.90099170E-09
  -9.93999958      -5.99066041E-09
  -9.93000031      -6.08479134E-09
  -9.92000008      -6.18352303E-09
  -9.90999985      -6.28699448E-09
  -9.89999962      -6.39531894E-09
  -9.89000034      -6.50861587E-09
  -9.88000011      -6.62697630E-09
  -9.86999989      -6.75047218E-09
  -9.85999966      -6.87916080E-09
  -9.85000038      -7.01308656E-09
  -9.84000015      -7.15224235E-09
  -9.82999992      -7.29664329E-09
  -9.81999969      -7.44630269E-09
  -9.81000042      -7.60122809E-09
  -9.80000019      -7.76146258E-09
  -9.78999996      -7.92704213E-09
  -9.77999973      -8.09805556E-09
  -9.77000046      -8.27459079E-09
  -9.76000023      -8.45678372E-09
  -9.75000000      -8.64478267E-09
  -9.73999977      -8.83873064E-09
  -9.72999954      -9.03876174E-09
  -9.72000027      -9.24502075E-09
  -9.71000004      -9.45759382E-09
  -9.69999981      -9.67652714E-09
  -9.68999958      -9.90184201E-09
  -9.68000031      -1.01334967E-08
  -9.67000008      -1.03713997E-08
  -9.65999985      -1.06154525E-08
  -9.64999962      -1.08654801E-08
  -9.64000034      -1.11212701E-08
  -9.63000011      -1.13826006E-08
  -9.61999989      -1.16491572E-08
  -9.60999966      -1.19205916E-08
  -9.60000038      -1.21965265E-08
  -9.59000015      -1.24765389E-08
  -9.57999992      -1.27601449E-08
  -9.56999969      -1.30468054E-08
  -9.56000042      -1.33360007E-08
  -9.55000019      -1.36271003E-08
  -9.53999996      -1.39195011E-08
  -9.52999973      -1.42125254E-08
  -9.52000046      -1.45054857E-08
  -9.51000023      -1.47976982E-08
  -9.50000000      -1.50884176E-08
  -9.48999977      -1.53769371E-08
  -9.47999954      -1.56625735E-08
  -9.47000027      -1.59446216E-08
  -9.46000004      -1.62225202E-08
  -9.44999981      -1.64957665E-08
  -9.43999958      -1.67639538E-08
  -9.43000031      -1.70268191E-08
  -9.42000008      -1.72841848E-08
  -9.40999985      -1.75360046E-08
  -9.39999962      -1.77824013E-08
  -9.39000034      -1.80235720E-08
  -9.38000011      -1.82598701E-08
  -9.36999989      -1.84917930E-08
  -9.35999966      -1.87198932E-08
  -9.35000038      -1.89449221E-08
  -9.34000015      -1.91677181E-08
  -9.32999992      -1.93892422E-08
  -9.31999969      -1.96104750E-08
  -9.31000042      -1.98325303E-08
  -9.30000019      -2.00565307E-08
  -9.28999996      -2.02836254E-08
  -9.27999973      -2.05149782E-08
  -9.27000046      -2.07517417E-08
  -9.26000023      -2.09950173E-08
  -9.25000000      -2.12458513E-08
  -9.23999977      -2.15053415E-08
  -9.22999954      -2.17744205E-08
  -9.22000027      -2.20540404E-08
  -9.21000004      -2.23450325E-08
  -9.19999981      -2.26481074E-08
  -9.18999958      -2.29639117E-08
  -9.18000031      -2.32929409E-08
  -9.17000008      -2.36356286E-08
  -9.15999985      -2.39922109E-08
  -9.14999962      -2.43628513E-08
  -9.14000034      -2.47475391E-08
  -9.13000011      -2.51462193E-08
  -9.11999989      -2.55586219E-08
  -9.10999966      -2.59844164E-08
  -9.10000038      -2.64231463E-08
  -9.09000015      -2.68741864E-08
  -9.07999992      -2.73368261E-08
  -9.06999969      -2.78102181E-08
  -9.06000042      -2.82934050E-08
  -9.05000019      -2.87853279E-08
  -9.03999996      -2.92848554E-08
  -9.02999973      -2.97907494E-08
  -9.02000046      -3.03017309E-08
  -9.01000023      -3.08164871E-08
  -9.00000000      -3.13336415E-08
  -8.98999977      -3.18518083E-08
  -8.97999954      -3.23695595E-08
  -8.97000027      -3.28854810E-08
  -8.96000004      -3.33982335E-08
  -8.94999981      -3.39064457E-08
  -8.93999958      -3.44087994E-08
  -8.93000031      -3.49040263E-08
  -8.92000008      -3.53909222E-08
  -8.90999985      -3.58683749E-08
  -8.89999962      -3.63353507E-08
  -8.89000034      -3.67909045E-08
  -8.88000011      -3.72341518E-08
  -8.86999989      -3.76644032E-08
  -8.85999966      -3.80809837E-08
  -8.85000038      -3.84833605E-08
  -8.84000015      -3.88711925E-08
  -8.82999992      -3.92442026E-08
  -8.81999969      -3.96022450E-08
  -8.81000042      -3.99453057E-08
  -8.80000019      -4.02734948E-08
  -8.78999996      -4.05870679E-08
  -8.77999973      -4.08864125E-08
  -8.77000046      -4.11720258E-08
  -8.76000023      -4.14445509E-08
  -8.75000000      -4.17047055E-08
  -8.73999977      -4.19533706E-08
  -8.72999954      -4.21914947E-08
  -8.72000027      -4.24200763E-08
  -8.71000004      -4.26402629E-08
  -8.69999981      -4.28532516E-08
  -8.68999958      -4.30601368E-08
  -8.68000031      -4.32622471E-08
  -8.67000008      -4.34608758E-08
  -8.65999985      -4.36571774E-08
  -8.64999962      -4.38524026E-08
  -8.64000034      -4.40478338E-08
  -8.63000011      -4.42446471E-08
  -8.61999989      -4.44438157E-08
  -8.60999966      -4.46465442E-08
  -8.60000038      -4.48536284E-08
  -8.59000015      -4.50659883E-08
  -8.57999992      -4.52842990E-08
  -8.56999969      -4.55091573E-08
  -8.56000042      -4.57411140E-08
  -8.55000019      -4.59805385E-08
  -8.53999996      -4.62276937E-08
  -8.52999973      -4.64828105E-08
  -8.52000046      -4.67459280E-08
  -8.51000023      -4.70170924E-08
  -8.50000000      -4.72963642E-08
  -8.48999977      -4.75836508E-08
  -8.47999954      -4.78787818E-08
  -8.47000027      -4.81816897E-08
  -8.46000004      -4.84923497E-08
  -8.44999981      -4.88105378E-08
  -8.43999958      -4.91362151E-08
  -8.43000031      -4.94693460E-08
  -8.42000008      -4.98098807E-08
  -8.40999985      -5.01579969E-08
  -8.39999962      -5.05137940E-08
  -8.39000034      -5.08775528E-08
  -8.38000011      -5.12495362E-08
  -8.36999989      -5.16302201E-08
  -8.35999966      -5.20200345E-08
  -8.35000038      -5.24195087E-08
  -8.34000015      -5.28292929E-08
  -8.32999992      -5.32500124E-08
  -8.31999969      -5.36823102E-08
  -8.31000042      -5.41268506E-08
  -8.30000019      -5.45843228E-08
  -8.28999996      -5.50553132E-08
  -8.27999973      -5.55404220E-08
  -8.27000046      -5.60401112E-08
  -8.26000023      -5.65548461E-08
  -8.25000000      -5.70849004E-08
  -8.23999977      -5.76306860E-08
  -8.22999954      -5.81922492E-08
  -8.22000027      -5.87698032E-08
  -8.21000004      -5.93632841E-08
  -8.19999981      -5.99728764E-08
  -8.18999958      -6.05983388E-08
  -8.18000031      -6.12395965E-08
  -8.17000008      -6.18966638E-08
  -8.15999985      -6.25693346E-08
  -8.14999962      -6.32575095E-08
  -8.14000034      -6.39611173E-08
  -8.13000011      -6.46799450E-08
  -8.11999989      -6.54140848E-08
  -8.10999966      -6.61632527E-08
  -8.10000038      -6.69273916E-08
  -8.09000015      -6.77064307E-08
  -8.07999992      -6.85001638E-08
  -8.06999969      -6.93085624E-08
  -8.06000042      -7.01314491E-08
  -8.05000019      -7.09686887E-08
  -8.03999996      -7.18200326E-08
  -8.02999973      -7.26852321E-08
  -8.02000046      -7.35641663E-08
  -8.01000023      -7.44563735E-08
  -8.00000000      -7.53613705E-08
  -7.98999977      -7.62786243E-08
  -7.98000002      -7.72076021E-08
  -7.96999979      -7.81475720E-08
  -7.96000004      -7.90977595E-08
  -7.94999981      -8.00573687E-08
  -7.94000006      -8.10255329E-08
  -7.92999983      -8.20012858E-08
  -7.92000008      -8.29837035E-08
  -7.90999985      -8.39717842E-08
  -7.90000010      -8.49645474E-08
  -7.88999987      -8.59608136E-08
  -7.88000011      -8.69598367E-08
  -7.86999989      -8.79603093E-08
  -7.86000013      -8.89615066E-08
  -7.84999990      -8.99625334E-08
  -7.84000015      -9.09625726E-08
  -7.82999992      -9.19610130E-08
  -7.82000017      -9.29572224E-08
  -7.80999994      -9.39507245E-08
  -7.80000019      -9.49411429E-08
  -7.78999996      -9.59282076E-08
  -7.78000021      -9.69117195E-08
  -7.76999998      -9.78917427E-08
  -7.76000023      -9.88681634E-08
  -7.75000000      -9.98410030E-08
  -7.73999977      -1.00810787E-07
  -7.73000002      -1.01777751E-07
  -7.71999979      -1.02742426E-07
  -7.71000004      -1.03705133E-07
  -7.69999981      -1.04666462E-07
  -7.69000006      -1.05627244E-07
  -7.67999983      -1.06588026E-07
  -7.67000008      -1.07549525E-07
  -7.65999985      -1.08512722E-07
  -7.65000010      -1.09478378E-07
  -7.63999987      -1.10447331E-07
  -7.63000011      -1.11420540E-07
  -7.61999989      -1.12399157E-07
  -7.61000013      -1.13383976E-07
  -7.59999990      -1.14376093E-07
  -7.59000015      -1.15376650E-07
  -7.57999992      -1.16386452E-07
  -7.57000017      -1.17406934E-07
  -7.55999994      -1.18439004E-07
  -7.55000019      -1.19484127E-07
  -7.53999996      -1.20543348E-07
  -7.53000021      -1.21617887E-07
  -7.51999998      -1.22709196E-07
  -7.51000023      -1.23818467E-07
  -7.50000000      -1.24946951E-07
  -7.48999977      -1.26095756E-07
  -7.48000002      -1.27266432E-07
  -7.46999979      -1.28460002E-07
  -7.46000004      -1.29677844E-07
  -7.44999981      -1.30920924E-07
  -7.44000006      -1.32190507E-07