  -16.0000000       0.00000000    
  -15.9899998       0.00000000    
  -15.9799995       0.00000000    
  -15.9700003       0.00000000    
  -15.9600000       0.00000000    
  -15.9499998       0.00000000    
  -15.9399996       0.00000000    
  -15.9300003       0.00000000    
  -15.9200001       0.00000000    
  -15.9099998       0.00000000    
  -15.8999996       0.00000000    
  -15.8900003       0.00000000    
  -15.8800001       0.00000000    
  -15.8699999       2.56437619E-43
  -15.8599997       3.05483065E-42
  -15.8500004       6.25609699E-41
  -15.8400002       7.18447124E-40
  -15.8299999       6.25614324E-39
  -15.8199997       4.57138844E-38
  -15.8100004       2.87471380E-37
  -15.8000002       1.55489459E-36
  -15.7900000       7.23375719E-36
  -15.7799997       2.90741596E-35
  -15.7700005       1.01444485E-34
  -15.7600002       3.08608134E-34
  -15.7500000       8.19737230E-34
  -15.7399998       1.89461735E-33
  -15.7299995       3.76296864E-33
  -15.7200003       6.21834087E-33
  -15.7100000       7.79002237E-33
  -15.6999998       4.59299916E-33
  -15.6899996      -1.05471216E-32
  -15.6800003      -4.75899916E-32
  -15.6700001      -1.16367652E-31
  -15.6599998      -2.21237676E-31
  -15.6499996      -3.53853305E-31
  -15.6400003      -4.80608953E-31
  -15.6300001      -5.08491491E-31
  -15.6199999      -1.97798671E-31
  -15.6099997       9.93551899E-31
  -15.6000004       4.03440645E-30
  -15.5900002       1.00444085E-29
  -15.5799999       1.89121506E-29
  -15.5699997       2.61161397E-29
  -15.5600004       1.82352720E-29
  -15.5500002      -2.92301517E-29
  -15.5400000      -1.43466939E-28
  -15.5299997      -3.24480196E-28
  -15.5200005      -4.89697925E-28
  -15.5100002      -4.14255638E-28
  -15.5000000       2.67063361E-28
  -15.4899998       1.88714537E-27
  -15.4799995       4.30779106E-27
  -15.4700003       6.26776952E-27
  -15.4600000       4.89962933E-27
  -15.4499998      -3.78138433E-27
  -15.4399996      -2.24220724E-26
  -15.4300003      -4.75075087E-26
  -15.4200001      -6.36553250E-26
  -15.4099998      -4.15805471E-26
  -15.3999996       5.29667343E-26
  -15.3900003       2.32769237E-25
  -15.3800001       4.46961095E-25
  -15.3699999       5.42403206E-25
  -15.3599997       2.69923747E-25
  -15.3500004      -6.12046953E-25
  -15.3400002      -2.10734350E-24
  -15.3299999      -3.67550491E-24
  -15.3199997      -4.02910313E-24
  -15.3100004      -1.34087283E-24
  -15.3000002       5.82913304E-24
  -15.2900000       1.68360998E-23
  -15.2799997       2.70329348E-23
  -15.2700005       2.69949306E-23
  -15.2600002       4.82099523E-24
  -15.2500000      -4.69503284E-23
  -15.2399998      -1.20356407E-22
  -15.2299995      -1.81362871E-22
  -15.2200003      -1.68355968E-22
  -15.2100000      -1.06043077E-23
  -15.1999998       3.26837442E-22
  -15.1899996       7.79024756E-22
  -15.1800003       1.12692362E-21
  -15.1700001       1.00365271E-21
  -15.1599998       1.62983317E-23
  -15.1499996      -1.99319892E-21
  -15.1400003      -4.60312278E-21
  -15.1300001      -6.55047679E-21
  -15.1199999      -5.81656564E-21
  -15.1099997      -3.22396723E-22
  -15.1000004       1.06902835E-20
  -15.0900002       2.49193022E-20
  -15.0799999       3.57654835E-20
  -15.0699997       3.28753919E-20
  -15.0600004       5.65612370E-21
  -15.0500002      -4.99889381E-20
  -15.0400000      -1.23348126E-19
  -15.0299997      -1.83049111E-19
  -15.0200005      -1.79446585E-19
  -15.0100002      -6.05151507E-20
  -15.0000000       1.97736595E-19
  -14.9899998       5.53508993E-19
  -14.9799995       8.71450388E-19
  -14.9700003       9.29550831E-19
  -14.9600000       4.83372038E-19
  -14.9499998      -6.06829262E-19
  -14.9399996      -2.21347245E-18
  -14.9300003      -3.81195391E-18
  -14.9200001      -4.48301907E-18
  -14.9099998      -3.14189294E-18
  -14.8999996       9.72403543E-19
  -14.8900003       7.63782595E-18
  -14.8800001       1.50668897E-17
  -14.8699999       1.97753639E-17
  -14.8599997       1.72822399E-17
  -14.8500004       3.82447990E-18
  -14.8400002      -2.11529273E-17
  -14.8299999      -5.25406993E-17
  -14.8199997      -7.84563209E-17
  -14.8100004      -8.19238223E-17
  -14.8000002      -4.62506691E-17
  -14.7900000       3.63271222E-17
  -14.7799997       1.55080973E-16
  -14.7700005       2.74549133E-16
  -14.7600002       3.36720822E-16
  -14.7500000       2.75607554E-16
  -14.7399998       4.43874249E-17
  -14.7299995      -3.50711345E-16
  -14.7200003      -8.22135790E-16
  -14.7100000      -1.19500711E-15
  -14.6999998      -1.23864105E-15
  -14.6899996      -7.41693230E-16
  -14.6800003       3.80077077E-16
  -14.6700001       1.97523276E-15
  -14.6599998       3.59625244E-15
  -14.6499996       4.53968790E-15
  -14.6400003       4.02130840E-15
  -14.6300001       1.47761128E-15
  -14.6199999      -3.07466861E-15
  -14.6099997      -8.74837566E-15
  -14.6000004      -1.37242233E-14
  -14.5900002      -1.55552773E-14
  -14.5799999      -1.18835749E-14
  -14.5699997      -1.46390682E-15
  -14.5600004       1.47876994E-14
  -14.5500002       3.31416311E-14
  -14.5400000       4.72446179E-14
  -14.5299997       4.94533952E-14
  -14.5200005       3.32832008E-14
  -14.5100002      -3.51244933E-15
  -14.5000000      -5.61746626E-14
  -14.4899998      -1.11693146E-13
  -14.4799995      -1.50206318E-13
  -14.4700003      -1.49606984E-13
  -14.4600000      -9.29191010E-14
  -14.4499998       2.32040339E-14
  -14.4399996       1.81588861E-13
  -14.4300003       3.42421458E-13
  -14.4200001       4.48550187E-13
  -14.4099998       4.39152783E-13
  -14.3999996       2.70022828E-13
  -14.3900003      -6.42290379E-14
  -14.3800001      -5.13197015E-13
  -14.3699999      -9.66807797E-13
  -14.3599997      -1.27064884E-12
  -14.3500004      -1.26226731E-12
  -14.3400002      -8.23441684E-13
  -14.3299999       6.34469690E-14
  -14.3199997       1.27257265E-12
  -14.3100004       2.52432168E-12
  -14.3000002       3.42212651E-12
  -14.2900000       3.54090173E-12
  -14.2799997       2.55555906E-12
  -14.2700005       3.81908914E-13
  -14.2600002      -2.71178045E-12
  -14.2500000      -6.06799767E-12
  -14.2399998      -8.71504605E-12
  -14.2299995      -9.56762967E-12
  -14.2200003      -7.73076828E-12
  -14.2100000      -2.84562825E-12
  -14.1999998       4.61783736E-12
  -14.1899996       1.32312798E-11
  -14.1800003       2.07339354E-11
  -14.1700001       2.44588239E-11
  -14.1599998       2.20222104E-11
  -14.1499996       1.21465589E-11
  -14.1400003      -4.59598462E-12
  -14.1300001      -2.53736945E-11
  -14.1199999      -4.52496964E-11
  -14.1099997      -5.80265141E-11
  -14.1000004      -5.77303656E-11
  -14.0900002      -4.04738881E-11
  -14.0799999      -6.23884451E-12
  -14.0699997       3.99865523E-11
  -14.0600004       8.82484780E-11
  -14.0500002       1.25167196E-10
  -14.0400000       1.36928441E-10
  -14.0299997       1.13220565E-10
  -14.0200005       5.11930637E-11
  -14.0100002      -4.17515258E-11
  -14.0000000      -1.47459003E-10
  -13.9899998      -2.39549935E-10
  -13.9799995      -2.88972846E-10
  -13.9700003      -2.71669354E-10
  -13.9600000      -1.76594572E-10
  -13.9499998      -1.18287992E-11
  -13.9399996       1.93444316E-10
  -13.9300003       3.92556765E-10
  -13.9200001       5.30710642E-10
  -13.9099998       5.58544655E-10
  -13.8999996       4.46850362E-10
  -13.8900003       1.98424485E-10
  -13.8800001      -1.46827869E-10
  -13.8699999      -5.16235499E-10
  -13.8599997      -8.18529355E-10
  -13.8500004      -9.65461378E-10
  -13.8400002      -8.95981622E-10
  -13.8299999      -5.96557193E-10
  -13.8199997      -1.11350346E-10
  -13.8100004       4.61964911E-10
  -13.8000002       9.91526083E-10
  -13.7900000       1.34224531E-09
  -13.7799997       1.41114065E-09
  -13.7700005       1.15764587E-09
  -13.7600002       6.19891638E-10
  -13.7500000      -8.91041269E-11
  -13.7399998      -8.06129274E-10
  -13.7299995      -1.35832268E-09
  -13.7200003      -1.60934732E-09
  -13.7100000      -1.49840773E-09
  -13.6999998      -1.06017251E-09
  -13.6899996      -4.18270113E-10
  -13.6800003       2.47841664E-10
  -13.6700001       7.54830642E-10
  -13.6599998       9.72044778E-10
  -13.6499996       8.65614358E-10
  -13.6400003       5.15147702E-10
  -13.6300001       9.48849818E-11
  -13.6199999      -1.78777979E-10
  -13.6099997      -1.20749050E-10
  -13.6000004       3.49010598E-10
  -13.5900002       1.15511600E-09
  -13.5799999       2.05935802E-09
  -13.5699997       2.70580780E-09
  -13.5600004       2.71330913E-09
  -13.5500002       1.79524917E-09
  -13.5400000      -1.24602717E-10
  -13.5299997      -2.83512924E-09
  -13.5200005      -5.82926774E-09
  -13.5100002      -8.37805647E-09
  -13.5000000      -9.68098401E-09
  -13.4899998      -9.06435371E-09
  -13.4799995      -6.18224805E-09
  -13.4700003      -1.16760179E-09
  -13.4600000       5.31290700E-09
  -13.4499998       1.21272858E-08
  -13.4399996       1.78688442E-08
  -13.4300003       2.11369553E-08
  -13.4200001       2.08494821E-08
  -13.4099998       1.65159513E-08
  -13.3999996       8.40395042E-09
  -13.3900003      -2.44726883E-09
  -13.3800001      -1.43775605E-08
  -13.3699999      -2.53934047E-08
  -13.3599997      -3.35311654E-08
  -13.3500004      -3.72165303E-08
  -13.3400002      -3.55412908E-08
  -13.3299999      -2.84025194E-08
  -13.3199997      -1.64854423E-08
  -13.3100004      -1.11241505E-09
  -13.3000002       1.59866378E-08
  -13.2900000       3.29117782E-08
  -13.2799997       4.77806310E-08
  -13.2700005       5.88346403E-08
  -13.2600002       6.44785629E-08
  -13.2500000       6.33029629E-08
  -13.2399998       5.41594183E-08
  -13.2299995       3.63477781E-08
  -13.2200003       9.93105509E-09
  -13.2100000      -2.38681004E-08
  -13.1999998      -6.23021563E-08
  -13.1899996      -1.00923003E-07
  -13.1800003      -1.33754668E-07
  -13.1700001      -1.53924347E-07
  -13.1599998      -1.54755099E-07
  -13.1499996      -1.31192394E-07
  -13.1400003      -8.13079950E-08
  -13.1300001      -7.52649143E-09
  -13.1199999       8.27798132E-08
  -13.1099997       1.77623022E-07
  -13.1000004       2.61768122E-07
  -13.0900002       3.19038207E-07
  -13.0799999       3.35209990E-07
  -13.0699997       3.00978627E-07
  -13.0600004       2.14373799E-07
  -13.0500002       8.20692847E-08
  -13.0400000      -8.08059681E-08
  -13.0299997      -2.52442959E-07
  -13.0200005      -4.07494156E-07
  -13.0100002      -5.21047752E-07
  -13.0000000      -5.72716431E-07
  -12.9899998      -5.50074731E-07
  -12.9799995      -4.50809068E-07
  -12.9700003      -2.83205367E-07
  -12.9600000      -6.49477911E-08
  -12.9499998       1.79460798E-07
  -12.9399996       4.22069519E-07
  -12.9300003       6.34990670E-07
  -12.9200001       7.93416461E-07
  -12.9099998       8.77765615E-07
  -12.8999996       8.74866828E-07
  -12.8900003       7.78373362E-07
  -12.8800001       5.88812270E-07
  -12.8699999       3.13697882E-07
  -12.8599997      -3.20352598E-08
  -12.8500004      -4.25305643E-07
  -12.8400002      -8.34235834E-07
  -12.8299999      -1.21826861E-06
  -12.8199997      -1.52982284E-06
  -12.8100004      -1.71807540E-06
  -12.8000002      -1.73509773E-06
  -12.7900000      -1.54385737E-06
  -12.7799997      -1.12699229E-06
  -12.7700005      -4.94668598E-07
  -12.7600002       3.10410769E-07
  -12.7500000       1.21258745E-06
  -12.7399998       2.10850772E-06
  -12.7299995       2.87818057E-06
  -12.7200003       3.40069414E-06
  -12.7100000       3.57243880E-06
  -12.6999998       3.32482523E-06
  -12.6899996       2.63834727E-06
  -12.6800003       1.55022349E-06
  -12.6700001       1.53904622E-07
  -12.6599998      -1.40992938E-06
  -12.6499996      -2.96966618E-06
  -12.6400003      -4.34394542E-06
  -12.6300001      -5.36441985E-06
  -12.6199999      -5.89668934E-06
  -12.6099997      -5.85646012E-06
  -12.6000004      -5.21894435E-06
  -12.5900002      -4.02080923E-06
  -12.5799999      -2.35514244E-06
  -12.5699997      -3.60887356E-07
  -12.5600004       1.79140568E-06
  -12.5500002       3.91560388E-06
  -12.5400000       5.82619805E-06
  -12.5299997       7.35368894E-06
  -12.5200005       8.35851915E-06
  -12.5100002       8.74308625E-06
  -12.5000000       8.46141029E-06
  -12.4899998       7.52542019E-06
  -12.4799995       6.00676276E-06
  -12.4700003       4.03241620E-06
  -12.4600000       1.77308368E-06
  -12.4499998      -5.76458149E-07
  -12.4399996      -2.82412725E-06
  -12.4300003      -4.81206689E-06
  -12.4200001      -6.44903685E-06
  -12.4099998      -7.73842294E-06
  -12.3999996      -8.79634990E-06
  -12.3900003      -9.85498718E-06
  -12.3800001      -1.12480402E-05
  -12.3699999      -1.33779222E-05
  -12.3599997      -1.66673181E-05
  -12.3500004      -2.15008076E-05
  -12.3400002      -2.81641642E-05
  -12.3299999      -3.67902867E-05
  -12.3199997      -4.73195832E-05
  -12.3100004      -5.94810008E-05
  -12.3000002      -7.27967126E-05
  -12.2900000      -8.66096379E-05
  -12.2799997      -1.00129837E-04
  -12.2700005      -1.12493421E-04
  -12.2600002      -1.22826561E-04
  -12.2500000      -1.30306376E-04
  -12.2399998      -1.34214599E-04
  -12.2299995      -1.33979251E-04
  -12.2200003      -1.29202424E-04
  -12.2100000      -1.19678196E-04
  -12.1999998      -1.05397696E-04
  -12.1899996      -8.65471666E-05
  -12.1800003      -6.34961616E-05
  -12.1700001      -3.67789944E-05
  -12.1599998      -7.06467654E-06
  -12.1499996       2.48818087E-05
  -12.1400003       5.82500179E-05
  -12.1300001       9.22440304E-05
  -12.1199999       1.26142360E-04
  -12.1099997       1.59358460E-04
  -12.1000004       1.91483283E-04
  -12.0900002       2.22308925E-04
  -12.0799999       2.51824007E-04
  -12.0699997       2.80177424E-04
  -12.0600004       3.07613635E-04
  -12.0500002       3.34389973E-04
  -12.0400000       3.60687089E-04
  -12.0299997       3.86523578E-04
  -12.0200005       4.11695451E-04
  -12.0100002       4.35746333E-04
  -12.0000000       4.57975693E-04
  -11.9899998       4.77481575E-04
  -11.9799995       4.93236352E-04
  -11.9700003       5.04175783E-04
  -11.9600000       5.09293634E-04
  -11.9499998       5.07721445E-04
  -11.9399996       4.98793670E-04
  -11.9300003       4.82078001E-04
  -11.9200001       4.57383692E-04
  -11.9099998       4.24745056E-04
  -11.8999996       3.84387880E-04
  -11.8900003       3.36692494E-04
  -11.8800001       2.82153313E-04
  -11.8699999       2.21350027E-04
  -11.8599997       1.54919544E-04
  -11.8500004       8.35405808E-05
  -11.8400002       7.91561069E-06
  -11.8299999      -7.12404726E-05
  -11.8199997      -1.53220826E-04
  -11.8100004      -2.37345594E-04
  -11.8000002      -3.22980894E-04
  -11.7900000      -4.09554370E-04
  -11.7799997      -4.96560824E-04
  -11.7700005      -5.83555957E-04
  -11.7600002      -6.70134381E-04
  -11.7500000      -7.55892950E-04
  -11.7399998      -8.40393419E-04
  -11.7299995      -9.23118321E-04
  -11.7200003      -1.00344094E-03
  -11.7100000      -1.08061207E-03
  -11.6999998      -1.15376257E-03
  -11.6899996      -1.22193538E-03
  -11.6800003      -1.28412805E-03
  -11.6700001      -1.33934780E-03
  -11.6599998      -1.38666609E-03
  -11.6499996      -1.42526231E-03
  -11.6400003      -1.45445229E-03
  -11.6300001      -1.47369539E-03
  -11.6199999      -1.48258090E-03
  -11.6099997      -1.48080324E-03
  -11.6000004      -1.46812969E-03
  -11.5900002      -1.44436432E-03
  -11.5799999      -1.40932226E-03
  -11.5699997      -1.36281864E-03
  -11.5600004      -1.30466034E-03
  -11.5500002      -1.23465480E-03
  -11.5400000      -1.15261832E-03
  -11.5299997      -1.05839083E-03
  -11.5200005      -9.51841415E-04
  -11.5100002      -8.32882535E-04
  -11.5000000      -7.01474317E-04
  -11.4899998      -5.57636668E-04
  -11.4799995      -4.01463825E-04
  -11.4700003      -2.33149738E-04
  -11.4600000      -5.30152392E-05
  -11.4499998       1.38458679E-04
  -11.4399996       3.40603699E-04
  -11.4300003       5.52547514E-04
  -11.4200001       7.73214735E-04
  -11.4099998       1.00134860E-03
  -11.3999996       1.23555528E-03
  -11.3900003       1.47436792E-03
  -11.3800001       1.71631353E-03
  -11.3699999       1.95999513E-03
  -11.3599997       2.20415019E-03
  -11.3500004       2.44770641E-03
  -11.3400002       2.68980372E-03
  -11.3299999       2.92980392E-03
  -11.3199997       3.16727138E-03
  -11.3100004       3.40194651E-03
  -11.3000002       3.63370660E-03
  -11.2900000       3.86251626E-03
  -11.2799997       4.08840459E-03
  -11.2700005       4.31141770E-03
  -11.2600002       4.53160144E-03
  -11.2500000       4.74897772E-03
  -11.2399998       4.96352324E-03
  -11.2299995       5.17515652E-03
  -11.2200003       5.38372062E-03
  -11.2100000       5.58896409E-03
  -11.1999998       5.79053722E-03
  -11.1899996       5.98797621E-03
  -11.1800003       6.18071202E-03
  -11.1700001       6.36809692E-03
  -11.1599998       6.54942077E-03
  -11.1499996       6.72395527E-03
  -11.1400003       6.89099915E-03
  -11.1300001       7.04992888E-03
  -11.1199999       7.20022526E-03
  -11.1099997       7.34151993E-03
  -11.1000004       7.47359451E-03
  -11.0900002       7.59639265E-03
  -11.0799999       7.71001214E-03
  -11.0699997       7.81468675E-03
  -11.0600004       7.91076012E-03
  -11.0500002       7.99867976E-03
  -11.0400000       8.07897374E-03
  -11.0299997       8.15223623E-03
  -11.0200005       8.21911450E-03
  -11.0100002       8.28028284E-03
  -11.0000000       8.33640713E-03
  -10.9899998       8.38811789E-03
  -10.9799995       8.43596924E-03
  -10.9700003       8.48037191E-03
  -10.9600000       8.52158666E-03
  -10.9499998       8.55967868E-03
  -10.9399996       8.59452691E-03
  -10.9300003       8.62582773E-03
  -10.9200001       8.65313876E-03
  -10.9099998       8.67590122E-03
  -10.8999996       8.69350508E-03
  -10.8900003       8.70529935E-03
  -10.8800001       8.71062186E-03
  -10.8699999       8.70880112E-03
  -10.8599997       8.69914331E-03
  -10.8500004       8.68092477E-03
  -10.8400002       8.65337905E-03
  -10.8299999       8.61570798E-03
  -10.8199997       8.56710318E-03
  -10.8100004       8.50678794E-03
  -10.8000002       8.43405910E-03
  -10.7900000       8.34834855E-03
  -10.7799997       8.24925676E-03
  -10.7700005       8.13658256E-03
  -10.7600002       8.01028684E-03
  -10.7500000       7.87050836E-03
  -10.7399998       7.71746784E-03
  -10.7299995       7.55145494E-03
  -10.7200003       7.37276440E-03
  -10.7100000       7.18168169E-03
  -10.6999998       6.97849179E-03
  -10.6899996       6.76350156E-03
  -10.6800003       6.53709378E-03
  -10.6700001       6.29978720E-03
  -10.6599998       6.05229335E-03
  -10.6499996       5.79552539E-03
  -10.6400003       5.53064840E-03
  -10.6300001       5.25899976E-03
  -10.6199999       4.98207519E-03
  -10.6099997       4.70144674E-03
  -10.6000004       4.41869348E-03
  -10.5900002       4.13532928E-03
  -10.5799999       3.85275413E-03
  -10.5699997       3.57223395E-03
  -10.5600004       3.29487282E-03
  -10.5500002       3.02162697E-03
  -10.5400000       2.75330292E-03
  -10.5299997       2.49056378E-03
  -10.5200005       2.23392108E-03
  -10.5100002       1.98372663E-03
  -10.5000000       1.74013409E-03
  -10.4899998       1.50311738E-03
  -10.4799995       1.27242296E-03
  -10.4700003       1.04762753E-03
  -10.4600000       8.28145829E-04
  -10.4499998       6.13301992E-04
  -10.4399996       4.02384612E-04
  -10.4300003       1.94749082E-04
  -10.4200001      -1.01589458E-05
  -10.4099998      -2.12726824E-04
  -10.3999996      -4.13189380E-04
  -10.3900003      -6.11610420E-04
  -10.3800001      -8.07947479E-04
  -10.3699999      -1.00208423E-03
  -10.3599997      -1.19388523E-03
  -10.3500004      -1.38326013E-03
  -10.3400002      -1.57017878E-03
  -10.3299999      -1.75471185E-03
  -10.3199997      -1.93703559E-03
  -10.3100004      -2.11742590E-03
  -10.3000002      -2.29623169E-03
  -10.2900000      -2.47387541E-03
  -10.2799997      -2.65080901E-03
  -10.2700005      -2.82750884E-03
  -10.2600002      -3.00442101E-03
  -10.2500000      -3.18197347E-03
  -10.2399998      -3.36053316E-03
  -10.2299995      -3.54040042E-03
  -10.2200003      -3.72181460E-03
  -10.2100000      -3.90494382E-03
  -10.1999998      -4.08990541E-03
  -10.1899996      -4.27678600E-03
  -10.1800003      -4.46562236E-03
  -10.1700001      -4.65643220E-03
  -10.1599998      -4.84918151E-03
  -10.1499996      -5.04375994E-03
  -10.1400003      -5.23994071E-03
  -10.1300001      -5.43734757E-03
  -10.1199999      -5.63538261E-03
  -10.1099997      -5.83323324E-03
  -10.1000004      -6.02981308E-03
  -10.0900002      -6.22379035E-03
  -10.0799999      -6.41359435E-03
  -10.0699997      -6.59746118E-03
  -10.0600004      -6.77348208E-03
  -10.0500002      -6.93969149E-03
  -10.0400000      -7.09412107E-03
  -10.0299997      -7.23490911E-03
  -10.0200005      -7.36035546E-03
  -10.0100002      -7.46898446E-03
  -10.0000000      -7.55957607E-03
  -9.98999977      -7.63118546E-03
  -9.97999954      -7.68311229E-03
  -9.97000027      -7.71483686E-03
  -9.96000004      -7.72598945E-03
  -9.94999981      -7.71624874E-03
  -9.93999958      -7.68530322E-03
  -9.93000031      -7.63281668E-03
  -9.92000008      -7.55843427E-03
  -9.90999985      -7.46178394E-03
  -9.89999962      -7.34256487E-03
  -9.89000034      -7.20059872E-03
  -9.88000011      -7.03586219E-03
  -9.86999989      -6.84859790E-03
  -9.85999966      -6.63927617E-03
  -9.85000038      -6.40863786E-03
  -9.84000015      -6.15766272E-03
  -9.82999992      -5.88753168E-03
  -9.81999969      -5.59959468E-03
  -9.81000042      -5.29531250E-03
  -9.80000019      -4.97621717E-03
  -9.78999996      -4.64384025E-03
  -9.77999973      -4.29967698E-03
  -9.77000046      -3.94514855E-03
  -9.76000023      -3.58155719E-03
  -9.75000000      -3.21005913E-03
  -9.73999977      -2.83169327E-03
  -9.72999954      -2.44737160E-03
  -9.72000027      -2.05792766E-03
  -9.71000004      -1.66418601E-03
  -9.69999981      -1.26697705E-03
  -9.68999958      -8.67197406E-04
  -9.68000031      -4.65842080E-04
  -9.67000008      -6.39894206E-05
  -9.65999985       3.37206497E-04
  -9.64999962       7.36537739E-04
  -9.64000034       1.13279221E-03
  -9.63000011       1.52476167E-03
  -9.61999989       1.91132037E-03
  -9.60999966       2.29140744E-03
  -9.60000038       2.66410387E-03
  -9.59000015       3.02866916E-03
  -9.57999992       3.38455685E-03
  -9.56999969       3.73145309E-03
  -9.56000042       4.06933762E-03
  -9.55000019       4.39839019E-03
  -9.53999996       4.71902639E-03
  -9.52999973       5.03180502E-03
  -9.52000046       5.33737661E-03
  -9.51000023       5.63639030E-03
  -9.50000000       5.92945516E-03
  -9.48999977       6.21709786E-03
  -9.47999954       6.49972493E-03
  -9.47000027       6.77767722E-03
  -9.46000004       7.05119781E-03
  -9.44999981       7.32045481E-03
  -9.43999958       7.58555997E-03
  -9.43000031       7.84648489E-03
  -9.42000008       8.10310803E-03
  -9.40999985       8.35510902E-03
  -9.39999962       8.60194676E-03
  -9.39000034       8.84284917E-03
  -9.38000011       9.07679740E-03
  -9.36999989       9.30256769E-03
  -9.35999966       9.51872580E-03
  -9.35000038       9.72369686E-03
  -9.34000015       9.91577003E-03
  -9.32999992       1.00931209E-02
  -9.31999969       1.02538513E-02
  -9.31000042       1.03960307E-02
  -9.30000019       1.05176819E-02
  -9.28999996       1.06168659E-02
  -9.27999973       1.06917135E-02
  -9.27000046       1.07404748E-02
  -9.26000023       1.07615786E-02
  -9.25000000       1.07536456E-02
  -9.23999977       1.07155237E-02
  -9.22999954       1.06462510E-02
  -9.22000027       1.05450470E-02
  -9.21000004       1.04112644E-02
  -9.19999981       1.02444030E-02
  -9.18999958       1.00440253E-02
  -9.18000031       9.80980508E-03
  -9.17000008       9.54155624E-03
  -9.15999985       9.23922099E-03
  -9.14999962       8.90297722E-03
  -9.14000034       8.53318907E-03
  -9.13000011       8.13052244E-03
  -9.11999989       7.69588305E-03
  -9.10999966       7.23042572E-03
  -9.10000038       6.73547760E-03
  -9.09000015       6.21250086E-03
  -9.07999992       5.66304568E-03
  -9.06999969       5.08869626E-03
  -9.06000042       4.49109683E-03
  -9.05000019       3.87195218E-03
  -9.03999996       3.23313102E-03
  -9.02999973       2.57671182E-03
  -9.02000046       1.90507038E-03
  -9.01000023       1.22092618E-03
  -9.00000000       5.27318509E-04
  -8.98999977      -1.72425789E-04
  -8.97999954      -8.74789606E-04
  -8.97000027      -1.57619861E-03
  -8.96000004      -2.27301940E-03
  -8.94999981      -2.96169007E-03
  -8.93999958      -3.63868428E-03
  -8.93000031      -4.30048676E-03
  -8.92000008      -4.94354451E-03
  -8.90999985      -5.56425983E-03
  -8.89999962      -6.15897495E-03
  -8.89000034      -6.72404515E-03
  -8.88000011      -7.25594396E-03
  -8.86999989      -7.75132794E-03
  -8.85999966      -8.20711721E-03
  -8.85000038      -8.62051267E-03
  -8.84000015      -8.98893084E-03
  -8.82999992      -9.30987019E-03
  -8.81999969      -9.58086271E-03
  -8.81000042      -9.79926251E-03
  -8.80000019      -9.96228028E-03
  -8.78999996      -1.00669628E-02
  -8.77999973      -1.01103503E-02
  -8.77000046      -1.00895241E-02
  -8.76000023      -1.00018131E-02
  -8.75000000      -9.84484237E-03
  -8.73999977      -9.61652212E-03
  -8.72999954      -9.31504555E-03
  -8.72000027      -8.93884059E-03
  -8.71000004      -8.48646276E-03
  -8.69999981      -7.95665290E-03
  -8.68999958      -7.34834326E-03
  -8.68000031      -6.66082650E-03
  -8.67000008      -5.89382090E-03
  -8.65999985      -5.04762493E-03
  -8.64999962      -4.12310148E-03
  -8.64000034      -3.12168035E-03
  -8.63000011      -2.04524118E-03
  -8.61999989      -8.95953155E-04
  -8.60999966       3.23786691E-04
  -8.60000038       1.61148678E-03
  -8.59000015       2.96447473E-03
  -8.57999992       4.37981263E-03
  -8.56999969       5.85429696E-03
  -8.56000042       7.38433888E-03
  -8.55000019       8.96599703E-03
  -8.53999996       1.05951009E-02
  -8.52999973       1.22673940E-02
  -8.52000046       1.39787132E-02
  -8.51000023       1.57251880E-02
  -8.50000000       1.75032709E-02
  -8.48999977       1.93097051E-02
  -8.47999954       2.11414527E-02
  -8.47000027       2.29955129E-02
  -8.46000004       2.48688497E-02
  -8.44999981       2.67583001E-02
  -8.43999958       2.86606774E-02
  -8.43000031       3.05727590E-02
  -8.42000008       3.24915871E-02
  -8.40999985       3.44144776E-02
  -8.39999962       3.63391042E-02
  -8.39000034       3.82635295E-02
  -8.38000011       4.01860513E-02
  -8.36999989       4.21051122E-02
  -8.35999966       4.40190732E-02
  -8.35000038       4.59262617E-02
  -8.34000015       4.78249006E-02
  -8.32999992       4.97132093E-02
  -8.31999969       5.15894778E-02
  -8.31000042       5.34520634E-02
  -8.30000019       5.52994907E-02
  -8.28999996       5.71303144E-02
  -8.27999973       5.89429773E-02
  -8.27000046       6.07356727E-02
  -8.26000023       6.25061244E-02
  -8.25000000       6.42515942E-02
  -8.23999977       6.59689084E-02
  -8.22999954       6.76545352E-02
  -8.22000027       6.93048611E-02
  -8.21000004       7.09162578E-02
  -8.19999981       7.24851713E-02
  -8.18999958       7.40082711E-02
  -8.18000031       7.54822269E-02
  -8.17000008       7.69036189E-02
  -8.15999985       7.82688335E-02
  -8.14999962       7.95737207E-02
  -8.14000034       8.08138773E-02
  -8.13000011       8.19843486E-02
  -8.11999989       8.30800086E-02
  -8.10999966       8.40956420E-02
  -8.10000038       8.50259960E-02
  -8.09000015       8.58659744E-02
  -8.07999992       8.66104215E-02
  -8.06999969       8.72542262E-02
  -8.06000042       8.77921507E-02
  -8.05000019       8.82187635E-02
  -8.03999996       8.85284841E-02
  -8.02999973       8.87156874E-02
  -8.02000046       8.87750387E-02
  -8.01000023       8.87016058E-02
  -8.00000000       8.84912014E-02
  -7.98999977       8.81406739E-02
  -7.98000002       8.76476839E-02
  -7.96999979       8.70108306E-02
  -7.96000004       8.62293020E-02
  -7.94999981       8.53029341E-02
  -7.94000006       8.42316821E-02
  -7.92999983       8.30158293E-02
  -7.92000008       8.16560537E-02
  -7.90999985       8.01533237E-02
  -7.90000010       7.85093158E-02
  -7.88999987       7.67264441E-02
  -7.88000011       7.48078674E-02
  -7.86999989       7.27575868E-02
  -7.86000013       7.05800429E-02
  -7.84999990       6.82801157E-02
  -7.84000015       6.58628270E-02
  -7.82999992       6.33331612E-02
  -7.82000017       6.06962554E-02
  -7.80999994       5.79573214E-02
  -7.80000019       5.51219732E-02
  -7.78999996       5.21964096E-02
  -7.78000021       4.91874628E-02
  -7.76999998       4.61027212E-02
  -7.76000023       4.29504849E-02
  -7.75000000       3.97394970E-02
  -7.73999977       3.64787690E-02
  -7.73000002       3.31776440E-02
  -7.71999979       2.98453998E-02
  -7.71000004       2.64915414E-02
  -7.69999981       2.31257901E-02
  -7.69000006       1.97579935E-02
  -7.67999983       1.63984373E-02
  -7.67000008       1.30575076E-02
  -7.65999985       9.74553823E-03
  -7.65000010       6.47265418E-03
  -7.63999987       3.24836071E-03
  -7.63000011       8.13662555E-05
  -7.61999989      -3.02045979E-03
  -7.61000013      -6.05033059E-03
  -7.59999990      -9.00193304E-03
  -7.59000015      -1.18696894E-02
  -7.57999992      -1.46483649E-02
  -7.57000017      -1.73329674E-02
  -7.55999994      -1.99185945E-02
  -7.55000019      -2.24007107E-02
  -7.53999996      -2.47750804E-02
  -7.53000021      -2.70378981E-02
  -7.51999998      -2.91860066E-02
  -7.51000023      -3.12169436E-02
  -7.50000000      -3.31288427E-02
  -7.48999977      -3.49203907E-02
  -7.48000002      -3.65905911E-02
  -7.46999979      -3.81388180E-02
  -7.46000004      -3.95647101E-02
  -7.44999981      -4.08680290E-02
  -7.44000006      -4.20487672E-02