  -16.0000000       0.00000000    
  -15.9899998       0.00000000    
  -15.9799995       0.00000000    
  -15.9700003       0.00000000    
  -15.9600000       0.00000000    
  -15.9499998       0.00000000    
  -15.9399996       0.00000000    
  -15.9300003       0.00000000    
  -15.9200001       0.00000000    
  -15.9099998       0.00000000    
  -15.8999996       0.00000000    
  -15.8900003       0.00000000    
  -15.8800001       0.00000000    
  -15.8699999       0.00000000    
  -15.8599997       0.00000000    
  -15.8500004       4.20389539E-45
  -15.8400002       5.32493416E-44
  -15.8299999       5.11473939E-43
  -15.8199997       3.91803051E-42
  -15.8100004       2.47062932E-41
  -15.8000002       1.31430586E-40
  -15.7900000       6.01057549E-40
  -15.7799997       2.39890246E-39
  -15.7700005       8.45263094E-39
  -15.7600002       2.65186374E-38
  -15.7500000       7.45008176E-38
  -15.7399998       1.87934213E-37
  -15.7299995       4.25301393E-37
  -15.7200003       8.58080025E-37
  -15.7100000       1.51913381E-36
  -15.6999998       2.27164750E-36
  -15.6899996       2.56865730E-36
  -15.6800003       1.13002905E-36
  -15.6700001      -4.29838874E-36
  -15.6599998      -1.67140976E-35
  -15.6499996      -3.85264543E-35
  -15.6400003      -6.84460399E-35
  -15.6300001      -9.64192813E-35
  -15.6199999      -9.78990725E-35
  -15.6099997      -3.13011416E-35
  -15.6000004       1.54603152E-34
  -15.5900002       4.95639984E-34
  -15.5799999       9.66550138E-34
  -15.5699997       1.42553926E-33
  -15.5600004       1.58139494E-33
  -15.5500002       1.03217404E-33
  -15.5400000      -5.88757641E-34
  -15.5299997      -3.39210458E-33
  -15.5200005      -7.08576313E-33
  -15.5100002      -1.11240821E-32
  -15.5000000      -1.52251601E-32
  -15.4899998      -1.97718576E-32
  -15.4799995      -2.47385549E-32
  -15.4700003      -2.53259993E-32
  -15.4600000      -3.96810599E-33
  -15.4499998       7.65344976E-32
  -15.4399996       2.65470705E-31
  -15.4300003       5.82020543E-31
  -15.4200001       9.24556211E-31
  -15.4099998       9.52803999E-31
  -15.3999996       3.49204195E-32
  -15.3900003      -2.56592587E-30
  -15.3800001      -7.07056956E-30
  -15.3699999      -1.20942277E-29
  -15.3599997      -1.34971849E-29
  -15.3500004      -4.26349055E-30
  -15.3400002       2.29447409E-29
  -15.3299999       6.91950698E-29
  -15.3199997       1.19299744E-28
  -15.3100004       1.33190947E-28
  -15.3000002       4.84941125E-29
  -15.2900000      -1.93263519E-28
  -15.2799997      -5.89757882E-28
  -15.2700005      -1.00164419E-27
  -15.2600002      -1.09931677E-27
  -15.2500000      -4.06453937E-28
  -15.2399998       1.48019869E-27
  -15.2299995       4.47008456E-27
  -15.2200003       7.47017997E-27
  -15.2100000       8.10134111E-27
  -15.1999998       3.12028153E-27
  -15.1899996      -1.00057160E-26
  -15.1800003      -3.03463265E-26
  -15.1700001      -5.04398464E-26
  -15.1599998      -5.49172360E-26
  -15.1499996      -2.36216802E-26
  -15.1400003       5.84808782E-26
  -15.1300001       1.85021249E-25
  -15.1199999       3.11072531E-25
  -15.1099997       3.46618702E-25
  -15.1000004       1.75627000E-25
  -15.0900002      -2.88157133E-25
  -15.0799999      -1.01283025E-24
  -15.0699997      -1.75787378E-24
  -15.0600004      -2.04142253E-24
  -15.0500002      -1.23986107E-24
  -15.0400000       1.12796312E-24
  -15.0299997       4.95617207E-24
  -15.0200005       9.09758888E-24
  -15.0100002       1.11857439E-23
  -15.0000000       8.08317213E-24
  -14.9899998      -2.80081041E-24
  -14.9799995      -2.14279755E-23
  -14.9700003      -4.29532680E-23
  -14.9600000      -5.67174583E-23
  -14.9499998      -4.79655735E-23
  -14.9399996      -3.41217367E-24
  -14.9300003       7.96712974E-23
  -14.9200001       1.83522292E-22
  -14.9099998       2.64309651E-22
  -14.8999996       2.57462364E-22
  -14.8900003       9.89707353E-23
  -14.8800001      -2.37757477E-22
  -14.8699999      -6.99079043E-22
  -14.8599997      -1.12215320E-21
  -14.8500004      -1.24588819E-21
  -14.8400002      -7.83862683E-22
  -14.8299999       4.37624942E-22
  -14.8199997       2.30665413E-21
  -14.8100004       4.28750168E-21
  -14.8000002       5.41447710E-21
  -14.7900000       4.50887549E-21
  -14.7799997       6.51621322E-22
  -14.7700005      -6.16880847E-21
  -14.7600002      -1.44559102E-20
  -14.7500000      -2.09905481E-20
  -14.7399998      -2.13539082E-20
  -14.7299995      -1.13819761E-20
  -14.7200003       1.06054498E-20
  -14.7100000       4.14391153E-20
  -14.6999998       7.16827675E-20
  -14.6899996       8.64198690E-20
  -14.6800003       6.91554981E-20
  -14.6700001       8.76015773E-21
  -14.6599998      -9.21197315E-20
  -14.6499996      -2.10342543E-19
  -14.6400003      -3.01352599E-19
  -14.6300001      -3.07703330E-19
  -14.6199999      -1.78240891E-19
  -14.6099997       1.05108348E-19
  -14.6000004       5.01105085E-19
  -14.5900002       8.95697223E-19
  -14.5799999       1.11397571E-18
  -14.5699997       9.65398150E-19
  -14.5600004       3.19225258E-19
  -14.5500002      -8.07746883E-19
  -14.5400000      -2.18331758E-18
  -14.5299997      -3.35105176E-18
  -14.5200005      -3.71303138E-18
  -14.5100002      -2.71291770E-18
  -14.5000000      -8.94500190E-20
  -14.4899998       3.87315741E-18
  -14.4799995       8.20388219E-18
  -14.4700003       1.13211893E-17
  -14.4600000       1.13940986E-17
  -14.4499998       6.96791719E-18
  -14.4399996      -2.28218593E-18
  -14.4300003      -1.49173073E-17
  -14.4200001      -2.75255648E-17
  -14.4099998      -3.52011507E-17
  -14.3999996      -3.28122200E-17
  -14.3900003      -1.68890429E-17
  -14.3800001       1.23465872E-17
  -14.3699999       4.95359426E-17
  -14.3599997       8.41082673E-17
  -14.3500004       1.02144424E-16
  -14.3400002       9.02304229E-17
  -14.3299999       4.06207852E-17
  -14.3199997      -4.37123694E-17
  -14.3100004      -1.46052157E-16
  -14.3000002      -2.36786816E-16
  -14.2900000      -2.79238467E-16
  -14.2799997      -2.40149987E-16
  -14.2700005      -1.02714365E-16
  -14.2600002       1.21609963E-16
  -14.2500000       3.87097895E-16
  -14.2399998       6.17653937E-16
  -14.2299995       7.22559073E-16
  -14.2200003       6.22520565E-16
  -14.2100000       2.80411845E-16
  -14.1999998      -2.72301690E-16
  -14.1899996      -9.23785144E-16
  -14.1800003      -1.49323491E-15
  -14.1700001      -1.76874942E-15
  -14.1599998      -1.56708020E-15
  -14.1499996      -8.02034798E-16
  -14.1400003       4.58368332E-16
  -14.1300001       1.96786591E-15
  -14.1199999       3.32823216E-15
  -14.1099997       4.07150315E-15
  -14.1000004       3.78727912E-15
  -14.0900002       2.26690792E-15
  -14.0799999      -3.76416968E-16
  -14.0699997      -3.65560870E-15
  -14.0600004      -6.75944913E-15
  -14.0500002      -8.71457735E-15
  -14.0400000      -8.63785988E-15
  -14.0299997      -6.02411865E-15
  -14.0200005      -9.90238055E-16
  -14.0100002       5.60842707E-15
  -14.0000000       1.22540045E-14
  -13.9899998       1.70555522E-14
  -13.9799995       1.82137291E-14
  -13.9700003       1.45616941E-14
  -13.9600000       6.03948679E-15
  -13.9499998      -6.05103863E-15
  -13.9399996      -1.91303187E-14
  -13.9300003      -2.98084209E-14
  -13.9200001      -3.46764074E-14
  -13.9099998      -3.12567931E-14
  -13.8999996      -1.88708404E-14
  -13.8900003       8.40337893E-16
  -13.8800001       2.39515083E-14
  -13.8699999       4.49336545E-14
  -13.8599997       5.78967416E-14
  -13.8500004       5.81379630E-14
  -13.8400002       4.36086476E-14
  -13.8299999       1.58745172E-14
  -13.8199997      -1.97785378E-14
  -13.8100004      -5.52496078E-14
  -13.8000002      -8.14306576E-14
  -13.7900000      -9.05351640E-14
  -13.7799997      -7.83627042E-14
  -13.7700005      -4.58521364E-14
  -13.7600002       6.06427733E-16
  -13.7500000       5.03432745E-14
  -13.7399998       9.09090308E-14
  -13.7299995       1.11341891E-13
  -13.7200003       1.05347432E-13
  -13.7100000       7.34570011E-14
  -13.6999998       2.34180181E-14
  -13.6899996      -3.14953819E-14
  -13.6800003      -7.59788079E-14
  -13.6700001      -9.71504439E-14
  -13.6599998      -8.87138195E-14
  -13.6499996      -5.35152299E-14
  -13.6400003      -3.50413274E-15
  -13.6300001       4.32240947E-14
  -13.6199999       6.77618023E-14
  -13.6099997       5.67428185E-14
  -13.6000004       7.84617885E-15
  -13.5900002      -6.74323471E-14
  -13.5799999      -1.45058512E-13
  -13.5699997      -1.94054300E-13
  -13.5600004      -1.85386699E-13
  -13.5500002      -1.01955743E-13
  -13.5400000       5.31980533E-14
  -13.5299997       2.53271335E-13
  -13.5200005       4.50544821E-13
  -13.5100002       5.85973978E-13
  -13.5000000       6.03871825E-13
  -13.4899998       4.68316575E-13
  -13.4799995       1.76930139E-13
  -13.4700003      -2.32206805E-13
  -13.4600000      -6.83406619E-13
  -13.4499998      -1.07658706E-12
  -13.4399996      -1.30869111E-12
  -13.4300003      -1.29869585E-12
  -13.4200001      -1.01012623E-12
  -13.4099998      -4.65033882E-13
  -13.3999996       2.54922602E-13
  -13.3900003       1.02165346E-12
  -13.3800001       1.68582520E-12
  -13.3699999       2.10855183E-12
  -13.3599997       2.19208614E-12
  -13.3500004       1.90191244E-12
  -13.3400002       1.27460911E-12
  -13.3299999       4.09419108E-13
  -13.3199997      -5.54250222E-13
  -13.3100004      -1.46737516E-12
  -13.3000002      -2.20169607E-12
  -13.2900000      -2.67182977E-12
  -13.2799997      -2.84353270E-12
  -13.2700005      -2.72681985E-12
  -13.2600002      -2.35747641E-12
  -13.2500000      -1.77442089E-12
  -13.2399998      -1.00204784E-12
  -13.2299995      -4.54174662E-14
  -13.2200003       1.09796091E-12
  -13.2100000       2.41191117E-12
  -13.1999998       3.82910197E-12
  -13.1899996       5.20461148E-12
  -13.1800003       6.30854657E-12
  -13.1700001       6.84724282E-12
  -13.1599998       6.51533905E-12
  -13.1499996       5.07169263E-12
  -13.1400003       2.42319055E-12
  -13.1300001      -1.30525853E-12
  -13.1199999      -5.73681424E-12
  -13.1099997      -1.02615217E-11
  -13.1000004      -1.41133875E-11
  -13.0900002      -1.64972029E-11
  -13.0799999      -1.67428536E-11
  -13.0699997      -1.44552903E-11
  -13.0600004      -9.62592939E-12
  -13.0500002      -2.67712415E-12
  -13.0400000       5.57516359E-12
  -13.0299997       1.40373442E-11
  -13.0200005       2.15114107E-11
  -13.0100002       2.68903302E-11
  -13.0000000       2.93352044E-11
  -12.9899998       2.83983739E-11
  -12.9799995       2.40702961E-11
  -12.9700003       1.67471540E-11
  -12.9600000       7.13579846E-12
  -12.9499998      -3.87308024E-12
  -12.9399996      -1.53275500E-11
  -12.9300003      -2.63025747E-11
  -12.9200001      -3.59387103E-11
  -12.9099998      -4.34363968E-11
  -12.8999996      -4.80294936E-11
  -12.8900003      -4.89725031E-11
  -12.8800001      -4.55751895E-11
  -12.8699999      -3.73035457E-11
  -12.8599997      -2.39428356E-11
  -12.8500004      -5.79034477E-12
  -12.8400002       1.61761507E-11
  -12.8299999       4.02179678E-11
  -12.8199997       6.38975192E-11
  -12.8100004       8.43105794E-11
  -12.8000002       9.84754986E-11
  -12.7900000       1.03822041E-10
  -12.7799997       9.86863438E-11
  -12.7700005       8.27011931E-11
  -12.7600002       5.69798063E-11
  -12.7500000       2.40276635E-11
  -12.7399998      -1.26263557E-11
  -12.7299995      -4.90235109E-11
  -12.7200003      -8.14789070E-11
  -12.7100000      -1.07246143E-10
  -12.6999998      -1.24991142E-10
  -12.6899996      -1.34956879E-10
  -12.6800003      -1.38764736E-10
  -12.6700001      -1.38877965E-10
  -12.6599998      -1.37831191E-10
  -12.6499996      -1.37387296E-10
  -12.6400003      -1.37806752E-10
  -12.6300001      -1.37396733E-10
  -12.6199999      -1.32454631E-10
  -12.6099997      -1.17642326E-10
  -12.6000004      -8.67456385E-11
  -12.5900002      -3.37034740E-11
  -12.5799999       4.62491885E-11
  -12.5699997       1.55486263E-10
  -12.5600004       2.93079228E-10
  -12.5500002       4.54158156E-10
  -12.5400000       6.29583385E-10
  -12.5299997       8.05930989E-10
  -12.5200005       9.65779678E-10
  -12.5100002       1.08830078E-09
  -12.5000000       1.15019094E-09
  -12.4899998       1.12701137E-09
  -12.4799995       9.95024729E-10
  -12.4700003       7.33589578E-10
  -12.4600000       3.28118505E-10
  -12.4499998      -2.26507368E-10
  -12.4399996      -9.22309396E-10
  -12.4300003      -1.73472392E-09
  -12.4200001      -2.61972311E-09
  -12.4099998      -3.51202445E-09
  -12.3999996      -4.32482139E-09
  -12.3900003      -4.95133845E-09
  -12.3800001      -5.26830712E-09
  -12.3699999      -5.14122833E-09
  -12.3599997      -4.43107862E-09
  -12.3500004      -3.00195113E-09
  -12.3400002      -7.29031058E-10
  -12.3299999       2.49368681E-09
  -12.3199997       6.74642386E-09
  -12.3100004       1.20777326E-08
  -12.3000002       1.84998985E-08
  -12.2900000       2.59856474E-08
  -12.2799997       3.44661544E-08
  -12.2700005       4.38302514E-08
  -12.2600002       5.39248752E-08
  -12.2500000       6.45566516E-08
  -12.2399998       7.54949667E-08
  -12.2299995       8.64763052E-08
  -12.2200003       9.72102612E-08
  -12.2100000       1.07386768E-07
  -12.1999998       1.16684646E-07
  -12.1899996       1.24780726E-07
  -12.1800003       1.31359130E-07
  -12.1700001       1.36119951E-07
  -12.1599998       1.38786902E-07
  -12.1499996       1.39113112E-07
  -12.1400003       1.36885348E-07
  -12.1300001       1.31926271E-07
  -12.1199999       1.24095635E-07
  -12.1099997       1.13290227E-07
  -12.1000004       9.94437528E-08
  -12.0900002       8.25267534E-08
  -12.0799999       6.25468886E-08
  -12.0699997       3.95496045E-08
  -12.0600004       1.36190650E-08
  -12.0500002      -1.51211577E-08
  -12.0400000      -4.65078287E-08
  -12.0299997      -8.03386584E-08
  -12.0200005      -1.16373776E-07
  -12.0100002      -1.54337826E-07
  -12.0000000      -1.93922659E-07
  -11.9899998      -2.34789596E-07
  -11.9799995      -2.76571654E-07
  -11.9700003      -3.18874243E-07
  -11.9600000      -3.61276250E-07
  -11.9499998      -4.03329238E-07
  -11.9399996      -4.44558168E-07
  -11.9300003      -4.84461737E-07
  -11.9200001      -5.22514711E-07
  -11.9099998      -5.58172076E-07
  -11.8999996      -5.90875231E-07
  -11.8900003      -6.20059382E-07
  -11.8800001      -6.45163084E-07
  -11.8699999      -6.65637799E-07
  -11.8599997      -6.80957385E-07
  -11.8500004      -6.90626337E-07
  -11.8400002      -6.94186895E-07
  -11.8299999      -6.91225409E-07
  -11.8199997      -6.81375468E-07
  -11.8100004      -6.64322101E-07
  -11.8000002      -6.39804796E-07
  -11.7900000      -6.07619768E-07
  -11.7799997      -5.67623260E-07
  -11.7700005      -5.19734897E-07
  -11.7600002      -4.63940296E-07
  -11.7500000      -4.00293629E-07
  -11.7399998      -3.28919555E-07
  -11.7299995      -2.50013557E-07
  -11.7200003      -1.63841733E-07
  -11.7100000      -7.07389205E-08
  -11.6999998       2.88929236E-08
  -11.6899996       1.34587140E-07
  -11.6800003       2.45814249E-07
  -11.6700001       3.61983012E-07
  -11.6599998       4.82441351E-07
  -11.6499996       6.06476135E-07
  -11.6400003       7.33313527E-07
  -11.6300001       8.62119350E-07
  -11.6199999       9.92000764E-07
  -11.6099997       1.12201008E-06
  -11.6000004       1.25114900E-06
  -11.5900002       1.37837503E-06
  -11.5799999       1.50261030E-06
  -11.5699997       1.62274921E-06
  -11.5600004       1.73766841E-06
  -11.5500002       1.84623400E-06
  -11.5400000       1.94731069E-06
  -11.5299997       2.03976833E-06
  -11.5200005       2.12248938E-06
  -11.5100002       2.19437379E-06
  -11.5000000       2.25434610E-06
  -11.4899998       2.30136152E-06
  -11.4799995       2.33441460E-06
  -11.4700003       2.35254379E-06
  -11.4600000       2.35484276E-06
  -11.4499998       2.34046502E-06
  -11.4399996       2.30863270E-06
  -11.4300003       2.25864346E-06
  -11.4200001       2.18987270E-06
  -11.4099998       2.10178064E-06
  -11.3999996       1.99391161E-06
  -11.3900003       1.86589568E-06
  -11.3800001       1.71744830E-06
  -11.3699999       1.54836846E-06
  -11.3599997       1.35853816E-06
  -11.3500004       1.14791806E-06
  -11.3400002       9.16544877E-07
  -11.3299999       6.64526794E-07
  -11.3199997       3.92038288E-07
  -11.3100004       9.93152796E-08
  -11.3000002      -2.13351285E-07
  -11.2900000      -5.45620139E-07
  -11.2799997      -8.97104826E-07
  -11.2700005      -1.26737677E-06
  -11.2600002      -1.65596668E-06
  -11.2500000      -2.06236450E-06
  -11.2399998      -2.48601759E-06
  -11.2299995      -2.92632853E-06
  -11.2200003      -3.38265136E-06
  -11.2100000      -3.85428939E-06
  -11.1999998      -4.34049298E-06
  -11.1899996      -4.84046041E-06
  -11.1800003      -5.35333447E-06
  -11.1700001      -5.87821523E-06
  -11.1599998      -6.41415136E-06
  -11.1499996      -6.96015695E-06
  -11.1400003      -7.51520884E-06
  -11.1300001      -8.07825472E-06
  -11.1199999      -8.64822596E-06
  -11.1099997      -9.22403433E-06
  -11.1000004      -9.80458844E-06
  -11.0900002      -1.03887978E-05
  -11.0799999      -1.09755856E-05
  -11.0699997      -1.15638950E-05
  -11.0600004      -1.21527000E-05
  -11.0500002      -1.27410212E-05
  -11.0400000      -1.33279236E-05
  -11.0299997      -1.39125295E-05
  -11.0200005      -1.44940159E-05
  -11.0100002      -1.50716278E-05
  -11.0000000      -1.56446640E-05
  -10.9899998      -1.62124852E-05
  -10.9799995      -1.67744856E-05
  -10.9700003      -1.73301269E-05
  -10.9600000      -1.78788960E-05
  -10.9499998      -1.84203091E-05
  -10.9399996      -1.89539132E-05
  -10.9300003      -1.94792665E-05
  -10.9200001      -1.99959395E-05
  -10.9099998      -2.05034958E-05
  -10.8999996      -2.10014969E-05
  -10.8900003      -2.14894935E-05
  -10.8800001      -2.19669946E-05
  -10.8699999      -2.24334890E-05
  -10.8599997      -2.28884219E-05
  -10.8500004      -2.33311912E-05
  -10.8400002      -2.37611457E-05
  -10.8299999      -2.41775833E-05
  -10.8199997      -2.45797655E-05
  -10.8100004      -2.49668938E-05
  -10.8000002      -2.53381368E-05
  -10.7900000      -2.56926342E-05
  -10.7799997      -2.60295092E-05
  -10.7700005      -2.63478451E-05
  -10.7600002      -2.66467323E-05
  -10.7500000      -2.69252560E-05
  -10.7399998      -2.71824920E-05
  -10.7299995      -2.74175418E-05
  -10.7200003      -2.76295050E-05
  -10.7100000      -2.78175212E-05
  -10.6999998      -2.79807409E-05
  -10.6899996      -2.81183493E-05
  -10.6800003      -2.82295714E-05
  -10.6700001      -2.83136415E-05
  -10.6599998      -2.83698428E-05
  -10.6499996      -2.83974750E-05
  -10.6400003      -2.83958580E-05
  -10.6300001      -2.83643294E-05
  -10.6199999      -2.83022418E-05
  -10.6099997      -2.82089259E-05
  -10.6000004      -2.80837539E-05
  -10.5900002      -2.79260566E-05
  -10.5799999      -2.77351901E-05
  -10.5699997      -2.75105012E-05
  -10.5600004      -2.72513462E-05
  -10.5500002      -2.69570992E-05
  -10.5400000      -2.66271545E-05
  -10.5299997      -2.62609319E-05
  -10.5200005      -2.58578802E-05
  -10.5100002      -2.54174884E-05
  -10.5000000      -2.49392851E-05
  -10.4899998      -2.44228577E-05
  -10.4799995      -2.38678422E-05
  -10.4700003      -2.32739385E-05
  -10.4600000      -2.26409284E-05
  -10.4499998      -2.19686826E-05
  -10.4399996      -2.12571686E-05
  -10.4300003      -2.05064753E-05
  -10.4200001      -1.97168247E-05
  -10.4099998      -1.88885806E-05
  -10.3999996      -1.80222778E-05
  -10.3900003      -1.71186148E-05
  -10.3800001      -1.61784701E-05
  -10.3699999      -1.52028870E-05
  -10.3599997      -1.41930977E-05
  -10.3500004      -1.31504803E-05
  -10.3400002      -1.20765699E-05
  -10.3299999      -1.09730399E-05
  -10.3199997      -9.84167127E-06
  -10.3100004      -8.68435109E-06
  -10.3000002      -7.50303570E-06
  -10.2900000      -6.29975239E-06
  -10.2799997      -5.07656432E-06
  -10.2700005      -3.83556244E-06
  -10.2600002      -2.57883767E-06
  -10.2500000      -1.30848127E-06
  -10.2399998      -2.65465321E-08
  -10.2299995       1.26496059E-06
  -10.2200003       2.56409476E-06
  -10.2100000       3.86900183E-06
  -10.1999998       5.17792796E-06
  -10.1899996       6.48923969E-06
  -10.1800003       7.80144001E-06
  -10.1700001       9.11316783E-06
  -10.1599998       1.04232195E-05
  -10.1499996       1.17305381E-05
  -10.1400003       1.30342169E-05
  -10.1300001       1.43334892E-05
  -10.1199999       1.56277183E-05
  -10.1099997       1.69163868E-05
  -10.1000004       1.81990672E-05
  -10.0900002       1.94754230E-05
  -10.0799999       2.07451722E-05
  -10.0699997       2.20080838E-05
  -10.0600004       2.32639595E-05
  -10.0500002       2.45126230E-05
  -10.0400000       2.57539014E-05
  -10.0299997       2.69876400E-05
  -10.0200005       2.82136680E-05
  -10.0100002       2.94318306E-05
  -10.0000000       3.06419606E-05
  -9.98999977       3.18438833E-05
  -9.97999954       3.30374460E-05
  -9.97000027       3.42224703E-05
  -9.96000004       3.53987925E-05
  -9.94999981       3.65662563E-05
  -9.93999958       3.77247088E-05
  -9.93000031       3.88740154E-05
  -9.92000008       4.00140780E-05
  -9.90999985       4.11448164E-05
  -9.89999962       4.22662015E-05
  -9.89000034       4.33782479E-05
  -9.88000011       4.44810430E-05
  -9.86999989       4.55747359E-05
  -9.85999966       4.66595775E-05
  -9.85000038       4.77358917E-05
  -9.84000015       4.88041333E-05
  -9.82999992       4.98648333E-05
  -9.81999969       5.09186611E-05
  -9.81000042       5.19663990E-05
  -9.80000019       5.30089237E-05
  -9.78999996       5.40472174E-05
  -9.77999973       5.50823715E-05
  -9.77000046       5.61155503E-05
  -9.76000023       5.71479723E-05
  -9.75000000       5.81809472E-05
  -9.73999977       5.92157703E-05
  -9.72999954       6.02538421E-05
  -9.72000027       6.12965159E-05
  -9.71000004       6.23451779E-05
  -9.69999981       6.34012467E-05
  -9.68999958       6.44660759E-05
  -9.68000031       6.55410040E-05
  -9.67000008       6.66273336E-05
  -9.65999985       6.77262869E-05
  -9.64999962       6.88389991E-05
  -9.64000034       6.99664670E-05
  -9.63000011       7.11095854E-05
  -9.61999989       7.22690384E-05
  -9.60999966       7.34453351E-05
  -9.60000038       7.46387814E-05
  -9.59000015       7.58494352E-05
  -9.57999992       7.70771148E-05
  -9.56999969       7.83214055E-05
  -9.56000042       7.95816013E-05
  -9.55000019       8.08568002E-05
  -9.53999996       8.21457943E-05
  -9.52999973       8.34472230E-05
  -9.52000046       8.47594201E-05
  -9.51000023       8.60805667E-05
  -9.50000000       8.74086545E-05
  -9.48999977       8.87414571E-05
  -9.47999954       9.00766172E-05
  -9.47000027       9.14116099E-05
  -9.46000004       9.27438377E-05
  -9.44999981       9.40705431E-05
  -9.43999958       9.53889830E-05
  -9.43000031       9.66963489E-05
  -9.42000008       9.79898687E-05
  -9.40999985       9.92667919E-05
  -9.39999962       1.00524507E-04
  -9.39000034       1.01760575E-04
  -9.38000011       1.02972677E-04
  -9.36999989       1.04158767E-04
  -9.35999966       1.05317115E-04
  -9.35000038       1.06446285E-04
  -9.34000015       1.07545173E-04
  -9.32999992       1.08613138E-04
  -9.31999969       1.09649933E-04
  -9.31000042       1.10655805E-04
  -9.30000019       1.11631409E-04
  -9.28999996       1.12577967E-04
  -9.27999973       1.13497168E-04
  -9.27000046       1.14391223E-04
  -9.26000023       1.15262810E-04
  -9.25000000       1.16115167E-04
  -9.23999977       1.16952018E-04
  -9.22999954       1.17777534E-04
  -9.22000027       1.18596414E-04
  -9.21000004       1.19413722E-04
  -9.19999981       1.20234996E-04
  -9.18999958       1.21066078E-04
  -9.18000031       1.21913145E-04
  -9.17000008       1.22782629E-04
  -9.15999985       1.23681151E-04
  -9.14999962       1.24615530E-04
  -9.14000034       1.25592604E-04
  -9.13000011       1.26619227E-04
  -9.11999989       1.27702311E-04
  -9.10999966       1.28848536E-04
  -9.10000038       1.30064480E-04
  -9.09000015       1.31356472E-04
  -9.07999992       1.32730449E-04
  -9.06999969       1.34191985E-04
  -9.06000042       1.35746232E-04
  -9.05000019       1.37397757E-04
  -9.03999996       1.39150638E-04
  -9.02999973       1.41008248E-04
  -9.02000046       1.42973338E-04
  -9.01000023       1.45047918E-04
  -9.00000000       1.47233339E-04
  -8.98999977       1.49530111E-04
  -8.97999954       1.51937988E-04
  -8.97000027       1.54455993E-04
  -8.96000004       1.57082206E-04
  -8.94999981       1.59814066E-04
  -8.93999958       1.62648139E-04
  -8.93000031       1.65580219E-04
  -8.92000008       1.68605387E-04
  -8.90999985       1.71717955E-04
  -8.89999962       1.74911547E-04
  -8.89000034       1.78179063E-04
  -8.88000011       1.81512834E-04
  -8.86999989       1.84904638E-04
  -8.85999966       1.88345555E-04
  -8.85000038       1.91826286E-04
  -8.84000015       1.95337037E-04
  -8.82999992       1.98867652E-04
  -8.81999969       2.02407653E-04
  -8.81000042       2.05946242E-04
  -8.80000019       2.09472390E-04
  -8.78999996       2.12974977E-04
  -8.77999973       2.16442684E-04
  -8.77000046       2.19864203E-04
  -8.76000023       2.23228111E-04
  -8.75000000       2.26523232E-04
  -8.73999977       2.29738464E-04
  -8.72999954       2.32862905E-04
  -8.72000027       2.35885876E-04
  -8.71000004       2.38797118E-04
  -8.69999981       2.41586677E-04
  -8.68999958       2.44245079E-04
  -8.68000031       2.46763258E-04
  -8.67000008       2.49132660E-04
  -8.65999985       2.51345336E-04
  -8.64999962       2.53393810E-04
  -8.64000034       2.55271239E-04
  -8.63000011       2.56971456E-04
  -8.61999989       2.58488697E-04
  -8.60999966       2.59818131E-04
  -8.60000038       2.60955421E-04
  -8.59000015       2.61896843E-04
  -8.57999992       2.62639398E-04
  -8.56999969       2.63180526E-04
  -8.56000042       2.63518363E-04
  -8.55000019       2.63651687E-04
  -8.53999996       2.63579626E-04
  -8.52999973       2.63302005E-04
  -8.52000046       2.62819027E-04
  -8.51000023       2.62131449E-04
  -8.50000000       2.61240231E-04
  -8.48999977       2.60147004E-04
  -8.47999954       2.58853484E-04
  -8.47000027       2.57361768E-04
  -8.46000004       2.55674124E-04
  -8.44999981       2.53793172E-04
  -8.43999958       2.51721445E-04
  -8.43000031       2.49461824E-04
  -8.42000008       2.47017160E-04
  -8.40999985       2.44390423E-04
  -8.39999962       2.41584639E-04
  -8.39000034       2.38602821E-04
  -8.38000011       2.35448126E-04
  -8.36999989       2.32123712E-04
  -8.35999966       2.28632722E-04
  -8.35000038       2.24978430E-04
  -8.34000015       2.21164228E-04
  -8.32999992       2.17193548E-04
  -8.31999969       2.13070103E-04
  -8.31000042       2.08797632E-04
  -8.30000019       2.04380151E-04
  -8.28999996       1.99821880E-04
  -8.27999973       1.95127242E-04
  -8.27000046       1.90301027E-04
  -8.26000023       1.85348181E-04
  -8.25000000       1.80273972E-04
  -8.23999977       1.75084031E-04
  -8.22999954       1.69784267E-04
  -8.22000027       1.64380952E-04
  -8.21000004       1.58880735E-04
  -8.19999981       1.53290661E-04
  -8.18999958       1.47618164E-04
  -8.18000031       1.41871162E-04
  -8.17000008       1.36057904E-04
  -8.15999985       1.30187153E-04
  -8.14999962       1.24268074E-04
  -8.14000034       1.18310250E-04
  -8.13000011       1.12323694E-04
  -8.11999989       1.06318817E-04
  -8.10999966       1.00306381E-04
  -8.10000038       9.42975676E-05
  -8.09000015       8.83038010E-05
  -8.07999992       8.23368755E-05
  -8.06999969       7.64088181E-05
  -8.06000042       7.05318816E-05
  -8.05000019       6.47184643E-05
  -8.03999996       5.89810516E-05
  -8.02999973       5.33323109E-05
  -8.02000046       4.77848480E-05
  -8.01000023       4.23512247E-05
  -8.00000000       3.70440466E-05
  -7.98999977       3.18757557E-05
  -7.98000002       2.68586427E-05
  -7.96999979       2.20048787E-05
  -7.96000004       1.73264125E-05
  -7.94999981       1.28347529E-05
  -7.94000006       8.54129667E-06
  -7.92999983       4.45694286E-06
  -7.92000008       5.92243282E-07
  -7.90999985      -3.04272726E-06
  -7.90000010      -6.43846124E-06
  -7.88999987      -9.58581313E-06
  -7.88000011      -1.24762228E-05
  -7.86999989      -1.51018221E-05
  -7.86000013      -1.74551205E-05
  -7.84999990      -1.95293615E-05
  -7.84000015      -2.13183812E-05
  -7.82999992      -2.28167391E-05
  -7.82000017      -2.40195986E-05
  -7.80999994      -2.49228451E-05
  -7.80000019      -2.55231116E-05
  -7.78999996      -2.58176533E-05
  -7.78000021      -2.58044784E-05
  -7.76999998      -2.54822353E-05
  -7.76000023      -2.48502747E-05
  -7.75000000      -2.39085693E-05
  -7.73999977      -2.26577104E-05
  -7.73000002      -2.10990220E-05
  -7.71999979      -1.92343341E-05
  -7.71000004      -1.70661733E-05
  -7.69999981      -1.45976474E-05
  -7.69000006      -1.18323424E-05
  -7.67999983      -8.77436014E-06
  -7.67000008      -5.42830958E-06
  -7.65999985      -1.79920698E-06
  -7.65000010       2.10767189E-06
  -7.63999987       6.28649877E-06
  -7.63000011       1.07313872E-05
  -7.61999989       1.54361478E-05
  -7.61000013       2.03943364E-05
  -7.59999990       2.55995310E-05
  -7.59000015       3.10451105E-05
  -7.57999992       3.67245848E-05
  -7.57000017       4.26314909E-05
  -7.55999994       4.87593679E-05
  -7.55000019       5.51019948E-05
  -7.53999996       6.16533653E-05
  -7.53000021       6.84075712E-05
  -7.51999998       7.53589702E-05
  -7.51000023       8.25022435E-05
  -7.50000000       8.98321814E-05
  -7.48999977       9.73439601E-05
  -7.48000002       1.05033090E-04
  -7.46999979       1.12895374E-04
  -7.46000004       1.20926779E-04
  -7.44999981       1.29123873E-04
  -7.44000006       1.37483337E-04