  -16.0000000       0.00000000    
  -15.9899998       0.00000000    
  -15.9799995       0.00000000    
  -15.9700003       0.00000000    
  -15.9600000       0.00000000    
  -15.9499998       0.00000000    
  -15.9399996       0.00000000    
  -15.9300003       0.00000000    
  -15.9200001       0.00000000    
  -15.9099998       0.00000000    
  -15.8999996       0.00000000    
  -15.8900003       0.00000000    
  -15.8800001       0.00000000    
  -15.8699999      -9.05028613E-41
  -15.8599997      -1.92875702E-39
  -15.8500004      -1.95517009E-38
  -15.8400002      -1.24271397E-37
  -15.8299999      -5.43088757E-37
  -15.8199997      -1.64693671E-36
  -15.8100004      -3.06169069E-36
  -15.8000002      -5.48447816E-37
  -15.7900000       1.79750793E-35
  -15.7799997       6.14472568E-35
  -15.7700005       5.70794687E-35
  -15.7600002      -4.03269271E-34
  -15.7500000      -2.61770984E-33
  -15.7399998      -9.58928545E-33
  -15.7299995      -2.64245899E-32
  -15.7200003      -5.81018293E-32
  -15.7100000      -9.95490666E-32
  -15.6999998      -1.09427733E-31
  -15.6899996       4.05920093E-32
  -15.6800003       6.30985337E-31
  -15.6700001       2.10199079E-30
  -15.6599998       4.80667953E-30
  -15.6499996       8.17392278E-30
  -15.6400003       9.02354828E-30
  -15.6300001      -4.52798355E-31
  -15.6199999      -3.25713994E-29
  -15.6099997      -9.66094067E-29
  -15.6000004      -1.77514841E-28
  -15.5900002      -2.01293455E-28
  -15.5799999      -9.16541785E-30
  -15.5699997       6.01047202E-28
  -15.5600004       1.67999890E-27
  -15.5500002       2.73176041E-27
  -15.5400000       2.26033494E-27
  -15.5299997      -2.23106851E-27
  -15.5200005      -1.28803036E-26
  -15.5100002      -2.78932372E-26
  -15.5000000      -3.61762243E-26
  -15.4899998      -1.36639337E-26
  -15.4799995       7.09344650E-26
  -15.4700003       2.30990725E-25
  -15.4600000       4.13178373E-25
  -15.4499998       4.41136935E-25
  -15.4399996       3.11013439E-27
  -15.4300003      -1.22973081E-24
  -15.4200001      -3.27113204E-24
  -15.4099998      -5.28821151E-24
  -15.3999996      -5.11450789E-24
  -15.3900003       6.27601811E-25
  -15.3800001       1.50089733E-23
  -15.3699999       3.73260644E-23
  -15.3599997       5.82153284E-23
  -15.3500004       5.59449047E-23
  -15.3400002      -1.08782302E-24
  -15.3299999      -1.39553382E-22
  -15.3199997      -3.50946142E-22
  -15.3100004      -5.52188699E-22
  -15.3000002      -5.59089427E-22
  -15.2900000      -1.10912493E-22
  -15.2799997       1.01168521E-21
  -15.2700005       2.75878931E-21
  -15.2600002       4.52552896E-21
  -15.2500000       4.96553089E-21
  -15.2399998       2.16052568E-21
  -15.2299995      -5.58480846E-21
  -15.2200003      -1.82305679E-20
  -15.2100000      -3.21127476E-20
  -15.1999998      -3.86512000E-20
  -15.1899996      -2.52048702E-20
  -15.1800003       2.03231879E-20
  -15.1700001       1.00547894E-19
  -15.1599998       1.97170248E-19
  -15.1499996       2.62372462E-19
  -15.1400003       2.21535072E-19
  -15.1300001      -3.76078029E-21
  -15.1199999      -4.48514802E-19
  -15.1099997      -1.04104475E-18
  -15.1000004      -1.54950192E-18
  -15.0900002      -1.58061900E-18
  -15.0799999      -6.77518514E-19
  -15.0699997       1.45769438E-18
  -15.0600004       4.64528088E-18
  -15.0500002       7.92423476E-18
  -15.0400000       9.45679364E-18
  -15.0299997       6.86822910E-18
  -15.0200005      -1.82457390E-18
  -15.0100002      -1.67621368E-17
  -15.0000000      -3.46868297E-17
  -14.9899998      -4.80802371E-17
  -14.9799995      -4.60054133E-17
  -14.9700003      -1.74721986E-17
  -14.9600000       4.26429241E-17
  -14.9499998       1.26461807E-16
  -14.9399996       2.07710015E-16
  -14.9300003       2.42173046E-16
  -14.9200001       1.77877700E-16
  -14.9099998      -2.35606598E-17
  -14.8999996      -3.57832404E-16
  -14.8900003      -7.50726201E-16
  -14.8800001      -1.04790882E-15
  -14.8699999      -1.03798160E-15
  -14.8599997      -5.18911071E-16
  -14.8500004       5.97259766E-16
  -14.8400002       2.16852865E-15
  -14.8299999       3.74513415E-15
  -14.8199997       4.59071486E-15
  -14.8100004       3.85215338E-15
  -14.8000002       8.86680601E-16
  -14.7900000      -4.31440086E-15
  -14.7799997      -1.07463519E-14
  -14.7700005      -1.62560039E-14
  -14.7600002      -1.78511635E-14
  -14.7500000      -1.25616121E-14
  -14.7399998       1.23198592E-15
  -14.7299995       2.23404347E-14
  -14.7200003       4.57554188E-14
  -14.7100000       6.27648839E-14
  -14.6999998       6.27284411E-14
  -14.6899996       3.65961635E-14
  -14.6800003      -1.84569225E-14
  -14.6700001      -9.46969554E-14
  -14.6599998      -1.71770625E-13
  -14.6499996      -2.18879819E-13
  -14.6400003      -2.02299156E-13
  -14.6300001      -9.76443048E-14
  -14.6199999       9.59402642E-14
  -14.6099997       3.44553487E-13
  -14.6000004       5.77124394E-13
  -14.5900002       6.96652100E-13
  -14.5799999       6.06559074E-13
  -14.5699997       2.48209331E-13
  -14.5600004      -3.60392407E-13
  -14.5500002      -1.09926619E-12
  -14.5400000      -1.74967603E-12
  -14.5299997      -2.03607270E-12
  -14.5200005      -1.70598919E-12
  -14.5100002      -6.32367693E-13
  -14.5000000       1.09155729E-12
  -14.4899998       3.10291268E-12
  -14.4799995       4.80024527E-12
  -14.4700003       5.47245495E-12
  -14.4600000       4.51292432E-12
  -14.4499998       1.67066263E-12
  -14.4399996      -2.73946274E-12
  -14.4300003      -7.75627566E-12
  -14.4200001      -1.18923820E-11
  -14.4099998      -1.34762540E-11
  -14.3999996      -1.11653351E-11
  -14.3900003      -4.50307630E-12
  -14.3800001       5.66032334E-12
  -14.3699999       1.70687874E-11
  -14.3599997       2.64084483E-11
  -14.3500004       3.01087592E-11
  -14.3400002       2.54473317E-11
  -14.3299999       1.16656502E-11
  -14.3199997      -9.27807397E-12
  -14.3100004      -3.26619357E-11
  -14.3000002      -5.18498820E-11
  -14.2900000      -5.99682110E-11
  -14.2799997      -5.20465997E-11
  -14.2700005      -2.70204623E-11
  -14.2600002       1.10976818E-11
  -14.2500000       5.34411786E-11
  -14.2399998       8.81243759E-11
  -14.2299995       1.03414076E-10
  -14.2200003       9.14592638E-11
  -14.2100000       5.14578519E-11
  -14.1999998      -8.88519119E-12
  -14.1899996      -7.44050238E-11
  -14.1800003      -1.26129787E-10
  -14.1700001      -1.46786985E-10
  -14.1599998      -1.26645083E-10
  -14.1499996      -6.77930420E-11
  -14.1400003       1.48522306E-11
  -14.1300001       9.67071562E-11
  -14.1199999       1.50482460E-10
  -14.1099997       1.55211233E-10
  -14.1000004       1.04587547E-10
  -14.0900002       1.15961546E-11
  -14.0799999      -9.28506855E-11
  -14.0699997      -1.67919775E-10
  -14.0600004      -1.75978690E-10
  -14.0500002      -9.72485703E-11
  -14.0400000       5.88135859E-11
  -14.0299997       2.50040905E-10
  -14.0200005       4.08861695E-10
  -14.0100002       4.60190885E-10
  -14.0000000       3.46139672E-10
  -13.9899998       5.07439958E-11
  -13.9799995      -3.83472643E-10
  -13.9700003      -8.54286752E-10
  -13.9600000      -1.21763444E-09
  -13.9499998      -1.32297351E-09
  -13.9399996      -1.05878317E-09
  -13.9300003      -3.96332245E-10
  -13.9200001       5.81926340E-10
  -13.9099998       1.68088166E-09
  -13.8999996       2.62388022E-09
  -13.8900003       3.11360426E-09
  -13.8800001       2.91076718E-09
  -13.8699999       1.91156246E-09
  -13.8599997       2.02074024E-10
  -13.8500004      -1.92928407E-09
  -13.8400002      -4.03145561E-09
  -13.8299999      -5.58003954E-09
  -13.8199997      -6.09987394E-09
  -13.8100004      -5.29316146E-09
  -13.8000002      -3.14034310E-09
  -13.7900000       5.62158931E-11
  -13.7799997       3.70445030E-09
  -13.7700005       7.03148384E-09
  -13.7600002       9.25028054E-09
  -13.7500000       9.74761782E-09
  -13.7399998       8.24772250E-09
  -13.7299995       4.90741847E-09
  -13.7200003       3.12316728E-10
  -13.7100000      -4.63332706E-09
  -13.6999998      -8.90319374E-09
  -13.6899996      -1.15874412E-08
  -13.6800003      -1.21138903E-08
  -13.6700001      -1.03927773E-08
  -13.6599998      -6.84221879E-09
  -13.6499996      -2.28158381E-09
  -13.6400003       2.28441710E-09
  -13.6300001       5.93513949E-09
  -13.6199999       8.08203460E-09
  -13.6099997       8.62075389E-09
  -13.6000004       7.93636090E-09
  -13.5900002       6.75040823E-09
  -13.5799999       5.84738746E-09
  -13.5699997       5.75950621E-09
  -13.5600004       6.51116316E-09
  -13.5500002       7.51793294E-09
  -13.5400000       7.69704034E-09
  -13.5299997       5.78712633E-09
  -13.5200005       8.06177125E-10
  -13.5100002      -7.47885220E-09
  -13.5000000      -1.82215327E-08
  -13.4899998      -2.94381994E-08
  -13.4799995      -3.82944236E-08
  -13.4700003      -4.17155626E-08
  -13.4600000      -3.72004294E-08
  -13.4499998      -2.36392648E-08
  -13.4399996      -1.90405403E-09
  -13.4300003       2.49887595E-08
  -13.4200001       5.22533661E-08
  -13.4099998       7.42202246E-08
  -13.3999996       8.55653113E-08
  -13.3900003       8.26005788E-08
  -13.3800001       6.42985185E-08
  -13.3699999       3.27629479E-08
  -13.3599997      -7.02059122E-09
  -13.3500004      -4.81408549E-08
  -13.3400002      -8.32227229E-08
  -13.3299999      -1.06043316E-07
  -13.3199997      -1.12893666E-07
  -13.3100004      -1.03323380E-07
  -13.3000002      -8.00609357E-08
  -13.2900000      -4.81268465E-08
  -13.2799997      -1.33829454E-08
  -13.2700005       1.90610727E-08
  -13.2600002       4.61083438E-08
  -13.2500000       6.72036293E-08
  -13.2399998       8.39420053E-08
  -13.2299995       9.88458240E-08
  -13.2200003       1.13688230E-07
  -13.2100000       1.27918923E-07
  -13.1999998       1.37792938E-07
  -13.1899996       1.36646051E-07
  -13.1800003       1.16452682E-07
  -13.1700001       7.04126819E-08
  -13.1599998      -4.07633660E-09
  -13.1499996      -1.02918939E-07
  -13.1400003      -2.14178954E-07
  -13.1300001      -3.18925657E-07
  -13.1199999      -3.94233837E-07
  -13.1099997      -4.17926060E-07
  -13.1000004      -3.74088984E-07
  -13.0900002      -2.58042576E-07
  -13.0799999      -7.93982267E-08
  -13.0699997       1.37846797E-07
  -13.0600004       3.58592530E-07
  -13.0500002       5.42906378E-07
  -13.0400000       6.54088524E-07
  -13.0299997       6.66763583E-07
  -13.0200005       5.73093530E-07
  -13.0100002       3.85466564E-07
  -13.0000000       1.34819018E-07
  -12.9899998      -1.35298649E-07
  -12.9799995      -3.77684358E-07
  -12.9700003      -5.51489393E-07
  -12.9600000      -6.30905049E-07
  -12.9499998      -6.10401059E-07
  -12.9399996      -5.05186847E-07
  -12.9300003      -3.46719020E-07
  -12.9200001      -1.74332669E-07
  -12.9099998      -2.51073686E-08
  -12.8999996       7.54227614E-08
  -12.8900003       1.19253784E-07
  -12.8800001       1.16974121E-07
  -12.8699999       9.35359878E-08
  -12.8599997       7.98486184E-08
  -12.8500004       1.02465016E-07
  -12.8400002       1.74280203E-07
  -12.8299999       2.88996148E-07
  -12.8199997       4.21193448E-07
  -12.8100004       5.32356864E-07
  -12.8000002       5.81532277E-07
  -12.7900000       5.37879032E-07
  -12.7799997       3.91629982E-07
  -12.7700005       1.60149895E-07
  -12.7600002      -1.13126788E-07
  -12.7500000      -3.67303755E-07
  -12.7399998      -5.38555355E-07
  -12.7299995      -5.77203707E-07
  -12.7200003      -4.62993569E-07
  -12.7100000      -2.14305189E-07
  -12.6999998       1.11678943E-07
  -12.6899996       4.28700730E-07
  -12.6800003       6.39437644E-07
  -12.6700001       6.57921476E-07
  -12.6599998       4.31146447E-07
  -12.6499996      -4.54179840E-08
  -12.6400003      -7.22444724E-07
  -12.6300001      -1.50318817E-06
  -12.6199999      -2.26051429E-06
  -12.6099997      -2.86074828E-06
  -12.6000004      -3.18873072E-06
  -12.5900002      -3.16821638E-06
  -12.5799999      -2.77300978E-06
  -12.5699997      -2.02650426E-06
  -12.5600004      -9.90511808E-07
  -12.5500002       2.52954067E-07
  -12.5400000       1.62145045E-06
  -12.5299997       3.04751916E-06
  -12.5200005       4.48524997E-06
  -12.5100002       5.90595573E-06
  -12.5000000       7.28435407E-06
  -12.4899998       8.57943360E-06
  -12.4799995       9.71613917E-06
  -12.4700003       1.05740219E-05
  -12.4600000       1.09874018E-05
  -12.4499998       1.07584856E-05
  -12.4399996       9.68121549E-06
  -12.4300003       7.57045518E-06
  -12.4200001       4.28944259E-06
  -12.4099998      -2.31779609E-07
  -12.3999996      -5.99150962E-06
  -12.3900003      -1.29264163E-05
  -12.3800001      -2.09330974E-05
  -12.3699999      -2.98947016E-05
  -12.3599997      -3.97033800E-05
  -12.3500004      -5.02707626E-05
  -12.3400002      -6.15213430E-05
  -12.3299999      -7.33664565E-05
  -12.3199997      -8.56667539E-05
  -12.3100004      -9.81881531E-05
  -12.3000002      -1.10566245E-04
  -12.2900000      -1.22289784E-04
  -12.2799997      -1.32709509E-04
  -12.2700005      -1.41078024E-04
  -12.2600002      -1.46612598E-04
  -12.2500000      -1.48575287E-04
  -12.2399998      -1.46352482E-04
  -12.2299995      -1.39520824E-04
  -12.2200003      -1.27886349E-04
  -12.2100000      -1.11493369E-04
  -12.1999998      -9.05940324E-05
  -12.1899996      -6.56007905E-05
  -12.1800003      -3.70183952E-05
  -12.1700001      -5.38136828E-06
  -12.1599998       2.87965813E-05
  -12.1499996       6.50493675E-05
  -12.1400003       1.02957150E-04
  -12.1300001       1.42128323E-04
  -12.1199999       1.82164120E-04
  -12.1099997       2.22627554E-04
  -12.1000004       2.63019669E-04
  -12.0900002       3.02777771E-04
  -12.0799999       3.41291743E-04
  -12.0699997       3.77939112E-04
  -12.0600004       4.12124151E-04
  -12.0500002       4.43317462E-04
  -12.0400000       4.71076200E-04
  -12.0299997       4.95044398E-04
  -12.0200005       5.14931511E-04
  -12.0100002       5.30470395E-04
  -12.0000000       5.41370828E-04
  -11.9899998       5.47276111E-04
  -11.9799995       5.47740085E-04
  -11.9700003       5.42228576E-04
  -11.9600000       5.30150370E-04
  -11.9499998       5.10917278E-04
  -11.9399996       4.84011864E-04
  -11.9300003       4.49064857E-04
  -11.9200001       4.05911735E-04
  -11.9099998       3.54629330E-04
  -11.8999996       2.95540463E-04
  -11.8900003       2.29185360E-04
  -11.8800001       1.56274749E-04
  -11.8699999       7.76259621E-05
  -11.8599997      -5.89708407E-06
  -11.8500004      -9.34322161E-05
  -11.8400002      -1.84145523E-04
  -11.8299999      -2.77239713E-04
  -11.8199997      -3.71940667E-04
  -11.8100004      -4.67473612E-04
  -11.8000002      -5.63042646E-04
  -11.7900000      -6.57815079E-04
  -11.7799997      -7.50920153E-04
  -11.7700005      -8.41464614E-04
  -11.7600002      -9.28557012E-04
  -11.7500000      -1.01133587E-03
  -11.7399998      -1.08899549E-03
  -11.7299995      -1.16080034E-03
  -11.7200003      -1.22608384E-03
  -11.7100000      -1.28423597E-03
  -11.6999998      -1.33468269E-03
  -11.6899996      -1.37686450E-03
  -11.6800003      -1.41022319E-03
  -11.6700001      -1.43419974E-03
  -11.6599998      -1.44824991E-03
  -11.6499996      -1.45186507E-03
  -11.6400003      -1.44460553E-03
  -11.6300001      -1.42612215E-03
  -11.6199999      -1.39617233E-03
  -11.6099997      -1.35461637E-03
  -11.6000004      -1.30139966E-03
  -11.5900002      -1.23651943E-03
  -11.5799999      -1.15999696E-03
  -11.5699997      -1.07184669E-03
  -11.5600004      -9.72067064E-04
  -11.5500002      -8.60653818E-04
  -11.5400000      -7.37631286E-04
  -11.5299997      -6.03093475E-04
  -11.5200005      -4.57263232E-04
  -11.5100002      -3.00532411E-04
  -11.5000000      -1.33485824E-04
  -11.4899998       4.30914915E-05
  -11.4799995       2.28238467E-04
  -11.4700003       4.20863507E-04
  -11.4600000       6.19797851E-04
  -11.4499998       8.23853188E-04
  -11.4399996       1.03186676E-03
  -11.4300003       1.24272855E-03
  -11.4200001       1.45539094E-03
  -11.4099998       1.66886183E-03
  -11.3999996       1.88218208E-03
  -11.3900003       2.09441036E-03
  -11.3800001       2.30461243E-03
  -11.3699999       2.51186406E-03
  -11.3599997       2.71527399E-03
  -11.3500004       2.91401939E-03
  -11.3400002       3.10738850E-03
  -11.3299999       3.29482206E-03
  -11.3199997       3.47594102E-03
  -11.3100004       3.65056121E-03
  -11.3000002       3.81867937E-03
  -11.2900000       3.98044335E-03
  -11.2799997       4.13610740E-03
  -11.2700005       4.28596884E-03
  -11.2600002       4.43031499E-03
  -11.2500000       4.56937356E-03
  -11.2399998       4.70327633E-03
  -11.2299995       4.83203772E-03
  -11.2200003       4.95556276E-03
  -11.2100000       5.07365353E-03
  -11.1999998       5.18604554E-03
  -11.1899996       5.29244402E-03
  -11.1800003       5.39256213E-03
  -11.1700001       5.48616005E-03
  -11.1599998       5.57307201E-03
  -11.1499996       5.65323653E-03
  -11.1400003       5.72669273E-03
  -11.1300001       5.79359196E-03
  -11.1199999       5.85417543E-03
  -11.1099997       5.90876723E-03
  -11.1000004       5.95774874E-03
  -11.0900002       6.00154325E-03
  -11.0799999       6.04060479E-03
  -11.0699997       6.07540691E-03
  -11.0600004       6.10645348E-03
  -11.0500002       6.13425486E-03
  -11.0400000       6.15935307E-03
  -11.0299997       6.18227990E-03
  -11.0200005       6.20356761E-03
  -11.0100002       6.22369256E-03
  -11.0000000       6.24305150E-03
  -10.9899998       6.26192987E-03
  -10.9799995       6.28045853E-03
  -10.9700003       6.29861513E-03
  -10.9600000       6.31621294E-03
  -10.9499998       6.33292785E-03
  -10.9399996       6.34834543E-03
  -10.9300003       6.36198232E-03
  -10.9200001       6.37334818E-03
  -10.9099998       6.38197642E-03
  -10.8999996       6.38743350E-03
  -10.8900003       6.38933154E-03
  -10.8800001       6.38731290E-03
  -10.8699999       6.38103625E-03
  -10.8599997       6.37015188E-03
  -10.8500004       6.35430263E-03
  -10.8400002       6.33309921E-03
  -10.8299999       6.30615419E-03
  -10.8199997       6.27309456E-03
  -10.8100004       6.23357203E-03
  -10.8000002       6.18729042E-03
  -10.7900000       6.13400154E-03
  -10.7799997       6.07352797E-03
  -10.7700005       6.00571884E-03
  -10.7600002       5.93047729E-03
  -10.7500000       5.84771950E-03
  -10.7399998       5.75739611E-03
  -10.7299995       5.65949874E-03
  -10.7200003       5.55408373E-03
  -10.7100000       5.44130662E-03
  -10.6999998       5.32147661E-03
  -10.6899996       5.19506680E-03
  -10.6800003       5.06275520E-03
  -10.6700001       4.92540980E-03
  -10.6599998       4.78409929E-03
  -10.6499996       4.64004045E-03
  -10.6400003       4.49456368E-03
  -10.6300001       4.34907433E-03
  -10.6199999       4.20500385E-03
  -10.6099997       4.06377343E-03
  -10.6000004       3.92677682E-03
  -10.5900002       3.79535230E-03
  -10.5799999       3.67076905E-03
  -10.5699997       3.55422264E-03
  -10.5600004       3.44679994E-03
  -10.5500002       3.34945903E-03
  -10.5400000       3.26299551E-03
  -10.5299997       3.18798493E-03
  -10.5200005       3.12475767E-03
  -10.5100002       3.07335006E-03
  -10.5000000       3.03347316E-03
  -10.4899998       3.00452556E-03
  -10.4799995       2.98558734E-03
  -10.4700003       2.97546410E-03
  -10.4600000       2.97272415E-03
  -10.4499998       2.97577935E-03
  -10.4399996       2.98294239E-03
  -10.4300003       2.99247936E-03
  -10.4200001       3.00270109E-03
  -10.4099998       3.01198172E-03
  -10.3999996       3.01883440E-03
  -10.3900003       3.02193314E-03
  -10.3800001       3.02013429E-03
  -10.3699999       3.01249558E-03
  -10.3599997       2.99828616E-03
  -10.3500004       2.97697494E-03
  -10.3400002       2.94822850E-03
  -10.3299999       2.91188434E-03
  -10.3199997       2.86791427E-03
  -10.3100004       2.81637046E-03
  -10.3000002       2.75735534E-03
  -10.2900000       2.69095320E-03
  -10.2799997       2.61722272E-03
  -10.2700005       2.53614131E-03
  -10.2600002       2.44762562E-03
  -10.2500000       2.35157111E-03
  -10.2399998       2.24787812E-03
  -10.2299995       2.13653827E-03
  -10.2200003       2.01769709E-03
  -10.2100000       1.89174979E-03
  -10.1999998       1.75933330E-03
  -10.1899996       1.62140152E-03
  -10.1800003       1.47916505E-03
  -10.1700001       1.33406022E-03
  -10.1599998       1.18765933E-03
  -10.1499996       1.04159897E-03
  -10.1400003       8.97479127E-04
  -10.1300001       7.56843074E-04
  -10.1199999       6.21131097E-04
  -10.1099997       4.91713290E-04
  -10.1000004       3.69919377E-04
  -10.0900002       2.57098174E-04
  -10.0799999       1.54663241E-04
  -10.0699997       6.40980579E-05
  -10.0600004      -1.30469925E-05
  -10.0500002      -7.51970874E-05
  -10.0400000      -1.20902943E-04
  -10.0299997      -1.48859530E-04
  -10.0200005      -1.58095863E-04
  -10.0100002      -1.47984421E-04
  -10.0000000      -1.18351672E-04
  -9.98999977      -6.94083064E-05
  -9.97999954      -1.71934005E-06
  -9.97000027       8.38775159E-05
  -9.96000004       1.86440549E-04
  -9.94999981       3.05022026E-04
  -9.93999958       4.38771996E-04
  -9.93000031       5.87048475E-04
  -9.92000008       7.49472936E-04
  -9.90999985       9.25889239E-04
  -9.89999962       1.11640373E-03
  -9.89000034       1.32127397E-03
  -9.88000011       1.54085923E-03
  -9.86999989       1.77557266E-03
  -9.85999966       2.02574395E-03
  -9.85000038       2.29162956E-03
  -9.84000015       2.57336046E-03
  -9.82999992       2.87083955E-03
  -9.81999969       3.18384217E-03
  -9.81000042       3.51188122E-03
  -9.80000019       3.85430316E-03
  -9.78999996       4.21021041E-03
  -9.77999973       4.57849493E-03
  -9.77000046       4.95783938E-03
  -9.76000023       5.34672011E-03
  -9.75000000       5.74346352E-03
  -9.73999977       6.14627218E-03
  -9.72999954       6.55327179E-03
  -9.72000027       6.96262764E-03
  -9.71000004       7.37251109E-03
  -9.69999981       7.78122200E-03
  -9.68999958       8.18713848E-03
  -9.68000031       8.58875085E-03
  -9.67000008       8.98461789E-03
  -9.65999985       9.37337149E-03
  -9.64999962       9.75364167E-03
  -9.64000034       1.01241115E-02
  -9.63000011       1.04834819E-02
  -9.61999989       1.08305635E-02
  -9.60999966       1.11643160E-02
  -9.60000038       1.14838760E-02
  -9.59000015       1.17886625E-02
  -9.57999992       1.20783150E-02
  -9.56999969       1.23527264E-02
  -9.56000042       1.26119750E-02
  -9.55000019       1.28563168E-02
  -9.53999996       1.30860191E-02
  -9.52999973       1.33014200E-02
  -9.52000046       1.35028390E-02
  -9.51000023       1.36905452E-02
  -9.50000000       1.38648022E-02
  -9.48999977       1.40258931E-02
  -9.47999954       1.41740805E-02
  -9.47000027       1.43096643E-02
  -9.46000004       1.44330049E-02
  -9.44999981       1.45444414E-02
  -9.43999958       1.46443630E-02
  -9.43000031       1.47331348E-02
  -9.42000008       1.48111722E-02
  -9.40999985       1.48789249E-02
  -9.39999962       1.49368830E-02
  -9.39000034       1.49856126E-02
  -9.38000011       1.50257936E-02
  -9.36999989       1.50582390E-02
  -9.35999966       1.50837479E-02
  -9.35000038       1.51032740E-02
  -9.34000015       1.51176723E-02
  -9.32999992       1.51278386E-02
  -9.31999969       1.51345516E-02
  -9.31000042       1.51385535E-02
  -9.30000019       1.51404524E-02
  -9.28999996       1.51408035E-02
  -9.27999973       1.51401181E-02
  -9.27000046       1.51388794E-02
  -9.26000023       1.51375392E-02
  -9.25000000       1.51365567E-02
  -9.23999977       1.51363537E-02
  -9.22999954       1.51372971E-02
  -9.22000027       1.51397288E-02
  -9.21000004       1.51439132E-02
  -9.19999981       1.51501121E-02
  -9.18999958       1.51584996E-02
  -9.18000031       1.51692657E-02
  -9.17000008       1.51825706E-02
  -9.15999985       1.51985902E-02
  -9.14999962       1.52174840E-02
  -9.14000034       1.52393905E-02
  -9.13000011       1.52644068E-02
  -9.11999989       1.52925486E-02
  -9.10999966       1.53237218E-02
  -9.10000038       1.53578538E-02
  -9.09000015       1.53946662E-02
  -9.07999992       1.54339327E-02
  -9.06999969       1.54754771E-02
  -9.06000042       1.55191701E-02
  -9.05000019       1.55648720E-02
  -9.03999996       1.56126600E-02
  -9.02999973       1.56625733E-02
  -9.02000046       1.57147162E-02
  -9.01000023       1.57691129E-02
  -9.00000000       1.58257242E-02
  -8.98999977       1.58844311E-02
  -8.97999954       1.59450006E-02
  -8.97000027       1.60071868E-02
  -8.96000004       1.60707682E-02
  -8.94999981       1.61355622E-02
  -8.93999958       1.62015595E-02
  -8.93000031       1.62689462E-02
  -8.92000008       1.63382087E-02
  -8.90999985       1.64099839E-02
  -8.89999962       1.64852329E-02
  -8.89000034       1.65651403E-02
  -8.88000011       1.66511592E-02
  -8.86999989       1.67448651E-02
  -8.85999966       1.68481246E-02
  -8.85000038       1.69628393E-02
  -8.84000015       1.70910805E-02
  -8.82999992       1.72350183E-02
  -8.81999969       1.73967797E-02
  -8.81000042       1.75785460E-02
  -8.80000019       1.77824087E-02
  -8.78999996       1.80104841E-02
  -8.77999973       1.82647351E-02
  -8.77000046       1.85471289E-02
  -8.76000023       1.88594181E-02
  -8.75000000       1.92033276E-02
  -8.73999977       1.95803605E-02
  -8.72999954       1.99918617E-02
  -8.72000027       2.04389002E-02
  -8.71000004       2.09222529E-02
  -8.69999981       2.14424934E-02
  -8.68999958       2.19999030E-02
  -8.68000031       2.25946736E-02
  -8.67000008       2.32266728E-02
  -8.65999985       2.38958336E-02
  -8.64999962       2.46018600E-02
  -8.64000034       2.53443290E-02
  -8.63000011       2.61225272E-02
  -8.61999989       2.69355290E-02
  -8.60999966       2.77818106E-02
  -8.60000038       2.86595374E-02
  -8.59000015       2.95663662E-02
  -8.57999992       3.04995757E-02
  -8.56999969       3.14562321E-02
  -8.56000042       3.24331149E-02
  -8.55000019       3.34271006E-02
  -8.53999996       3.44352163E-02
  -8.52999973       3.54545303E-02
  -8.52000046       3.64824310E-02
  -8.51000023       3.75162959E-02
  -8.50000000       3.85538936E-02
  -8.48999977       3.95930037E-02
  -8.47999954       4.06315699E-02
  -8.47000027       4.16676328E-02
  -8.46000004       4.26994711E-02
  -8.44999981       4.37255539E-02
  -8.43999958       4.47444953E-02
  -8.43000031       4.57549803E-02
  -8.42000008       4.67562526E-02
  -8.40999985       4.77473512E-02
  -8.39999962       4.87276986E-02
  -8.39000034       4.96967956E-02
  -8.38000011       5.06543107E-02
  -8.36999989       5.15999384E-02
  -8.35999966       5.25336973E-02
  -8.35000038       5.34554645E-02
  -8.34000015       5.43653704E-02
  -8.32999992       5.52635975E-02
  -8.31999969       5.61502501E-02
  -8.31000042       5.70253804E-02
  -8.30000019       5.78889325E-02
  -8.28999996       5.87407202E-02
  -8.27999973       5.95804639E-02
  -8.27000046       6.04077652E-02
  -8.26000023       6.12220392E-02
  -8.25000000       6.20227382E-02
  -8.23999977       6.28092065E-02
  -8.22999954       6.35807663E-02
  -8.22000027       6.43366054E-02
  -8.21000004       6.50758296E-02
  -8.19999981       6.57975450E-02
  -8.18999958       6.65005594E-02
  -8.18000031       6.71837181E-02
  -8.17000008       6.78456202E-02
  -8.15999985       6.84849471E-02
  -8.14999962       6.91002384E-02
  -8.14000034       6.96899444E-02
  -8.13000011       7.02525750E-02
  -8.11999989       7.07866251E-02
  -8.10999966       7.12905228E-02
  -8.10000038       7.17625320E-02
  -8.09000015       7.22009987E-02
  -8.07999992       7.26040825E-02
  -8.06999969       7.29700103E-02
  -8.06000042       7.32970685E-02
  -8.05000019       7.35835582E-02
  -8.03999996       7.38278851E-02
  -8.02999973       7.40284696E-02
  -8.02000046       7.41840303E-02
  -8.01000023       7.42932633E-02
  -8.00000000       7.43547976E-02
  -7.98999977       7.43673742E-02
  -7.98000002       7.43295103E-02
  -7.96999979       7.42400214E-02
  -7.96000004       7.40976259E-02
  -7.94999981       7.39012808E-02
  -7.94000006       7.36503452E-02
  -7.92999983       7.33444691E-02
  -7.92000008       7.29839057E-02
  -7.90999985       7.25691319E-02
  -7.90000010       7.21013397E-02
  -7.88999987       7.15817586E-02
  -7.88000011       7.10124150E-02
  -7.86999989       7.03950822E-02
  -7.86000013       6.97321370E-02
  -7.84999990       6.90260753E-02
  -7.84000015       6.82798401E-02
  -7.82999992       6.74965605E-02
  -7.82000017       6.66798130E-02
  -7.80999994       6.58337772E-02
  -7.80000019       6.49625510E-02
  -7.78999996       6.40706345E-02
  -7.78000021       6.31625354E-02
  -7.76999998       6.22427873E-02
  -7.76000023       6.13160692E-02
  -7.75000000       6.03866540E-02
  -7.73999977       5.94590828E-02
  -7.73000002       5.85377626E-02
  -7.71999979       5.76273538E-02
  -7.71000004       5.67325205E-02
  -7.69999981       5.58582507E-02
  -7.69000006       5.50092272E-02
  -7.67999983       5.41902184E-02
  -7.67000008       5.34055978E-02
  -7.65999985       5.26598319E-02
  -7.65000010       5.19568883E-02
  -7.63999987       5.13003767E-02
  -7.63000011       5.06940372E-02
  -7.61999989       5.01411892E-02
  -7.61000013       4.96450663E-02
  -7.59999990       4.92090844E-02
  -7.59000015       4.88364585E-02
  -7.57999992       4.85299677E-02
  -7.57000017       4.82923016E-02
  -7.55999994       4.81256656E-02
  -7.55000019       4.80321571E-02
  -7.53999996       4.80132326E-02
  -7.53000021       4.80700694E-02
  -7.51999998       4.82036024E-02
  -7.51000023       4.84144650E-02
  -7.50000000       4.87033240E-02
  -7.48999977       4.90703732E-02
  -7.48000002       4.95157242E-02
  -7.46999979       5.00389896E-02
  -7.46000004       5.06395139E-02
  -7.44999981       5.13164178E-02
  -7.44000006       5.20682633E-02