  -16.0000000       0.00000000    
  -15.9899998       0.00000000    
  -15.9799995       0.00000000    
  -15.9700003       0.00000000    
  -15.9600000       0.00000000    
  -15.9499998       0.00000000    
  -15.9399996       0.00000000    
  -15.9300003       0.00000000    
  -15.9200001       0.00000000    
  -15.9099998       0.00000000    
  -15.8999996       0.00000000    
  -15.8900003       0.00000000    
  -15.8800001       0.00000000    
  -15.8699999       0.00000000    
  -15.8599997       0.00000000    
  -15.8500004       0.00000000    
  -15.8400002       8.40779079E-45
  -15.8299999       1.19110369E-43
  -15.8199997       1.08740761E-42
  -15.8100004       7.73937142E-42
  -15.8000002       4.55351936E-41
  -15.7900000       2.28920321E-40
  -15.7799997       1.00536298E-39
  -15.7700005       3.91552358E-39
  -15.7600002       1.36671498E-38
  -15.7500000       4.30762119E-38
  -15.7399998       1.23227642E-37
  -15.7299995       3.20982144E-37
  -15.7200003       7.62298472E-37
  -15.7100000       1.64919224E-36
  -15.6999998       3.23801879E-36
  -15.6899996       5.72108631E-36
  -15.6800003       8.94029604E-36
  -15.6700001       1.18964154E-35
  -15.6599998       1.21447149E-35
  -15.6499996       5.40575084E-36
  -15.6400003      -1.39896068E-35
  -15.6300001      -5.10373474E-35
  -15.6199999      -1.05828287E-34
  -15.6099997      -1.67455794E-34
  -15.6000004      -2.07845676E-34
  -15.5900002      -1.78980104E-34
  -15.5799999      -1.82568235E-35
  -15.5699997       3.32884365E-34
  -15.5600004       8.92421903E-34
  -15.5500002       1.58028483E-33
  -15.5400000       2.14249035E-33
  -15.5299997       2.07657561E-33
  -15.5200005       6.17683986E-34
  -15.5100002      -3.09114937E-33
  -15.5000000      -9.46373016E-33
  -15.4899998      -1.74298071E-32
  -15.4799995      -2.30286102E-32
  -15.4700003      -1.84098182E-32
  -15.4600000       7.10574286E-33
  -15.4499998       6.16806689E-32
  -15.4399996       1.39925205E-31
  -15.4300003       2.08224013E-31
  -15.4200001       1.94945629E-31
  -15.4099998       1.41953405E-33
  -15.3999996      -4.47989831E-31
  -15.3900003      -1.10966074E-30
  -15.3800001      -1.70357964E-30
  -15.3699999      -1.65103260E-30
  -15.3599997      -1.89026944E-31
  -15.3500004       3.22039975E-30
  -15.3400002       8.17696666E-30
  -15.3299999       1.25594263E-29
  -15.3199997       1.22334890E-29
  -15.3100004       2.04118613E-30
  -15.3000002      -2.12936427E-29
  -15.2900000      -5.45409036E-29
  -15.2799997      -8.33776902E-29
  -15.2700005      -8.14144935E-29
  -15.2600002      -1.73396634E-29
  -15.2500000       1.26874078E-28
  -15.2399998       3.29100333E-28
  -15.2299995       5.02729682E-28
  -15.2200003       4.95151052E-28
  -15.2100000       1.32232075E-28
  -15.1999998      -6.79122332E-28
  -15.1899996      -1.80836290E-27
  -15.1800003      -2.78160637E-27
  -15.1700001      -2.78923478E-27
  -15.1599998      -9.30878498E-28
  -15.1499996       3.25735382E-27
  -15.1400003       9.10140643E-27
  -15.1300001       1.42329551E-26
  -15.1199999       1.46740285E-26
  -15.1099997       6.05267627E-27
  -15.1000004      -1.38951855E-26
  -15.0900002      -4.20944807E-26
  -15.0799999      -6.76552504E-26
  -15.0699997      -7.23515366E-26
  -15.0600004      -3.61248374E-26
  -15.0500002       5.18642888E-26
  -15.0400000       1.79193785E-25
  -15.0299997       2.99547372E-25
  -15.0200005       3.34672637E-25
  -15.0100002       1.97305810E-25
  -15.0000000      -1.63104117E-25
  -14.9899998      -7.02523185E-25
  -14.9799995      -1.23809027E-24
  -14.9700003      -1.45381109E-24
  -14.9600000      -9.88865445E-25
  -14.9499998       3.84430285E-25
  -14.9399996       2.53361040E-24
  -14.9300003       4.78752860E-24
  -14.9200001       5.94294989E-24
  -14.9099998       4.57948862E-24
  -14.8999996      -2.86989471E-25
  -14.8900003      -8.35489921E-24
  -14.8800001      -1.73389450E-23
  -14.8699999      -2.29141058E-23
  -14.8599997      -1.97525391E-23
  -14.8500004      -3.78789550E-24
  -14.8400002       2.47498861E-23
  -14.8299999       5.86968933E-23
  -14.8199997       8.33968098E-23
  -14.8100004       7.98190101E-23
  -14.8000002       3.19513847E-23
  -14.7900000      -6.28586142E-23
  -14.7799997      -1.84307606E-22
  -14.7700005      -2.85787216E-22
  -14.7600002      -3.02749594E-22
  -14.7500000      -1.75332869E-22
  -14.7399998       1.18137689E-22
  -14.7299995       5.27714523E-22
  -14.7200003       9.15578876E-22
  -14.7100000       1.07497795E-21
  -14.6999998       7.94524952E-22
  -14.6899996      -3.91864730E-23
  -14.6800003      -1.33073378E-21
  -14.6700001      -2.70725451E-21
  -14.6599998      -3.54863391E-21
  -14.6499996      -3.15446357E-21
  -14.6400003      -1.03886100E-21
  -14.6300001       2.72254765E-21
  -14.6199999       7.23318959E-21
  -14.6099997       1.07724684E-20
  -14.6000004       1.11804325E-20
  -14.5900002       6.64337184E-21
  -14.5799999      -3.28911266E-21
  -14.5699997      -1.68155963E-20
  -14.5600004      -2.95971039E-20
  -14.5500002      -3.54948758E-20
  -14.5400000      -2.84808398E-20
  -14.5299997      -5.40285619E-21
  -14.5200005       3.12474197E-20
  -14.5100002       7.18064245E-20
  -14.5000000       1.00395105E-19
  -14.4899998       9.90510979E-20
  -14.4799995       5.46226197E-20
  -14.4700003      -3.33874329E-20
  -14.4600000      -1.47035102E-19
  -14.4499998      -2.49595262E-19
  -14.4399996      -2.93116620E-19
  -14.4300003      -2.33939835E-19
  -14.4200001      -5.28565148E-20
  -14.4099998       2.26733928E-19
  -14.3999996       5.31115249E-19
  -14.3900003       7.46386884E-19
  -14.3800001       7.49219098E-19
  -14.3699999       4.53522916E-19
  -14.3599997      -1.40090456E-19
  -14.3500004      -9.11255457E-19
  -14.3400002      -1.62279581E-18
  -14.3299999      -1.97177317E-18
  -14.3199997      -1.68559743E-18
  -14.3100004      -6.40897212E-19
  -14.3000002       1.03415123E-18
  -14.2900000       2.92045814E-18
  -14.2799997       4.36898891E-18
  -14.2700005       4.67247610E-18
  -14.2600002       3.31823399E-18
  -14.2500000       2.50812820E-19
  -14.2399998      -3.95382531E-18
  -14.2299995      -8.09859781E-18
  -14.2200003      -1.06154048E-17
  -14.2100000      -1.00361154E-17
  -14.1999998      -5.57505878E-18
  -14.1899996       2.36231058E-18
  -14.1800003       1.19583847E-17
  -14.1700001       2.02200347E-17
  -14.1599998       2.37220097E-17
  -14.1499996       1.97322761E-17
  -14.1400003       7.41676607E-18
  -14.1300001      -1.12957311E-17
  -14.1199999      -3.16007479E-17
  -14.1099997      -4.67128777E-17
  -14.1000004      -4.97270974E-17
  -14.0900002      -3.60466914E-17
  -14.0799999      -5.66682206E-18
  -14.0699997       3.55386735E-17
  -14.0600004       7.62489464E-17
  -14.0500002       1.02154179E-16
  -14.0400000       1.00114172E-16
  -14.0299997       6.30153007E-17
  -14.0200005      -6.16826887E-18
  -14.0100002      -9.27108994E-17
  -14.0000000      -1.72044568E-16
  -13.9899998      -2.15484957E-16
  -13.9799995      -1.98793326E-16
  -13.9700003      -1.11400873E-16
  -13.9600000       3.66199640E-17
  -13.9499998       2.12677943E-16
  -13.9399996       3.66719738E-16
  -13.9300003       4.43182646E-16
  -13.9200001       3.97585804E-16
  -13.9099998       2.13457451E-16
  -13.8999996      -8.57381175E-17
  -13.8900003      -4.34609720E-16
  -13.8800001      -7.36595098E-16
  -13.8699999      -8.86904800E-16
  -13.8599997      -8.03103648E-16
  -13.8500004      -4.55451786E-16
  -13.8400002       1.12393503E-16
  -13.8299999       7.80681098E-16
  -13.8199997       1.37337901E-15
  -13.8100004       1.69901585E-15
  -13.8000002       1.60438014E-15
  -13.7900000       1.02745827E-15
  -13.7799997       3.36742547E-17
  -13.7700005      -1.17844634E-15
  -13.7600002      -2.30950669E-15
  -13.7500000      -3.02659399E-15
  -13.7399998      -3.05225866E-15
  -13.7299995      -2.25279636E-15
  -13.7200003      -7.00163205E-16
  -13.7100000       1.31456951E-15
  -13.6999998       3.32767058E-15
  -13.6899996       4.80463854E-15
  -13.6800003       5.27645071E-15
  -13.6700001       4.47604185E-15
  -13.6599998       2.43635983E-15
  -13.6499996      -4.82421527E-16
  -13.6400003      -3.65248527E-15
  -13.6300001      -6.31704721E-15
  -13.6199999      -7.77713126E-15
  -13.6099997      -7.57791843E-15
  -13.6000004      -5.64224189E-15
  -13.5900002      -2.30995054E-15
  -13.5799999       1.73345642E-15
  -13.5699997       5.62348519E-15
  -13.5600004       8.53346392E-15
  -13.5500002       9.87909434E-15
  -13.5400000       9.44931406E-15
  -13.5299997       7.42409555E-15
  -13.5200005       4.27602603E-15
  -13.5100002       5.92684147E-16
  -13.5000000      -3.11307880E-15
  -13.4899998      -6.53038728E-15
  -13.4799995      -9.55978156E-15
  -13.4700003      -1.21941751E-14
  -13.4600000      -1.43154159E-14
  -13.4499998      -1.54978738E-14
  -13.4399996      -1.49295435E-14
  -13.4300003      -1.15395966E-14
  -13.4200001      -4.35792310E-15
  -13.4099998       6.95815670E-15
  -13.3999996       2.15853099E-14
  -13.3900003       3.71958696E-14
  -13.3800001       5.00269077E-14
  -13.3699999       5.54825147E-14
  -13.3599997       4.92487927E-14
  -13.3500004       2.87197227E-14
  -13.3400002      -5.62799946E-15
  -13.3299999      -4.93581142E-14
  -13.3199997      -9.41064717E-14
  -13.3100004      -1.28761259E-13
  -13.3000002      -1.41743700E-13
  -13.2900000      -1.24008835E-13
  -13.2799997      -7.20862375E-14
  -13.2700005       9.67535920E-15
  -13.2600002       1.08448346E-13
  -13.2500000       2.04361959E-13
  -13.2399998       2.74059042E-13
  -13.2299995       2.95834836E-13
  -13.2200003       2.55292315E-13
  -13.2100000       1.50136603E-13
  -13.1999998      -7.26541833E-15
  -13.1899996      -1.90549345E-13
  -13.1800003      -3.63531579E-13
  -13.1700001      -4.87319874E-13
  -13.1599998      -5.28938818E-13
  -13.1499996      -4.69492067E-13
  -13.1400003      -3.09795185E-13
  -13.1300001      -7.18542318E-14
  -13.1199999       2.04508448E-13
  -13.1099997       4.69385219E-13
  -13.1000004       6.73182701E-13
  -13.0900002       7.77218730E-13
  -13.0799999       7.61836341E-13
  -13.0699997       6.29906283E-13
  -13.0600004       4.04777530E-13
  -13.0500002       1.23269979E-13
  -13.0400000      -1.74234488E-13
  -13.0299997      -4.53603680E-13
  -13.0200005      -6.93572099E-13
  -13.0100002      -8.86951808E-13
  -13.0000000      -1.03589609E-12
  -12.9899998      -1.14268317E-12
  -12.9799995      -1.19927538E-12
  -12.9700003      -1.17982100E-12
  -12.9600000      -1.03996000E-12
  -12.9499998      -7.25123412E-13
  -12.9399996      -1.87392704E-13
  -12.9300003       5.92470138E-13
  -12.9200001       1.58361616E-12
  -12.9099998       2.69115351E-12
  -12.8999996       3.75564467E-12
  -12.8900003       4.56937830E-12
  -12.8800001       4.90867850E-12
  -12.8699999       4.57718845E-12
  -12.8599997       3.45150319E-12
  -12.8500004       1.51892745E-12
  -12.8400002      -1.10194276E-12
  -12.8299999      -4.16373403E-12
  -12.8199997      -7.31670193E-12
  -12.8100004      -1.01542941E-11
  -12.8000002      -1.22686557E-11
  -12.7900000      -1.33047314E-11
  -12.7799997      -1.30025825E-11
  -12.7700005      -1.12212175E-11
  -12.7600002      -7.94289547E-12
  -12.7500000      -3.26259375E-12
  -12.7399998       2.62840010E-12
  -12.7299995       9.45470698E-12
  -12.7200003       1.68570921E-11
  -12.7100000       2.43786779E-11
  -12.6999998       3.14422342E-11
  -12.6899996       3.73306004E-11
  -12.6800003       4.11864501E-11
  -12.6700001       4.20473864E-11
  -12.6599998       3.89271809E-11
  -12.6499996       3.09443859E-11
  -12.6400003       1.74875860E-11
  -12.6300001      -1.60450440E-12
  -12.6199999      -2.58785146E-11
  -12.6099997      -5.41495529E-11
  -12.6000004      -8.44601958E-11
  -12.5900002      -1.14132676E-10
  -12.5799999      -1.39917411E-10
  -12.5699997      -1.58225988E-10
  -12.5600004      -1.65424369E-10
  -12.5500002      -1.58155683E-10
  -12.5400000      -1.33662290E-10
  -12.5299997      -9.00843150E-11
  -12.5200005      -2.67211114E-11
  -12.5100002       5.57441246E-11
  -12.5000000       1.55051347E-10
  -12.4899998       2.67195183E-10
  -12.4799995       3.86279647E-10
  -12.4700003       5.04411402E-10
  -12.4600000       6.11660389E-10
  -12.4499998       6.96133762E-10
  -12.4399996       7.44212192E-10
  -12.4300003       7.40995931E-10
  -12.4200001       6.70982325E-10
  -12.4099998       5.18967758E-10
  -12.3999996       2.71123790E-10
  -12.3900003      -8.38380337E-11
  -12.3800001      -5.53531387E-10
  -12.3699999      -1.14091669E-09
  -12.3599997      -1.84359328E-09
  -12.3500004      -2.65344413E-09
  -12.3400002      -3.55666874E-09
  -12.3299999      -4.53415794E-09
  -12.3199997      -5.56216495E-09
  -12.3100004      -6.61313448E-09
  -12.3000002      -7.65658026E-09
  -12.2900000      -8.65991989E-09
  -12.2799997      -9.58920587E-09
  -12.2700005      -1.04097735E-08
  -12.2600002      -1.10868159E-08
  -12.2500000      -1.15860210E-08
  -12.2399998      -1.18743326E-08
  -12.2299995      -1.19209025E-08
  -12.2200003      -1.16982237E-08
  -12.2100000      -1.11833991E-08
  -12.1999998      -1.03594102E-08
  -12.1899996      -9.21618071E-09
  -12.1800003      -7.75131692E-09
  -12.1700001      -5.97036021E-09
  -12.1599998      -3.88648580E-09
  -12.1499996      -1.51974910E-09
  -12.1400003       1.10402909E-09
  -12.1300001       3.95454114E-09
  -12.1199999       6.99817848E-09
  -12.1099997       1.01989759E-08
  -12.1000004       1.35191787E-08
  -12.0900002       1.69194632E-08
  -12.0799999       2.03589181E-08
  -12.0699997       2.37949376E-08
  -12.0600004       2.71832512E-08
  -12.0500002       3.04782439E-08
  -12.0400000       3.36335653E-08
  -12.0299997       3.66031259E-08
  -12.0200005       3.93421864E-08
  -12.0100002       4.18084518E-08
  -12.0000000       4.39627890E-08
  -11.9899998       4.57695997E-08
  -11.9799995       4.71966395E-08
  -11.9700003       4.82144529E-08
  -11.9600000       4.87955596E-08
  -11.9499998       4.89136340E-08
  -11.9399996       4.85431215E-08
  -11.9300003       4.76592206E-08
  -11.9200001       4.62385152E-08
  -11.9099998       4.42601937E-08
  -11.8999996       4.17074268E-08
  -11.8900003       3.85689312E-08
  -11.8800001       3.48402445E-08
  -11.8699999       3.05244754E-08
  -11.8599997       2.56325787E-08
  -11.8500004       2.01829842E-08
  -11.8400002       1.42008760E-08
  -11.8299999       7.71731745E-09
  -11.8199997       7.68431263E-10
  -11.8100004      -6.60518396E-09
  -11.8000002      -1.43584824E-08
  -11.7900000      -2.24419825E-08
  -11.7799997      -3.08013703E-08
  -11.7700005      -3.93771877E-08
  -11.7600002      -4.81048055E-08
  -11.7500000      -5.69147929E-08
  -11.7399998      -6.57335804E-08
  -11.7299995      -7.44847171E-08
  -11.7200003      -8.30903488E-08
  -11.7100000      -9.14725007E-08
  -11.6999998      -9.95544553E-08
  -11.6899996      -1.07261535E-07
  -11.6800003      -1.14521455E-07
  -11.6700001      -1.21264222E-07
  -11.6599998      -1.27421757E-07
  -11.6499996      -1.32927241E-07
  -11.6400003      -1.37714551E-07
  -11.6300001      -1.41718047E-07
  -11.6199999      -1.44872843E-07
  -11.6099997      -1.47115443E-07
  -11.6000004      -1.48384913E-07
  -11.5900002      -1.48624210E-07
  -11.5799999      -1.47781819E-07
  -11.5699997      -1.45813061E-07
  -11.5600004      -1.42680904E-07
  -11.5500002      -1.38356512E-07
  -11.5400000      -1.32819068E-07
  -11.5299997      -1.26055241E-07
  -11.5200005      -1.18058288E-07
  -11.5100002      -1.08826939E-07
  -11.5000000      -9.83648434E-08
  -11.4899998      -8.66803305E-08
  -11.4799995      -7.37861328E-08
  -11.4700003      -5.97002554E-08
  -11.4600000      -4.44468036E-08
  -11.4499998      -2.80566681E-08
  -11.4399996      -1.05686633E-08
  -11.4300003       7.97056465E-09
  -11.4200001       2.75063883E-08
  -11.4099998       4.79772169E-08
  -11.3999996       6.93159166E-08
  -11.3900003       9.14515965E-08
  -11.3800001       1.14310957E-07
  -11.3699999       1.37820692E-07
  -11.3599997       1.61908488E-07
  -11.3500004       1.86504565E-07
  -11.3400002       2.11541931E-07
  -11.3299999       2.36957248E-07
  -11.3199997       2.62690634E-07
  -11.3100004       2.88685527E-07
  -11.3000002       3.14888410E-07
  -11.2900000       3.41247841E-07
  -11.2799997       3.67713767E-07
  -11.2700005       3.94236508E-07
  -11.2600002       4.20765730E-07
  -11.2500000       4.47249988E-07
  -11.2399998       4.73635396E-07
  -11.2299995       4.99866701E-07
  -11.2200003       5.25887287E-07
  -11.2100000       5.51640426E-07
  -11.1999998       5.77071603E-07
  -11.1899996       6.02129376E-07
  -11.1800003       6.26768099E-07
  -11.1700001       6.50948323E-07
  -11.1599998       6.74637249E-07
  -11.1499996       6.97809242E-07
  -11.1400003       7.20443722E-07
  -11.1300001       7.42524946E-07
  -11.1199999       7.64039839E-07
  -11.1099997       7.84977317E-07
  -11.1000004       8.05327716E-07
  -11.0900002       8.25082282E-07
  -11.0799999       8.44236069E-07
  -11.0699997       8.62786180E-07
  -11.0600004       8.80734831E-07
  -11.0500002       8.98088160E-07
  -11.0400000       9.14859072E-07
  -11.0299997       9.31063937E-07
  -11.0200005       9.46723389E-07
  -11.0100002       9.61862270E-07
  -11.0000000       9.76504566E-07
  -10.9899998       9.90675858E-07
  -10.9799995       1.00439831E-06
  -10.9700003       1.01769365E-06
  -10.9600000       1.03057721E-06
  -10.9499998       1.04306116E-06
  -10.9399996       1.05515039E-06
  -10.9300003       1.06684467E-06
  -10.9200001       1.07813548E-06
  -10.9099998       1.08900667E-06
  -10.8999996       1.09943312E-06
  -10.8900003       1.10938129E-06
  -10.8800001       1.11881093E-06
  -10.8699999       1.12767793E-06
  -10.8599997       1.13593433E-06
  -10.8500004       1.14353281E-06
  -10.8400002       1.15043008E-06
  -10.8299999       1.15658997E-06
  -10.8199997       1.16198339E-06
  -10.8100004       1.16659589E-06
  -10.8000002       1.17041816E-06
  -10.7900000       1.17345041E-06
  -10.7799997       1.17569766E-06
  -10.7700005       1.17716752E-06
  -10.7600002       1.17786635E-06
  -10.7500000       1.17779200E-06
  -10.7399998       1.17694208E-06
  -10.7299995       1.17530556E-06
  -10.7200003       1.17286993E-06
  -10.7100000       1.16962394E-06
  -10.6999998       1.16556305E-06
  -10.6899996       1.16069066E-06
  -10.6800003       1.15501939E-06
  -10.6700001       1.14857255E-06
  -10.6599998       1.14138732E-06
  -10.6499996       1.13350404E-06
  -10.6400003       1.12496684E-06
  -10.6300001       1.11581869E-06
  -10.6199999       1.10609813E-06
  -10.6099997       1.09583891E-06
  -10.6000004       1.08507277E-06
  -10.5900002       1.07382766E-06
  -10.5799999       1.06213292E-06
  -10.5699997       1.05002232E-06
  -10.5600004       1.03753894E-06
  -10.5500002       1.02473450E-06
  -10.5400000       1.01167416E-06
  -10.5299997       9.98429755E-07
  -10.5200005       9.85082806E-07
  -10.5100002       9.71717213E-07
  -10.5000000       9.58418582E-07
  -10.4899998       9.45269448E-07
  -10.4799995       9.32344108E-07
  -10.4700003       9.19711738E-07
  -10.4600000       9.07426738E-07
  -10.4499998       8.95531514E-07
  -10.4399996       8.84053009E-07
  -10.4300003       8.73004637E-07
  -10.4200001       8.62386855E-07
  -10.4099998       8.52184996E-07
  -10.3999996       8.42374050E-07
  -10.3900003       8.32916044E-07
  -10.3800001       8.23766754E-07
  -10.3699999       8.14871726E-07
  -10.3599997       8.06173205E-07
  -10.3500004       7.97605935E-07
  -10.3400002       7.89100909E-07
  -10.3299999       7.80592416E-07
  -10.3199997       7.72014346E-07
  -10.3100004       7.63300648E-07
  -10.3000002       7.54395955E-07
  -10.2900000       7.45245927E-07
  -10.2799997       7.35806850E-07
  -10.2700005       7.26039104E-07
  -10.2600002       7.15912279E-07
  -10.2500000       7.05398691E-07
  -10.2399998       6.94484697E-07
  -10.2299995       6.83163876E-07
  -10.2200003       6.71442706E-07
  -10.2100000       6.59340060E-07
  -10.1999998       6.46893682E-07
  -10.1899996       6.34158596E-07
  -10.1800003       6.21205118E-07
  -10.1700001       6.08118114E-07
  -10.1599998       5.94989388E-07
  -10.1499996       5.81915856E-07
  -10.1400003       5.68989776E-07
  -10.1300001       5.56300506E-07
  -10.1199999       5.43924443E-07
  -10.1099997       5.31928265E-07
  -10.1000004       5.20370577E-07
  -10.0900002       5.09298786E-07
  -10.0799999       4.98751149E-07
  -10.0699997       4.88761543E-07
  -10.0600004       4.79361290E-07
  -10.0500002       4.70577135E-07
  -10.0400000       4.62433150E-07
  -10.0299997       4.54954403E-07
  -10.0200005       4.48168805E-07
  -10.0100002       4.42103044E-07
  -10.0000000       4.36787190E-07
  -9.98999977       4.32253927E-07
  -9.97999954       4.28536765E-07
  -9.97000027       4.25670521E-07
  -9.96000004       4.23690210E-07
  -9.94999981       4.22629995E-07
  -9.93999958       4.22520657E-07
  -9.93000031       4.23396358E-07
  -9.92000008       4.25290580E-07
  -9.90999985       4.28239844E-07
  -9.89999962       4.32289198E-07
  -9.89000034       4.37488694E-07
  -9.88000011       4.43893839E-07
  -9.86999989       4.51561988E-07
  -9.85999966       4.60549586E-07
  -9.85000038       4.70901341E-07
  -9.84000015       4.82650591E-07
  -9.82999992       4.95811037E-07
  -9.81999969       5.10377447E-07
  -9.81000042       5.26325437E-07
  -9.80000019       5.43613851E-07
  -9.78999996       5.62189655E-07
  -9.77999973       5.81995721E-07
  -9.77000046       6.02972534E-07
  -9.76000023       6.25061318E-07
  -9.75000000       6.48206822E-07
  -9.73999977       6.72354361E-07
  -9.72999954       6.97447433E-07
  -9.72000027       7.23425160E-07
  -9.71000004       7.50223194E-07
  -9.69999981       7.77769344E-07
  -9.68999958       8.05986019E-07
  -9.68000031       8.34792218E-07
  -9.67000008       8.64106255E-07
  -9.65999985       8.93848380E-07
  -9.64999962       9.23942935E-07
  -9.64000034       9.54317784E-07
  -9.63000011       9.84905569E-07
  -9.61999989       1.01564376E-06
  -9.60999966       1.04647359E-06
  -9.60000038       1.07734309E-06
  -9.59000015       1.10820872E-06
  -9.57999992       1.13903911E-06
  -9.56999969       1.16981846E-06
  -9.56000042       1.20055347E-06
  -9.55000019       1.23127120E-06
  -9.53999996       1.26202679E-06
  -9.52999973       1.29289629E-06
  -9.52000046       1.32397599E-06
  -9.51000023       1.35537687E-06
  -9.50000000       1.38721600E-06
  -9.48999977       1.41961118E-06
  -9.47999954       1.45267416E-06
  -9.47000027       1.48650327E-06
  -9.46000004       1.52118002E-06
  -9.44999981       1.55676582E-06
  -9.43999958       1.59329534E-06
  -9.43000031       1.63078084E-06
  -9.42000008       1.66920574E-06
  -9.40999985       1.70852684E-06
  -9.39999962       1.74867466E-06
  -9.39000034       1.78955202E-06
  -9.38000011       1.83103566E-06
  -9.36999989       1.87297610E-06
  -9.35999966       1.91519484E-06
  -9.35000038       1.95748953E-06
  -9.34000015       1.99962778E-06
  -9.32999992       2.04134949E-06
  -9.31999969       2.08237134E-06
  -9.31000042       2.12238501E-06
  -9.30000019       2.16106650E-06
  -9.28999996       2.19808112E-06
  -9.27999973       2.23308984E-06
  -9.27000046       2.26575867E-06
  -9.26000023       2.29576244E-06
  -9.25000000       2.32279353E-06
  -9.23999977       2.34655772E-06
  -9.22999954       2.36678534E-06
  -9.22000027       2.38322764E-06
  -9.21000004       2.39566680E-06
  -9.19999981       2.40391432E-06
  -9.18999958       2.40782038E-06
  -9.18000031       2.40727650E-06
  -9.17000008       2.40222448E-06
  -9.15999985       2.39265273E-06
  -9.14999962       2.37860036E-06
  -9.14000034       2.36015421E-06
  -9.13000011       2.33744140E-06
  -9.11999989       2.31062450E-06
  -9.10999966       2.27989904E-06
  -9.10000038       2.24549035E-06
  -9.09000015       2.20765219E-06
  -9.07999992       2.16666604E-06
  -9.06999969       2.12284658E-06
  -9.06000042       2.07654057E-06
  -9.05000019       2.02812316E-06
  -9.03999996       1.97800523E-06
  -9.02999973       1.92661560E-06
  -9.02000046       1.87441060E-06
  -9.01000023       1.82186170E-06
  -9.00000000       1.76945753E-06
  -8.98999977       1.71770171E-06
  -8.97999954       1.66711425E-06
  -8.97000027       1.61823277E-06
  -8.96000004       1.57161219E-06
  -8.94999981       1.52782809E-06
  -8.93999958       1.48747006E-06
  -8.93000031       1.45114404E-06
  -8.92000008       1.41946225E-06
  -8.90999985       1.39304245E-06
  -8.89999962       1.37250174E-06
  -8.89000034       1.35844800E-06
  -8.88000011       1.35147980E-06
  -8.86999989       1.35218238E-06
  -8.85999966       1.36111476E-06
  -8.85000038       1.37881182E-06
  -8.84000015       1.40577299E-06
  -8.82999992       1.44245848E-06
  -8.81999969       1.48928530E-06
  -8.81000042       1.54662405E-06
  -8.80000019       1.61479295E-06
  -8.78999996       1.69406201E-06
  -8.77999973       1.78464859E-06
  -8.77000046       1.88671845E-06
  -8.76000023       2.00038744E-06
  -8.75000000       2.12571854E-06
  -8.73999977       2.26272209E-06
  -8.72999954       2.41135922E-06
  -8.72000027       2.57154215E-06
  -8.71000004       2.74314016E-06
  -8.69999981       2.92598247E-06
  -8.68999958       3.11986400E-06
  -8.68000031       3.32454556E-06
  -8.67000008       3.53976088E-06
  -8.65999985       3.76521257E-06
  -8.64999962       4.00057161E-06
  -8.64000034       4.24548034E-06
  -8.63000011       4.49954678E-06
  -8.61999989       4.76235255E-06
  -8.60999966       5.03345336E-06
  -8.60000038       5.31238766E-06
  -8.59000015       5.59867931E-06
  -8.57999992       5.89184765E-06
  -8.56999969       6.19140883E-06
  -8.56000042       6.49687308E-06
  -8.55000019       6.80775383E-06
  -8.53999996       7.12355450E-06
  -8.52999973       7.44377849E-06
  -8.52000046       7.76792149E-06
  -8.51000023       8.09547328E-06
  -8.50000000       8.42592544E-06
  -8.48999977       8.75876594E-06
  -8.47999954       9.09349274E-06
  -8.47000027       9.42960469E-06
  -8.46000004       9.76661522E-06
  -8.44999981       1.01040423E-05
  -8.43999958       1.04414212E-05
  -8.43000031       1.07783017E-05
  -8.42000008       1.11142499E-05
  -8.40999985       1.14488548E-05
  -8.39999962       1.17817417E-05
  -8.39000034       1.21125622E-05
  -8.38000011       1.24410180E-05
  -8.36999989       1.27668436E-05
  -8.35999966       1.30898115E-05
  -8.35000038       1.34097254E-05
  -8.34000015       1.37264060E-05
  -8.32999992       1.40396969E-05
  -8.31999969       1.43494290E-05
  -8.31000042       1.46554357E-05
  -8.30000019       1.49575426E-05
  -8.28999996       1.52555531E-05
  -8.27999973       1.55492653E-05
  -8.27000046       1.58384519E-05
  -8.26000023       1.61228782E-05
  -8.25000000       1.64022713E-05
  -8.23999977       1.66763421E-05
  -8.22999954       1.69447703E-05
  -8.22000027       1.72071905E-05
  -8.21000004       1.74632241E-05
  -8.19999981       1.77124384E-05
  -8.18999958       1.79544077E-05
  -8.18000031       1.81886699E-05
  -8.17000008       1.84147721E-05
  -8.15999985       1.86322559E-05
  -8.14999962       1.88406902E-05
  -8.14000034       1.90396477E-05
  -8.13000011       1.92287298E-05
  -8.11999989       1.94075546E-05
  -8.10999966       1.95757511E-05
  -8.10000038       1.97329773E-05
  -8.09000015       1.98788912E-05
  -8.07999992       2.00131781E-05
  -8.06999969       2.01355306E-05
  -8.06000042       2.02456667E-05
  -8.05000019       2.03433428E-05
  -8.03999996       2.04283224E-05
  -8.02999973       2.05004053E-05
  -8.02000046       2.05594060E-05
  -8.01000023       2.06051554E-05
  -8.00000000       2.06375335E-05
  -7.98999977       2.06564127E-05
  -7.98000002       2.06616896E-05
  -7.96999979       2.06533005E-05
  -7.96000004       2.06311925E-05
  -7.94999981       2.05953820E-05
  -7.94000006       2.05459182E-05
  -7.92999983       2.04828557E-05
  -7.92000008       2.04063253E-05
  -7.90999985       2.03164982E-05
  -7.90000010       2.02135852E-05
  -7.88999987       2.00978793E-05
  -7.88000011       1.99697279E-05
  -7.86999989       1.98295147E-05
  -7.86000013       1.96777473E-05
  -7.84999990       1.95149696E-05
  -7.84000015       1.93418364E-05
  -7.82999992       1.91590243E-05
  -7.82000017       1.89673083E-05
  -7.80999994       1.87674814E-05
  -7.80000019       1.85604167E-05
  -7.78999996       1.83470020E-05
  -7.78000021       1.81281521E-05
  -7.76999998       1.79048548E-05
  -7.76000023       1.76780959E-05
  -7.75000000       1.74488905E-05
  -7.73999977       1.72182608E-05
  -7.73000002       1.69872474E-05
  -7.71999979       1.67568905E-05
  -7.71000004       1.65281799E-05
  -7.69999981       1.63020813E-05
  -7.69000006       1.60795553E-05
  -7.67999983       1.58614821E-05
  -7.67000008       1.56487095E-05
  -7.65999985       1.54420577E-05
  -7.65000010       1.52423081E-05
  -7.63999987       1.50501746E-05
  -7.63000011       1.48663630E-05
  -7.61999989       1.46914963E-05
  -7.61000013       1.45261820E-05
  -7.59999990       1.43709494E-05
  -7.59000015       1.42263070E-05
  -7.57999992       1.40927186E-05
  -7.57000017       1.39706035E-05
  -7.55999994       1.38603646E-05
  -7.55000019       1.37623692E-05
  -7.53999996       1.36769640E-05
  -7.53000021       1.36044318E-05
  -7.51999998       1.35450518E-05
  -7.51000023       1.34990232E-05
  -7.50000000       1.34664806E-05
  -7.48999977       1.34474903E-05
  -7.48000002       1.34421161E-05
  -7.46999979       1.34502998E-05
  -7.46000004       1.34719558E-05
  -7.44999981       1.35069840E-05
  -7.44000006       1.35552109E-05