  -16.0000000       0.00000000    
  -15.9899998       0.00000000    
  -15.9799995       0.00000000    
  -15.9700003       0.00000000    
  -15.9600000       0.00000000    
  -15.9499998       0.00000000    
  -15.9399996       0.00000000    
  -15.9300003       0.00000000    
  -15.9200001       0.00000000    
  -15.9099998       0.00000000    
  -15.8999996       0.00000000    
  -15.8900003       0.00000000    
  -15.8800001       0.00000000    
  -15.8699999       0.00000000    
  -15.8599997      -0.00000000    
  -15.8500004       0.00000000    
  -15.8400002       1.40129846E-45
  -15.8299999       3.08285662E-44
  -15.8199997       3.18094751E-43
  -15.8100004       2.56717879E-42
  -15.8000002       1.70397893E-41
  -15.7900000       9.61094565E-41
  -15.7799997       4.71232851E-40
  -15.7700005       2.04239391E-39
  -15.7600002       7.92593889E-39
  -15.7500000       2.78143536E-38
  -15.7399998       8.89456039E-38
  -15.7299995       2.60712431E-37
  -15.7200003       7.03472815E-37
  -15.7100000       1.75234324E-36
  -15.6999998       4.03532847E-36
  -15.6899996       8.58825902E-36
  -15.6800003       1.68520230E-35
  -15.6700001       3.03193771E-35
  -15.6599998       4.94805176E-35
  -15.6499996       7.17150449E-35
  -15.6400003       8.81006671E-35
  -15.6300001       7.99975793E-35
  -15.6199999       1.78144547E-35
  -15.6099997      -1.33803158E-34
  -15.6000004      -3.99196412E-34
  -15.5900002      -7.60232467E-34
  -15.5799999      -1.11447141E-33
  -15.5699997      -1.24086809E-33
  -15.5600004      -8.07374703E-34
  -15.5500002       5.35710612E-34
  -15.5400000       2.94611137E-33
  -15.5299997       6.08477496E-33
  -15.5200005       8.82898158E-33
  -15.5100002       9.22042414E-33
  -15.5000000       4.91391242E-33
  -15.4899998      -5.70763523E-33
  -15.4799995      -2.19037283E-32
  -15.4700003      -3.90843614E-32
  -15.4600000      -4.85784648E-32
  -15.4499998      -3.98404011E-32
  -15.4399996      -5.49495818E-33
  -15.4300003       5.21127502E-32
  -15.4200001       1.16357272E-31
  -15.4099998       1.58474847E-31
  -15.3999996       1.49561308E-31
  -15.3900003       8.00605869E-32
  -15.3800001      -2.39896621E-32
  -15.3699999      -1.05240810E-31
  -15.3599997      -1.14213570E-31
  -15.3500004      -7.84693613E-32
  -15.3400002      -1.61942332E-31
  -15.3299999      -6.39523235E-31
  -15.3199997      -1.70879658E-30
  -15.3100004      -3.12739783E-30
  -15.3000002      -3.81778109E-30
  -15.2900000      -1.78095068E-30
  -15.2799997       5.21684017E-30
  -15.2700005       1.78656318E-29
  -15.2600002       3.27044902E-29
  -15.2500000       3.99527577E-29
  -15.2399998       2.41015808E-29
  -15.2299995      -3.01084390E-29
  -15.2200003      -1.25171243E-28
  -15.2100000      -2.34539797E-28
  -15.1999998      -2.91219626E-28
  -15.1899996      -1.95083041E-28
  -15.1800003       1.47229147E-28
  -15.1700001       7.46291739E-28
  -15.1599998       1.43737978E-27
  -15.1499996       1.82238059E-27
  -15.1400003       1.32163100E-27
  -15.1300001      -5.95019619E-28
  -15.1199999      -3.98982388E-27
  -15.1099997      -7.96702907E-27
  -15.1000004      -1.03833123E-26
  -15.0900002      -8.14175868E-27
  -15.0799999       1.59995831E-27
  -15.0699997       1.92997363E-26
  -15.0600004       4.05841449E-26
  -15.0500002       5.48278852E-26
  -15.0400000       4.65852532E-26
  -15.0299997       1.38968085E-27
  -15.0200005      -8.41227896E-26
  -15.0100002      -1.90638407E-25
  -15.0000000      -2.69316645E-25
  -14.9899998      -2.47893870E-25
  -14.9799995      -5.64450439E-26
  -14.9700003       3.27446893E-25
  -14.9600000       8.26651435E-25
  -14.9499998       1.23221395E-24
  -14.9399996       1.22602523E-24
  -14.9300003       4.87160312E-25
  -14.9200001      -1.11823824E-24
  -14.9099998      -3.31407408E-24
  -14.8999996      -5.26643895E-24
  -14.8900003      -5.65414752E-24
  -14.8800001      -3.07707147E-24
  -14.8699999       3.18991073E-24
  -14.8599997       1.22854878E-23
  -14.8500004       2.11063585E-23
  -14.8400002       2.44653251E-23
  -14.8299999       1.65452562E-23
  -14.8199997      -6.27132429E-24
  -14.8100004      -4.18401348E-23
  -14.8000002      -7.94517353E-23
  -14.7900000      -9.98609049E-23
  -14.7799997      -8.00383260E-23
  -14.7700005      -3.18487089E-24
  -14.7600002       1.27976703E-22
  -14.7500000       2.79689662E-22
  -14.7399998       3.84789613E-22
  -14.7299995       3.56620413E-22
  -14.7200003       1.22239412E-22
  -14.7100000      -3.30429776E-22
  -14.6999998      -9.07489329E-22
  -14.6899996      -1.39079646E-21
  -14.6800003      -1.47250771E-21
  -14.6700001      -8.56917210E-22
  -14.6599998       5.81748239E-22
  -14.6499996       2.63208629E-21
  -14.6400003       4.64752195E-21
  -14.6300001       5.60730066E-21
  -14.6199999       4.39887541E-21
  -14.6099997       3.10112430E-22
  -14.6000004      -6.38989672E-21
  -14.5900002      -1.40139243E-20
  -14.5799999      -1.94554463E-20
  -14.5699997      -1.88659961E-20
  -14.5600004      -9.06154389E-21
  -14.5500002       1.06102586E-20
  -14.5400000       3.65706113E-20
  -14.5299997       6.03600220E-20
  -14.5200005       6.98948618E-20
  -14.5100002       5.30491736E-20
  -14.5000000       3.13136491E-21
  -14.4899998      -7.52557418E-20
  -14.4799995      -1.62414109E-19
  -14.4700003      -2.24540297E-19
  -14.4600000      -2.21446667E-19
  -14.4499998      -1.20920467E-19
  -14.4399996       8.33318163E-20
  -14.4300003       3.56219308E-19
  -14.4200001       6.16128736E-19
  -14.4099998       7.47164640E-19
  -14.3999996       6.31656881E-19
  -14.3900003       1.98544880E-19
  -14.3800001      -5.25402895E-19
  -14.3699999      -1.38154693E-18
  -14.3599997      -2.08420873E-18
  -14.3500004      -2.27947898E-18
  -14.3400002      -1.65752498E-18
  -14.3299999      -9.60123142E-20
  -14.3199997       2.20967652E-18
  -14.3100004       4.68679294E-18
  -14.3000002       6.44899743E-18
  -14.2900000       6.50903420E-18
  -14.2799997       4.11771667E-18
  -14.2700005      -8.51391620E-19
  -14.2600002      -7.60134646E-18
  -14.2500000      -1.43425161E-17
  -14.2399998      -1.85700211E-17
  -14.2299995      -1.77154923E-17
  -14.2200003      -1.00706965E-17
  -14.2100000       4.25828568E-18
  -14.1999998       2.27058051E-17
  -14.1899996       4.02574146E-17
  -14.1800003       5.03469733E-17
  -14.1700001       4.66292597E-17
  -14.1599998       2.52998220E-17
  -14.1499996      -1.26727685E-17
  -14.1400003      -6.02170611E-17
  -14.1300001      -1.04496734E-16
  -14.1199999      -1.29349104E-16
  -14.1099997      -1.19666419E-16
  -14.1000004      -6.68467549E-17
  -14.0900002       2.61970118E-17
  -14.0799999       1.42291768E-16
  -14.0699997       2.51137460E-16
  -14.0600004       3.15115315E-16
  -14.0500002       2.99255364E-16
  -14.0400000       1.83331110E-16
  -14.0299997      -2.72262545E-17
  -14.0200005      -2.95443133E-16
  -14.0100002      -5.55244920E-16
  -14.0000000      -7.23756831E-16
  -13.9899998      -7.22283682E-16
  -13.9799995      -5.01743090E-16
  -13.9700003      -6.58449201E-17
  -13.9600000       5.15712092E-16
  -13.9499998       1.11061351E-15
  -13.9399996       1.54703379E-15
  -13.9300003       1.65439744E-15
  -13.9200001       1.31392534E-15
  -13.9099998       5.06302668E-16
  -13.8999996      -6.58250426E-16
  -13.8900003      -1.94037566E-15
  -13.8800001      -3.00922769E-15
  -13.8699999      -3.51484495E-15
  -13.8599997      -3.18208404E-15
  -13.8500004      -1.90406887E-15
  -13.8400002       1.91320060E-16
  -13.8299999       2.72604870E-15
  -13.8199997       5.12212512E-15
  -13.8100004       6.71639021E-15
  -13.8000002       6.92072081E-15
  -13.7900000       5.39256961E-15
  -13.7799997       2.17163133E-15
  -13.7700005      -2.25985405E-15
  -13.7600002      -7.02212887E-15
  -13.7500000      -1.09936220E-14
  -13.7399998      -1.30539873E-14
  -13.7299995      -1.23645762E-14
  -13.7200003      -8.61949960E-15
  -13.7100000      -2.19926684E-15
  -13.6999998       5.82458564E-15
  -13.6899996       1.38530172E-14
  -13.6800003       2.00694987E-14
  -13.6700001       2.28354103E-14
  -13.6599998       2.10826246E-14
  -13.6499996       1.46085706E-14
  -13.6400003       4.19695466E-15
  -13.6300001      -8.47400305E-15
  -13.6199999      -2.11233669E-14
  -13.6099997      -3.12975455E-14
  -13.6000004      -3.68434870E-14
  -13.5900002      -3.63202137E-14
  -13.5799999      -2.92639888E-14
  -13.5699997      -1.62633511E-14
  -13.5600004       1.14821626E-15
  -13.5500002       2.07300235E-14
  -13.5400000       3.98274926E-14
  -13.5299997       5.56533003E-14
  -13.5200005       6.55216915E-14
  -13.5100002       6.70490817E-14
  -13.5000000       5.83731604E-14
  -13.4899998       3.84546961E-14
  -13.4799995       7.49597392E-15
  -13.4700003      -3.25612611E-14
  -13.4600000      -7.75881163E-14
  -13.4499998      -1.21083658E-13
  -13.4399996      -1.54495692E-13
  -13.4300003      -1.68240815E-13
  -13.4200001      -1.53468167E-13
  -13.4099998      -1.04390272E-13
  -13.3999996      -2.07503641E-14
  -13.3900003       9.02085413E-14
  -13.3800001       2.12987180E-13
  -13.3699999       3.24892836E-13
  -13.3599997       3.99210097E-13
  -13.3500004       4.10278284E-13
  -13.3400002       3.39710031E-13
  -13.3299999       1.82486323E-13
  -13.3199997      -4.86209245E-14
  -13.3100004      -3.21775375E-13
  -13.3000002      -5.88975103E-13
  -13.2900000      -7.93307965E-13
  -13.2799997      -8.79726034E-13
  -13.2700005      -8.07472470E-13
  -13.2600002      -5.61565659E-13
  -13.2500000      -1.60528207E-13
  -13.2399998       3.42013581E-13
  -13.2299995       8.63154112E-13
  -13.2200003       1.30370541E-12
  -13.2100000       1.56642917E-12
  -13.1999998       1.57612866E-12
  -13.1899996       1.29743438E-12
  -13.1800003       7.46199489E-13
  -13.1700001      -8.51110987E-15
  -13.1599998      -8.53011943E-13
  -13.1499996      -1.64709424E-12
  -13.1400003      -2.24841304E-12
  -13.1300001      -2.53842130E-12
  -13.1199999      -2.44464843E-12
  -13.1099997      -1.95480979E-12
  -13.1000004      -1.11998475E-12
  -13.0900002      -4.65059848E-14
  -13.0799999       1.12138098E-12
  -13.0699997       2.22416942E-12
  -13.0600004       3.11028438E-12
  -13.0500002       3.65551556E-12
  -13.0400000       3.77584422E-12
  -13.0299997       3.43296485E-12
  -13.0200005       2.63384540E-12
  -13.0100002       1.42707352E-12
  -13.0000000      -1.01101128E-13
  -12.9899998      -1.82908246E-12
  -12.9799995      -3.60067011E-12
  -12.9700003      -5.22646032E-12
  -12.9600000      -6.48978831E-12
  -12.9499998      -7.16137262E-12
  -12.9399996      -7.02541888E-12
  -12.9300003      -5.91682389E-12
  -12.9200001      -3.76512840E-12
  -12.9099998      -6.36901718E-13
  -12.8999996       3.23430605E-12
  -12.8900003       7.44153610E-12
  -12.8800001       1.14297322E-11
  -12.8699999       1.45556848E-11
  -12.8599997       1.61779670E-11
  -12.8500004       1.57649623E-11
  -12.8400002       1.30030119E-11
  -12.8299999       7.88410136E-12
  -12.8199997       7.54032091E-13
  -12.8100004      -7.69239013E-12
  -12.8000002      -1.64734303E-11
  -12.7900000      -2.44338733E-11
  -12.7799997      -3.03938784E-11
  -12.7700005      -3.33106182E-11
  -12.7600002      -3.24275398E-11
  -12.7500000      -2.73882861E-11
  -12.7399998      -1.82992597E-11
  -12.7299995      -5.73421432E-12
  -12.7200003       9.31583023E-12
  -12.7100000       2.55352180E-11
  -12.6999998       4.14020172E-11
  -12.6899996       5.53145654E-11
  -12.6800003       6.57116583E-11
  -12.6700001       7.11784243E-11
  -12.6599998       7.05365280E-11
  -12.6499996       6.29234720E-11
  -12.6400003       4.78682025E-11
  -12.6300001       2.53694045E-11
  -12.6199999      -4.02223047E-12
  -12.6099997      -3.91232602E-11
  -12.6000004      -7.80520718E-11
  -12.5900002      -1.18196869E-10
  -12.5799999      -1.56239369E-10
  -12.5699997      -1.88252192E-10
  -12.5600004      -2.09881723E-10
  -12.5500002      -2.16618459E-10
  -12.5400000      -2.04145603E-10
  -12.5299997      -1.68747766E-10
  -12.5200005      -1.07755457E-10
  -12.5100002      -1.99987596E-11
  -12.5000000       9.37520339E-11
  -12.4899998       2.30381214E-10
  -12.4799995       3.84073079E-10
  -12.4700003       5.46025225E-10
  -12.4600000       7.04250880E-10
  -12.4499998       8.43500492E-10
  -12.4399996       9.45342693E-10
  -12.4300003       9.88456095E-10
  -12.4200001       9.49183510E-10
  -12.4099998       8.02394318E-10
  -12.3999996       5.22681620E-10
  -12.3900003       8.58774926E-11
  -12.3800001      -5.29162825E-10
  -12.3699999      -1.33860978E-09
  -12.3599997      -2.35169106E-09
  -12.3500004      -3.56887009E-09
  -12.3400002      -4.98034192E-09
  -12.3299999      -6.56503518E-09
  -12.3199997      -8.29021829E-09
  -12.3100004      -1.01117958E-08
  -12.3000002      -1.19752901E-08
  -12.2900000      -1.38174698E-08
  -12.2799997      -1.55685562E-08
  -12.2700005      -1.71547754E-08
  -12.2600002      -1.85012521E-08
  -12.2500000      -1.95349852E-08
  -12.2399998      -2.01877395E-08
  -12.2299995      -2.03988417E-08
  -12.2200003      -2.01176569E-08
  -12.2100000      -1.93056451E-08
  -12.1999998      -1.79379036E-08
  -12.1899996      -1.60041331E-08
  -12.1800003      -1.35089469E-08
  -12.1700001      -1.04714788E-08
  -12.1599998      -6.92433666E-09
  -12.1499996      -2.91195290E-09
  -12.1400003       1.51150170E-09
  -12.1300001       6.28443919E-09
  -12.1199999       1.13402914E-08
  -12.1099997       1.66097234E-08
  -12.1000004       2.20226095E-08
  -12.0900002       2.75095378E-08
  -12.0799999       3.30028058E-08
  -12.0699997       3.84370047E-08
  -12.0600004       4.37491714E-08
  -12.0500002       4.88787180E-08
  -12.0400000       5.37670743E-08
  -12.0299997       5.83574291E-08
  -12.0200005       6.25943102E-08
  -12.0100002       6.64232900E-08
  -12.0000000       6.97907510E-08
  -11.9899998       7.26436582E-08
  -11.9799995       7.49295097E-08
  -11.9700003       7.65963861E-08
  -11.9600000       7.75932136E-08
  -11.9499998       7.78703253E-08
  -11.9399996       7.73802498E-08
  -11.9300003       7.60787984E-08
  -11.9200001       7.39267350E-08
  -11.9099998       7.08911543E-08
  -11.8999996       6.69471873E-08
  -11.8900003       6.20795291E-08
  -11.8800001       5.62833300E-08
  -11.8699999       4.95651058E-08
  -11.8599997       4.19426947E-08
  -11.8500004       3.34450441E-08
  -11.8400002       2.41113867E-08
  -11.8299999       1.39904044E-08
  -11.8199997       3.13926818E-09
  -11.8100004      -8.37715763E-09
  -11.8000002      -2.04868673E-08
  -11.7900000      -3.31109753E-08
  -11.7799997      -4.61638514E-08
  -11.7700005      -5.95529777E-08
  -11.7600002      -7.31790237E-08
  -11.7500000      -8.69359980E-08
  -11.7399998      -1.00711667E-07
  -11.7299995      -1.14388541E-07
  -11.7200003      -1.27845055E-07
  -11.7100000      -1.40957169E-07
  -11.6999998      -1.53600197E-07
  -11.6899996      -1.65650675E-07
  -11.6800003      -1.76988294E-07
  -11.6700001      -1.87497449E-07
  -11.6599998      -1.97068928E-07
  -11.6499996      -2.05600600E-07
  -11.6400003      -2.12998415E-07
  -11.6300001      -2.19176158E-07
  -11.6199999      -2.24055583E-07
  -11.6099997      -2.27565877E-07
  -11.6000004      -2.29642566E-07
  -11.5900002      -2.30226732E-07
  -11.5799999      -2.29263861E-07
  -11.5699997      -2.26702994E-07
  -11.5600004      -2.22495558E-07
  -11.5500002      -2.16595041E-07
  -11.5400000      -2.08956834E-07
  -11.5299997      -1.99538732E-07
  -11.5200005      -1.88301726E-07
  -11.5100002      -1.75211156E-07
  -11.5000000      -1.60239182E-07
  -11.4899998      -1.43366378E-07
  -11.4799995      -1.24584915E-07
  -11.4700003      -1.03900291E-07
  -11.4600000      -8.13332193E-08
  -11.4499998      -5.69212872E-08
  -11.4399996      -3.07183754E-08
  -11.4300003      -2.79417889E-09
  -11.4200001       2.67678679E-08
  -11.4099998       5.78736881E-08
  -11.3999996       9.04216222E-08
  -11.3900003       1.24306823E-07
  -11.3800001       1.59423820E-07
  -11.3699999       1.95670083E-07
  -11.3599997       2.32947187E-07
  -11.3500004       2.71161952E-07
  -11.3400002       3.10226966E-07
  -11.3299999       3.50058940E-07
  -11.3199997       3.90578350E-07
  -11.3100004       4.31708372E-07
  -11.3000002       4.73373319E-07
  -11.2900000       5.15498584E-07
  -11.2799997       5.58009731E-07
  -11.2700005       6.00832948E-07
  -11.2600002       6.43894396E-07
  -11.2500000       6.87121258E-07
  -11.2399998       7.30441172E-07
  -11.2299995       7.73783142E-07
  -11.2200003       8.17078046E-07
  -11.2100000       8.60258126E-07
  -11.1999998       9.03258695E-07
  -11.1899996       9.46016883E-07
  -11.1800003       9.88473175E-07
  -11.1700001       1.03057016E-06
  -11.1599998       1.07225344E-06
  -11.1499996       1.11347106E-06
  -11.1400003       1.15417220E-06
  -11.1300001       1.19430899E-06
  -11.1199999       1.23383552E-06
  -11.1099997       1.27270823E-06
  -11.1000004       1.31088791E-06
  -11.0900002       1.34834113E-06
  -11.0799999       1.38504265E-06
  -11.0699997       1.42097508E-06
  -11.0600004       1.45613024E-06
  -11.0500002       1.49050720E-06
  -11.0400000       1.52410985E-06
  -11.0299997       1.55694988E-06
  -11.0200005       1.58903561E-06
  -11.0100002       1.62037634E-06
  -11.0000000       1.65097686E-06
  -10.9899998       1.68083545E-06
  -10.9799995       1.70994576E-06
  -10.9700003       1.73829505E-06
  -10.9600000       1.76586582E-06
  -10.9499998       1.79263748E-06
  -10.9399996       1.81858695E-06
  -10.9300003       1.84368946E-06
  -10.9200001       1.86792022E-06
  -10.9099998       1.89125512E-06
  -10.8999996       1.91367144E-06
  -10.8900003       1.93514393E-06
  -10.8800001       1.95564644E-06
  -10.8699999       1.97515601E-06
  -10.8599997       1.99364649E-06
  -10.8500004       2.01109106E-06
  -10.8400002       2.02746492E-06
  -10.8299999       2.04273670E-06
  -10.8199997       2.05688752E-06
  -10.8100004       2.06988898E-06
  -10.8000002       2.08172423E-06
  -10.7900000       2.09238328E-06
  -10.7799997       2.10186067E-06
  -10.7700005       2.11016231E-06
  -10.7600002       2.11730571E-06
  -10.7500000       2.12331929E-06
  -10.7399998       2.12823966E-06
  -10.7299995       2.13211956E-06
  -10.7200003       2.13502108E-06
  -10.7100000       2.13701878E-06
  -10.6999998       2.13819658E-06
  -10.6899996       2.13864746E-06
  -10.6800003       2.13847375E-06
  -10.6700001       2.13778912E-06
  -10.6599998       2.13670546E-06
  -10.6499996       2.13533076E-06
  -10.6400003       2.13378075E-06
  -10.6300001       2.13215139E-06
  -10.6199999       2.13054273E-06
  -10.6099997       2.12903342E-06
  -10.6000004       2.12770397E-06
  -10.5900002       2.12662349E-06
  -10.5799999       2.12585769E-06
  -10.5699997       2.12547184E-06
  -10.5600004       2.12553368E-06
  -10.5500002       2.12612508E-06
  -10.5400000       2.12732743E-06
  -10.5299997       2.12923555E-06
  -10.5200005       2.13194539E-06
  -10.5100002       2.13555700E-06
  -10.5000000       2.14018314E-06
  -10.4899998       2.14592023E-06
  -10.4799995       2.15286991E-06
  -10.4700003       2.16111448E-06
  -10.4600000       2.17072920E-06
  -10.4499998       2.18175614E-06
  -10.4399996       2.19422805E-06
  -10.4300003       2.20813695E-06
  -10.4200001       2.22345352E-06
  -10.4099998       2.24012410E-06
  -10.3999996       2.25807139E-06
  -10.3900003       2.27719556E-06
  -10.3800001       2.29739067E-06
  -10.3699999       2.31853687E-06
  -10.3599997       2.34052072E-06
  -10.3500004       2.36323808E-06
  -10.3400002       2.38656185E-06
  -10.3299999       2.41040789E-06
  -10.3199997       2.43467844E-06
  -10.3100004       2.45930005E-06
  -10.3000002       2.48420861E-06
  -10.2900000       2.50935318E-06
  -10.2799997       2.53469034E-06
  -10.2700005       2.56018780E-06
  -10.2600002       2.58583054E-06
  -10.2500000       2.61160426E-06
  -10.2399998       2.63750144E-06
  -10.2299995       2.66352026E-06
  -10.2200003       2.68966460E-06
  -10.2100000       2.71593217E-06
  -10.1999998       2.74234117E-06
  -10.1899996       2.76890000E-06
  -10.1800003       2.79563460E-06
  -10.1700001       2.82259339E-06
  -10.1599998       2.84982821E-06
  -10.1499996       2.87741364E-06
  -10.1400003       2.90544722E-06
  -10.1300001       2.93402968E-06
  -10.1199999       2.96330472E-06
  -10.1099997       2.99339854E-06
  -10.1000004       3.02446006E-06
  -10.0900002       3.05663843E-06
  -10.0799999       3.09008556E-06
  -10.0699997       3.12496354E-06
  -10.0600004       3.16140176E-06
  -10.0500002       3.19953665E-06
  -10.0400000       3.23946915E-06
  -10.0299997       3.28130977E-06
  -10.0200005       3.32512218E-06
  -10.0100002       3.37095776E-06
  -10.0000000       3.41885311E-06
  -9.98999977       3.46882211E-06
  -9.97999954       3.52089046E-06
  -9.97000027       3.57503518E-06
  -9.96000004       3.63126014E-06
  -9.94999981       3.68955534E-06
  -9.93999958       3.74991600E-06
  -9.93000031       3.81234668E-06
  -9.92000008       3.87683076E-06
  -9.90999985       3.94341032E-06
  -9.89999962       4.01210809E-06
  -9.89000034       4.08295136E-06
  -9.88000011       4.15599698E-06
  -9.86999989       4.23129632E-06
  -9.85999966       4.30890168E-06
  -9.85000038       4.38889174E-06
  -9.84000015       4.47131833E-06
  -9.82999992       4.55625150E-06
  -9.81999969       4.64374943E-06
  -9.81000042       4.73389127E-06
  -9.80000019       4.82673204E-06
  -9.78999996       4.92232084E-06
  -9.77999973       5.02074727E-06
  -9.77000046       5.12209499E-06
  -9.76000023       5.22644132E-06
  -9.75000000       5.33392222E-06
  -9.73999977       5.44464547E-06
  -9.72999954       5.55875022E-06
  -9.72000027       5.67640154E-06
  -9.71000004       5.79772268E-06
  -9.69999981       5.92284323E-06
  -9.68999958       6.05188734E-06
  -9.68000031       6.18492822E-06
  -9.67000008       6.32200181E-06
  -9.65999985       6.46309991E-06
  -9.64999962       6.60814476E-06
  -9.64000034       6.75697311E-06
  -9.63000011       6.90935030E-06
  -9.61999989       7.06494211E-06
  -9.60999966       7.22336426E-06
  -9.60000038       7.38411336E-06
  -9.59000015       7.54662005E-06
  -9.57999992       7.71023315E-06
  -9.56999969       7.87427325E-06
  -9.56000042       8.03798957E-06
  -9.55000019       8.20062269E-06
  -9.53999996       8.36138315E-06
  -9.52999973       8.51947698E-06
  -9.52000046       8.67413200E-06
  -9.51000023       8.82459517E-06
  -9.50000000       8.97013069E-06
  -9.48999977       9.11008192E-06
  -9.47999954       9.24383130E-06
  -9.47000027       9.37083405E-06
  -9.46000004       9.49065088E-06
  -9.44999981       9.60296074E-06
  -9.43999958       9.70752626E-06
  -9.43000031       9.80425739E-06
  -9.42000008       9.89320961E-06
  -9.40999985       9.97452116E-06
  -9.39999962       1.00485540E-05
  -9.39000034       1.01157730E-05
  -9.38000011       1.01768210E-05
  -9.36999989       1.02324684E-05
  -9.35999966       1.02836430E-05
  -9.35000038       1.03313769E-05
  -9.34000015       1.03768371E-05
  -9.32999992       1.04213159E-05
  -9.31999969       1.04661412E-05
  -9.31000042       1.05127765E-05
  -9.30000019       1.05626741E-05
  -9.28999996       1.06174130E-05
  -9.27999973       1.06785137E-05
  -9.27000046       1.07475389E-05
  -9.26000023       1.08259956E-05
  -9.25000000       1.09153752E-05
  -9.23999977       1.10171341E-05
  -9.22999954       1.11326135E-05
  -9.22000027       1.12630578E-05
  -9.21000004       1.14095847E-05
  -9.19999981       1.15731882E-05
  -9.18999958       1.17546397E-05
  -9.18000031       1.19546148E-05
  -9.17000008       1.21735802E-05
  -9.15999985       1.24118114E-05
  -9.14999962       1.26693922E-05
  -9.14000034       1.29461951E-05
  -9.13000011       1.32419536E-05
  -9.11999989       1.35561158E-05
  -9.10999966       1.38880278E-05
  -9.10000038       1.42367981E-05
  -9.09000015       1.46014054E-05
  -9.07999992       1.49806056E-05
  -9.06999969       1.53730562E-05
  -9.06000042       1.57772374E-05
  -9.05000019       1.61915523E-05
  -9.03999996       1.66143091E-05
  -9.02999973       1.70436615E-05
  -9.02000046       1.74777288E-05
  -9.01000023       1.79146064E-05
  -9.00000000       1.83522752E-05
  -8.98999977       1.87888199E-05
  -8.97999954       1.92222069E-05
  -8.97000027       1.96505189E-05
  -8.96000004       2.00718005E-05
  -8.94999981       2.04842054E-05
  -8.93999958       2.08858728E-05
  -8.93000031       2.12751256E-05
  -8.92000008       2.16501885E-05
  -8.90999985       2.20095972E-05
  -8.89999962       2.23518382E-05
  -8.89000034       2.26755747E-05
  -8.88000011       2.29795751E-05
  -8.86999989       2.32627226E-05
  -8.85999966       2.35240550E-05
  -8.85000038       2.37626664E-05
  -8.84000015       2.39778747E-05
  -8.82999992       2.41691068E-05
  -8.81999969       2.43358809E-05
  -8.81000042       2.44778821E-05
  -8.80000019       2.45948759E-05
  -8.78999996       2.46866966E-05
  -8.77999973       2.47534135E-05
  -8.77000046       2.47951411E-05
  -8.76000023       2.48121560E-05
  -8.75000000       2.48049109E-05
  -8.73999977       2.47738808E-05
  -8.72999954       2.47198186E-05
  -8.72000027       2.46436011E-05
  -8.71000004       2.45462234E-05
  -8.69999981       2.44287621E-05
  -8.68999958       2.42924743E-05
  -8.68000031       2.41386915E-05
  -8.67000008       2.39689107E-05
  -8.65999985       2.37845798E-05
  -8.64999962       2.35873595E-05
  -8.64000034       2.33788869E-05
  -8.63000011       2.31608519E-05
  -8.61999989       2.29349280E-05
  -8.60999966       2.27027303E-05
  -8.60000038       2.24658888E-05
  -8.59000015       2.22258859E-05
  -8.57999992       2.19841259E-05
  -8.56999969       2.17419838E-05
  -8.56000042       2.15006767E-05
  -8.55000019       2.12613140E-05
  -8.53999996       2.10247945E-05
  -8.52999973       2.07918911E-05
  -8.52000046       2.05632568E-05
  -8.51000023       2.03394902E-05
  -8.50000000       2.01209969E-05
  -8.48999977       1.99079750E-05
  -8.47999954       1.97006866E-05
  -8.47000027       1.94992535E-05
  -8.46000004       1.93036776E-05
  -8.44999981       1.91140625E-05
  -8.43999958       1.89304956E-05
  -8.43000031       1.87530659E-05
  -8.42000008       1.85819372E-05
  -8.40999985       1.84172059E-05
  -8.39999962       1.82590557E-05
  -8.39000034       1.81078922E-05
  -8.38000011       1.79640010E-05
  -8.36999989       1.78278660E-05
  -8.35999966       1.77000366E-05
  -8.35000038       1.75811565E-05
  -8.34000015       1.74718480E-05
  -8.32999992       1.73729150E-05
  -8.31999969       1.72853379E-05
  -8.31000042       1.72098535E-05
  -8.30000019       1.71473057E-05
  -8.28999996       1.70986277E-05
  -8.27999973       1.70646490E-05
  -8.27000046       1.70462645E-05
  -8.26000023       1.70442036E-05
  -8.25000000       1.70592903E-05
  -8.23999977       1.70921976E-05
  -8.22999954       1.71437059E-05
  -8.22000027       1.72143045E-05
  -8.21000004       1.73046501E-05
  -8.19999981       1.74153265E-05
  -8.18999958       1.75466921E-05
  -8.18000031       1.76992871E-05
  -8.17000008       1.78735718E-05
  -8.15999985       1.80699499E-05
  -8.14999962       1.82889089E-05
  -8.14000034       1.85307381E-05
  -8.13000011       1.87959613E-05
  -8.11999989       1.90848023E-05
  -8.10999966       1.93978667E-05
  -8.10000038       1.97355766E-05
  -8.09000015       2.00980212E-05
  -8.07999992       2.04857170E-05
  -8.06999969       2.08988695E-05
  -8.06000042       2.13377261E-05
  -8.05000019       2.18024779E-05
  -8.03999996       2.22931358E-05
  -8.02999973       2.28098597E-05
  -8.02000046       2.33524406E-05
  -8.01000023       2.39207711E-05
  -8.00000000       2.45144329E-05
  -7.98999977       2.51329748E-05
  -7.98000002       2.57756565E-05
  -7.96999979       2.64417467E-05
  -7.96000004       2.71302324E-05
  -7.94999981       2.78401731E-05
  -7.94000006       2.85702372E-05
  -7.92999983       2.93192716E-05
  -7.92000008       3.00857082E-05
  -7.90999985       3.08680719E-05
  -7.90000010       3.16646838E-05
  -7.88999987       3.24738976E-05
  -7.88000011       3.32939380E-05
  -7.86999989       3.41230261E-05
  -7.86000013       3.49593720E-05
  -7.84999990       3.58013021E-05
  -7.84000015       3.66469430E-05
  -7.82999992       3.74946794E-05
  -7.82000017       3.83427796E-05
  -7.80999994       3.91898175E-05
  -7.80000019       4.00341851E-05
  -7.78999996       4.08743035E-05
  -7.78000021       4.17090196E-05
  -7.76999998       4.25370708E-05
  -7.76000023       4.33574569E-05
  -7.75000000       4.41691009E-05
  -7.73999977       4.49712461E-05
  -7.73000002       4.57632268E-05
  -7.71999979       4.65443773E-05
  -7.71000004       4.73142863E-05
  -7.69999981       4.80723611E-05
  -7.69000006       4.88184960E-05
  -7.67999983       4.95526001E-05
  -7.67000008       5.02745097E-05
  -7.65999985       5.09842248E-05
  -7.65000010       5.16819746E-05
  -7.63999987       5.23679664E-05
  -7.63000011       5.30423786E-05
  -7.61999989       5.37057385E-05
  -7.61000013       5.43585447E-05
  -7.59999990       5.50013974E-05
  -7.59000015       5.56351115E-05
  -7.57999992       5.62603054E-05
  -7.57000017       5.68778378E-05
  -7.55999994       5.74885707E-05
  -7.55000019       5.80935957E-05
  -7.53999996       5.86938913E-05
  -7.53000021       5.92907199E-05
  -7.51999998       5.98851075E-05
  -7.51000023       6.04783781E-05
  -7.50000000       6.10717834E-05
  -7.48999977       6.16665420E-05
  -7.48000002       6.22639564E-05
  -7.46999979       6.28653070E-05
  -7.46000004       6.34721146E-05
  -7.44999981       6.40851285E-05
  -7.44000006       6.47058259E-05