  -16.0000000       0.00000000    
  -15.9899998       0.00000000    
  -15.9799995       0.00000000    
  -15.9700003       0.00000000    
  -15.9600000       0.00000000    
  -15.9499998       0.00000000    
  -15.9399996       0.00000000    
  -15.9300003       0.00000000    
  -15.9200001       0.00000000    
  -15.9099998       0.00000000    
  -15.8999996       0.00000000    
  -15.8900003       0.00000000    
  -15.8800001       0.00000000    
  -15.8699999      -1.84971397E-43
  -15.8599997      -4.75600699E-42
  -15.8500004      -7.92504346E-41
  -15.8400002      -7.72551258E-40
  -15.8299999      -5.33257124E-39
  -15.8199997      -2.80264569E-38
  -15.8100004      -1.15993366E-37
  -15.8000002      -3.76834268E-37
  -15.7900000      -8.76782539E-37
  -15.7799997      -7.57502938E-37
  -15.7700005       5.60428017E-36
  -15.7600002       4.10929091E-35
  -15.7500000       1.78563538E-34
  -15.7399998       6.10875670E-34
  -15.7299995       1.77025059E-33
  -15.7200003       4.47118966E-33
  -15.7100000       9.95218113E-33
  -15.6999998       1.95204855E-32
  -15.6899996       3.33194638E-32
  -15.6800003       4.77386594E-32
  -15.6700001       5.15224464E-32
  -15.6599998       2.21231710E-32
  -15.6499996      -7.36002756E-32
  -15.6400003      -2.67393226E-31
  -15.6300001      -5.58634647E-31
  -15.6199999      -8.62376980E-31
  -15.6099997      -9.51784986E-31
  -15.6000004      -4.42141088E-31
  -15.5900002       1.09784712E-30
  -15.5799999       3.80438985E-30
  -15.5699997       6.90366967E-30
  -15.5600004       7.99203450E-30
  -15.5500002       2.78356573E-30
  -15.5400000      -1.36084013E-29
  -15.5299997      -4.25816490E-29
  -15.5200005      -7.46826341E-29
  -15.5100002      -8.11915731E-29
  -15.5000000      -1.16836360E-29
  -15.4899998       1.90065199E-28
  -15.4799995       5.38385097E-28
  -15.4700003       9.23849720E-28
  -15.4600000       1.02549790E-27
  -15.4499998       2.94671856E-28
  -15.4399996      -1.86556783E-27
  -15.4300003      -5.60695137E-27
  -15.4200001      -9.83754384E-27
  -15.4099998      -1.14260077E-26
  -15.3999996      -5.14574816E-27
  -15.3900003       1.45659022E-26
  -15.3800001       4.91394308E-26
  -15.3699999       8.90220102E-26
  -15.3599997       1.07299184E-25
  -15.3500004       5.99194338E-26
  -15.3400002      -9.91979584E-26
  -15.3299999      -3.82138718E-25
  -15.3199997      -7.14124519E-25
  -15.3100004      -8.86870266E-25
  -15.3000002      -5.63972044E-25
  -15.2900000       6.03527650E-25
  -15.2799997       2.71369276E-24
  -15.2700005       5.23880239E-24
  -15.2600002       6.70568688E-24
  -15.2500000       4.74452503E-24
  -15.2399998      -3.11482458E-24
  -15.2299995      -1.76727483E-23
  -15.2200003      -3.55842122E-23
  -15.2100000      -4.72701421E-23
  -15.1999998      -3.71949368E-23
  -15.1899996       1.11628796E-23
  -15.1800003       1.04321598E-22
  -15.1700001       2.23476292E-22
  -15.1599998       3.11392732E-22
  -15.1499996       2.73148453E-22
  -15.1400003       4.21462823E-24
  -15.1300001      -5.46423477E-22
  -15.1199999      -1.28727357E-21
  -15.1099997      -1.90547476E-21
  -15.1000004      -1.86169356E-21
  -15.0900002      -5.32957457E-22
  -15.0799999       2.45230759E-21
  -15.0699997       6.72981222E-21
  -15.0600004       1.07466433E-20
  -15.0500002       1.16650407E-20
  -15.0400000       6.00831362E-21
  -15.0299997      -8.70167751E-21
  -15.0200005      -3.14793760E-20
  -15.0100002      -5.54153366E-20
  -15.0000000      -6.67638475E-20
  -14.9899998      -4.74707095E-20
  -14.9799995       1.75005455E-20
  -14.9700003       1.28498721E-19
  -14.9600000       2.58627764E-19
  -14.9499998       3.47115901E-19
  -14.9399996       3.07337768E-19
  -14.9300003       5.64930883E-20
  -14.9200001      -4.33277257E-19
  -14.9099998      -1.07520731E-18
  -14.8999996      -1.62734458E-18
  -14.8900003      -1.70882642E-18
  -14.8800001      -9.06815565E-19
  -14.8699999       1.01819254E-18
  -14.8599997       3.87008237E-18
  -14.8500004       6.80103392E-18
  -14.8400002       8.29306715E-18
  -14.8299999       6.48837081E-18
  -14.8199997      -6.30496321E-20
  -14.8100004      -1.13468360E-17
  -14.8000002      -2.48651154E-17
  -14.7900000      -3.52158911E-17
  -14.7799997      -3.48936976E-17
  -14.7700005      -1.67110783E-17
  -14.7600002       2.23350180E-17
  -14.7500000       7.67794140E-17
  -14.7399998       1.29884164E-16
  -14.7299995       1.54660262E-16
  -14.7200003       1.20611483E-16
  -14.7100000       6.42989535E-18
  -14.6999998      -1.83937890E-16
  -14.6899996      -4.07601466E-16
  -14.6800003      -5.79473927E-16
  -14.6700001      -5.87183727E-16
  -14.6599998      -3.27710827E-16
  -14.6499996       2.38994528E-16
  -14.6400003       1.03480321E-15
  -14.6300001       1.83144384E-15
  -14.6199999       2.26952589E-15
  -14.6099997       1.94795576E-15
  -14.6000004       5.81431791E-16
  -14.5900002      -1.80855320E-15
  -14.5799999      -4.73716051E-15
  -14.5699997      -7.22206464E-15
  -14.5600004      -7.95044013E-15
  -14.5500002      -5.67697829E-15
  -14.5400000       2.03947322E-16
  -14.5299997       9.07285620E-15
  -14.5200005       1.87324165E-14
  -14.5100002       2.55518093E-14
  -14.5000000       2.52872809E-14
  -14.4899998       1.45541673E-14
  -14.4799995      -7.36056300E-15
  -14.4700003      -3.69418987E-14
  -14.4600000      -6.59095987E-14
  -14.4499998      -8.23817672E-14
  -14.4399996      -7.40253467E-14
  -14.4300003      -3.27919590E-14
  -14.4200001       3.99829705E-14
  -14.4099998       1.30000191E-13
  -14.3999996       2.10013091E-13
  -14.3900003       2.44934688E-13
  -14.3800001       2.02135129E-13
  -14.3699999       6.50184998E-14
  -14.3599997      -1.54066633E-13
  -14.3500004      -4.06838219E-13
  -14.3400002      -6.13000536E-13
  -14.3299999      -6.77792403E-13
  -14.3199997      -5.21708924E-13
  -14.3100004      -1.15767489E-13
  -14.3000002       4.88816507E-13
  -14.2900000       1.14961263E-12
  -14.2799997       1.65139462E-12
  -14.2700005       1.75764709E-12
  -14.2600002       1.28788907E-12
  -14.2500000       2.01634824E-13
  -14.2399998      -1.33903067E-12
  -14.2299995      -2.95788047E-12
  -14.2200003      -4.12475089E-12
  -14.2100000      -4.28944120E-12
  -14.1999998      -3.06558620E-12
  -14.1899996      -4.15628415E-13
  -14.1800003       3.22695343E-12
  -14.1700001       6.95965854E-12
  -14.1599998       9.57349824E-12
  -14.1499996       9.86747489E-12
  -14.1400003       7.05179361E-12
  -14.1300001       1.12870856E-12
  -14.1199999      -6.88362128E-12
  -14.1099997      -1.50016909E-11
  -14.1000004      -2.06592729E-11
  -14.0900002      -2.13828694E-11
  -14.0799999      -1.56141731E-11
  -14.0699997      -3.44806453E-12
  -14.0600004       1.29754506E-11
  -14.0500002       2.96371538E-11
  -14.0400000       4.14441814E-11
  -14.0299997       4.35692524E-11
  -14.0200005       3.30212524E-11
  -14.0100002       1.00036498E-11
  -14.0000000      -2.14169758E-11
  -13.9899998      -5.36918357E-11
  -13.9799995      -7.73308917E-11
  -13.9700003      -8.33715666E-11
  -13.9600000      -6.62070676E-11
  -13.9499998      -2.59792552E-11
  -13.9399996       3.02819991E-11
  -13.9300003       8.93687277E-11
  -13.9200001       1.34597070E-10
  -13.9099998       1.50068624E-10
  -13.8999996       1.25504579E-10
  -13.8900003       6.03196312E-11
  -13.8800001      -3.44145094E-11
  -13.8699999      -1.37067233E-10
  -13.8599997      -2.19822757E-10
  -13.8500004      -2.55608201E-10
  -13.8400002      -2.25992225E-10
  -13.8299999      -1.27920147E-10
  -13.8199997       2.28406148E-11
  -13.8100004       1.93070462E-10
  -13.8000002       3.38640449E-10
  -13.7900000       4.15168316E-10
  -13.7799997       3.90385169E-10
  -13.7700005       2.54979288E-10
  -13.7600002       2.86345635E-11
  -13.7500000      -2.41115211E-10
  -13.7399998      -4.87906993E-10
  -13.7299995      -6.42025100E-10
  -13.7200003      -6.48901766E-10
  -13.7100000      -4.85927854E-10
  -13.6999998      -1.72713691E-10
  -13.6899996       2.28831384E-10
  -13.6800003       6.25871521E-10
  -13.6700001       9.15677534E-10
  -13.6599998       1.01167419E-09
  -13.6499996       8.67913963E-10
  -13.6400003       4.95141872E-10
  -13.6300001      -3.67777822E-11
  -13.6199999      -6.11992457E-10
  -13.6099997      -1.09511011E-09
  -13.6000004      -1.36476808E-09
  -13.5900002      -1.34558786E-09
  -13.5799999      -1.02951958E-09
  -13.5699997      -4.79987716E-10
  -13.5600004       1.83266180E-10
  -13.5500002       8.15124801E-10
  -13.5400000       1.28339384E-09
  -13.5299997       1.50325075E-09
  -13.5200005       1.45714329E-09
  -13.5100002       1.19347754E-09
  -13.5000000       8.03986933E-10
  -13.4899998       3.86911891E-10
  -13.4799995       8.71680766E-12
  -13.4700003      -3.21132509E-10
  -13.4600000      -6.50906662E-10
  -13.4499998      -1.05910480E-09
  -13.4399996      -1.60520186E-09
  -13.4300003      -2.27482699E-09
  -13.4200001      -2.94114111E-09
  -13.4099998      -3.36298744E-09
  -13.3999996      -3.23156812E-09
  -13.3900003      -2.26238650E-09
  -13.3800001      -3.12209120E-10
  -13.3699999       2.51324273E-09
  -13.3599997       5.80048987E-09
  -13.3500004       8.85137563E-09
  -13.3400002       1.08023999E-08
  -13.3299999       1.08271268E-08
  -13.3199997       8.37989766E-09
  -13.3100004       3.41725248E-09
  -13.3000002      -3.47251827E-09
  -13.2900000      -1.10878444E-08
  -13.2799997      -1.78037372E-08
  -13.2700005      -2.19111289E-08
  -13.2600002      -2.20373941E-08
  -13.2500000      -1.75458990E-08
  -13.2399998      -8.80288553E-09
  -13.2299995       2.77972156E-09
  -13.2200003       1.49664690E-08
  -13.2100000       2.51601495E-08
  -13.1999998       3.10070156E-08
  -13.1899996       3.09997077E-08
  -13.1800003       2.49160088E-08
  -13.1700001       1.39586023E-08
  -13.1599998       5.30479105E-10
  -13.1499996      -1.23258674E-08
  -13.1400003      -2.17003713E-08
  -13.1300001      -2.56022599E-08
  -13.1199999      -2.35423983E-08
  -13.1099997      -1.67277960E-08
  -13.1000004      -7.77782727E-09
  -13.0900002       3.60441684E-13
  -13.0799999       3.60888075E-09
  -13.0699997       1.36217837E-09
  -13.0600004      -6.40105347E-09
  -13.0500002      -1.71459575E-08
  -13.0400000      -2.66296905E-08
  -13.0299997      -2.99948084E-08
  -13.0200005      -2.32292496E-08
  -13.0100002      -4.61758232E-09
  -13.0000000       2.42404958E-08
  -12.9899998       5.82030566E-08
  -12.9799995       8.93363747E-08
  -12.9700003       1.08581595E-07
  -12.9600000       1.08016515E-07
  -12.9499998       8.31849576E-08
  -12.9399996       3.48815092E-08
  -12.9300003      -3.01582759E-08
  -12.9200001      -9.99863872E-08
  -12.9099998      -1.59588240E-07
  -12.8999996      -1.94078112E-07
  -12.8900003      -1.92268104E-07
  -12.8800001      -1.49776085E-07
  -12.8699999      -7.08697954E-08
  -12.8599997       3.15140554E-08
  -12.8500004       1.37739377E-07
  -12.8400002       2.25125120E-07
  -12.8299999       2.72566723E-07
  -12.8199997       2.65137345E-07
  -12.8100004       1.97655979E-07
  -12.8000002       7.64101955E-08
  -12.7900000      -8.13663448E-08
  -12.7799997      -2.50150123E-07
  -12.7700005      -4.00346607E-07
  -12.7600002      -5.03164415E-07
  -12.7500000      -5.35159302E-07
  -12.7399998      -4.81617406E-07
  -12.7299995      -3.38325407E-07
  -12.7200003      -1.11708495E-07
  -12.7100000       1.82265055E-07
  -12.6999998       5.19778837E-07
  -12.6899996       8.70846918E-07
  -12.6800003       1.20057655E-06
  -12.6700001       1.47005733E-06
  -12.6599998       1.63730510E-06
  -12.6499996       1.65899269E-06
  -12.6400003       1.49374523E-06
  -12.6300001       1.10745975E-06
  -12.6199999       4.80510778E-07
  -12.6099997      -3.83919570E-07
  -12.6000004      -1.45195258E-06
  -12.5900002      -2.65351014E-06
  -12.5799999      -3.88112312E-06
  -12.5699997      -4.99452108E-06
  -12.5600004      -5.83162500E-06
  -12.5500002      -6.22526068E-06
  -12.5400000      -6.02370983E-06
  -12.5299997      -5.11253666E-06
  -12.5200005      -3.43421084E-06
  -12.5100002      -1.00282921E-06
  -12.5000000       2.08849224E-06
  -12.4899998       5.66837343E-06
  -12.4799995       9.49559308E-06
  -12.4700003       1.32735604E-05
  -12.4600000       1.66681275E-05
  -12.4499998       1.93263895E-05
  -12.4399996       2.08937563E-05
  -12.4300003       2.10286835E-05
  -12.4200001       1.94143140E-05
  -12.4099998       1.57687500E-05
  -12.3999996       9.85463157E-06
  -12.3900003       1.49070456E-06
  -12.3800001      -9.43516261E-06
  -12.3699999      -2.29503366E-05
  -12.3599997      -3.89821544E-05
  -12.3500004      -5.73445795E-05
  -12.3400002      -7.77306341E-05
  -12.3299999      -9.97126044E-05
  -12.3199997      -1.22752710E-04
  -12.3100004      -1.46221777E-04
  -12.3000002      -1.69425737E-04
  -12.2900000      -1.91635714E-04
  -12.2799997      -2.12113824E-04
  -12.2700005      -2.30138103E-04
  -12.2600002      -2.45011295E-04
  -12.2500000      -2.56068219E-04
  -12.2399998      -2.62670364E-04
  -12.2299995      -2.64197297E-04
  -12.2200003      -2.60045432E-04
  -12.2100000      -2.49629345E-04
  -12.1999998      -2.32399965E-04
  -12.1899996      -2.07871723E-04
  -12.1800003      -1.75666355E-04
  -12.1700001      -1.35554859E-04
  -12.1599998      -8.75124533E-05
  -12.1499996      -3.17463855E-05
  -12.1400003       3.12757438E-05
  -12.1300001       1.00829027E-04
  -12.1199999       1.75948546E-04
  -12.1099997       2.55472085E-04
  -12.1000004       3.38086946E-04
  -12.0900002       4.22391429E-04
  -12.0799999       5.06948447E-04
  -12.0699997       5.90331096E-04
  -12.0600004       6.71159010E-04
  -12.0500002       7.48121180E-04
  -12.0400000       8.19988607E-04
  -12.0299997       8.85619374E-04
  -12.0200005       9.43965453E-04
  -12.0100002       9.94071248E-04
  -12.0000000       1.03508495E-03
  -11.9899998       1.06626120E-03
  -11.9799995       1.08696928E-03
  -11.9700003       1.09669461E-03
  -11.9600000       1.09503430E-03
  -11.9499998       1.08168542E-03
  -11.9399996       1.05642900E-03
  -11.9300003       1.01910869E-03
  -11.9200001       9.69612040E-04
  -11.9099998       9.07856273E-04
  -11.8999996       8.33785569E-04
  -11.8900003       7.47379730E-04
  -11.8800001       6.48674555E-04
  -11.8699999       5.37786807E-04
  -11.8599997       4.14949172E-04
  -11.8500004       2.80544016E-04
  -11.8400002       1.35112772E-04
  -11.8299999      -2.06137447E-05
  -11.8199997      -1.85734374E-04
  -11.8100004      -3.59176775E-04
  -11.8000002      -5.39728499E-04
  -11.7900000      -7.26054772E-04
  -11.7799997      -9.16732999E-04
  -11.7700005      -1.11027155E-03
  -11.7600002      -1.30512263E-03
  -11.7500000      -1.49969861E-03
  -11.7399998      -1.69237470E-03
  -11.7299995      -1.88148580E-03
  -11.7200003      -2.06533493E-03
  -11.7100000      -2.24219402E-03
  -11.6999998      -2.41031335E-03
  -11.6899996      -2.56793015E-03
  -11.6800003      -2.71328981E-03
  -11.6700001      -2.84465286E-03
  -11.6599998      -2.96031684E-03
  -11.6499996      -3.05862818E-03
  -11.6400003      -3.13799363E-03
  -11.6300001      -3.19689256E-03
  -11.6199999      -3.23389820E-03
  -11.6099997      -3.24769574E-03
  -11.6000004      -3.23711080E-03
  -11.5900002      -3.20113171E-03
  -11.5799999      -3.13895475E-03
  -11.5699997      -3.05000297E-03
  -11.5600004      -2.93395109E-03
  -11.5500002      -2.79073021E-03
  -11.5400000      -2.62051472E-03
  -11.5299997      -2.42370134E-03
  -11.5200005      -2.20086100E-03
  -11.5100002      -1.95268914E-03
  -11.5000000      -1.67996483E-03
  -11.4899998      -1.38349715E-03
  -11.4799995      -1.06410903E-03
  -11.4700003      -7.22623605E-04
  -11.4600000      -3.59873316E-04
  -11.4499998       2.32800521E-05
  -11.4399996       4.25915059E-04
  -11.4300003       8.47031537E-04
  -11.4200001       1.28552143E-03
  -11.4099998       1.74018042E-03
  -11.3999996       2.20969669E-03
  -11.3900003       2.69268453E-03
  -11.3800001       3.18770041E-03
  -11.3699999       3.69327352E-03
  -11.3599997       4.20790957E-03
  -11.3500004       4.73012263E-03
  -11.3400002       5.25841443E-03
  -11.3299999       5.79128228E-03
  -11.3199997       6.32720347E-03
  -11.3100004       6.86462875E-03
  -11.3000002       7.40199024E-03
  -11.2900000       7.93770701E-03
  -11.2799997       8.47020186E-03
  -11.2700005       8.99794884E-03
  -11.2600002       9.51948389E-03
  -11.2500000       1.00334343E-02
  -11.2399998       1.05385650E-02
  -11.2299995       1.10337548E-02
  -11.2200003       1.15180314E-02
  -11.2100000       1.19905332E-02
  -11.1999998       1.24505227E-02
  -11.1899996       1.28973620E-02
  -11.1800003       1.33305024E-02
  -11.1700001       1.37494747E-02
  -11.1599998       1.41539071E-02
  -11.1499996       1.45434961E-02
  -11.1400003       1.49180461E-02
  -11.1300001       1.52774509E-02
  -11.1199999       1.56216891E-02
  -11.1099997       1.59508158E-02
  -11.1000004       1.62649341E-02
  -11.0900002       1.65641736E-02
  -11.0799999       1.68486666E-02
  -11.0699997       1.71184801E-02
  -11.0600004       1.73736382E-02
  -11.0500002       1.76140759E-02
  -11.0400000       1.78396367E-02
  -11.0299997       1.80500541E-02
  -11.0200005       1.82449892E-02
  -11.0100002       1.84240174E-02
  -11.0000000       1.85866691E-02
  -10.9899998       1.87324136E-02
  -10.9799995       1.88607201E-02
  -10.9700003       1.89710613E-02
  -10.9600000       1.90629493E-02
  -10.9499998       1.91359818E-02
  -10.9399996       1.91898234E-02
  -10.9300003       1.92242693E-02
  -10.9200001       1.92392413E-02
  -10.9099998       1.92347616E-02
  -10.8999996       1.92109775E-02
  -10.8900003       1.91680733E-02
  -10.8800001       1.91062670E-02
  -10.8699999       1.90257262E-02
  -10.8599997       1.89265404E-02
  -10.8500004       1.88086331E-02
  -10.8400002       1.86717845E-02
  -10.8299999       1.85155943E-02
  -10.8199997       1.83394607E-02
  -10.8100004       1.81426667E-02
  -10.8000002       1.79243479E-02
  -10.7900000       1.76835842E-02
  -10.7799997       1.74194034E-02
  -10.7700005       1.71308722E-02
  -10.7600002       1.68170929E-02
  -10.7500000       1.64772775E-02
  -10.7399998       1.61107387E-02
  -10.7299995       1.57169607E-02
  -10.7200003       1.52956191E-02
  -10.7100000       1.48466146E-02
  -10.6999998       1.43701090E-02
  -10.6899996       1.38665671E-02
  -10.6800003       1.33367302E-02
  -10.6700001       1.27816787E-02
  -10.6599998       1.22028170E-02
  -10.6499996       1.16018234E-02
  -10.6400003       1.09806461E-02
  -10.6300001       1.03414562E-02
  -10.6199999       9.68661532E-03
  -10.6099997       9.01858043E-03
  -10.6000004       8.33991542E-03
  -10.5900002       7.65322661E-03
  -10.5799999       6.96113333E-03
  -10.5699997       6.26623677E-03
  -10.5600004       5.57109481E-03
  -10.5500002       4.87823784E-03
  -10.5400000       4.19009617E-03
  -10.5299997       3.50898947E-03
  -10.5200005       2.83713010E-03
  -10.5100002       2.17654346E-03
  -10.5000000       1.52908033E-03
  -10.4899998       8.96342564E-04
  -10.4799995       2.79720087E-04
  -10.4700003      -3.19669140E-04
  -10.4600000      -9.00944869E-04
  -10.4499998      -1.46345305E-03
  -10.4399996      -2.00673891E-03
  -10.4300003      -2.53052614E-03
  -10.4200001      -3.03470017E-03
  -10.4099998      -3.51922354E-03
  -10.3999996      -3.98419797E-03
  -10.3900003      -4.42980649E-03
  -10.3800001      -4.85632150E-03
  -10.3699999      -5.26415836E-03
  -10.3599997      -5.65380789E-03
  -10.3500004      -6.02590293E-03
  -10.3400002      -6.38116989E-03
  -10.3299999      -6.72042230E-03
  -10.3199997      -7.04455376E-03
  -10.3100004      -7.35442899E-03
  -10.3000002      -7.65092112E-03
  -10.2900000      -7.93482456E-03
  -10.2799997      -8.20682105E-03
  -10.2700005      -8.46749172E-03
  -10.2600002      -8.71727243E-03
  -10.2500000      -8.95646401E-03
  -10.2399998      -9.18523967E-03
  -10.2299995      -9.40367207E-03
  -10.2200003      -9.61170811E-03
  -10.2100000      -9.80921462E-03
  -10.1999998      -9.99598391E-03
  -10.1899996      -1.01717208E-02
  -10.1800003      -1.03361076E-02
  -10.1700001      -1.04887588E-02
  -10.1599998      -1.06292870E-02
  -10.1499996      -1.07572703E-02
  -10.1400003      -1.08722681E-02
  -10.1300001      -1.09738475E-02
  -10.1199999      -1.10615231E-02
  -10.1099997      -1.11347875E-02
  -10.1000004      -1.11930752E-02
  -10.0900002      -1.12357419E-02
  -10.0799999      -1.12621123E-02
  -10.0699997      -1.12714721E-02
  -10.0600004      -1.12630632E-02
  -10.0500002      -1.12362411E-02
  -10.0400000      -1.11904070E-02
  -10.0299997      -1.11251622E-02
  -10.0200005      -1.10402564E-02
  -10.0100002      -1.09356921E-02
  -10.0000000      -1.08116241E-02
  -9.98999977      -1.06683942E-02
  -9.97999954      -1.05064129E-02
  -9.97000027      -1.03261145E-02
  -9.96000004      -1.01278620E-02
  -9.94999981      -9.91191901E-03
  -9.93999958      -9.67838895E-03
  -9.93000031      -9.42725316E-03
  -9.92000008      -9.15833004E-03
  -9.90999985      -8.87140259E-03
  -9.89999962      -8.56622402E-03
  -9.89000034      -8.24257638E-03
  -9.88000011      -7.90033769E-03
  -9.86999989      -7.53950607E-03
  -9.85999966      -7.16023846E-03
  -9.85000038      -6.76279468E-03
  -9.84000015      -6.34767581E-03
  -9.82999992      -5.91545971E-03
  -9.81999969      -5.46690356E-03
  -9.81000042      -5.00285951E-03
  -9.80000019      -4.52428032E-03
  -9.78999996      -4.03215177E-03
  -9.77999973      -3.52744968E-03
  -9.77000046      -3.01111233E-03
  -9.76000023      -2.48401263E-03
  -9.75000000      -1.94693776E-03
  -9.73999977      -1.40065548E-03
  -9.72999954      -8.45884671E-04
  -9.72000027      -2.83448637E-04
  -9.71000004       2.85755930E-04
  -9.69999981       8.60621221E-04
  -9.68999958       1.43984344E-03
  -9.68000031       2.02194229E-03
  -9.67000008       2.60527106E-03
  -9.65999985       3.18808458E-03
  -9.64999962       3.76866851E-03
  -9.64000034       4.34532948E-03
  -9.63000011       4.91652824E-03
  -9.61999989       5.48089156E-03
  -9.60999966       6.03728276E-03
  -9.60000038       6.58481335E-03
  -9.59000015       7.12285656E-03
  -9.57999992       7.65115628E-03
  -9.56999969       8.16970132E-03
  -9.56000042       8.67888331E-03
  -9.55000019       9.17938724E-03
  -9.53999996       9.67216585E-03
  -9.52999973       1.01583721E-02
  -9.52000046       1.06392652E-02
  -9.51000023       1.11161536E-02
  -9.50000000       1.15902564E-02
  -9.48999977       1.20626800E-02
  -9.47999954       1.25344461E-02
  -9.47000027       1.30063891E-02
  -9.46000004       1.34792272E-02
  -9.44999981       1.39536057E-02
  -9.43999958       1.44299930E-02
  -9.43000031       1.49087580E-02
  -9.42000008       1.53899621E-02
  -9.40999985       1.58734359E-02
  -9.39999962       1.63585935E-02
  -9.39000034       1.68444738E-02
  -9.38000011       1.73296202E-02
  -9.36999989       1.78122316E-02
  -9.35999966       1.82900857E-02
  -9.35000038       1.87606551E-02
  -9.34000015       1.92210972E-02
  -9.32999992       1.96683686E-02
  -9.31999969       2.00991072E-02
  -9.31000042       2.05097664E-02
  -9.30000019       2.08965987E-02
  -9.28999996       2.12556515E-02
  -9.27999973       2.15828903E-02
  -9.27000046       2.18742080E-02
  -9.26000023       2.21256018E-02
  -9.25000000       2.23332290E-02
  -9.23999977       2.24934984E-02
  -9.22999954       2.26030909E-02
  -9.22000027       2.26590522E-02
  -9.21000004       2.26586796E-02
  -9.19999981       2.25996152E-02
  -9.18999958       2.24798061E-02
  -9.18000031       2.22974718E-02
  -9.17000008       2.20511556E-02
  -9.15999985       2.17398293E-02
  -9.14999962       2.13628002E-02
  -9.14000034       2.09199172E-02
  -9.13000011       2.04115380E-02
  -9.11999989       1.98384617E-02
  -9.10999966       1.92020591E-02
  -9.10000038       1.85041185E-02
  -9.09000015       1.77470092E-02
  -9.07999992       1.69333871E-02
  -9.06999969       1.60664562E-02
  -9.06000042       1.51498560E-02
  -9.05000019       1.41876983E-02
  -9.03999996       1.31845837E-02
  -9.02999973       1.21456403E-02
  -9.02000046       1.10765006E-02
  -9.01000023       9.98317078E-03
  -9.00000000       8.87209456E-03
  -8.98999977       7.74997240E-03
  -8.97999954       6.62371563E-03
  -8.97000027       5.50036365E-03
  -8.96000004       4.38699545E-03
  -8.94999981       3.29074101E-03
  -8.93999958       2.21868837E-03
  -8.93000031       1.17796380E-03
  -8.92000008       1.75608890E-04
  -8.90999985      -7.81400828E-04
  -8.89999962      -1.68622541E-03
  -8.89000034      -2.53230496E-03
  -8.88000011      -3.31323897E-03
  -8.86999989      -4.02313750E-03
  -8.85999966      -4.65634465E-03
  -8.85000038      -5.20764757E-03
  -8.84000015      -5.67203946E-03
  -8.82999992      -6.04477571E-03
  -8.81999969      -6.32129377E-03
  -8.81000042      -6.49708183E-03
  -8.80000019      -6.56782417E-03
  -8.78999996      -6.52944669E-03
  -8.77999973      -6.37812307E-03
  -8.77000046      -6.11044839E-03
  -8.76000023      -5.72362682E-03
  -8.75000000      -5.21517592E-03
  -8.73999977      -4.58315387E-03
  -8.72999954      -3.82606336E-03
  -8.72000027      -2.94262497E-03
  -8.71000004      -1.93175883E-03
  -8.69999981      -7.92644976E-04
  -8.68999958       4.75263107E-04
  -8.68000031       1.87211926E-03
  -8.67000008       3.39752273E-03
  -8.65999985       5.05042961E-03
  -8.64999962       6.82908902E-03
  -8.64000034       8.73094890E-03
  -8.63000011       1.07529582E-02
  -8.61999989       1.28914779E-02
  -8.60999966       1.51426280E-02
  -8.60000038       1.75021682E-02
  -8.59000015       1.99657120E-02
  -8.57999992       2.25285795E-02
  -8.56999969       2.51858197E-02
  -8.56000042       2.79320143E-02
  -8.55000019       3.07614189E-02
  -8.53999996       3.36678326E-02
  -8.52999973       3.66450399E-02
  -8.52000046       3.96865420E-02
  -8.51000023       4.27862331E-02
  -8.50000000       4.59381565E-02
  -8.48999977       4.91367690E-02
  -8.47999954       5.23767695E-02
  -8.47000027       5.56533039E-02
  -8.46000004       5.89615330E-02
  -8.44999981       6.22967407E-02
  -8.43999958       6.56544417E-02
  -8.43000031       6.90303370E-02
  -8.42000008       7.24205077E-02
  -8.40999985       7.58214742E-02
  -8.39999962       7.92303160E-02
  -8.39000034       8.26445296E-02
  -8.38000011       8.60621706E-02
  -8.36999989       8.94812047E-02
  -8.35999966       9.28997174E-02
  -8.35000038       9.63156074E-02
  -8.34000015       9.97263044E-02
  -8.32999992      0.103129126    
  -8.31999969      0.106521189    
  -8.31000042      0.109899372    
  -8.30000019      0.113260731    
  -8.28999996      0.116602115    
  -8.27999973      0.119920194    
  -8.27000046      0.123211302    
  -8.26000023      0.126471177    
  -8.25000000      0.129694849    
  -8.23999977      0.132876471    
  -8.22999954      0.136009559    
  -8.22000027      0.139086813    
  -8.21000004      0.142100856    
  -8.19999981      0.145043865    
  -8.18999958      0.147908211    
  -8.18000031      0.150686190    
  -8.17000008      0.153369829    
  -8.15999985      0.155951202    
  -8.14999962      0.158421919    
  -8.14000034      0.160773069    
  -8.13000011      0.162995651    
  -8.11999989      0.165080294    
  -8.10999966      0.167017683    
  -8.10000038      0.168798849    
  -8.09000015      0.170414850    
  -8.07999992      0.171857581    
  -8.06999969      0.173119068    
  -8.06000042      0.174191624    
  -8.05000019      0.175067887    
  -8.03999996      0.175740361    
  -8.02999973      0.176202014    
  -8.02000046      0.176446036    
  -8.01000023      0.176466569    
  -8.00000000      0.176258594    
  -7.98999977      0.175818473    
  -7.98000002      0.175143823    
  -7.96999979      0.174233600    
  -7.96000004      0.173087627    
  -7.94999981      0.171706751    
  -7.94000006      0.170092449    
  -7.92999983      0.168246165    
  -7.92000008      0.166170299    
  -7.90999985      0.163867578    
  -7.90000010      0.161341622    
  -7.88999987      0.158596963    
  -7.88000011      0.155639544    
  -7.86999989      0.152476057    
  -7.86000013      0.149114221    
  -7.84999990      0.145562515    
  -7.84000015      0.141829506    
  -7.82999992      0.137923986    
  -7.82000017      0.133854881    
  -7.80999994      0.129631370    
  -7.80000019      0.125263155    
  -7.78999996      0.120760538    
  -7.78000021      0.116134971    
  -7.76999998      0.111398779    
  -7.76000023      0.106565394    
  -7.75000000      0.101648763    
  -7.73999977       9.66630206E-02
  -7.73000002       9.16225016E-02
  -7.71999979       8.65416080E-02
  -7.71000004       8.14343318E-02
  -7.69999981       7.63149261E-02
  -7.69000006       7.11979121E-02
  -7.67999983       6.60979301E-02
  -7.67000008       6.10302314E-02
  -7.65999985       5.60101531E-02
  -7.65000010       5.10529205E-02
  -7.63999987       4.61729579E-02
  -7.63000011       4.13841009E-02
  -7.61999989       3.66989225E-02
  -7.61000013       3.21289524E-02
  -7.59999990       2.76847053E-02
  -7.59000015       2.33755279E-02
  -7.57999992       1.92108080E-02
  -7.57000017       1.51990084E-02
  -7.55999994       1.13485735E-02
  -7.55000019       7.66701670E-03
  -7.53999996       4.16151900E-03
  -7.53000021       8.38022912E-04
  -7.51999998      -2.29844148E-03
  -7.51000023      -5.24439616E-03
  -7.50000000      -7.99717568E-03
  -7.48999977      -1.05551649E-02
  -7.48000002      -1.29174311E-02
  -7.46999979      -1.50830057E-02
  -7.46000004      -1.70511547E-02
  -7.44999981      -1.88215990E-02
  -7.44000006      -2.03939360E-02