  -16.0000000       0.00000000    
  -15.9899998       0.00000000    
  -15.9799995       0.00000000    
  -15.9700003       0.00000000    
  -15.9600000       0.00000000    
  -15.9499998       0.00000000    
  -15.9399996       0.00000000    
  -15.9300003       0.00000000    
  -15.9200001       0.00000000    
  -15.9099998       0.00000000    
  -15.8999996       0.00000000    
  -15.8900003       0.00000000    
  -15.8800001       0.00000000    
  -15.8699999       0.00000000    
  -15.8599997       0.00000000    
  -15.8500004       0.00000000    
  -15.8400002      -0.00000000    
  -15.8299999       0.00000000    
  -15.8199997      -1.40129846E-45
  -15.8100004      -4.20389539E-45
  -15.8000002      -2.66246708E-44
  -15.7900000      -1.30320757E-43
  -15.7799997      -5.68927177E-43
  -15.7700005      -2.19863729E-42
  -15.7600002      -7.62306365E-42
  -15.7500000      -2.38458960E-41
  -15.7399998      -6.76560912E-41
  -15.7299995      -1.74541533E-40
  -15.7200003      -4.09736868E-40
  -15.7100000      -8.73668955E-40
  -15.6999998      -1.68280251E-39
  -15.6899996      -2.89292883E-39
  -15.6800003      -4.32504745E-39
  -15.6700001      -5.27285210E-39
  -15.6599998      -4.13754952E-39
  -15.6499996       1.83853301E-39
  -15.6400003       1.64056653E-38
  -15.6300001       4.32429832E-38
  -15.6199999       8.35390077E-38
  -15.6099997       1.32010454E-37
  -15.6000004       1.71737053E-37
  -15.5900002       1.69209603E-37
  -15.5799999       7.26211102E-38
  -15.5699997      -1.81107950E-37
  -15.5600004      -6.42152756E-37
  -15.5500002      -1.29689029E-36
  -15.5400000      -1.98693558E-36
  -15.5299997      -2.31686733E-36
  -15.5200005      -1.61330394E-36
  -15.5100002       9.45847137E-37
  -15.5000000       5.88536064E-36
  -15.4899998       1.26003753E-35
  -15.4799995       1.83335750E-35
  -15.4700003       1.76205513E-35
  -15.4600000       3.34245763E-36
  -15.4499998      -2.94224026E-35
  -15.4399996      -7.65507865E-35
  -15.4300003      -1.17281976E-34
  -15.4200001      -1.11581459E-34
  -15.4099998      -1.06887542E-35
  -15.3999996       2.12658430E-34
  -15.3900003       5.17170908E-34
  -15.3800001       7.49320251E-34
  -15.3699999       6.42508911E-34
  -15.3599997      -9.41453024E-35
  -15.3500004      -1.57377259E-33
  -15.3400002      -3.45803732E-33
  -15.3299999      -4.75004631E-33
  -15.3199997      -3.87517949E-33
  -15.3100004       7.35386832E-34
  -15.3000002       9.51487151E-33
  -15.2900000       2.03938631E-32
  -15.2799997       2.79383475E-32
  -15.2700005       2.40093913E-32
  -15.2600002       7.63808954E-34
  -15.2500000      -4.40749961E-32
  -15.2399998      -1.01243600E-31
  -15.2299995      -1.46395396E-31
  -15.2200003      -1.42830533E-31
  -15.2100000      -5.32508286E-32
  -15.1999998       1.39979795E-31
  -15.1899996       4.11366646E-31
  -15.1800003       6.75396595E-31
  -15.1700001       7.87962169E-31
  -15.1599998       5.75658674E-31
  -15.1499996      -1.03698021E-31
  -15.1400003      -1.27469996E-30
  -15.1300001      -2.74719932E-30
  -15.1199999      -4.03501206E-30
  -15.1099997      -4.33366249E-30
  -15.1000004      -2.62327739E-30
  -15.0900002       2.01785774E-30
  -15.0799999       9.81784994E-30
  -15.0699997       1.94595360E-29
  -15.0600004       2.72200617E-29
  -15.0500002       2.66795675E-29
  -15.0400000       9.87791037E-30
  -15.0299997      -2.92164987E-29
  -15.0200005      -8.87569630E-29
  -15.0100002      -1.52029816E-28
  -15.0000000      -1.83167529E-28
  -14.9899998      -1.31308712E-28
  -14.9799995       5.11028358E-29
  -14.9700003       3.74286718E-28
  -14.9600000       7.68919730E-28
  -14.9499998       1.05592354E-27
  -14.9399996       9.59057068E-28
  -14.9300003       1.90901884E-28
  -14.9200001      -1.37759082E-27
  -14.9099998      -3.49843557E-27
  -14.8999996      -5.37367080E-27
  -14.8900003      -5.67365711E-27
  -14.8800001      -2.89356337E-27
  -14.8699999       3.89317032E-27
  -14.8599997       1.40189719E-26
  -14.8500004       2.43408101E-26
  -14.8400002       2.91160178E-26
  -14.8299999       2.12856998E-26
  -14.8199997      -4.51559043E-27
  -14.8100004      -4.76631854E-26
  -14.8000002      -9.74482218E-26
  -14.7900000      -1.31624918E-25
  -14.7799997      -1.20278275E-25
  -14.7700005      -3.66071057E-26
  -14.7600002       1.26480436E-25
  -14.7500000       3.38960638E-25
  -14.7399998       5.24239043E-25
  -14.7299995       5.67913637E-25
  -14.7200003       3.52037166E-25
  -14.7100000      -1.86546203E-25
  -14.6999998      -9.88611629E-25
  -14.6899996      -1.82449249E-24
  -14.6800003      -2.30198960E-24
  -14.6700001      -1.96040021E-24
  -14.6599998      -4.55581126E-25
  -14.6499996       2.20143094E-24
  -14.6400003       5.43791838E-24
  -14.6300001       8.06414480E-24
  -14.6199999       8.48211802E-24
  -14.6099997       5.20727517E-24
  -14.6000004      -2.37079011E-24
  -14.5900002      -1.32158325E-23
  -14.5799999      -2.42154549E-23
  -14.5699997      -3.04770542E-23
  -14.5600004      -2.65955619E-23
  -14.5500002      -8.81972446E-24
  -14.5400000       2.24032442E-23
  -14.5299997       6.04572837E-23
  -14.5200005       9.23280405E-23
  -14.5100002       1.01075176E-22
  -14.5000000       7.12357112E-23
  -14.4899998      -3.79075196E-24
  -14.4799995      -1.14632937E-22
  -14.4700003      -2.32300276E-22
  -14.4600000      -3.11150419E-22
  -14.4499998      -3.00226930E-22
  -14.4399996      -1.61961108E-22
  -14.4300003       1.06304371E-22
  -14.4200001       4.55651108E-22
  -14.4099998       7.82726117E-22
  -14.3999996       9.47718559E-22
  -14.3900003       8.14614121E-22
  -14.3800001       3.06734212E-22
  -14.3699999      -5.38392443E-22
  -14.3599997      -1.53684210E-21
  -14.3500004      -2.37041368E-21
  -14.3400002      -2.65556460E-21
  -14.3299999      -2.06422094E-21
  -14.3199997      -4.69559596E-22
  -14.3100004       1.92964819E-21
  -14.3000002       4.56111065E-21
  -14.2900000       6.55307062E-21
  -14.2799997       6.94586468E-21
  -14.2700005       5.01045754E-21
  -14.2600002       5.93350780E-22
  -14.2500000      -5.62926538E-21
  -14.2399998      -1.21102885E-20
  -14.2299995      -1.66874464E-20
  -14.2200003      -1.71394359E-20
  -14.2100000      -1.19393376E-20
  -14.1999998      -1.00092156E-21
  -14.1899996       1.38449759E-20
  -14.1800003       2.88886916E-20
  -14.1700001       3.92302038E-20
  -14.1599998       4.00669616E-20
  -14.1499996       2.83106797E-20
  -14.1400003       4.07883851E-21
  -14.1300001      -2.84696341E-20
  -14.1199999      -6.13999948E-20
  -14.1099997      -8.45577497E-20
  -14.1000004      -8.82235945E-20
  -14.0900002      -6.62694326E-20
  -14.0799999      -1.89184720E-20
  -14.0699997       4.58581015E-20
  -14.0600004       1.13043717E-19
  -14.0500002       1.63595310E-19
  -14.0400000       1.79303560E-19
  -14.0299997       1.48346093E-19
  -14.0200005       6.99574368E-20
  -14.0100002      -4.33634056E-20
  -14.0000000      -1.67185170E-19
  -13.9899998      -2.70169492E-19
  -13.9799995      -3.21825293E-19
  -13.9700003      -3.01052694E-19
  -13.9600000      -2.03037595E-19
  -13.9499998      -4.22727033E-20
  -13.9399996       1.49572763E-19
  -13.9300003       3.30740361E-19
  -13.9200001       4.59662043E-19
  -13.9099998       5.05514578E-19
  -13.8999996       4.55839538E-19
  -13.8900003       3.18795770E-19
  -13.8800001       1.19313643E-19
  -13.8699999      -1.09440286E-19
  -13.8599997      -3.36038789E-19
  -13.8500004      -5.38153108E-19
  -13.8400002      -7.03948175E-19
  -13.8299999      -8.26390758E-19
  -13.8199997      -8.92512785E-19
  -13.8100004      -8.72702119E-19
  -13.8000002      -7.16737473E-19
  -13.7900000      -3.62497169E-19
  -13.7799997       2.40314709E-19
  -13.7700005       1.09489813E-18
  -13.7600002       2.12047378E-18
  -13.7500000       3.12858133E-18
  -13.7399998       3.82829527E-18
  -13.7299995       3.87155723E-18
  -13.7200003       2.93966403E-18
  -13.7100000       8.57966259E-19
  -13.6999998      -2.28840364E-18
  -13.6899996      -6.07481649E-18
  -13.6800003      -9.73143580E-18
  -13.6700001      -1.22387410E-17
  -13.6599998      -1.25289979E-17
  -13.6499996      -9.76797154E-18
  -13.6400003      -3.65985690E-18
  -13.6300001       5.30454094E-18
  -13.6199999       1.57422695E-17
  -13.6099997       2.54838647E-17
  -13.6000004       3.19176639E-17
  -13.5900002       3.25416790E-17
  -13.5799999       2.56280737E-17
  -13.5699997       1.08528901E-17
  -13.5600004      -1.02803214E-17
  -13.5500002      -3.43779240E-17
  -13.5400000      -5.65485615E-17
  -13.5299997      -7.12468529E-17
  -13.5200005      -7.34496745E-17
  -13.5100002      -5.99405446E-17
  -13.5000000      -3.04105640E-17
  -13.4899998       1.19206106E-17
  -13.4799995       6.03916558E-17
  -13.4700003       1.05787586E-16
  -13.4600000       1.37944504E-16
  -13.4499998       1.47806786E-16
  -13.4399996       1.29533043E-16
  -13.4300003       8.21877988E-17
  -13.4200001       1.05997116E-17
  -13.4099998      -7.48870762E-17
  -13.3999996      -1.59821313E-16
  -13.3900003      -2.28017749E-16
  -13.3800001      -2.64480373E-16
  -13.3699999      -2.58326626E-16
  -13.3599997      -2.05144154E-16
  -13.3500004      -1.08314801E-16
  -13.3400002       2.09588526E-17
  -13.3299999       1.64940052E-16
  -13.3199997       3.01737832E-16
  -13.3100004       4.08389762E-16
  -13.3000002       4.64182896E-16
  -13.2900000       4.53772279E-16
  -13.2799997       3.69747325E-16
  -13.2700005       2.14407663E-16
  -13.2600002       5.98033954E-19
  -13.2500000      -2.48517111E-16
  -13.2399998      -5.00867099E-16
  -13.2299995      -7.18220994E-16
  -13.2200003      -8.60363605E-16
  -13.2100000      -8.90639897E-16
  -13.1999998      -7.82498248E-16
  -13.1899996      -5.26247276E-16
  -13.1800003      -1.34818740E-16
  -13.1700001       3.52970302E-16
  -13.1599998       8.73153696E-16
  -13.1499996       1.34243287E-15
  -13.1400003       1.66930786E-15
  -13.1300001       1.76955898E-15
  -13.1199999       1.58383959E-15
  -13.1099997       1.09407392E-15
  -13.1000004       3.34855285E-16
  -13.0900002      -6.03622624E-16
  -13.0799999      -1.58334355E-15
  -13.0699997      -2.43717002E-15
  -13.0600004      -2.99630515E-15
  -13.0500002      -3.12205142E-15
  -13.0400000      -2.73587364E-15
  -13.0299997      -1.84137932E-15
  -13.0200005      -5.32877268E-16
  -13.0100002       1.01249755E-15
  -13.0000000       2.55890496E-15
  -12.9899998       3.84861405E-15
  -12.9799995       4.64519983E-15
  -12.9700003       4.77531638E-15
  -12.9600000       4.16137716E-15
  -12.9499998       2.83921908E-15
  -12.9399996       9.57762494E-16
  -12.9300003      -1.23895308E-15
  -12.9200001      -3.44395190E-15
  -12.9099998      -5.32828278E-15
  -12.8999996      -6.58470665E-15
  -12.8900003      -6.96870438E-15
  -12.8800001      -6.33282065E-15
  -12.8699999      -4.65210823E-15
  -12.8599997      -2.03940377E-15
  -12.8500004       1.25043916E-15
  -12.8400002       4.82895940E-15
  -12.8299999       8.19768143E-15
  -12.8199997       1.07898962E-14
  -12.8100004       1.20327908E-14
  -12.8000002       1.14293662E-14
  -12.7900000       8.65476581E-15
  -12.7799997       3.65582258E-15
  -12.7700005      -3.26324927E-15
  -12.7600002      -1.13896294E-14
  -12.7500000      -1.96064326E-14
  -12.7399998      -2.64691545E-14
  -12.7299995      -3.03611404E-14
  -12.7200003      -2.97214069E-14
  -12.7100000      -2.33230691E-14
  -12.6999998      -1.05663565E-14
  -12.6899996       8.25989854E-15
  -12.6800003       3.17983758E-14
  -12.6700001       5.75700715E-14
  -12.6599998       8.20805148E-14
  -12.6499996       1.01099162E-13
  -12.6400003       1.10102106E-13
  -12.6300001       1.04844146E-13
  -12.6199999       8.20058404E-14
  -12.6099997       3.98447517E-14
  -12.6000004      -2.12270844E-14
  -12.5900002      -9.82163163E-14
  -12.5799999      -1.85341380E-13
  -12.5699997      -2.74098479E-13
  -12.5600004      -3.53633003E-13
  -12.5500002      -4.11426074E-13
  -12.5400000      -4.34279836E-13
  -12.5299997      -4.09562006E-13
  -12.5200005      -3.26645205E-13
  -12.5100002      -1.78451492E-13
  -12.5000000       3.70018279E-14
  -12.4899998       3.15182613E-13
  -12.4799995       6.43886745E-13
  -12.4700003       1.00248087E-12
  -12.4600000       1.36168214E-12
  -12.4499998       1.68398238E-12
  -12.4399996       1.92480298E-12
  -12.4300003       2.03439544E-12
  -12.4200001       1.96045328E-12
  -12.4099998       1.65132784E-12
  -12.3999996       1.05966104E-12
  -12.3900003       1.46179970E-13
  -12.3800001      -1.11662014E-12
  -12.3699999      -2.74122738E-12
  -12.3599997      -4.72256175E-12
  -12.3500004      -7.03638189E-12
  -12.3400002      -9.63875767E-12
  -12.3299999      -1.24667074E-11
  -12.3199997      -1.54399288E-11
  -12.3100004      -1.84634998E-11
  -12.3000002      -2.14313168E-11
  -12.2900000      -2.42300971E-11
  -12.2799997      -2.67436472E-11
  -12.2700005      -2.88572135E-11
  -12.2600002      -3.04616818E-11
  -12.2500000      -3.14574998E-11
  -12.2399998      -3.17581308E-11
  -12.2299995      -3.12930515E-11
  -12.2200003      -3.00099737E-11
  -12.2100000      -2.78763245E-11
  -12.1999998      -2.48799072E-11
  -12.1899996      -2.10286146E-11
  -12.1800003      -1.63492553E-11
  -12.1700001      -1.08856700E-11
  -12.1599998      -4.69621694E-12
  -12.1499996       2.14901664E-12
  -12.1400003       9.57105662E-12
  -12.1300001       1.74845294E-11
  -12.1199999       2.57996628E-11
  -12.1099997       3.44236549E-11
  -12.1000004       4.32612453E-11
  -12.0900002       5.22148436E-11
  -12.0799999       6.11841064E-11
  -12.0699997       7.00655090E-11
  -12.0600004       7.87518661E-11
  -12.0500002       8.71321279E-11
  -12.0400000       9.50915249E-11
  -12.0299997       1.02512103E-10
  -12.0200005       1.09273486E-10
  -12.0100002       1.15254056E-10
  -12.0000000       1.20332078E-10
  -11.9899998       1.24387417E-10
  -11.9799995       1.27302946E-10
  -11.9700003       1.28967018E-10
  -11.9600000       1.29275202E-10
  -11.9499998       1.28133434E-10
  -11.9399996       1.25460572E-10
  -11.9300003       1.21191598E-10
  -11.9200001       1.15280015E-10
  -11.9099998       1.07700418E-10
  -11.8999996       9.84498177E-11
  -11.8900003       8.75482603E-11
  -11.8800001       7.50386073E-11
  -11.8699999       6.09848838E-11
  -11.8599997       4.54705440E-11
  -11.8500004       2.85957924E-11
  -11.8400002       1.04749395E-11
  -11.8299999      -8.76596018E-12
  -11.8199997      -2.89912608E-11
  -11.8100004      -5.00573923E-11
  -11.8000002      -7.18139645E-11
  -11.7900000      -9.41045020E-11
  -11.7799997      -1.16766721E-10
  -11.7700005      -1.39632958E-10
  -11.7600002      -1.62530114E-10
  -11.7500000      -1.85279930E-10
  -11.7399998      -2.07699358E-10
  -11.7299995      -2.29600769E-10
  -11.7200003      -2.50792748E-10
  -11.7100000      -2.71080713E-10
  -11.6999998      -2.90267976E-10
  -11.6899996      -3.08156667E-10
  -11.6800003      -3.24549526E-10
  -11.6700001      -3.39251405E-10
  -11.6599998      -3.52071206E-10
  -11.6499996      -3.62824493E-10
  -11.6400003      -3.71335546E-10
  -11.6300001      -3.77440162E-10
  -11.6199999      -3.80988657E-10
  -11.6099997      -3.81847276E-10
  -11.6000004      -3.79900611E-10
  -11.5900002      -3.75052905E-10
  -11.5799999      -3.67228359E-10
  -11.5699997      -3.56371793E-10
  -11.5600004      -3.42447209E-10
  -11.5500002      -3.25436816E-10
  -11.5400000      -3.05339060E-10
  -11.5299997      -2.82166845E-10
  -11.5200005      -2.55945515E-10
  -11.5100002      -2.26711649E-10
  -11.5000000      -1.94511851E-10
  -11.4899998      -1.59401867E-10
  -11.4799995      -1.21447602E-10
  -11.4700003      -8.07237888E-11
  -11.4600000      -3.73158240E-11
  -11.4499998       8.68030474E-12
  -11.4399996       5.71570569E-11
  -11.4300003       1.07995772E-10
  -11.4200001       1.61065591E-10
  -11.4099998       2.16223248E-10
  -11.3999996       2.73312872E-10
  -11.3900003       3.32165878E-10
  -11.3800001       3.92601174E-10
  -11.3699999       4.54425941E-10
  -11.3599997       5.17436816E-10
  -11.3500004       5.81421522E-10
  -11.3400002       6.46162179E-10
  -11.3299999       7.11438242E-10
  -11.3199997       7.77030162E-10
  -11.3100004       8.42722614E-10
  -11.3000002       9.08307207E-10
  -11.2900000       9.73585879E-10
  -11.2799997       1.03837039E-09
  -11.2700005       1.10248344E-09
  -11.2600002       1.16575860E-09
  -11.2500000       1.22803856E-09
  -11.2399998       1.28917432E-09
  -11.2299995       1.34902678E-09
  -11.2200003       1.40746481E-09
  -11.2100000       1.46436796E-09
  -11.1999998       1.51962631E-09
  -11.1899996       1.57314173E-09
  -11.1800003       1.62483160E-09
  -11.1700001       1.67462810E-09
  -11.1599998       1.72247638E-09
  -11.1499996       1.76833781E-09
  -11.1400003       1.81218673E-09
  -11.1300001       1.85400750E-09
  -11.1199999       1.89379645E-09
  -11.1099997       1.93155669E-09
  -11.1000004       1.96729832E-09
  -11.0900002       2.00103445E-09
  -11.0799999       2.03278105E-09
  -11.0699997       2.06255613E-09
  -11.0600004       2.09037898E-09
  -11.0500002       2.11625917E-09
  -11.0400000       2.14020734E-09
  -11.0299997       2.16222507E-09
  -11.0200005       2.18230323E-09
  -11.0100002       2.20043184E-09
  -11.0000000       2.21658825E-09
  -10.9899998       2.23075269E-09
  -10.9799995       2.24290031E-09
  -10.9700003       2.25301577E-09
  -10.9600000       2.26108909E-09
  -10.9499998       2.26712316E-09
  -10.9399996       2.27113173E-09
  -10.9300003       2.27314012E-09
  -10.9200001       2.27318475E-09
  -10.9099998       2.27130892E-09
  -10.8999996       2.26755592E-09
  -10.8900003       2.26197283E-09
  -10.8800001       2.25460117E-09
  -10.8699999       2.24547381E-09
  -10.8599997       2.23461538E-09
  -10.8500004       2.22204077E-09
  -10.8400002       2.20774710E-09
  -10.8299999       2.19171681E-09
  -10.8199997       2.17391549E-09
  -10.8100004       2.15429652E-09
  -10.8000002       2.13278462E-09
  -10.7900000       2.10929940E-09
  -10.7799997       2.08373785E-09
  -10.7700005       2.05599116E-09
  -10.7600002       2.02594275E-09
  -10.7500000       1.99348338E-09
  -10.7399998       1.95850491E-09
  -10.7299995       1.92092076E-09
  -10.7200003       1.88065408E-09
  -10.7100000       1.83764914E-09
  -10.6999998       1.79187243E-09
  -10.6899996       1.74330406E-09
  -10.6800003       1.69196135E-09
  -10.6700001       1.63786884E-09
  -10.6599998       1.58107916E-09
  -10.6499996       1.52166457E-09
  -10.6400003       1.45972134E-09
  -10.6300001       1.39536227E-09
  -10.6199999       1.32871147E-09
  -10.6099997       1.25992228E-09
  -10.6000004       1.18914623E-09
  -10.5900002       1.11655019E-09
  -10.5799999       1.04230546E-09
  -10.5699997       9.66581593E-10
  -10.5600004       8.89555873E-10
  -10.5500002       8.11401224E-10
  -10.5400000       7.32281236E-10
  -10.5299997       6.52354282E-10
  -10.5200005       5.71770298E-10
  -10.5100002       4.90669783E-10
  -10.5000000       4.09180495E-10
  -10.4899998       3.27426780E-10
  -10.4799995       2.45532872E-10
  -10.4700003       1.63619354E-10
  -10.4600000       8.18187740E-11
  -10.4499998       2.80711272E-13
  -10.4399996      -8.08279069E-11
  -10.4300003      -1.61313587E-10
  -10.4200001      -2.40963610E-10
  -10.4099998      -3.19542975E-10
  -10.3999996      -3.96801647E-10
  -10.3900003      -4.72476114E-10
  -10.3800001      -5.46296730E-10
  -10.3699999      -6.17988938E-10
  -10.3599997      -6.87285451E-10
  -10.3500004      -7.53913931E-10
  -10.3400002      -8.17615697E-10
  -10.3299999      -8.78143558E-10
  -10.3199997      -9.35263422E-10
  -10.3100004      -9.88773174E-10
  -10.3000002      -1.03849329E-09
  -10.2900000      -1.08428788E-09
  -10.2799997      -1.12605569E-09
  -10.2700005      -1.16374144E-09
  -10.2600002      -1.19734356E-09
  -10.2500000      -1.22690302E-09
  -10.2399998      -1.25251287E-09
  -10.2299995      -1.27431343E-09
  -10.2200003      -1.29249322E-09
  -10.2100000      -1.30728328E-09
  -10.1999998      -1.31895417E-09
  -10.1899996      -1.32781042E-09
  -10.1800003      -1.33417322E-09
  -10.1700001      -1.33837630E-09
  -10.1599998      -1.34075306E-09
  -10.1499996      -1.34162081E-09
  -10.1400003      -1.34127454E-09
  -10.1300001      -1.33997968E-09
  -10.1199999      -1.33796829E-09
  -10.1099997      -1.33544398E-09
  -10.1000004      -1.33257927E-09
  -10.0900002      -1.32952516E-09
  -10.0799999      -1.32641431E-09
  -10.0699997      -1.32336020E-09
  -10.0600004      -1.32046329E-09
  -10.0500002      -1.31780875E-09
  -10.0400000      -1.31546818E-09
  -10.0299997      -1.31349798E-09
  -10.0200005      -1.31194089E-09
  -10.0100002      -1.31082678E-09
  -10.0000000      -1.31017786E-09
  -9.98999977      -1.31000877E-09
  -9.97999954      -1.31032962E-09
  -9.97000027      -1.31115008E-09
  -9.96000004      -1.31248068E-09
  -9.94999981      -1.31433386E-09
  -9.93999958      -1.31672739E-09
  -9.93000031      -1.31968636E-09
  -9.92000008      -1.32324485E-09
  -9.90999985      -1.32745048E-09
  -9.89999962      -1.33236566E-09
  -9.89000034      -1.33806799E-09
  -9.88000011      -1.34465161E-09
  -9.86999989      -1.35222467E-09
  -9.85999966      -1.36090506E-09
  -9.85000038      -1.37082012E-09
  -9.84000015      -1.38210021E-09
  -9.82999992      -1.39487910E-09
  -9.81999969      -1.40929124E-09
  -9.81000042      -1.42547407E-09
  -9.80000019      -1.44356682E-09
  -9.78999996      -1.46371437E-09
  -9.77999973      -1.48606738E-09
  -9.77000046      -1.51078083E-09
  -9.76000023      -1.53801738E-09
  -9.75000000      -1.56793944E-09
  -9.73999977      -1.60070834E-09
  -9.72999954      -1.63648017E-09
  -9.72000027      -1.67539782E-09
  -9.71000004      -1.71758396E-09
  -9.69999981      -1.76313064E-09
  -9.68999958      -1.81208792E-09
  -9.68000031      -1.86445237E-09
  -9.67000008      -1.92015159E-09
  -9.65999985      -1.97903893E-09
  -9.64999962      -2.04087591E-09
  -9.64000034      -2.10532902E-09
  -9.63000011      -2.17196527E-09
  -9.61999989      -2.24025509E-09
  -9.60999966      -2.30957964E-09
  -9.60000038      -2.37922992E-09
  -9.59000015      -2.44843301E-09
  -9.57999992      -2.51634957E-09
  -9.56999969      -2.58209831E-09
  -9.56000042      -2.64476263E-09
  -9.55000019      -2.70340483E-09
  -9.53999996      -2.75707923E-09
  -9.52999973      -2.80484502E-09
  -9.52000046      -2.84577606E-09
  -9.51000023      -2.87897706E-09
  -9.50000000      -2.90359781E-09
  -9.48999977      -2.91884805E-09
  -9.47999954      -2.92401436E-09
  -9.47000027      -2.91847813E-09
  -9.46000004      -2.90172686E-09
  -9.44999981      -2.87338242E-09
  -9.43999958      -2.83320056E-09
  -9.43000031      -2.78110646E-09
  -9.42000008      -2.71718736E-09
  -9.40999985      -2.64171596E-09
  -9.39999962      -2.55516075E-09
  -9.39000034      -2.45819143E-09
  -9.38000011      -2.35168085E-09
  -9.36999989      -2.23671037E-09
  -9.35999966      -2.11457074E-09
  -9.35000038      -1.98674766E-09
  -9.34000015      -1.85490789E-09
  -9.32999992      -1.72089476E-09
  -9.31999969      -1.58668523E-09
  -9.31000042      -1.45438639E-09
  -9.30000019      -1.32619760E-09
  -9.28999996      -1.20438637E-09
  -9.27999973      -1.09125531E-09
  -9.27000046      -9.89118343E-10
  -9.26000023      -9.00267472E-10
  -9.25000000      -8.26938906E-10
  -9.23999977      -7.71282538E-10
  -9.22999954      -7.35339234E-10
  -9.22000027      -7.20993876E-10
  -9.21000004      -7.29955207E-10
  -9.19999981      -7.63729746E-10
  -9.18999958      -8.23608071E-10
  -9.18000031      -9.10621745E-10
  -9.17000008      -1.02554243E-09
  -9.15999985      -1.16886201E-09
  -9.14999962      -1.34077505E-09
  -9.14000034      -1.54116708E-09
  -9.13000011      -1.76961179E-09
  -9.11999989      -2.02536143E-09
  -9.10999966      -2.30734520E-09
  -9.10000038      -2.61418132E-09
  -9.09000015      -2.94420244E-09
  -9.07999992      -3.29547389E-09
  -9.06999969      -3.66582831E-09
  -9.06000042      -4.05287093E-09
  -9.05000019      -4.45402737E-09
  -9.03999996      -4.86656626E-09
  -9.02999973      -5.28761790E-09
  -9.02000046      -5.71419623E-09
  -9.01000023      -6.14322238E-09
  -9.00000000      -6.57157040E-09
  -8.98999977      -6.99607039E-09
  -8.97999954      -7.41356132E-09
  -8.97000027      -7.82091369E-09
  -8.96000004      -8.21506241E-09
  -8.94999981      -8.59302585E-09
  -8.93999958      -8.95194407E-09
  -8.93000031      -9.28906196E-09
  -8.92000008      -9.60176116E-09
  -8.90999985      -9.88756987E-09
  -8.89999962      -1.01441699E-08
  -8.89000034      -1.03693907E-08
  -8.88000011      -1.05612399E-08
  -8.86999989      -1.07179199E-08
  -8.85999966      -1.08378089E-08
  -8.85000038      -1.09194698E-08
  -8.84000015      -1.09616511E-08
  -8.82999992      -1.09632907E-08
  -8.81999969      -1.09234986E-08
  -8.81000042      -1.08415650E-08
  -8.80000019      -1.07169535E-08
  -8.78999996      -1.05493312E-08
  -8.77999973      -1.03385789E-08
  -8.77000046      -1.00848023E-08
  -8.76000023      -9.78832571E-09
  -8.75000000      -9.44973255E-09
  -8.73999977      -9.06982045E-09
  -8.72999954      -8.64960370E-09
  -8.72000027      -8.19031509E-09
  -8.71000004      -7.69335440E-09
  -8.69999981      -7.16027726E-09
  -8.68999958      -6.59280852E-09
  -8.68000031      -5.99281469E-09
  -8.67000008      -5.36228306E-09
  -8.65999985      -4.70332262E-09
  -8.64999962      -4.01810496E-09
  -8.64000034      -3.30885475E-09
  -8.63000011      -2.57781041E-09
  -8.61999989      -1.82716264E-09
  -8.60999966      -1.05907150E-09
  -8.60000038      -2.75574980E-10
  -8.59000015       5.21401200E-10
  -8.57999992       1.33005640E-09
  -8.56999969       2.14872786E-09
  -8.56000042       2.97590441E-09
  -8.55000019       3.81026011E-09
  -8.53999996       4.65060523E-09
  -8.52999973       5.49594237E-09
  -8.52000046       6.34543218E-09
  -8.51000023       7.19838456E-09
  -8.50000000       8.05424527E-09
  -8.48999977       8.91257290E-09
  -8.47999954       9.77297088E-09
  -8.47000027       1.06350857E-08
  -8.46000004       1.14985683E-08
  -8.44999981       1.23630510E-08
  -8.43999958       1.32281341E-08
  -8.43000031       1.40933345E-08
  -8.42000008       1.49581059E-08
  -8.40999985       1.58218292E-08
  -8.39999962       1.66837602E-08
  -8.39000034       1.75430674E-08
  -8.38000011       1.83987705E-08
  -8.36999989       1.92497573E-08
  -8.35999966       2.00948040E-08
  -8.35000038       2.09325766E-08
  -8.34000015       2.17616645E-08
  -8.32999992       2.25806094E-08
  -8.31999969       2.33879138E-08
  -8.31000042       2.41821052E-08
  -8.30000019       2.49617091E-08
  -8.28999996       2.57252832E-08
  -8.27999973       2.64714490E-08
  -8.27000046       2.71988476E-08
  -8.26000023       2.79061894E-08
  -8.25000000       2.85922201E-08
  -8.23999977       2.92557587E-08
  -8.22999954       2.98956699E-08
  -8.22000027       3.05108614E-08
  -8.21000004       3.11003134E-08
  -8.19999981       3.16629816E-08
  -8.18999958       3.21978497E-08
  -8.18000031       3.27038840E-08
  -8.17000008       3.31800223E-08
  -8.15999985       3.36251595E-08
  -8.14999962       3.40381519E-08
  -8.14000034       3.44178552E-08
  -8.13000011       3.47630689E-08
  -8.11999989       3.50725955E-08
  -8.10999966       3.53452485E-08
  -8.10000038       3.55798200E-08
  -8.09000015       3.57751411E-08
  -8.07999992       3.59300891E-08
  -8.06999969       3.60435592E-08
  -8.06000042       3.61145602E-08
  -8.05000019       3.61422181E-08
  -8.03999996       3.61257726E-08
  -8.02999973       3.60646908E-08
  -8.02000046       3.59586139E-08
  -8.01000023       3.58074246E-08
  -8.00000000       3.56112260E-08
  -7.98999977       3.53703626E-08
  -7.98000002       3.50854386E-08
  -7.96999979       3.47573064E-08
  -7.96000004       3.43870745E-08
  -7.94999981       3.39761321E-08
  -7.94000006       3.35261099E-08
  -7.92999983       3.30389121E-08
  -7.92000008       3.25166916E-08
  -7.90999985       3.19618145E-08
  -7.90000010       3.13768496E-08
  -7.88999987       3.07645145E-08
  -7.88000011       3.01276586E-08
  -7.86999989       2.94692235E-08
  -7.86000013       2.87922379E-08
  -7.84999990       2.80997465E-08
  -7.84000015       2.73948384E-08
  -7.82999992       2.66806044E-08
  -7.82000017       2.59601194E-08
  -7.80999994       2.52364014E-08
  -7.80000019       2.45123779E-08
  -7.78999996       2.37908964E-08
  -7.78000021       2.30746711E-08
  -7.76999998       2.23662724E-08
  -7.76000023       2.16681180E-08
  -7.75000000       2.09825082E-08
  -7.73999977       2.03115764E-08
  -7.73000002       1.96573300E-08
  -7.71999979       1.90216412E-08
  -7.71000004       1.84062543E-08
  -7.69999981       1.78127504E-08
  -7.69000006       1.72425629E-08
  -7.67999983       1.66969478E-08
  -7.67000008       1.61769602E-08
  -7.65999985       1.56834830E-08
  -7.65000010       1.52171893E-08
  -7.63999987       1.47785730E-08
  -7.63000011       1.43679335E-08
  -7.61999989       1.39853880E-08
  -7.61000013       1.36308600E-08
  -7.59999990       1.33040929E-08
  -7.59000015       1.30046347E-08
  -7.57999992       1.27318502E-08
  -7.57000017       1.24849233E-08
  -7.55999994       1.22628618E-08
  -7.55000019       1.20645378E-08
  -7.53999996       1.18887025E-08
  -7.53000021       1.17340004E-08
  -7.51999998       1.15990026E-08
  -7.51000023       1.14822392E-08
  -7.50000000       1.13821921E-08
  -7.48999977       1.12973222E-08
  -7.48000002       1.12260707E-08
  -7.46999979       1.11668781E-08
  -7.46000004       1.11182139E-08
  -7.44999981       1.10785834E-08
  -7.44000006       1.10465583E-08