  -16.0000000       0.00000000    
  -15.9899998       0.00000000    
  -15.9799995       0.00000000    
  -15.9700003       0.00000000    
  -15.9600000       0.00000000    
  -15.9499998       0.00000000    
  -15.9399996       0.00000000    
  -15.9300003       0.00000000    
  -15.9200001       0.00000000    
  -15.9099998       0.00000000    
  -15.8999996       0.00000000    
  -15.8900003       0.00000000    
  -15.8800001       0.00000000    
  -15.8699999       0.00000000    
  -15.8599997      -0.00000000    
  -15.8500004       0.00000000    
  -15.8400002       1.40129846E-45
  -15.8299999       1.12103877E-44
  -15.8199997       1.02294788E-43
  -15.8100004       7.03451829E-43
  -15.8000002       4.06236425E-42
  -15.7900000       1.99474836E-41
  -15.7799997       8.42867013E-41
  -15.7700005       3.09922379E-40
  -15.7600002       9.99963782E-40
  -15.7500000       2.84443970E-39
  -15.7399998       7.13120368E-39
  -15.7299995       1.56274781E-38
  -15.7200003       2.92179726E-38
  -15.7100000       4.35542929E-38
  -15.6999998       3.93791661E-38
  -15.6899996      -3.37525296E-38
  -15.6800003      -2.76365675E-37
  -15.6700001      -8.43983366E-37
  -15.6599998      -1.90056339E-36
  -15.6499996      -3.46013908E-36
  -15.6400003      -5.05320046E-36
  -15.6300001      -5.21234062E-36
  -15.6199999      -9.44227998E-37
  -15.6099997       1.23289039E-35
  -15.6000004       3.94821834E-35
  -15.5900002       8.19720310E-35
  -15.5799999       1.31086182E-34
  -15.5699997       1.59361838E-34
  -15.5600004       1.14856658E-34
  -15.5500002      -7.25675424E-35
  -15.5400000      -4.60957528E-34
  -15.5299997      -1.03369842E-33
  -15.5200005      -1.61246142E-33
  -15.5100002      -1.78489193E-33
  -15.5000000      -9.26276324E-34
  -15.4899998       1.58011255E-33
  -15.4799995       5.84951776E-33
  -15.4700003       1.07873801E-32
  -15.4600000       1.34788794E-32
  -15.4499998       9.30324286E-33
  -15.4399996      -6.41932102E-33
  -15.4300003      -3.47179141E-32
  -15.4200001      -6.77494465E-32
  -15.4099998      -8.45808916E-32
  -15.3999996      -5.27551462E-32
  -15.3900003       5.86051055E-32
  -15.3800001       2.51164798E-31
  -15.3699999       4.60955769E-31
  -15.3599997       5.33366080E-31
  -15.3500004       2.44396231E-31
  -15.3400002      -5.94518775E-31
  -15.3299999      -1.93728334E-30
  -15.3199997      -3.26557710E-30
  -15.3100004      -3.46661334E-30
  -15.3000002      -1.06090396E-30
  -15.2900000       5.00805544E-30
  -15.2799997       1.40351468E-29
  -15.2700005       2.21439648E-29
  -15.2600002       2.18696733E-29
  -15.2500000       4.15452204E-30
  -15.2399998      -3.62322552E-29
  -15.2299995      -9.24928458E-29
  -15.2200003      -1.38337778E-28
  -15.2100000      -1.27857157E-28
  -15.1999998      -1.03715285E-29
  -15.1899996       2.35931811E-28
  -15.1800003       5.58378032E-28
  -15.1700001       7.94849633E-28
  -15.1599998       6.86222850E-28
  -15.1499996      -2.71421036E-29
  -15.1400003      -1.41572789E-27
  -15.1300001      -3.12902853E-27
  -15.1199999      -4.25103160E-27
  -15.1099997      -3.42840606E-27
  -15.1000004       5.70859213E-28
  -15.0900002       7.87633240E-27
  -15.0799999       1.64265354E-26
  -15.0699997       2.14412533E-26
  -15.0600004       1.63141828E-26
  -15.0500002      -4.45838646E-27
  -15.0400000      -4.05725924E-26
  -15.0299997      -8.11282859E-26
  -15.0200005      -1.02920186E-25
  -15.0100002      -7.55184248E-26
  -15.0000000       2.46472502E-26
  -14.9899998       1.93155378E-25
  -14.9799995       3.77569833E-25
  -14.9700003       4.72434054E-25
  -14.9600000       3.44400179E-25
  -14.9499998      -1.04993849E-25
  -14.9399996      -8.49614831E-25
  -14.9300003      -1.65801996E-24
  -14.9200001      -2.07915533E-24
  -14.9099998      -1.55340438E-24
  -14.8999996       3.26031331E-25
  -14.8900003       3.45046774E-24
  -14.8800001       6.87826283E-24
  -14.8699999       8.78691494E-24
  -14.8599997       6.91714341E-24
  -14.8500004      -4.05374493E-25
  -14.8400002      -1.28669106E-23
  -14.8299999      -2.69375236E-23
  -14.8199997      -3.56534679E-23
  -14.8100004      -3.02279792E-23
  -14.8000002      -3.80690626E-24
  -14.7900000       4.33264718E-23
  -14.7799997       9.90733756E-23
  -14.7700005       1.38338347E-22
  -14.7600002       1.28285255E-22
  -14.7500000       4.12898191E-23
  -14.7399998      -1.26583814E-22
  -14.7299995      -3.38134107E-22
  -14.7200003      -5.08673264E-22
  -14.7100000      -5.21081882E-22
  -14.6999998      -2.67441240E-22
  -14.6899996       2.88542171E-22
  -14.6800003       1.04848889E-21
  -14.6700001       1.74811072E-21
  -14.6599998       1.99273848E-21
  -14.6499996       1.38050850E-21
  -14.6400003      -2.98638353E-22
  -14.6300001      -2.84514345E-21
  -14.6199999      -5.51167204E-21
  -14.6099997      -7.05814314E-21
  -14.6000004      -6.08020281E-21
  -14.5900002      -1.60071273E-21
  -14.5799999       6.22035984E-21
  -14.5699997       1.55366039E-20
  -14.5600004       2.27754553E-20
  -14.5500002       2.33957244E-20
  -14.5400000       1.35006668E-20
  -14.5299997      -8.00829902E-21
  -14.5200005      -3.74638404E-20
  -14.5100002      -6.56540878E-20
  -14.5000000      -7.91845525E-20
  -14.4899998      -6.44171296E-20
  -14.4799995      -1.34649106E-20
  -14.4700003       6.94561524E-20
  -14.4600000       1.63977894E-19
  -14.4499998       2.34712292E-19
  -14.4399996       2.39487192E-19
  -14.4300003       1.44370534E-19
  -14.4200001      -5.79217650E-20
  -14.4099998      -3.32623593E-19
  -14.3999996      -5.98432810E-19
  -14.3900003      -7.40650438E-19
  -14.3800001      -6.44088268E-19
  -14.3699999      -2.40501833E-19
  -14.3599997       4.42941414E-19
  -14.3500004       1.25368466E-18
  -14.3400002       1.92221058E-18
  -14.3299999       2.12117936E-18
  -14.3199997       1.57198510E-18
  -14.3100004       1.75035592E-19
  -14.3000002      -1.87859665E-18
  -14.2900000      -4.06544506E-18
  -14.2799997      -5.60105169E-18
  -14.2700005      -5.63972817E-18
  -14.2600002      -3.57371969E-18
  -14.2500000       6.46018856E-19
  -14.2399998       6.28151817E-18
  -14.2299995       1.17914340E-17
  -14.2200003       1.51081247E-17
  -14.2100000       1.42080314E-17
  -14.1999998       7.86624361E-18
  -14.1899996      -3.61854419E-18
  -14.1800003      -1.80023982E-17
  -14.1700001      -3.12308922E-17
  -14.1599998      -3.82640516E-17
  -14.1499996      -3.45207781E-17
  -14.1400003      -1.76292620E-17
  -14.1300001       1.10341708E-17
  -14.1199999       4.56193880E-17
  -14.1099997       7.63882105E-17
  -14.1000004       9.18048322E-17
  -14.0900002       8.18644042E-17
  -14.0799999       4.18957385E-17
  -14.0699997      -2.43014265E-17
  -14.0600004      -1.03217073E-16
  -14.0500002      -1.73229355E-16
  -14.0400000      -2.09294403E-16
  -14.0299997      -1.90035945E-16
  -14.0200005      -1.05582584E-16
  -14.0100002       3.61667517E-17
  -14.0000000       2.07251399E-16
  -13.9899998       3.63064685E-16
  -13.9799995       4.51830350E-16
  -13.9700003       4.28678822E-16
  -13.9600000       2.71080533E-16
  -13.9499998      -8.78103340E-18
  -13.9399996      -3.59185989E-16
  -13.9300003      -6.94804980E-16
  -13.9200001      -9.14021183E-16
  -13.9099998      -9.25017365E-16
  -13.8999996      -6.74801821E-16
  -13.8900003      -1.73267074E-16
  -13.8800001       4.95808724E-16
  -13.8699999       1.18270035E-15
  -13.8599997       1.70016421E-15
  -13.8500004       1.86827156E-15
  -13.8400002       1.56608875E-15
  -13.8299999       7.76890414E-16
  -13.8199997      -3.86980316E-16
  -13.8100004      -1.69021274E-15
  -13.8000002      -2.81537997E-15
  -13.7900000      -3.43324349E-15
  -13.7799997      -3.28824289E-15
  -13.7700005      -2.27842736E-15
  -13.7600002      -5.07415352E-16
  -13.7500000       1.70968084E-15
  -13.7399998       3.89460328E-15
  -13.7299995       5.50335136E-15
  -13.7200003       6.05359836E-15
  -13.7100000       5.25288710E-15
  -13.6999998       3.09468485E-15
  -13.6899996      -1.05569309E-16
  -13.6800003      -3.74960564E-15
  -13.6700001      -7.06767002E-15
  -13.6599998      -9.28042585E-15
  -13.6499996      -9.77545054E-15
  -13.6400003      -8.25675774E-15
  -13.6300001      -4.83063186E-15
  -13.6199999      -6.11484831E-18
  -13.6099997       5.39110382E-15
  -13.6000004       1.03713814E-14
  -13.5900002       1.39652787E-14
  -13.5799999       1.53987236E-14
  -13.5699997       1.42249680E-14
  -13.5600004       1.03937431E-14
  -13.5500002       4.25678568E-15
  -13.5400000      -3.47624990E-15
  -13.5299997      -1.18107140E-14
  -13.5200005      -1.95525206E-14
  -13.5100002      -2.54028044E-14
  -13.5000000      -2.80735653E-14
  -13.4899998      -2.64439874E-14
  -13.4799995      -1.97717920E-14
  -13.4700003      -7.95220704E-15
  -13.4600000       8.21926128E-15
  -13.4499998       2.68592267E-14
  -13.4399996       4.49862519E-14
  -13.4300003       5.87828804E-14
  -13.4200001       6.41789139E-14
  -13.4099998       5.77222596E-14
  -13.3999996       3.76015577E-14
  -13.3900003       4.58909110E-15
  -13.3800001      -3.73825184E-14
  -13.3699999      -8.12790726E-14
  -13.3599997      -1.17829005E-13
  -13.3500004      -1.37183789E-13
  -13.3400002      -1.31145217E-13
  -13.3299999      -9.55182656E-14
  -13.3199997      -3.20100934E-14
  -13.3100004       5.09117962E-14
  -13.3000002       1.38640903E-13
  -13.2900000       2.12675933E-13
  -13.2799997       2.54237251E-13
  -13.2700005       2.48606799E-13
  -13.2600002       1.89244643E-13
  -13.2500000       8.06356799E-14
  -13.2399998      -6.10403316E-14
  -13.2299995      -2.09899345E-13
  -13.2200003      -3.34912301E-13
  -13.2100000      -4.06283676E-13
  -13.1999998      -4.02354338E-13
  -13.1899996      -3.15443418E-13
  -13.1800003      -1.55110300E-13
  -13.1700001       5.22174263E-14
  -13.1599998       2.67543176E-13
  -13.1499996       4.46877642E-13
  -13.1400003       5.50601285E-13
  -13.1300001       5.52544772E-13
  -13.1199999       4.46618708E-13
  -13.1099997       2.49257321E-13
  -13.1000004      -3.17133032E-15
  -13.0900002      -2.61649995E-13
  -13.0799999      -4.74980840E-13
  -13.0699997      -6.01060976E-13
  -13.0600004      -6.16270435E-13
  -13.0500002      -5.20622445E-13
  -13.0400000      -3.37316492E-13
  -13.0299997      -1.06707313E-13
  -13.0200005       1.23828980E-13
  -13.0100002       3.11540344E-13
  -13.0000000       4.28376952E-13
  -12.9899998       4.66750336E-13
  -12.9799995       4.39356369E-13
  -12.9700003       3.73051145E-13
  -12.9600000       2.98513276E-13
  -12.9499998       2.38734054E-13
  -12.9399996       1.99917380E-13
  -12.9300003       1.67900551E-13
  -12.9200001       1.11736900E-13
  -12.9099998      -5.90463788E-15
  -12.8999996      -2.14024558E-13
  -12.8900003      -5.18312444E-13
  -12.8800001      -8.90503979E-13
  -12.8699999      -1.26591847E-12
  -12.8599997      -1.55113541E-12
  -12.8500004      -1.64116594E-12
  -12.8400002      -1.44284086E-12
  -12.8299999      -8.99245576E-13
  -12.8199997      -9.43613253E-15
  -12.8100004       1.16139021E-12
  -12.8000002       2.48391455E-12
  -12.7900000       3.77857381E-12
  -12.7799997       4.83826824E-12
  -12.7700005       5.45505871E-12
  -12.7600002       5.44582955E-12
  -12.7500000       4.67316203E-12
  -12.7399998       3.06017321E-12
  -12.7299995       6.00667194E-13
  -12.7200003      -2.63229737E-12
  -12.7100000      -6.47620152E-12
  -12.6999998      -1.06660366E-11
  -12.6899996      -1.48209101E-11
  -12.6800003      -1.84366637E-11
  -12.6700001      -2.08943782E-11
  -12.6599998      -2.14950314E-11
  -12.6499996      -1.95279487E-11
  -12.6400003      -1.43742726E-11
  -12.6300001      -5.63772249E-12
  -12.6199999       6.71421729E-12
  -12.6099997       2.22234054E-11
  -12.6000004       3.98559137E-11
  -12.5900002       5.79840759E-11
  -12.5799999       7.44523887E-11
  -12.5699997       8.67312194E-11
  -12.5600004       9.21475396E-11
  -12.5500002       8.81691525E-11
  -12.5400000       7.27092622E-11
  -12.5299997       4.44174489E-11
  -12.5200005       2.92667388E-12
  -12.5100002      -5.09635667E-11
  -12.5000000      -1.15175439E-10
  -12.4899998      -1.86307844E-10
  -12.4799995      -2.59648247E-10
  -12.4700003      -3.29227007E-10
  -12.4600000      -3.87909010E-10
  -12.4499998      -4.27523239E-10
  -12.4399996      -4.39044079E-10
  -12.4300003      -4.12845258E-10
  -12.4200001      -3.39049067E-10
  -12.4099998      -2.07989417E-10
  -12.3999996      -1.07924182E-11
  -12.3900003       2.59939043E-10
  -12.3800001       6.09376938E-10
  -12.3699999       1.03970621E-09
  -12.3599997       1.54942514E-09
  -12.3500004       2.13278328E-09
  -12.3400002       2.77942824E-09
  -12.3299999       3.47431373E-09
  -12.3199997       4.19791713E-09
  -12.3100004       4.92676255E-09
  -12.3000002       5.63422820E-09
  -12.2900000       6.29159258E-09
  -12.2799997       6.86925672E-09
  -12.2700005       7.33801642E-09
  -12.2600002       7.67034880E-09
  -12.2500000       7.84156295E-09
  -12.2399998       7.83077247E-09
  -12.2299995       7.62163310E-09
  -12.2200003       7.20280902E-09
  -12.2100000       6.56816779E-09
  -12.1999998       5.71672931E-09
  -12.1899996       4.65242866E-09
  -12.1800003       3.38369577E-09
  -12.1700001       1.92296312E-09
  -12.1599998       2.86090734E-10
  -12.1499996      -1.50823520E-09
  -12.1400003      -3.43909523E-09
  -12.1300001      -5.48390711E-09
  -12.1199999      -7.61896946E-09
  -12.1099997      -9.81991821E-09
  -12.1000004      -1.20620447E-08
  -12.0900002      -1.43205190E-08
  -12.0799999      -1.65703629E-08
  -12.0699997      -1.87862863E-08
  -12.0600004      -2.09423394E-08
  -12.0500002      -2.30115020E-08
  -12.0400000      -2.49652281E-08
  -12.0299997      -2.67731508E-08
  -12.0200005      -2.84030293E-08
  -12.0100002      -2.98210132E-08
  -12.0000000      -3.09922470E-08
  -11.9899998      -3.18819140E-08
  -11.9799995      -3.24563985E-08
  -11.9700003      -3.26846425E-08
  -11.9600000      -3.25395106E-08
  -11.9499998      -3.19988480E-08
  -11.9399996      -3.10462838E-08
  -11.9300003      -2.96716713E-08
  -11.9200001      -2.78711276E-08
  -11.9099998      -2.56468642E-08
  -11.8999996      -2.30066437E-08
  -11.8900003      -1.99633394E-08
  -11.8800001      -1.65342460E-08
  -11.8699999      -1.27406521E-08
  -11.8599997      -8.60732996E-09
  -11.8500004      -4.16214840E-09
  -11.8400002       5.64269464E-10
  -11.8299999       5.53897328E-09
  -11.8199997       1.07270628E-08
  -11.8100004       1.60919953E-08
  -11.8000002       2.15960281E-08
  -11.7900000       2.72005174E-08
  -11.7799997       3.28661187E-08
  -11.7700005       3.85529546E-08
  -11.7600002       4.42206876E-08
  -11.7500000       4.98285644E-08
  -11.7399998       5.53353274E-08
  -11.7299995       6.06991932E-08
  -11.7200003       6.58777424E-08
  -11.7100000       7.08277312E-08
  -11.6999998       7.55049641E-08
  -11.6899996       7.98640443E-08
  -11.6800003       8.38580974E-08
  -11.6700001       8.74387851E-08
  -11.6599998       9.05561635E-08
  -11.6499996       9.31593362E-08
  -11.6400003       9.51968957E-08
  -11.6300001       9.66183080E-08
  -11.6199999       9.73751568E-08
  -11.6099997       9.74228342E-08
  -11.6000004       9.67219407E-08
  -11.5900002       9.52394359E-08
  -11.5799999       9.29494206E-08
  -11.5699997       8.98331578E-08
  -11.5600004       8.58786251E-08
  -11.5500002       8.10795413E-08
  -11.5400000       7.54345066E-08
  -11.5299997       6.89459583E-08
  -11.5200005       6.16195663E-08
  -11.5100002       5.34642375E-08
  -11.5000000       4.44923316E-08
  -11.4899998       3.47204114E-08
  -11.4799995       2.41700189E-08
  -11.4700003       1.28683277E-08
  -11.4600000       8.48594306E-10
  -11.4499998      -1.18498402E-08
  -11.4399996      -2.51818530E-08
  -11.4300003      -3.90973121E-08
  -11.4200001      -5.35418216E-08
  -11.4099998      -6.84574815E-08
  -11.3999996      -8.37833198E-08
  -11.3900003      -9.94561020E-08
  -11.3800001      -1.15410465E-07
  -11.3699999      -1.31579753E-07
  -11.3599997      -1.47896628E-07
  -11.3500004      -1.64294264E-07
  -11.3400002      -1.80707517E-07
  -11.3299999      -1.97074556E-07
  -11.3199997      -2.13338524E-07
  -11.3100004      -2.29448759E-07
  -11.3000002      -2.45361548E-07
  -11.2900000      -2.61040725E-07
  -11.2799997      -2.76457058E-07
  -11.2700005      -2.91587696E-07
  -11.2600002      -3.06414591E-07
  -11.2500000      -3.20922936E-07
  -11.2399998      -3.35099230E-07
  -11.2299995      -3.48929831E-07
  -11.2200003      -3.62398595E-07
  -11.2100000      -3.75486906E-07
  -11.1999998      -3.88172111E-07
  -11.1899996      -4.00427808E-07
  -11.1800003      -4.12224551E-07
  -11.1700001      -4.23530850E-07
  -11.1599998      -4.34315922E-07
  -11.1499996      -4.44550579E-07
  -11.1400003      -4.54209641E-07
  -11.1300001      -4.63273381E-07
  -11.1199999      -4.71729408E-07
  -11.1099997      -4.79572066E-07
  -11.1000004      -4.86801980E-07
  -11.0900002      -4.93426285E-07
  -11.0799999      -4.99457315E-07
  -11.0699997      -5.04913203E-07
  -11.0600004      -5.09814981E-07
  -11.0500002      -5.14188400E-07
  -11.0400000      -5.18063302E-07
  -11.0299997      -5.21472714E-07
  -11.0200005      -5.24451707E-07
  -11.0100002      -5.27039560E-07
  -11.0000000      -5.29273620E-07
  -10.9899998      -5.31190835E-07
  -10.9799995      -5.32823549E-07
  -10.9700003      -5.34198477E-07
  -10.9600000      -5.35334948E-07
  -10.9499998      -5.36244045E-07
  -10.9399996      -5.36928496E-07
  -10.9300003      -5.37383812E-07
  -10.9200001      -5.37598169E-07
  -10.9099998      -5.37554342E-07
  -10.8999996      -5.37231870E-07
  -10.8900003      -5.36608752E-07
  -10.8800001      -5.35662082E-07
  -10.8699999      -5.34369747E-07
  -10.8599997      -5.32712193E-07
  -10.8500004      -5.30671286E-07
  -10.8400002      -5.28230657E-07
  -10.8299999      -5.25374162E-07
  -10.8199997      -5.22084747E-07
  -10.8100004      -5.18342063E-07
  -10.8000002      -5.14122860E-07
  -10.7900000      -5.09395818E-07
  -10.7799997      -5.04127115E-07
  -10.7700005      -4.98280940E-07
  -10.7600002      -4.91820856E-07
  -10.7500000      -4.84715997E-07
  -10.7399998      -4.76943001E-07
  -10.7299995      -4.68487940E-07
  -10.7200003      -4.59349792E-07
  -10.7100000      -4.49540437E-07
  -10.6999998      -4.39082783E-07
  -10.6899996      -4.28008008E-07
  -10.6800003      -4.16355249E-07
  -10.6700001      -4.04166940E-07
  -10.6599998      -3.91490403E-07
  -10.6499996      -3.78374637E-07
  -10.6400003      -3.64871880E-07
  -10.6300001      -3.51034544E-07
  -10.6199999      -3.36920152E-07
  -10.6099997      -3.22586118E-07
  -10.6000004      -3.08091757E-07
  -10.5900002      -2.93497607E-07
  -10.5799999      -2.78864775E-07
  -10.5699997      -2.64250616E-07
  -10.5600004      -2.49713821E-07
  -10.5500002      -2.35310068E-07
  -10.5400000      -2.21089977E-07
  -10.5299997      -2.07097827E-07
  -10.5200005      -1.93370767E-07
  -10.5100002      -1.79935100E-07
  -10.5000000      -1.66805123E-07
  -10.4899998      -1.53985965E-07
  -10.4799995      -1.41470650E-07
  -10.4700003      -1.29245407E-07
  -10.4600000      -1.17293304E-07
  -10.4499998      -1.05595319E-07
  -10.4399996      -9.41343430E-08
  -10.4300003      -8.28937274E-08
  -10.4200001      -7.18587927E-08
  -10.4099998      -6.10099562E-08
  -10.3999996      -5.03239654E-08
  -10.3900003      -3.97730808E-08
  -10.3800001      -2.93208657E-08
  -10.3699999      -1.89267730E-08
  -10.3599997      -8.54485016E-09
  -10.3500004       1.86966909E-09
  -10.3400002       1.23648132E-08
  -10.3299999       2.29849366E-08
  -10.3199997       3.37734463E-08
  -10.3100004       4.47755077E-08
  -10.3000002       5.60376918E-08
  -10.2900000       6.76077292E-08
  -10.2799997       7.95300465E-08
  -10.2700005       9.18424732E-08
  -10.2600002       1.04571811E-07
  -10.2500000       1.17726493E-07
  -10.2399998       1.31292381E-07
  -10.2299995       1.45235177E-07
  -10.2200003       1.59505618E-07
  -10.2100000       1.74043251E-07
  -10.1999998       1.88788306E-07
  -10.1899996       2.03689680E-07
  -10.1800003       2.18708678E-07
  -10.1700001       2.33823485E-07
  -10.1599998       2.49023429E-07
  -10.1499996       2.64306436E-07
  -10.1400003       2.79670616E-07
  -10.1300001       2.95106020E-07
  -10.1199999       3.10592554E-07
  -10.1099997       3.26094664E-07
  -10.1000004       3.41560565E-07
  -10.0900002       3.56927956E-07
  -10.0799999       3.72122372E-07
  -10.0699997       3.87063238E-07
  -10.0600004       4.01665204E-07
  -10.0500002       4.15838315E-07
  -10.0400000       4.29490171E-07
  -10.0299997       4.42526357E-07
  -10.0200005       4.54851374E-07
  -10.0100002       4.66369386E-07
  -10.0000000       4.76987339E-07
  -9.98999977       4.86615420E-07
  -9.97999954       4.95167285E-07
  -9.97000027       5.02563694E-07
  -9.96000004       5.08731659E-07
  -9.94999981       5.13603709E-07
  -9.93999958       5.17120895E-07
  -9.93000031       5.19233424E-07
  -9.92000008       5.19899629E-07
  -9.90999985       5.19089383E-07
  -9.89999962       5.16783587E-07
  -9.89000034       5.12972747E-07
  -9.88000011       5.07656694E-07
  -9.86999989       5.00842248E-07
  -9.85999966       4.92543109E-07
  -9.85000038       4.82779342E-07
  -9.84000015       4.71580279E-07
  -9.82999992       4.58986705E-07
  -9.81999969       4.45055917E-07
  -9.81000042       4.29863832E-07
  -9.80000019       4.13506797E-07
  -9.78999996       3.96100489E-07
  -9.77999973       3.77775365E-07
  -9.77000046       3.58671343E-07
  -9.76000023       3.38929965E-07
  -9.75000000       3.18689587E-07
  -9.73999977       2.98080977E-07
  -9.72999954       2.77226889E-07
  -9.72000027       2.56243993E-07
  -9.71000004       2.35245537E-07
  -9.69999981       2.14344936E-07
  -9.68999958       1.93657712E-07
  -9.68000031       1.73299625E-07
  -9.67000008       1.53383581E-07
  -9.65999985       1.34012737E-07
  -9.64999962       1.15273252E-07
  -9.64000034       9.72274705E-08
  -9.63000011       7.99084674E-08
  -9.61999989       6.33169677E-08
  -9.60999966       4.74218034E-08
  -9.60000038       3.21620952E-08
  -9.59000015       1.74513808E-08
  -9.57999992       3.18284310E-09
  -9.56999969      -1.07653628E-08
  -9.56000042      -2.45243204E-08
  -9.55000019      -3.82290182E-08
  -9.53999996      -5.20131174E-08
  -9.52999973      -6.60026345E-08
  -9.52000046      -8.03104783E-08
  -9.51000023      -9.50304297E-08
  -9.50000000      -1.10233088E-07
  -9.48999977      -1.25961506E-07
  -9.47999954      -1.42229766E-07
  -9.47000027      -1.59023202E-07
  -9.46000004      -1.76300034E-07
  -9.44999981      -1.93994310E-07
  -9.43999958      -2.12020225E-07
  -9.43000031      -2.30274765E-07
  -9.42000008      -2.48641442E-07
  -9.40999985      -2.66991350E-07
  -9.39999962      -2.85183376E-07
  -9.39000034      -3.03063672E-07
  -9.38000011      -3.20464324E-07
  -9.36999989      -3.37201925E-07
  -9.35999966      -3.53077667E-07
  -9.35000038      -3.67877533E-07
  -9.34000015      -3.81373866E-07
  -9.32999992      -3.93328492E-07
  -9.31999969      -4.03494226E-07
  -9.31000042      -4.11618799E-07
  -9.30000019      -4.17445875E-07
  -9.28999996      -4.20716503E-07
  -9.27999973      -4.21169119E-07
  -9.27000046      -4.18540196E-07
  -9.26000023      -4.12564816E-07
  -9.25000000      -4.02978117E-07
  -9.23999977      -3.89519045E-07
  -9.22999954      -3.71935556E-07
  -9.22000027      -3.49990842E-07
  -9.21000004      -3.23470772E-07
  -9.19999981      -2.92191800E-07
  -9.18999958      -2.56007098E-07
  -9.18000031      -2.14812431E-07
  -9.17000008      -1.68549292E-07
  -9.15999985      -1.17207172E-07
  -9.14999962      -6.08229982E-08
  -9.14000034       5.19129739E-10
  -9.13000011       6.66907027E-08
  -9.11999989       1.37519820E-07
  -9.10999966       2.12792557E-07
  -9.10000038       2.92254242E-07
  -9.09000015       3.75607897E-07
  -9.07999992       4.62513157E-07
  -9.06999969       5.52583799E-07
  -9.06000042       6.45385171E-07
  -9.05000019       7.40436406E-07
  -9.03999996       8.37208518E-07
  -9.02999973       9.35131936E-07
  -9.02000046       1.03360026E-06
  -9.01000023       1.13198450E-06
  -9.00000000       1.22963866E-06
  -8.98999977       1.32591254E-06
  -8.97999954       1.42015688E-06
  -8.97000027       1.51173185E-06
  -8.96000004       1.60000570E-06
  -8.94999981       1.68435452E-06
  -8.93999958       1.76416245E-06
  -8.93000031       1.83882310E-06
  -8.92000008       1.90773767E-06
  -8.90999985       1.97032273E-06
  -8.89999962       2.02601177E-06
  -8.89000034       2.07427047E-06
  -8.88000011       2.11459201E-06
  -8.86999989       2.14651118E-06
  -8.85999966       2.16959711E-06
  -8.85000038       2.18345895E-06
  -8.84000015       2.18774153E-06
  -8.82999992       2.18212540E-06
  -8.81999969       2.16632407E-06
  -8.81000042       2.14009242E-06
  -8.80000019       2.10322241E-06
  -8.78999996       2.05554966E-06
  -8.77999973       1.99695910E-06
  -8.77000046       1.92738230E-06
  -8.76000023       1.84679311E-06
  -8.75000000       1.75520483E-06
  -8.73999977       1.65266874E-06
  -8.72999954       1.53926817E-06
  -8.72000027       1.41511498E-06
  -8.71000004       1.28035447E-06
  -8.69999981       1.13516307E-06
  -8.68999958       9.79756692E-07
  -8.68000031       8.14384919E-07
  -8.67000008       6.39334303E-07
  -8.65999985       4.54923992E-07
  -8.64999962       2.61499423E-07
  -8.64000034       5.94275456E-08
  -8.63000011      -1.50908335E-07
  -8.61999989      -3.69108392E-07
  -8.60999966      -5.94756671E-07
  -8.60000038      -8.27423662E-07
  -8.59000015      -1.06665732E-06
  -8.57999992      -1.31198658E-06
  -8.56999969      -1.56292197E-06
  -8.56000042      -1.81895655E-06
  -8.55000019      -2.07957282E-06
  -8.53999996      -2.34424533E-06
  -8.52999973      -2.61244804E-06
  -8.52000046      -2.88365754E-06
  -8.51000023      -3.15735133E-06
  -8.50000000      -3.43301349E-06
  -8.48999977      -3.71014062E-06
  -8.47999954      -3.98823113E-06
  -8.47000027      -4.26680390E-06
  -8.46000004      -4.54539531E-06
  -8.44999981      -4.82356381E-06
  -8.43999958      -5.10089058E-06
  -8.43000031      -5.37697633E-06
  -8.42000008      -5.65145046E-06
  -8.40999985      -5.92394690E-06
  -8.39999962      -6.19412685E-06
  -8.39000034      -6.46165654E-06
  -8.38000011      -6.72622900E-06
  -8.36999989      -6.98755457E-06
  -8.35999966      -7.24536130E-06
  -8.35000038      -7.49940182E-06
  -8.34000015      -7.74944692E-06
  -8.32999992      -7.99527243E-06
  -8.31999969      -8.23665778E-06
  -8.31000042      -8.47337105E-06
  -8.30000019      -8.70515487E-06
  -8.28999996      -8.93172455E-06
  -8.27999973      -9.15277542E-06
  -8.27000046      -9.36797187E-06
  -8.26000023      -9.57696466E-06
  -8.25000000      -9.77938817E-06
  -8.23999977      -9.97487223E-06
  -8.22999954      -1.01630339E-05
  -8.22000027      -1.03434904E-05
  -8.21000004      -1.05158315E-05
  -8.19999981      -1.06796415E-05
  -8.18999958      -1.08344784E-05
  -8.18000031      -1.09798930E-05
  -8.17000008      -1.11154268E-05
  -8.15999985      -1.12406042E-05
  -8.14999962      -1.13549631E-05
  -8.14000034      -1.14580371E-05
  -8.13000011      -1.15493758E-05
  -8.11999989      -1.16285300E-05
  -8.10999966      -1.16950559E-05
  -8.10000038      -1.17485224E-05
  -8.09000015      -1.17885020E-05
  -8.07999992      -1.18145826E-05
  -8.06999969      -1.18263679E-05
  -8.06000042      -1.18234911E-05
  -8.05000019      -1.18056159E-05
  -8.03999996      -1.17724339E-05
  -8.02999973      -1.17236850E-05
  -8.02000046      -1.16591355E-05
  -8.01000023      -1.15785979E-05
  -8.00000000      -1.14819140E-05
  -7.98999977      -1.13689684E-05
  -7.98000002      -1.12396792E-05
  -7.96999979      -1.10940291E-05
  -7.96000004      -1.09320372E-05
  -7.94999981      -1.07537908E-05
  -7.94000006      -1.05594463E-05
  -7.92999983      -1.03492093E-05
  -7.92000008      -1.01233509E-05
  -7.90999985      -9.88220108E-06
  -7.90000010      -9.62615468E-06
  -7.88999987      -9.35566277E-06
  -7.88000011      -9.07122831E-06
  -7.86999989      -8.77340517E-06
  -7.86000013      -8.46281455E-06
  -7.84999990      -8.14011855E-06
  -7.84000015      -7.80604478E-06
  -7.82999992      -7.46135947E-06
  -7.82000017      -7.10688846E-06
  -7.80999994      -6.74348848E-06
  -7.80000019      -6.37206904E-06
  -7.78999996      -5.99356645E-06
  -7.78000021      -5.60897206E-06
  -7.76999998      -5.21929451E-06
  -7.76000023      -4.82557289E-06
  -7.75000000      -4.42888268E-06
  -7.73999977      -4.03031981E-06
  -7.73000002      -3.63098866E-06
  -7.71999979      -3.23199129E-06
  -7.71000004      -2.83441568E-06
  -7.69999981      -2.43933687E-06
  -7.69000006      -2.04781099E-06
  -7.67999983      -1.66084635E-06
  -7.67000008      -1.27941792E-06
  -7.65999985      -9.04476508E-07
  -7.65000010      -5.36916332E-07
  -7.63999987      -1.77604917E-07
  -7.63000011       1.72638295E-07
  -7.61999989       5.13051532E-07
  -7.61000013       8.42927818E-07
  -7.59999990       1.16163392E-06
  -7.59000015       1.46859691E-06
  -7.57999992       1.76332446E-06
  -7.57000017       2.04539106E-06
  -7.55999994       2.31443573E-06
  -7.55000019       2.57017246E-06
  -7.53999996       2.81236726E-06
  -7.53000021       3.04082891E-06
  -7.51999998       3.25543419E-06
  -7.51000023       3.45609192E-06
  -7.50000000       3.64277003E-06
  -7.48999977       3.81547625E-06
  -7.48000002       3.97425856E-06
  -7.46999979       4.11921110E-06
  -7.46000004       4.25044436E-06
  -7.44999981       4.36809387E-06
  -7.44000006       4.47230786E-06