  -16.0000000       0.00000000    
  -15.9899998       0.00000000    
  -15.9799995       0.00000000    
  -15.9700003       0.00000000    
  -15.9600000       0.00000000    
  -15.9499998       0.00000000    
  -15.9399996       0.00000000    
  -15.9300003       0.00000000    
  -15.9200001       0.00000000    
  -15.9099998       0.00000000    
  -15.8999996       0.00000000    
  -15.8900003       0.00000000    
  -15.8800001       2.80259693E-45
  -15.8699999       2.18602560E-43
  -15.8599997       5.99195223E-42
  -15.8500004       9.16421170E-41
  -15.8400002       9.50657694E-40
  -15.8299999       7.39022389E-39
  -15.8199997       4.56765089E-38
  -15.8100004       2.33220615E-37
  -15.8000002       1.00965738E-36
  -15.7900000       3.77287912E-36
  -15.7799997       1.23136405E-35
  -15.7700005       3.53305216E-35
  -15.7600002       8.92003225E-35
  -15.7500000       1.96835955E-34
  -15.7399998       3.71856778E-34
  -15.7299995       5.68955658E-34
  -15.7200003       5.79521011E-34
  -15.7100000      -1.24928934E-34
  -15.6999998      -2.52390025E-33
  -15.6899996      -7.93673802E-33
  -15.6800003      -1.72941521E-32
  -15.6700001      -2.94012472E-32
  -15.6599998      -3.82146513E-32
  -15.6499996      -3.02886749E-32
  -15.6400003       1.46602424E-32
  -15.6300001       1.15580353E-31
  -15.6199999       2.70611918E-31
  -15.6099997       4.28476390E-31
  -15.6000004       4.65044138E-31
  -15.5900002       1.94222042E-31
  -15.5799999      -5.51588123E-31
  -15.5699997      -1.75619138E-30
  -15.5600004      -3.01348434E-30
  -15.5500002      -3.41352237E-30
  -15.5400000      -1.72268095E-30
  -15.5299997       2.97788398E-30
  -15.5200005       1.02548841E-29
  -15.5100002       1.73428216E-29
  -15.5000000       1.90597325E-29
  -15.4899998       9.46972080E-30
  -15.4799995      -1.45591336E-29
  -15.4700003      -4.91585463E-29
  -15.4600000      -8.13028979E-29
  -15.4499998      -9.15025326E-29
  -15.4399996      -6.18531420E-29
  -15.4300003       1.44420100E-29
  -15.4200001       1.29490490E-28
  -15.4099998       2.68280091E-28
  -15.3999996       4.21445376E-28
  -15.3900003       5.81192068E-28
  -15.3800001       6.92442737E-28
  -15.3699999       5.57225507E-28
  -15.3599997      -2.40770589E-28
  -15.3500004      -2.23802015E-27
  -15.3400002      -5.64018946E-27
  -15.3299999      -9.48567105E-27
  -15.3199997      -1.07758746E-26
  -15.3100004      -4.44847601E-27
  -15.3000002       1.46258510E-26
  -15.2900000       4.69183836E-26
  -15.2799997       8.17953171E-26
  -15.2700005       9.31171166E-26
  -15.2600002       4.31350560E-26
  -15.2500000      -9.93366685E-26
  -15.2399998      -3.26148255E-25
  -15.2299995      -5.53836759E-25
  -15.2200003      -6.09963719E-25
  -15.2100000      -2.74731830E-25
  -15.1999998       6.00528499E-25
  -15.1899996       1.91487366E-24
  -15.1800003       3.15638611E-24
  -15.1700001       3.39065867E-24
  -15.1599998       1.53788838E-24
  -15.1499996      -3.01121105E-24
  -15.1400003      -9.58581962E-24
  -15.1300001      -1.56245151E-23
  -15.1199999      -1.68243142E-23
  -15.1099997      -8.52548249E-24
  -15.1000004       1.16496336E-23
  -15.0900002       4.06692033E-23
  -15.0799999       6.80562041E-23
  -15.0699997       7.68679761E-23
  -15.0600004       4.89956207E-23
  -15.0500002      -2.56646366E-23
  -15.0400000      -1.39019140E-22
  -15.0299997      -2.58367396E-22
  -15.0200005      -3.28709226E-22
  -15.0100002      -2.86239353E-22
  -15.0000000      -8.10483393E-23
  -14.9899998       2.97256597E-22
  -14.9799995       7.98653231E-22
  -14.9700003       1.30132373E-21
  -14.9600000       1.60975769E-21
  -14.9499998       1.46148779E-21
  -14.9399996       5.51552511E-22
  -14.9300003      -1.39560031E-21
  -14.9200001      -4.45911581E-21
  -14.9099998      -8.22547916E-21
  -14.8999996      -1.14070040E-20
  -14.8900003      -1.15711622E-20
  -14.8800001      -5.35718596E-21
  -14.8699999       1.03610947E-20
  -14.8599997       3.61003430E-20
  -14.8500004       6.65318169E-20
  -14.8400002       8.77526637E-20
  -14.8299999       7.74916433E-20
  -14.8199997       1.10729636E-20
  -14.8100004      -1.25212966E-19
  -14.8000002      -3.15062833E-19
  -14.7900000      -4.94449589E-19
  -14.7799997      -5.47650589E-19
  -14.7700005      -3.31515895E-19
  -14.7600002       2.62733035E-19
  -14.7500000       1.21610615E-18
  -14.7399998       2.28666801E-18
  -14.7299995       2.96719571E-18
  -14.7200003       2.56199818E-18
  -14.7100000       4.31019467E-19
  -14.6999998      -3.61003622E-18
  -14.6899996      -8.84163265E-18
  -14.6800003      -1.33578519E-17
  -14.6700001      -1.42242656E-17
  -14.6599998      -8.30402233E-18
  -14.6499996       6.22413458E-18
  -14.6400003       2.79866700E-17
  -14.6300001       5.09204577E-17
  -14.6199999       6.41997042E-17
  -14.6099997       5.45610880E-17
  -14.6000004       1.13947529E-17
  -14.5900002      -6.62103023E-17
  -14.5799999      -1.62773858E-16
  -14.5699997      -2.43643019E-16
  -14.5600004      -2.59899698E-16
  -14.5500002      -1.63213826E-16
  -14.5400000       7.06213058E-17
  -14.5299997       4.15680625E-16
  -14.5200005       7.78409832E-16
  -14.5100002       1.00180884E-15
  -14.5000000       9.01627397E-16
  -14.4899998       3.35623068E-16
  -14.4799995      -7.07870993E-16
  -14.4700003      -2.03214575E-15
  -14.4600000      -3.20625878E-15
  -14.4499998      -3.63038321E-15
  -14.4399996      -2.71090332E-15
  -14.4300003      -1.24247743E-16
  -14.4200001       3.90153498E-15
  -14.4099998       8.40172997E-15
  -14.3999996       1.17148333E-14
  -14.3900003       1.18406778E-14
  -14.3800001       7.11802104E-15
  -14.3699999      -2.91321439E-15
  -14.3599997      -1.67410743E-14
  -14.3500004      -3.05672507E-14
  -14.3400002      -3.87899755E-14
  -14.3299999      -3.54475089E-14
  -14.3199997      -1.64622903E-14
  -14.3100004       1.78713364E-14
  -14.3000002       6.10527050E-14
  -14.2900000       1.00209920E-13
  -14.2799997       1.18380444E-13
  -14.2700005       9.93631921E-14
  -14.2600002       3.43069350E-14
  -14.2500000      -7.18195577E-14
  -14.2399998      -1.96421682E-13
  -14.2299995      -3.00656825E-13
  -14.2200003      -3.37503490E-13
  -14.2100000      -2.66060367E-13
  -14.1999998      -6.90808630E-14
  -14.1899996       2.31570785E-13
  -14.1800003       5.68040406E-13
  -14.1700001       8.33836852E-13
  -14.1599998       9.07868073E-13
  -14.1499996       6.92373459E-13
  -14.1400003       1.55963458E-13
  -14.1300001      -6.31837356E-13
  -14.1199999      -1.48970137E-12
  -14.1099997      -2.14900276E-12
  -14.1000004      -2.31681211E-12
  -14.0900002      -1.76800057E-12
  -14.0799999      -4.43965746E-13
  -14.0699997       1.47373444E-12
  -14.0600004       3.54767756E-12
  -14.0500002       5.14976039E-12
  -14.0400000       5.60967071E-12
  -14.0299997       4.42172340E-12
  -14.0200005       1.45859453E-12
  -14.0100002      -2.87635107E-12
  -14.0000000      -7.62510454E-12
  -13.9899998      -1.14225825E-11
  -13.9799995      -1.28147449E-11
  -13.9700003      -1.06909039E-11
  -13.9600000      -4.72273739E-12
  -13.9499998       4.32686959E-12
  -13.9399996       1.45548365E-11
  -13.9300003       2.32084785E-11
  -13.9200001       2.73081713E-11
  -13.9099998       2.44897540E-11
  -13.8999996       1.38604059E-11
  -13.8900003      -3.38895925E-12
  -13.8800001      -2.38545399E-11
  -13.8699999      -4.24189295E-11
  -13.8599997      -5.33651109E-11
  -13.8500004      -5.19040505E-11
  -13.8400002      -3.57502049E-11
  -13.8299999      -6.29143872E-12
  -13.8199997       3.10682348E-11
  -13.8100004       6.76523768E-11
  -13.8000002       9.33309194E-11
  -13.7900000       9.90866833E-11
  -13.7799997       7.97261215E-11
  -13.7700005       3.59836605E-11
  -13.7600002      -2.46826240E-11
  -13.7500000      -8.90458957E-11
  -13.7399998      -1.40824019E-10
  -13.7299995      -1.64656136E-10
  -13.7200003      -1.50408186E-10
  -13.7100000      -9.66385999E-11
  -13.6999998      -1.21291180E-11
  -13.6899996       8.52151891E-11
  -13.6800003       1.72128950E-10
  -13.6700001       2.25682098E-10
  -13.6599998       2.29522706E-10
  -13.6499996       1.78947163E-10
  -13.6400003       8.32066568E-11
  -13.6300001      -3.59221645E-11
  -13.6199999      -1.49284002E-10
  -13.6099997      -2.28079847E-10
  -13.6000004      -2.52146110E-10
  -13.5900002      -2.16326790E-10
  -13.5799999      -1.32780842E-10
  -13.5699997      -2.80701296E-11
  -13.5600004       6.46280252E-11
  -13.5500002       1.16237346E-10
  -13.5400000       1.12271671E-10
  -13.5299997       5.95596419E-11
  -13.5200005      -1.36324259E-11
  -13.5100002      -6.51865853E-11
  -13.5000000      -5.31608195E-11
  -13.4899998       4.73797390E-11
  -13.4799995       2.29974206E-10
  -13.4700003       4.50269544E-10
  -13.4600000       6.31352581E-10
  -13.4499998       6.81784906E-10
  -13.4399996       5.23291688E-10
  -13.4300003       1.21331376E-10
  -13.4200001      -4.90552043E-10
  -13.4099998      -1.20166688E-09
  -13.3999996      -1.83666127E-09
  -13.3900003      -2.19058482E-09
  -13.3800001      -2.08101913E-09
  -13.3699999      -1.40564904E-09
  -13.3599997      -1.89846069E-10
  -13.3500004       1.39125278E-09
  -13.3400002       3.02725200E-09
  -13.3299999       4.32643832E-09
  -13.3199997       4.90154894E-09
  -13.3100004       4.46978010E-09
  -13.3000002       2.94276536E-09
  -13.2900000       4.81220730E-10
  -13.2799997      -2.50536702E-09
  -13.2700005      -5.42184297E-09
  -13.2600002      -7.60563612E-09
  -13.2500000      -8.47710080E-09
  -13.2399998      -7.68762209E-09
  -13.2299995      -5.22776000E-09
  -13.2200003      -1.46372525E-09
  -13.2100000       2.91428526E-09
  -13.1999998       7.02732494E-09
  -13.1899996       9.99986671E-09
  -13.1800003       1.11651408E-08
  -13.1700001       1.02326210E-08
  -13.1599998       7.37232986E-09
  -13.1499996       3.18881677E-09
  -13.1400003      -1.41533463E-09
  -13.1300001      -5.45731904E-09
  -13.1199999      -8.12028755E-09
  -13.1099997      -8.96354901E-09
  -13.1000004      -8.03775890E-09
  -13.0900002      -5.86799809E-09
  -13.0799999      -3.30166383E-09
  -13.0699997      -1.25579647E-09
  -13.0600004      -4.29702968E-10
  -13.0500002      -1.06403419E-09
  -13.0400000      -2.82140400E-09
  -13.0299997      -4.83549867E-09
  -13.0200005      -5.93161342E-09
  -13.0100002      -4.97231545E-09
  -13.0000000      -1.24096888E-09
  -12.9899998       5.24457100E-09
  -12.9799995       1.35879059E-08
  -12.9700003       2.21027339E-08
  -12.9600000       2.86390023E-08
  -12.9499998       3.10857828E-08
  -12.9399996       2.79348065E-08
  -12.9300003       1.87592679E-08
  -12.9200001       4.47039783E-09
  -12.9099998      -1.27400304E-08
  -12.8999996      -2.97885592E-08
  -12.8900003      -4.33511858E-08
  -12.8800001      -5.06333393E-08
  -12.8699999      -5.00711010E-08
  -12.8599997      -4.17792876E-08
  -12.8500004      -2.76122041E-08
  -12.8400002      -1.07923803E-08
  -12.8299999       4.83089257E-09
  -12.8199997       1.57333417E-08
  -12.8100004       1.96550651E-08
  -12.8000002       1.62933542E-08
  -12.7900000       7.56177965E-09
  -12.7799997      -2.67733902E-09
  -12.7700005      -9.37996347E-09
  -12.7600002      -7.44209183E-09
  -12.7500000       7.05344005E-09
  -12.7399998       3.57275667E-08
  -12.7299995       7.71690267E-08
  -12.7200003       1.26727585E-07
  -12.7100000       1.76882367E-07
  -12.6999998       2.18117776E-07
  -12.6899996       2.40150086E-07
  -12.6800003       2.33304192E-07
  -12.6700001       1.89846332E-07
  -12.6599998       1.05127981E-07
  -12.6499996      -2.15317808E-08
  -12.6400003      -1.86232526E-07
  -12.6300001      -3.80113903E-07
  -12.6199999      -5.89185504E-07
  -12.6099997      -7.94384675E-07
  -12.6000004      -9.71954250E-07
  -12.5900002      -1.09430459E-06
  -12.5799999      -1.13155670E-06
  -12.5699997      -1.05393610E-06
  -12.5600004      -8.35080414E-07
  -12.5500002      -4.56143084E-07
  -12.5400000       8.96371475E-08
  -12.5299997       7.92453420E-07
  -12.5200005       1.62223921E-06
  -12.5100002       2.52652762E-06
  -12.5000000       3.43052966E-06
  -12.4899998       4.23986467E-06
  -12.4799995       4.84603515E-06
  -12.4700003       5.13432315E-06
  -12.4600000       4.99337739E-06
  -12.4499998       4.32548904E-06
  -12.4399996       3.05635126E-06
  -12.4300003       1.14318959E-06
  -12.4200001      -1.41966404E-06
  -12.4099998      -4.59829562E-06
  -12.3999996      -8.31994475E-06
  -12.3900003      -1.24766393E-05
  -12.3800001      -1.69311006E-05
  -12.3699999      -2.15241380E-05
  -12.3599997      -2.60827001E-05
  -12.3500004      -3.04279911E-05
  -12.3400002      -3.43831562E-05
  -12.3299999      -3.77803917E-05
  -12.3199997      -4.04673629E-05
  -12.3100004      -4.23130004E-05
  -12.3000002      -4.32125307E-05
  -12.2900000      -4.30914952E-05
  -12.2799997      -4.19085009E-05
  -12.2700005      -3.96561445E-05
  -12.2600002      -3.63598338E-05
  -12.2500000      -3.20743893E-05
  -12.2399998      -2.68787226E-05
  -12.2299995      -2.08692800E-05
  -12.2200003      -1.41532710E-05
  -12.2100000      -6.84289762E-06
  -12.1999998       9.48378897E-07
  -12.1899996       9.10690596E-06
  -12.1800003       1.75172554E-05
  -12.1700001       2.60586276E-05
  -12.1599998       3.46006818E-05
  -12.1499996       4.30003311E-05
  -12.1400003       5.11012004E-05
  -12.1300001       5.87368449E-05
  -12.1199999       6.57381097E-05
  -12.1099997       7.19439122E-05
  -12.1000004       7.72139538E-05
  -12.0900002       8.14412197E-05
  -12.0799999       8.45616814E-05
  -12.0699997       8.65594702E-05
  -12.0600004       8.74661273E-05
  -12.0500002       8.73537210E-05
  -12.0400000       8.63230816E-05
  -12.0299997       8.44888782E-05
  -12.0200005       8.19641573E-05
  -12.0100002       7.88467150E-05
  -12.0000000       7.52092819E-05
  -11.9899998       7.10948225E-05
  -11.9799995       6.65168482E-05
  -11.9700003       6.14640740E-05
  -11.9600000       5.59079344E-05
  -11.9499998       4.98112749E-05
  -11.9399996       4.31367953E-05
  -11.9300003       3.58541256E-05
  -11.9200001       2.79451178E-05
  -11.9099998       1.94076692E-05
  -11.8999996       1.02584736E-05
  -11.8900003       5.35380480E-07
  -11.8800001      -9.70017936E-06
  -11.8699999      -2.03607906E-05
  -11.8599997      -3.13310484E-05
  -11.8500004      -4.24667669E-05
  -11.8400002      -5.35965301E-05
  -11.8299999      -6.45260880E-05
  -11.8199997      -7.50462495E-05
  -11.8100004      -8.49438802E-05
  -11.8000002      -9.40150203E-05
  -11.7900000      -1.02078673E-04
  -11.7799997      -1.08989509E-04
  -11.7700005      -1.14647424E-04
  -11.7600002      -1.19002798E-04
  -11.7500000      -1.22056445E-04
  -11.7399998      -1.23854159E-04
  -11.7299995      -1.24476690E-04
  -11.7200003      -1.24026861E-04
  -11.7100000      -1.22615238E-04
  -11.6999998      -1.20346798E-04
  -11.6899996      -1.17310337E-04
  -11.6800003      -1.13571630E-04
  -11.6700001      -1.09171342E-04
  -11.6599998      -1.04127030E-04
  -11.6499996      -9.84389408E-05
  -11.6400003      -9.20976017E-05
  -11.6300001      -8.50922079E-05
  -11.6199999      -7.74179935E-05
  -11.6099997      -6.90816742E-05
  -11.6000004      -6.01043866E-05
  -11.5900002      -5.05223106E-05
  -11.5799999      -4.03852173E-05
  -11.5699997      -2.97543793E-05
  -11.5600004      -1.87001824E-05
  -11.5500002      -7.30045804E-06
  -11.5400000       4.36019991E-06
  -11.5299997       1.61904827E-05
  -11.5200005       2.80921031E-05
  -11.5100002       3.99600831E-05
  -11.5000000       5.16842010E-05
  -11.4899998       6.31519870E-05
  -11.4799995       7.42529883E-05
  -11.4700003       8.48839118E-05
  -11.4600000       9.49535897E-05
  -11.4499998       1.04386912E-04
  -11.4399996       1.13126611E-04
  -11.4300003       1.21132951E-04
  -11.4200001       1.28380998E-04
  -11.4099998       1.34856586E-04
  -11.3999996       1.40551681E-04
  -11.3900003       1.45460202E-04
  -11.3800001       1.49575513E-04
  -11.3699999       1.52889508E-04
  -11.3599997       1.55393544E-04
  -11.3500004       1.57080940E-04
  -11.3400002       1.57949471E-04
  -11.3299999       1.58004463E-04
  -11.3199997       1.57260743E-04
  -11.3100004       1.55744172E-04
  -11.3000002       1.53492496E-04
  -11.2900000       1.50555701E-04
  -11.2799997       1.46996332E-04
  -11.2700005       1.42889374E-04
  -11.2600002       1.38321644E-04
  -11.2500000       1.33389636E-04
  -11.2399998       1.28195679E-04
  -11.2299995       1.22841870E-04
  -11.2200003       1.17422147E-04
  -11.2100000       1.12013702E-04
  -11.1999998       1.06669198E-04
  -11.1899996       1.01411599E-04
  -11.1800003       9.62334088E-05
  -11.1700001       9.11014649E-05
  -11.1599998       8.59668289E-05
  -11.1499996       8.07785764E-05
  -11.1400003       7.54992361E-05
  -11.1300001       7.01186509E-05
  -11.1199999       6.46637200E-05
  -11.1099997       5.92017896E-05
  -11.1000004       5.38368622E-05
  -11.0900002       4.86996287E-05
  -11.0799999       4.39329488E-05
  -11.0699997       3.96758405E-05
  -11.0600004       3.60489066E-05
  -11.0500002       3.31434167E-05
  -11.0400000       3.10156684E-05
  -11.0299997       2.96862399E-05
  -11.0200005       2.91433480E-05
  -11.0100002       2.93484882E-05
  -11.0000000       3.02419758E-05
  -10.9899998       3.17474405E-05
  -10.9799995       3.37738893E-05
  -10.9700003       3.62160681E-05
  -10.9600000       3.89537854E-05
  -10.9499998       4.18517229E-05
  -10.9399996       4.47611419E-05
  -10.9300003       4.75245615E-05
  -10.9200001       4.99833914E-05
  -10.9099998       5.19885616E-05
  -10.8999996       5.34123355E-05
  -10.8900003       5.41599693E-05
  -10.8800001       5.41794761E-05
  -10.8699999       5.34675091E-05
  -10.8599997       5.20704380E-05
  -10.8500004       5.00797723E-05
  -10.8400002       4.76221867E-05
  -10.8299999       4.48448336E-05
  -10.8199997       4.18977579E-05
  -10.8100004       3.89157285E-05
  -10.8000002       3.60016966E-05
  -10.7900000       3.32149539E-05
  -10.7799997       3.05654685E-05
  -10.7700005       2.80160220E-05
  -10.7600002       2.54913557E-05
  -10.7500000       2.28934441E-05
  -10.7399998       2.01194198E-05
  -10.7299995       1.70796193E-05
  -10.7200003       1.37119523E-05
  -10.7100000       9.99052645E-06
  -10.6999998       5.92735842E-06
  -10.6899996       1.56793396E-06
  -10.6800003      -3.01733007E-06
  -10.6700001      -7.74300406E-06
  -10.6599998      -1.25169272E-05
  -10.6499996      -1.72447708E-05
  -10.6400003      -2.18303594E-05
  -10.6300001      -2.61724526E-05
  -10.6199999      -3.01598102E-05
  -10.6099997      -3.36677258E-05
  -10.6000004      -3.65575688E-05
  -10.5900002      -3.86814354E-05
  -10.5799999      -3.98914344E-05
  -10.5699997      -4.00524586E-05
  -10.5600004      -3.90559035E-05
  -10.5500002      -3.68318215E-05
  -10.5400000      -3.33574208E-05
  -10.5299997      -2.86599607E-05
  -10.5200005      -2.28143253E-05
  -10.5100002      -1.59358842E-05
  -10.5000000      -8.17002365E-06
  -10.4899998       3.20060877E-07
  -10.4799995       9.36506422E-06
  -10.4700003       1.88003341E-05
  -10.4600000       2.84737889E-05
  -10.4499998       3.82512408E-05
  -10.4399996       4.80181916E-05
  -10.4300003       5.76783896E-05
  -10.4200001       6.71493544E-05
  -10.4099998       7.63554199E-05
  -10.3999996       8.52199519E-05
  -10.3900003       9.36580400E-05
  -10.3800001       1.01571510E-04
  -10.3699999       1.08848275E-04
  -10.3599997       1.15365910E-04
  -10.3500004       1.21000259E-04
  -10.3400002       1.25637234E-04
  -10.3299999       1.29185893E-04
  -10.3199997       1.31590292E-04
  -10.3100004       1.32837886E-04
  -10.3000002       1.32963163E-04
  -10.2900000       1.32046349E-04
  -10.2799997       1.30207191E-04
  -10.2700005       1.27596039E-04
  -10.2600002       1.24382917E-04
  -10.2500000       1.20746503E-04
  -10.2399998       1.16863543E-04
  -10.2299995       1.12899019E-04
  -10.2200003       1.08997097E-04
  -10.2100000       1.05273684E-04
  -10.1999998       1.01810125E-04
  -10.1899996       9.86494924E-05
  -10.1800003       9.57965312E-05
  -10.1700001       9.32214025E-05
  -10.1599998       9.08673755E-05
  -10.1499996       8.86614289E-05
  -10.1400003       8.65267211E-05
  -10.1300001       8.43939197E-05
  -10.1199999       8.22102957E-05
  -10.1099997       7.99451591E-05
  -10.1000004       7.75920635E-05
  -10.0900002       7.51676707E-05
  -10.0799999       7.27091465E-05
  -10.0699997       7.02710604E-05
  -10.0600004       6.79220830E-05
  -10.0500002       6.57420387E-05
  -10.0400000       6.38173588E-05
  -10.0299997       6.22359221E-05
  -10.0200005       6.10793795E-05
  -10.0100002       6.04142151E-05
  -10.0000000       6.02836590E-05
  -9.98999977       6.07017791E-05
  -9.97999954       6.16519319E-05
  -9.97000027       6.30907598E-05
  -9.96000004       6.49573121E-05
  -9.94999981       6.71853413E-05
  -9.93999958       6.97153810E-05
  -9.93000031       7.25041682E-05
  -9.92000008       7.55289075E-05
  -9.90999985       7.87857425E-05
  -9.89999962       8.22835718E-05
  -9.89000034       8.60360960E-05
  -9.88000011       9.00543309E-05
  -9.86999989       9.43431587E-05
  -9.85999966       9.89018154E-05
  -9.85000038       1.03728104E-04
  -9.84000015       1.08824977E-04
  -9.82999992       1.14205766E-04
  -9.81999969       1.19896351E-04
  -9.81000042       1.25933031E-04
  -9.80000019       1.32356450E-04
  -9.78999996       1.39203417E-04
  -9.77999973       1.46498292E-04
  -9.77000046       1.54247246E-04
  -9.76000023       1.62435230E-04
  -9.75000000       1.71026899E-04
  -9.73999977       1.79969313E-04
  -9.72999954       1.89196071E-04
  -9.72000027       1.98629801E-04
  -9.71000004       2.08184065E-04
  -9.69999981       2.17762965E-04
  -9.68999958       2.27260520E-04
  -9.68000031       2.36560983E-04
  -9.67000008       2.45540810E-04
  -9.65999985       2.54073268E-04
  -9.64999962       2.62034562E-04
  -9.64000034       2.69311626E-04
  -9.63000011       2.75808590E-04
  -9.61999989       2.81452434E-04
  -9.60999966       2.86194700E-04
  -9.60000038       2.90010823E-04
  -9.59000015       2.92896875E-04
  -9.57999992       2.94862781E-04
  -9.56999969       2.95926206E-04
  -9.56000042       2.96105340E-04
  -9.55000019       2.95413687E-04
  -9.53999996       2.93856865E-04
  -9.52999973       2.91432429E-04
  -9.52000046       2.88132927E-04
  -9.51000023       2.83952657E-04
  -9.50000000       2.78894964E-04
  -9.48999977       2.72981822E-04
  -9.47999954       2.66260467E-04
  -9.47000027       2.58807646E-04
  -9.46000004       2.50729849E-04
  -9.44999981       2.42157854E-04
  -9.43999958       2.33238781E-04
  -9.43000031       2.24126110E-04
  -9.42000008       2.14968721E-04
  -9.40999985       2.05903329E-04
  -9.39999962       1.97049696E-04
  -9.39000034       1.88509061E-04
  -9.38000011       1.80366274E-04
  -9.36999989       1.72693748E-04
  -9.35999966       1.65556470E-04
  -9.35000038       1.59017014E-04
  -9.34000015       1.53140674E-04
  -9.32999992       1.47999672E-04
  -9.31999969       1.43677011E-04
  -9.31000042       1.40269462E-04
  -9.30000019       1.37888637E-04
  -9.28999996       1.36660921E-04
  -9.27999973       1.36723611E-04
  -9.27000046       1.38218093E-04
  -9.26000023       1.41281300E-04
  -9.25000000       1.46034814E-04
  -9.23999977       1.52574154E-04
  -9.22999954       1.60959098E-04
  -9.22000027       1.71205596E-04
  -9.21000004       1.83279670E-04
  -9.19999981       1.97093599E-04
  -9.18999958       2.12503728E-04
  -9.18000031       2.29311307E-04
  -9.17000008       2.47266551E-04
  -9.15999985       2.66079238E-04
  -9.14999962       2.85432470E-04
  -9.14000034       3.05003923E-04
  -9.13000011       3.24487541E-04
  -9.11999989       3.43615597E-04
  -9.10999966       3.62171821E-04
  -9.10000038       3.79996723E-04
  -9.09000015       3.96979332E-04
  -9.07999992       4.13039728E-04
  -9.06999969       4.28105355E-04
  -9.06000042       4.42090328E-04
  -9.05000019       4.54882887E-04
  -9.03999996       4.66345955E-04
  -9.02999973       4.76331043E-04
  -9.02000046       4.84702585E-04
  -9.01000023       4.91363287E-04
  -9.00000000       4.96273977E-04
  -8.98999977       4.99460788E-04
  -8.97999954       5.01007889E-04
  -8.97000027       5.01039554E-04
  -8.96000004       4.99695307E-04
  -8.94999981       4.97109955E-04
  -8.93999958       4.93399799E-04
  -8.93000031       4.88662627E-04
  -8.92000008       4.82986827E-04
  -8.90999985       4.76462941E-04
  -8.89999962       4.69194143E-04
  -8.89000034       4.61296993E-04
  -8.88000011       4.52893291E-04
  -8.86999989       4.44094650E-04
  -8.85999966       4.34987742E-04
  -8.85000038       4.25625884E-04
  -8.84000015       4.16032359E-04
  -8.82999992       4.06215404E-04
  -8.81999969       3.96194140E-04
  -8.81000042       3.86021624E-04
  -8.80000019       3.75804870E-04
  -8.78999996       3.65708576E-04
  -8.77999973       3.55949014E-04
  -8.77000046       3.46776244E-04
  -8.76000023       3.38453072E-04
  -8.75000000       3.31240532E-04
  -8.73999977       3.25388362E-04
  -8.72999954       3.21135216E-04
  -8.72000027       3.18711827E-04
  -8.71000004       3.18339735E-04
  -8.69999981       3.20221763E-04
  -8.68999958       3.24521679E-04
  -8.68000031       3.31338524E-04
  -8.67000008       3.40678409E-04
  -8.65999985       3.52439325E-04
  -8.64999962       3.66413704E-04
  -8.64000034       3.82308994E-04
  -8.63000011       3.99784418E-04
  -8.61999989       4.18492273E-04
  -8.60999966       4.38113464E-04
  -8.60000038       4.58375463E-04
  -8.59000015       4.79049806E-04
  -8.57999992       4.99933667E-04
  -8.56999969       5.20821370E-04
  -8.56000042       5.41480491E-04
  -8.55000019       5.61643625E-04
  -8.53999996       5.81016240E-04
  -8.52999973       5.99301071E-04
  -8.52000046       6.16231002E-04
  -8.51000023       6.31596195E-04
  -8.50000000       6.45258406E-04
  -8.48999977       6.57147029E-04
  -8.47999954       6.67241577E-04
  -8.47000027       6.75547111E-04
  -8.46000004       6.82074460E-04
  -8.44999981       6.86837069E-04
  -8.43999958       6.89862471E-04
  -8.43000031       6.91218593E-04
  -8.42000008       6.91044377E-04
  -8.40999985       6.89570617E-04
  -8.39999962       6.87125139E-04
  -8.39000034       6.84115745E-04
  -8.38000011       6.80991216E-04
  -8.36999989       6.78198412E-04
  -8.35999966       6.76137628E-04
  -8.35000038       6.75132847E-04
  -8.34000015       6.75421499E-04
  -8.32999992       6.77161268E-04
  -8.31999969       6.80448546E-04
  -8.31000042       6.85339386E-04
  -8.30000019       6.91863359E-04
  -8.28999996       7.00025179E-04
  -8.27999973       7.09799118E-04
  -8.27000046       7.21116201E-04
  -8.26000023       7.33858498E-04
  -8.25000000       7.47860060E-04
  -8.23999977       7.62922224E-04
  -8.22999954       7.78840622E-04
  -8.22000027       7.95434462E-04
  -8.21000004       8.12570564E-04
  -8.19999981       8.30177392E-04
  -8.18999958       8.48242373E-04
  -8.18000031       8.66796589E-04
  -8.17000008       8.85887712E-04
  -8.15999985       9.05556837E-04
  -8.14999962       9.25817469E-04
  -8.14000034       9.46644635E-04
  -8.13000011       9.67973610E-04
  -8.11999989       9.89710097E-04
  -8.10999966       1.01174007E-03
  -8.10000038       1.03393663E-03
  -8.09000015       1.05616730E-03
  -8.07999992       1.07829226E-03
  -8.06999969       1.10016495E-03
  -8.06000042       1.12163008E-03
  -8.05000019       1.14252139E-03
  -8.03999996       1.16266799E-03
  -8.02999973       1.18190073E-03
  -8.02000046       1.20005535E-03
  -8.01000023       1.21697970E-03
  -8.00000000       1.23252999E-03
  -7.98999977       1.24656688E-03
  -7.98000002       1.25895266E-03
  -7.96999979       1.26954622E-03
  -7.96000004       1.27820473E-03
  -7.94999981       1.28479174E-03
  -7.94000006       1.28919177E-03
  -7.92999983       1.29133090E-03
  -7.92000008       1.29119633E-03
  -7.90999985       1.28884974E-03
  -7.90000010       1.28443597E-03
  -7.88999987       1.27817784E-03
  -7.88000011       1.27035787E-03
  -7.86999989       1.26129552E-03
  -7.86000013       1.25131302E-03
  -7.84999990       1.24070840E-03
  -7.84000015       1.22973346E-03
  -7.82999992       1.21857866E-03
  -7.82000017       1.20738195E-03
  -7.80999994       1.19624031E-03
  -7.80000019       1.18523720E-03
  -7.78999996       1.17446517E-03
  -7.78000021       1.16404949E-03
  -7.76999998       1.15415349E-03
  -7.76000023       1.14497403E-03
  -7.75000000       1.13672100E-03
  -7.73999977       1.12958951E-03
  -7.73000002       1.12373312E-03
  -7.71999979       1.11924298E-03
  -7.71000004       1.11614529E-03
  -7.69999981       1.11441314E-03
  -7.69000006       1.11398951E-03
  -7.67999983       1.11482199E-03
  -7.67000008       1.11689034E-03
  -7.65999985       1.12021982E-03
  -7.65000010       1.12488109E-03
  -7.63999987       1.13097392E-03
  -7.63000011       1.13859761E-03
  -7.61999989       1.14782283E-03
  -7.61000013       1.15867204E-03
  -7.59999990       1.17111322E-03
  -7.59000015       1.18507177E-03
  -7.57999992       1.20045105E-03
  -7.57000017       1.21716061E-03
  -7.55999994       1.23513374E-03
  -7.55000019       1.25433668E-03
  -7.53999996       1.27476000E-03
  -7.53000021       1.29640521E-03
  -7.51999998       1.31926825E-03
  -7.51000023       1.34332082E-03
  -7.50000000       1.36852078E-03
  -7.48999977       1.39482040E-03
  -7.48000002       1.42218918E-03
  -7.46999979       1.45063398E-03
  -7.46000004       1.48020813E-03
  -7.44999981       1.51100475E-03
  -7.44000006       1.54312863E-03