  -16.0000000       0.00000000    
  -15.9899998       0.00000000    
  -15.9799995       0.00000000    
  -15.9700003       0.00000000    
  -15.9600000       0.00000000    
  -15.9499998       0.00000000    
  -15.9399996       0.00000000    
  -15.9300003       0.00000000    
  -15.9200001       0.00000000    
  -15.9099998       0.00000000    
  -15.8999996       0.00000000    
  -15.8900003       0.00000000    
  -15.8800001       0.00000000    
  -15.8699999       0.00000000    
  -15.8599997       0.00000000    
  -15.8500004      -0.00000000    
  -15.8400002      -4.20389539E-45
  -15.8299999      -4.20389539E-44
  -15.8199997      -3.29305139E-43
  -15.8100004      -2.09914510E-42
  -15.8000002      -1.12426176E-41
  -15.7900000      -5.18802730E-41
  -15.7799997      -2.10030818E-40
  -15.7700005      -7.55847780E-40
  -15.7600002      -2.44123008E-39
  -15.7500000      -7.12343909E-39
  -15.7399998      -1.88553551E-38
  -15.7299995      -4.53374059E-38
  -15.7200003      -9.88547571E-38
  -15.7100000      -1.94231873E-37
  -15.6999998      -3.39015846E-37
  -15.6899996      -5.09253745E-37
  -15.6800003      -6.05996879E-37
  -15.6700001      -3.98235123E-37
  -15.6599998       5.17501765E-37
  -15.6499996       2.67269723E-36
  -15.6400003       6.49328113E-36
  -15.6300001       1.17767501E-35
  -15.6199999       1.68828611E-35
  -15.6099997       1.78960678E-35
  -15.6000004       8.41478176E-36
  -15.5900002      -1.89940846E-35
  -15.5799999      -6.86204527E-35
  -15.5699997      -1.34510912E-34
  -15.5600004      -1.92343512E-34
  -15.5500002      -1.95334123E-34
  -15.5400000      -8.20673160E-35
  -15.5299997       1.96123449E-34
  -15.5200005       6.27480767E-34
  -15.5100002       1.08657417E-33
  -15.5000000       1.31108514E-33
  -15.4899998       9.58728601E-34
  -15.4799995      -2.17797889E-34
  -15.4700003      -2.09935577E-33
  -15.4600000      -3.96236150E-33
  -15.4499998      -4.51964243E-33
  -15.4399996      -2.50763030E-33
  -15.4300003       2.11949364E-33
  -15.4200001       6.84706578E-33
  -15.4099998       6.28121145E-33
  -15.3999996      -5.52100566E-33
  -15.3900003      -2.90401589E-32
  -15.3800001      -5.09630580E-32
  -15.3699999      -3.90466339E-32
  -15.3599997       5.02021487E-32
  -15.3500004       2.41406032E-31
  -15.3400002       4.87470689E-31
  -15.3299999       6.15333207E-31
  -15.3199997       3.20561847E-31
  -15.3100004      -7.20455315E-31
  -15.3000002      -2.57373567E-30
  -15.2900000      -4.65031471E-30
  -15.2799997      -5.39396027E-30
  -15.2700005      -2.43320165E-30
  -15.2600002       6.37496203E-30
  -15.2500000       2.08445008E-29
  -15.2399998       3.58391820E-29
  -15.2299995       3.97110715E-29
  -15.2200003       1.62800092E-29
  -15.2100000      -4.72964941E-29
  -15.1999998      -1.46576883E-28
  -15.1899996      -2.44242800E-28
  -15.1800003      -2.63278427E-28
  -15.1700001      -1.03449401E-28
  -15.1599998       3.07227523E-28
  -15.1499996       9.28910005E-28
  -15.1400003       1.52408014E-27
  -15.1300001       1.63055546E-27
  -15.1199999       6.71325686E-28
  -15.1099997      -1.74453315E-27
  -15.1000004      -5.36080713E-27
  -15.0900002      -8.82683584E-27
  -15.0799999      -9.59040697E-27
  -15.0699997      -4.52161050E-27
  -15.0600004       8.48897226E-27
  -15.0500002       2.81595086E-26
  -15.0400000       4.75760471E-26
  -15.0299997       5.36900396E-26
  -15.0200005       3.04087205E-26
  -15.0100002      -3.36296057E-26
  -15.0000000      -1.33617642E-25
  -14.9899998      -2.37709946E-25
  -14.9799995      -2.84094869E-25
  -14.9700003      -1.94408866E-25
  -14.9600000       9.15194514E-26
  -14.9499998       5.63810377E-25
  -14.9399996       1.09159584E-24
  -14.9300003       1.40456329E-24
  -14.9200001       1.14334985E-24
  -14.9099998       1.86712110E-27
  -14.8999996      -2.05228574E-24
  -14.8900003      -4.54917427E-24
  -14.8800001      -6.40576670E-24
  -14.8699999      -6.08316479E-24
  -14.8599997      -2.11724942E-24
  -14.8500004       6.00794375E-24
  -14.8400002       1.68883224E-23
  -14.8299999       2.65980705E-23
  -14.8199997       2.90450854E-23
  -14.8100004       1.77463822E-23
  -14.8000002      -1.09719397E-23
  -14.7900000      -5.41075277E-23
  -14.7799997      -9.90568347E-23
  -14.7700005      -1.23787978E-22
  -14.7600002      -1.02025003E-22
  -14.7500000      -1.39657726E-23
  -14.7399998       1.39470621E-22
  -14.7299995       3.23915704E-22
  -14.7200003       4.67710708E-22
  -14.7100000       4.74301143E-22
  -14.6999998       2.54500488E-22
  -14.6899996      -2.25444961E-22
  -14.6800003      -8.94200115E-22
  -14.6700001      -1.54727950E-21
  -14.6599998      -1.86653426E-21
  -14.6499996      -1.50491568E-21
  -14.6400003      -2.32990687E-22
  -14.6300001       1.88748358E-21
  -14.6199999       4.36919304E-21
  -14.6099997       6.28770397E-21
  -14.6000004       6.46384780E-21
  -14.5900002       3.85941310E-21
  -14.5799999      -1.88171493E-21
  -14.5699997      -9.91544308E-21
  -14.5600004      -1.79456624E-20
  -14.5500002      -2.24848160E-20
  -14.5400000      -1.97673403E-20
  -14.5299997      -7.23790872E-21
  -14.5200005       1.47520941E-20
  -14.5100002       4.16708971E-20
  -14.5000000       6.47007880E-20
  -14.4899998       7.23919779E-20
  -14.4799995       5.41916360E-20
  -14.4700003       5.22570302E-21
  -14.4600000      -6.90899505E-20
  -14.4499998      -1.50587959E-19
  -14.4399996      -2.09988885E-19
  -14.4300003      -2.13749648E-19
  -14.4200001      -1.35578457E-19
  -14.4099998       3.00364628E-20
  -14.3999996       2.56836530E-19
  -14.3900003       4.83727571E-19
  -14.3800001       6.24047336E-19
  -14.3699999       5.88467920E-19
  -14.3599997       3.18023752E-19
  -14.3500004      -1.81511512E-19
  -14.3400002      -8.16510293E-19
  -14.3299999      -1.40663666E-18
  -14.3199997      -1.71881783E-18
  -14.3100004      -1.53332764E-18
  -14.3000002      -7.29000323E-19
  -14.2900000       6.37056768E-19
  -14.2799997       2.28634913E-18
  -14.2700005       3.74070884E-18
  -14.2600002       4.42288924E-18
  -14.2500000       3.82621119E-18
  -14.2399998       1.71544314E-18
  -14.2299995      -1.70200724E-18
  -14.2200003      -5.70404808E-18
  -14.2100000      -9.13688898E-18
  -14.1999998      -1.06716258E-17
  -14.1899996      -9.19835677E-18
  -14.1800003      -4.26383151E-18
  -14.1700001       3.58295805E-18
  -14.1599998       1.26795778E-17
  -14.1499996       2.04756004E-17
  -14.1400003       2.41118053E-17
  -14.1300001       2.12569238E-17
  -14.1199999       1.09960179E-17
  -14.1099997      -5.50464337E-18
  -14.1000004      -2.48264232E-17
  -14.0900002      -4.17970128E-17
  -14.0799999      -5.06613549E-17
  -14.0699997      -4.67134303E-17
  -14.0600004      -2.79836558E-17
  -14.0500002       3.53028236E-18
  -14.0400000       4.15690584E-17
  -14.0299997       7.65433367E-17
  -14.0200005       9.76626474E-17
  -14.0100002       9.58600686E-17
  -14.0000000       6.67911618E-17
  -13.9899998       1.30275115E-17
  -13.9799995      -5.53543012E-17
  -13.9700003      -1.22251127E-16
  -13.9600000      -1.69008365E-16
  -13.9499998      -1.79221425E-16
  -13.9399996      -1.43695831E-16
  -13.9300003      -6.41697867E-17
  -13.9200001       4.54502196E-17
  -13.9099998       1.61056645E-16
  -13.8999996       2.53409706E-16
  -13.8900003       2.95309011E-16
  -13.8800001       2.69143872E-16
  -13.8699999       1.72774366E-16
  -13.8599997       2.19208686E-17
  -13.8500004      -1.51988098E-16
  -13.8400002      -3.08405914E-16
  -13.8299999      -4.07340977E-16
  -13.8199997      -4.19763668E-16
  -13.8100004      -3.35976280E-16
  -13.8000002      -1.69490922E-16
  -13.7900000       4.49872963E-17
  -13.7799997       2.59340180E-16
  -13.7700005       4.23817647E-16
  -13.7600002       4.99802749E-16
  -13.7500000       4.70061146E-16
  -13.7399998       3.43469213E-16
  -13.7299995       1.52629567E-16
  -13.7200003      -5.52291819E-17
  -13.7100000      -2.31655094E-16
  -13.6999998      -3.40819376E-16
  -13.6899996      -3.69571936E-16
  -13.6800003      -3.30373554E-16
  -13.6700001      -2.55797015E-16
  -13.6599998      -1.85914944E-16
  -13.6499996      -1.52355353E-16
  -13.6400003      -1.64299166E-16
  -13.6300001      -2.01637318E-16
  -13.6199999      -2.18719008E-16
  -13.6099997      -1.58964989E-16
  -13.6000004       2.30652680E-17
  -13.5900002       3.38660872E-16
  -13.5799999       7.48936262E-16
  -13.5699997       1.16277327E-15
  -13.5600004       1.45232354E-15
  -13.5500002       1.48458406E-15
  -13.5400000       1.16211015E-15
  -13.5299997       4.61826292E-16
  -13.5200005      -5.40436719E-16
  -13.5100002      -1.66972630E-15
  -13.5000000      -2.68036694E-15
  -13.4899998      -3.30935900E-15
  -13.4799995      -3.34321681E-15
  -13.4700003      -2.68109581E-15
  -13.4600000      -1.37585150E-15
  -13.4499998       3.61239567E-16
  -13.4399996       2.19759225E-15
  -13.4300003       3.75232419E-15
  -13.4200001       4.68825240E-15
  -13.4099998       4.79881053E-15
  -13.3999996       4.06498269E-15
  -13.3900003       2.66378373E-15
  -13.3800001       9.22386904E-16
  -13.3699999      -7.72467737E-16
  -13.3599997      -2.08590037E-15
  -13.3500004      -2.83477893E-15
  -13.3400002      -3.04406129E-15
  -13.3299999      -2.93766082E-15
  -13.3199997      -2.85977974E-15
  -13.3100004      -3.14380408E-15
  -13.3000002      -3.96453517E-15
  -13.2900000      -5.21978209E-15
  -13.2799997      -6.48528108E-15
  -13.2700005      -7.07156679E-15
  -13.2600002      -6.18550384E-15
  -13.2500000      -3.16874623E-15
  -13.2399998       2.24173898E-15
  -13.2299995       9.70182644E-15
  -13.2200003       1.81667629E-14
  -13.2100000       2.59659627E-14
  -13.1999998       3.10601324E-14
  -13.1899996       3.14503977E-14
  -13.1800003       2.56661029E-14
  -13.1700001       1.32273961E-14
  -13.1599998      -5.03064726E-15
  -13.1499996      -2.68693809E-14
  -13.1400003      -4.88494133E-14
  -13.1300001      -6.68226460E-14
  -13.1199999      -7.66473405E-14
  -13.1099997      -7.50044625E-14
  -13.1000004      -6.01590379E-14
  -13.0900002      -3.25071154E-14
  -13.0799999       5.22148251E-15
  -13.0699997       4.81756087E-14
  -13.0600004       9.00038575E-14
  -13.0500002       1.23798080E-13
  -13.0400000       1.43207183E-13
  -13.0299997       1.43530519E-13
  -13.0200005       1.22598410E-13
  -13.0100002       8.12821422E-14
  -13.0000000       2.35400028E-14
  -12.9899998      -4.40122453E-14
  -12.9799995      -1.12937634E-13
  -12.9700003      -1.74086101E-13
  -12.9600000      -2.18803410E-13
  -12.9499998      -2.40063178E-13
  -12.9399996      -2.33372946E-13
  -12.9300003      -1.97351426E-13
  -12.9200001      -1.33933758E-13
  -12.9099998      -4.82158123E-14
  -12.8999996       5.20095882E-14
  -12.8900003       1.56951207E-13
  -12.8800001       2.55674279E-13
  -12.8699999       3.37045225E-13
  -12.8599997       3.90713828E-13
  -12.8500004       4.08091556E-13
  -12.8400002       3.83285173E-13
  -12.8299999       3.13932718E-13
  -12.8199997       2.01868809E-13
  -12.8100004       5.35234597E-14
  -12.8000002      -1.20053693E-13
  -12.7900000      -3.03644913E-13
  -12.7799997      -4.78860875E-13
  -12.7700005      -6.25689984E-13
  -12.7600002      -7.24525474E-13
  -12.7500000      -7.58500250E-13
  -12.7399998      -7.15871264E-13
  -12.7299995      -5.92133168E-13
  -12.7200003      -3.91516111E-13
  -12.7100000      -1.27561969E-13
  -12.6999998       1.77441124E-13
  -12.6899996       4.94238656E-13
  -12.6800003       7.89504638E-13
  -12.6700001       1.02956966E-12
  -12.6599998       1.18454563E-12
  -12.6499996       1.23230918E-12
  -12.6400003       1.16177803E-12
  -12.6300001       9.74980513E-13
  -12.6199999       6.87557704E-13
  -12.6099997       3.27538533E-13
  -12.6000004      -6.75376706E-14
  -12.5900002      -4.54851001E-13
  -12.5799999      -7.91403022E-13
  -12.5699997      -1.03938581E-12
  -12.5600004      -1.17117665E-12
  -12.5500002      -1.17335211E-12
  -12.5400000      -1.04921193E-12
  -12.5299997      -8.19450736E-13
  -12.5200005      -5.20784425E-13
  -12.5100002      -2.02526675E-13
  -12.5000000       7.87223002E-14
  -12.4899998       2.65916521E-13
  -12.4799995       3.09416745E-13
  -12.4700003       1.75156629E-13
  -12.4600000      -1.47684219E-13
  -12.4499998      -6.40425755E-13
  -12.4399996      -1.25097187E-12
  -12.4300003      -1.89305819E-12
  -12.4200001      -2.44927603E-12
  -12.4099998      -2.77812777E-12
  -12.3999996      -2.72497649E-12
  -12.3900003      -2.13610163E-12
  -12.3800001      -8.74705310E-13
  -12.3699999       1.16267954E-12
  -12.3599997       4.03136248E-12
  -12.3500004       7.72696750E-12
  -12.3400002       1.21789176E-11
  -12.3299999       1.72499705E-11
  -12.3199997       2.27422456E-11
  -12.3100004       2.84094259E-11
  -12.3000002       3.39738793E-11
  -12.2900000       3.91468941E-11
  -12.2799997       4.36496880E-11
  -12.2700005       4.72332173E-11
  -12.2600002       4.96938844E-11
  -12.2500000       5.08843002E-11
  -12.2399998       5.07177043E-11
  -12.2299995       4.91664869E-11
  -12.2200003       4.62552115E-11
  -12.2100000       4.20500371E-11
  -12.1999998       3.66463665E-11
  -12.1899996       3.01564954E-11
  -12.1800003       2.26988220E-11
  -12.1700001       1.43899163E-11
  -12.1599998       5.33937217E-12
  -12.1499996      -4.35245286E-12
  -12.1400003      -1.45949832E-11
  -12.1300001      -2.53065485E-11
  -12.1199999      -3.64134209E-11
  -12.1099997      -4.78485446E-11
  -12.1000004      -5.95497193E-11
  -12.0900002      -7.14571180E-11
  -12.0799999      -8.35087902E-11
  -12.0699997      -9.56341326E-11
  -12.0600004      -1.07745056E-10
  -12.0500002      -1.19726090E-10
  -12.0400000      -1.31424913E-10
  -12.0299997      -1.42645853E-10
  -12.0200005      -1.53148522E-10
  -12.0100002      -1.62653765E-10
  -12.0000000      -1.70857370E-10
  -11.9899998      -1.77450235E-10
  -11.9799995      -1.82144230E-10
  -11.9700003      -1.84697410E-10
  -11.9600000      -1.84937080E-10
  -11.9499998      -1.82774545E-10
  -11.9399996      -1.78208906E-10
  -11.9300003      -1.71319930E-10
  -11.9200001      -1.62250255E-10
  -11.9099998      -1.51179583E-10
  -11.8999996      -1.38296069E-10
  -11.8900003      -1.23770216E-10
  -11.8800001      -1.07735328E-10
  -11.8699999      -9.02769803E-11
  -11.8599997      -7.14338935E-11
  -11.8500004      -5.12077082E-11
  -11.8400002      -2.95811431E-11
  -11.8299999      -6.53698319E-12
  -11.8199997       1.79217301E-11
  -11.8100004       4.37572339E-11
  -11.8000002       7.08872752E-11
  -11.7900000       9.91825580E-11
  -11.7799997       1.28468874E-10
  -11.7700005       1.58534880E-10
  -11.7600002       1.89138483E-10
  -11.7500000       2.20014923E-10
  -11.7399998       2.50882981E-10
  -11.7299995       2.81449558E-10
  -11.7200003       3.11413062E-10
  -11.7100000       3.40466821E-10
  -11.6999998       3.68304026E-10
  -11.6899996       3.94624361E-10
  -11.6800003       4.19140306E-10
  -11.6700001       4.41587239E-10
  -11.6599998       4.61730099E-10
  -11.6499996       4.79369822E-10
  -11.6400003       4.94345120E-10
  -11.6300001       5.06529818E-10
  -11.6199999       5.15826937E-10
  -11.6099997       5.22157095E-10
  -11.6000004       5.25446187E-10
  -11.5900002       5.25610944E-10
  -11.5799999       5.22546617E-10
  -11.5699997       5.16121090E-10
  -11.5600004       5.06167774E-10
  -11.5500002       4.92491048E-10
  -11.5400000       4.74871531E-10
  -11.5299997       4.53083210E-10
  -11.5200005       4.26903124E-10
  -11.5100002       3.96133293E-10
  -11.5000000       3.60613484E-10
  -11.4899998       3.20235866E-10
  -11.4799995       2.74955114E-10
  -11.4700003       2.24791769E-10
  -11.4600000       1.69834466E-10
  -11.4499998       1.10235446E-10
  -11.4399996       4.62035930E-11
  -11.4300003      -2.20035448E-11
  -11.4200001      -9.40922618E-11
  -11.4099998      -1.69743150E-10
  -11.3999996      -2.48624954E-10
  -11.3900003      -3.30407701E-10
  -11.3800001      -4.14776741E-10
  -11.3699999      -5.01443831E-10
  -11.3599997      -5.90161975E-10
  -11.3500004      -6.80732970E-10
  -11.3400002      -7.73013042E-10
  -11.3299999      -8.66912098E-10
  -11.3199997      -9.62391722E-10
  -11.3100004      -1.05945086E-09
  -11.3000002      -1.15810983E-09
  -11.2900000      -1.25839061E-09
  -11.2799997      -1.36029521E-09
  -11.2700005      -1.46378243E-09
  -11.2600002      -1.56875091E-09
  -11.2500000      -1.67502534E-09
  -11.2399998      -1.78235460E-09
  -11.2299995      -1.89040872E-09
  -11.2200003      -1.99879113E-09
  -11.2100000      -2.10705564E-09
  -11.1999998      -2.21472529E-09
  -11.1899996      -2.32131114E-09
  -11.1800003      -2.42633758E-09
  -11.1700001      -2.52936405E-09
  -11.1599998      -2.62999711E-09
  -11.1499996      -2.72789502E-09
  -11.1400003      -2.82277801E-09
  -11.1300001      -2.91442204E-09
  -11.1199999      -3.00265168E-09
  -11.1099997      -3.08733217E-09
  -11.1000004      -3.16836424E-09
  -11.0900002      -3.24566951E-09
  -11.0799999      -3.31920691E-09
  -11.0699997      -3.38895423E-09
  -11.0600004      -3.45492857E-09
  -11.0500002      -3.51719076E-09
  -11.0400000      -3.57585361E-09
  -11.0299997      -3.63108366E-09
  -11.0200005      -3.68309827E-09
  -11.0100002      -3.73216924E-09
  -11.0000000      -3.77859077E-09
  -10.9899998      -3.82266796E-09
  -10.9799995      -3.86468901E-09
  -10.9700003      -3.90489996E-09
  -10.9600000      -3.94348820E-09
  -10.9499998      -3.98055411E-09
  -10.9399996      -4.01612521E-09
  -10.9300003      -4.05013267E-09
  -10.9200001      -4.08248146E-09
  -10.9099998      -4.11299261E-09
  -10.8999996      -4.14149559E-09
  -10.8900003      -4.16781853E-09
  -10.8800001      -4.19180557E-09
  -10.8699999      -4.21333857E-09
  -10.8599997      -4.23232649E-09
  -10.8500004      -4.24872182E-09
  -10.8400002      -4.26249258E-09
  -10.8299999      -4.27362945E-09
  -10.8199997      -4.28214486E-09
  -10.8100004      -4.28807523E-09
  -10.8000002      -4.29148761E-09
  -10.7900000      -4.29249170E-09
  -10.7799997      -4.29124869E-09
  -10.7700005      -4.28798685E-09
  -10.7600002      -4.28305480E-09
  -10.7500000      -4.27684821E-09
  -10.7399998      -4.26983471E-09
  -10.7299995      -4.26254676E-09
  -10.7200003      -4.25554703E-09
  -10.7100000      -4.24941415E-09
  -10.6999998      -4.24466329E-09
  -10.6899996      -4.24180469E-09
  -10.6800003      -4.24128110E-09
  -10.6700001      -4.24348601E-09
  -10.6599998      -4.24877200E-09
  -10.6499996      -4.25744018E-09
  -10.6400003      -4.26976188E-09
  -10.6300001      -4.28603641E-09
  -10.6199999      -4.30649871E-09
  -10.6099997      -4.33135261E-09
  -10.6000004      -4.36077974E-09
  -10.5900002      -4.39487069E-09
  -10.5799999      -4.43371828E-09
  -10.5699997      -4.47722481E-09
  -10.5600004      -4.52529347E-09
  -10.5500002      -4.57773908E-09
  -10.5400000      -4.63432848E-09
  -10.5299997      -4.69485517E-09
  -10.5200005      -4.75908690E-09
  -10.5100002      -4.82683093E-09
  -10.5000000      -4.89794028E-09
  -10.4899998      -4.97234964E-09
  -10.4799995      -5.04998798E-09
  -10.4700003      -5.13083886E-09
  -10.4600000      -5.21487387E-09
  -10.4499998      -5.30207167E-09
  -10.4399996      -5.39234213E-09
  -10.4300003      -5.48561152E-09
  -10.4200001      -5.58178348E-09
  -10.4099998      -5.68069281E-09
  -10.3999996      -5.78223336E-09
  -10.3900003      -5.88624482E-09
  -10.3800001      -5.99261485E-09
  -10.3699999      -6.10127282E-09
  -10.3599997      -6.21214680E-09
  -10.3500004      -6.32517594E-09
  -10.3400002      -6.44031717E-09
  -10.3299999      -6.55743682E-09
  -10.3199997      -6.67641142E-09
  -10.3100004      -6.79701007E-09
  -10.3000002      -6.91893831E-09
  -10.2900000      -7.04177072E-09
  -10.2799997      -7.16506365E-09
  -10.2700005      -7.28827398E-09
  -10.2600002      -7.41085682E-09
  -10.2500000      -7.53230367E-09
  -10.2399998      -7.65211805E-09
  -10.2299995      -7.76990827E-09
  -10.2200003      -7.88533860E-09
  -10.2100000      -7.99814082E-09
  -10.1999998      -8.10812573E-09
  -10.1899996      -8.21508017E-09
  -10.1800003      -8.31886204E-09
  -10.1700001      -8.41931591E-09
  -10.1599998      -8.51624726E-09
  -10.1499996      -8.60951754E-09
  -10.1400003      -8.69902639E-09
  -10.1300001      -8.78472939E-09
  -10.1199999      -8.86670026E-09
  -10.1099997      -8.94512020E-09
  -10.1000004      -9.02030273E-09
  -10.0900002      -9.09268305E-09
  -10.0799999      -9.16275944E-09
  -10.0699997      -9.23113408E-09
  -10.0600004      -9.29840560E-09
  -10.0500002      -9.36513000E-09
  -10.0400000      -9.43185086E-09
  -10.0299997      -9.49903090E-09
  -10.0200005      -9.56706092E-09
  -10.0100002      -9.63631042E-09
  -10.0000000      -9.70704583E-09
  -9.98999977      -9.77957360E-09
  -9.97999954      -9.85409976E-09
  -9.97000027      -9.93088101E-09
  -9.96000004      -1.00101634E-08
  -9.94999981      -1.00921538E-08
  -9.93999958      -1.01770583E-08
  -9.93000031      -1.02650830E-08
  -9.92000008      -1.03563673E-08
  -9.90999985      -1.04510569E-08
  -9.89999962      -1.05491633E-08
  -9.89000034      -1.06507256E-08
  -9.88000011      -1.07557083E-08
  -9.86999989      -1.08640448E-08
  -9.85999966      -1.09756408E-08
  -9.85000038      -1.10904299E-08
  -9.84000015      -1.12083836E-08
  -9.82999992      -1.13295062E-08
  -9.81999969      -1.14538308E-08
  -9.81000042      -1.15814496E-08
  -9.80000019      -1.17125811E-08
  -9.78999996      -1.18473746E-08
  -9.77999973      -1.19860122E-08
  -9.77000046      -1.21287149E-08
  -9.76000023      -1.22756907E-08
  -9.75000000      -1.24271669E-08
  -9.73999977      -1.25833788E-08
  -9.72999954      -1.27445530E-08
  -9.72000027      -1.29109177E-08
  -9.71000004      -1.30827695E-08
  -9.69999981      -1.32604070E-08
  -9.68999958      -1.34440832E-08
  -9.68000031      -1.36340104E-08
  -9.67000008      -1.38304213E-08
  -9.65999985      -1.40334384E-08
  -9.64999962      -1.42431604E-08
  -9.64000034      -1.44596610E-08
  -9.63000011      -1.46829633E-08
  -9.61999989      -1.49130326E-08
  -9.60999966      -1.51498618E-08
  -9.60000038      -1.53933488E-08
  -9.59000015      -1.56433817E-08
  -9.57999992      -1.58997810E-08
  -9.56999969      -1.61622982E-08
  -9.56000042      -1.64305689E-08
  -9.55000019      -1.67041456E-08
  -9.53999996      -1.69824297E-08
  -9.52999973      -1.72647550E-08
  -9.52000046      -1.75503523E-08
  -9.51000023      -1.78384045E-08
  -9.50000000      -1.81280093E-08
  -9.48999977      -1.84182891E-08
  -9.47999954      -1.87084517E-08
  -9.47000027      -1.89975573E-08
  -9.46000004      -1.92850429E-08
  -9.44999981      -1.95702157E-08
  -9.43999958      -1.98526884E-08
  -9.43000031      -2.01320240E-08
  -9.42000008      -2.04079313E-08
  -9.40999985      -2.06802167E-08
  -9.39999962      -2.09487734E-08
  -9.39000034      -2.12135181E-08
  -9.38000011      -2.14743849E-08
  -9.36999989      -2.17312763E-08
  -9.35999966      -2.19840857E-08
  -9.35000038      -2.22330403E-08
  -9.34000015      -2.24782593E-08
  -9.32999992      -2.27201173E-08
  -9.31999969      -2.29592256E-08
  -9.31000042      -2.31963249E-08
  -9.30000019      -2.34324844E-08
  -9.28999996      -2.36689406E-08
  -9.27999973      -2.39069724E-08
  -9.27000046      -2.41479690E-08
  -9.26000023      -2.43934224E-08
  -9.25000000      -2.46448533E-08
  -9.23999977      -2.49036010E-08
  -9.22999954      -2.51711079E-08
  -9.22000027      -2.54486974E-08
  -9.21000004      -2.57377355E-08
  -9.19999981      -2.60394017E-08
  -9.18999958      -2.63549591E-08
  -9.18000031      -2.66855551E-08
  -9.17000008      -2.70321809E-08
  -9.15999985      -2.73956804E-08
  -9.14999962      -2.77767800E-08
  -9.14000034      -2.81760340E-08
  -9.13000011      -2.85937620E-08
  -9.11999989      -2.90301951E-08
  -9.10999966      -2.94853031E-08
  -9.10000038      -2.99590326E-08
  -9.09000015      -3.04510905E-08
  -9.07999992      -3.09610435E-08
  -9.06999969      -3.14883373E-08
  -9.06000042      -3.20322115E-08
  -9.05000019      -3.25919025E-08
  -9.03999996      -3.31663870E-08
  -9.02999973      -3.37545423E-08
  -9.02000046      -3.43552919E-08
  -9.01000023      -3.49674103E-08
  -9.00000000      -3.55895509E-08
  -8.98999977      -3.62204666E-08
  -8.97999954      -3.68586726E-08
  -8.97000027      -3.75026588E-08
  -8.96000004      -3.81507945E-08
  -8.94999981      -3.88012751E-08
  -8.93999958      -3.94522282E-08
  -8.93000031      -4.01017033E-08
  -8.92000008      -4.07477962E-08
  -8.90999985      -4.13883221E-08
  -8.89999962      -4.20214050E-08
  -8.89000034      -4.26451230E-08
  -8.88000011      -4.32578666E-08
  -8.86999989      -4.38579839E-08
  -8.85999966      -4.44439401E-08
  -8.85000038      -4.50142679E-08
  -8.84000015      -4.55677913E-08
  -8.82999992      -4.61035690E-08
  -8.81999969      -4.66205776E-08
  -8.81000042      -4.71182844E-08
  -8.80000019      -4.75960853E-08
  -8.78999996      -4.80537281E-08
  -8.77999973      -4.84913905E-08
  -8.77000046      -4.89091683E-08
  -8.76000023      -4.93074701E-08
  -8.75000000      -4.96868395E-08
  -8.73999977      -5.00478379E-08
  -8.72999954      -5.03913498E-08
  -8.72000027      -5.07182492E-08
  -8.71000004      -5.10297582E-08
  -8.69999981      -5.13271914E-08
  -8.68999958      -5.16120586E-08
  -8.68000031      -5.18860794E-08
  -8.67000008      -5.21509804E-08
  -8.65999985      -5.24085380E-08
  -8.64999962      -5.26607593E-08
  -8.64000034      -5.29093569E-08
  -8.63000011      -5.31559472E-08
  -8.61999989      -5.34019016E-08
  -8.60999966      -5.36486411E-08
  -8.60000038      -5.38972778E-08
  -8.59000015      -5.41488987E-08
  -8.57999992      -5.44042535E-08
  -8.56999969      -5.46641630E-08
  -8.56000042      -5.49292878E-08
  -8.55000019      -5.52001467E-08
  -8.53999996      -5.54770132E-08
  -8.52999973      -5.57604629E-08
  -8.52000046      -5.60504994E-08
  -8.51000023      -5.63474174E-08
  -8.50000000      -5.66511922E-08
  -8.48999977      -5.69619978E-08
  -8.47999954      -5.72797454E-08
  -8.47000027      -5.76042609E-08
  -8.46000004      -5.79352673E-08
  -8.44999981      -5.82728177E-08
  -8.43999958      -5.86162052E-08
  -8.43000031      -5.89652238E-08
  -8.42000008      -5.93196070E-08
  -8.40999985      -5.96787970E-08
  -8.39999962      -6.00427796E-08
  -8.39000034      -6.04110753E-08
  -8.38000011      -6.07835915E-08
  -8.36999989      -6.11602289E-08
  -8.35999966      -6.15408950E-08
  -8.35000038      -6.19259453E-08
  -8.34000015      -6.23155358E-08
  -8.32999992      -6.27102779E-08
  -8.31999969      -6.31108037E-08
  -8.31000042      -6.35181649E-08
  -8.30000019      -6.39333919E-08
  -8.28999996      -6.43579341E-08
  -8.27999973      -6.47933263E-08
  -8.27000046      -6.52413092E-08
  -8.26000023      -6.57034889E-08
  -8.25000000      -6.61815562E-08
  -8.23999977      -6.66768827E-08
  -8.22999954      -6.71912090E-08
  -8.22000027      -6.77261198E-08
  -8.21000004      -6.82830361E-08
  -8.19999981      -6.88635780E-08
  -8.18999958      -6.94688254E-08
  -8.18000031      -7.01002847E-08
  -8.17000008      -7.07592918E-08
  -8.15999985      -7.14470545E-08
  -8.14999962      -7.21645677E-08
  -8.14000034      -7.29128971E-08
  -8.13000011      -7.36927035E-08
  -8.11999989      -7.45042215E-08
  -8.10999966      -7.53482325E-08
  -8.10000038      -7.62248220E-08
  -8.09000015      -7.71341107E-08
  -8.07999992      -7.80759208E-08
  -8.06999969      -7.90498689E-08
  -8.06000042      -8.00558198E-08
  -8.05000019      -8.10931269E-08
  -8.03999996      -8.21607458E-08
  -8.02999973      -8.32576390E-08
  -8.02000046      -8.43824139E-08
  -8.01000023      -8.55342535E-08
  -8.00000000      -8.67110259E-08
  -7.98999977      -8.79112179E-08
  -7.98000002      -8.91327403E-08
  -7.96999979      -9.03738453E-08
  -7.96000004      -9.16327565E-08
  -7.94999981      -9.29069373E-08
  -7.94000006      -9.41944762E-08
  -7.92999983      -9.54930712E-08
  -7.92000008      -9.68003135E-08
  -7.90999985      -9.81144765E-08
  -7.90000010      -9.94329525E-08
  -7.88999987      -1.00754200E-07
  -7.88000011      -1.02076640E-07
  -7.86999989      -1.03398158E-07
  -7.86000013      -1.04717735E-07
  -7.84999990      -1.06033859E-07
  -7.84000015      -1.07345571E-07
  -7.82999992      -1.08651228E-07
  -7.82000017      -1.09950143E-07
  -7.80999994      -1.11241157E-07
  -7.80000019      -1.12523217E-07
  -7.78999996      -1.13795622E-07
  -7.78000021      -1.15057865E-07
  -7.76999998      -1.16309472E-07
  -7.76000023      -1.17550918E-07
  -7.75000000      -1.18781919E-07
  -7.73999977      -1.20002980E-07
  -7.73000002      -1.21215052E-07
  -7.71999979      -1.22418314E-07
  -7.71000004      -1.23613589E-07
  -7.69999981      -1.24802128E-07
  -7.69000006      -1.25984670E-07
  -7.67999983      -1.27162423E-07
  -7.67000008      -1.28336453E-07
  -7.65999985      -1.29508223E-07
  -7.65000010      -1.30679140E-07
  -7.63999987      -1.31850456E-07
  -7.63000011      -1.33023491E-07
  -7.61999989      -1.34199951E-07
  -7.61000013      -1.35381129E-07
  -7.59999990      -1.36567905E-07
  -7.59000015      -1.37761859E-07
  -7.57999992      -1.38964154E-07
  -7.57000017      -1.40176724E-07
  -7.55999994      -1.41400918E-07
  -7.55000019      -1.42637731E-07
  -7.53999996      -1.43888840E-07
  -7.53000021      -1.45155582E-07
  -7.51999998      -1.46439262E-07
  -7.51000023      -1.47741559E-07
  -7.50000000      -1.49064235E-07
  -7.48999977      -1.50408823E-07
  -7.48000002      -1.51777158E-07
  -7.46999979      -1.53171243E-07
  -7.46000004      -1.54592541E-07
  -7.44999981      -1.56043356E-07
  -7.44000006      -1.57525434E-07