  -16.0000000       0.00000000    
  -15.9899998       0.00000000    
  -15.9799995       0.00000000    
  -15.9700003       0.00000000    
  -15.9600000       0.00000000    
  -15.9499998       0.00000000    
  -15.9399996       0.00000000    
  -15.9300003       0.00000000    
  -15.9200001       0.00000000    
  -15.9099998       0.00000000    
  -15.8999996       0.00000000    
  -15.8900003       0.00000000    
  -15.8800001       0.00000000    
  -15.8699999      -8.30549600E-42
  -15.8599997      -3.17120849E-40
  -15.8500004      -5.42119917E-39
  -15.8400002      -5.86635441E-38
  -15.8299999      -4.64124894E-37
  -15.8199997      -2.88930721E-36
  -15.8100004      -1.47726895E-35
  -15.8000002      -6.37033449E-35
  -15.7900000      -2.35415106E-34
  -15.7799997      -7.51588359E-34
  -15.7700005      -2.07317053E-33
  -15.7600002      -4.88541697E-33
  -15.7500000      -9.49979066E-33
  -15.7399998      -1.36771031E-32
  -15.7299995      -7.45038826E-33
  -15.7200003       3.57785245E-32
  -15.7100000       1.68914777E-31
  -15.6999998       4.70128574E-31
  -15.6899996       1.00701921E-30
  -15.6800003       1.73324065E-30
  -15.6700001       2.29903937E-30
  -15.6599998       1.82087667E-30
  -15.6499996      -1.21481247E-30
  -15.6400003      -8.57343363E-30
  -15.6300001      -2.09998556E-29
  -15.6199999      -3.58661660E-29
  -15.6099997      -4.43583254E-29
  -15.6000004      -3.02630430E-29
  -15.5900002       2.59951160E-29
  -15.5799999       1.34092042E-28
  -15.5699997       2.70585381E-28
  -15.5600004       3.54064718E-28
  -15.5500002       2.41577169E-28
  -15.5400000      -2.17223014E-28
  -15.5299997      -1.03535317E-27
  -15.5200005      -1.86494191E-27
  -15.5100002      -1.81050145E-27
  -15.5000000       4.58452938E-28
  -15.4899998       5.93346352E-27
  -15.4799995       1.36032977E-26
  -15.4700003       1.82683407E-26
  -15.4600000       9.35629324E-27
  -15.4499998      -2.63825994E-26
  -15.4399996      -9.49989998E-26
  -15.4300003      -1.77376052E-25
  -15.4200001      -2.09248461E-25
  -15.4099998      -7.65536692E-26
  -15.3999996       3.46169767E-25
  -15.3900003       1.08883572E-24
  -15.3800001       1.91533988E-24
  -15.3699999       2.16321280E-24
  -15.3599997       7.60009846E-25
  -15.3500004      -3.35482111E-24
  -15.3400002      -1.02419783E-23
  -15.3299999      -1.75526632E-23
  -15.3199997      -1.94106972E-23
  -15.3100004      -6.95474447E-24
  -15.3000002       2.78234365E-23
  -15.2900000       8.41349943E-23
  -15.2799997       1.42059410E-22
  -15.2700005       1.55618035E-22
  -15.2600002       5.90863318E-23
  -15.2500000      -2.03045842E-22
  -15.2399998      -6.19318869E-22
  -15.2299995      -1.04255625E-21
  -15.2200003      -1.14999047E-21
  -15.2100000      -4.95522839E-22
  -15.1999998       1.28526934E-21
  -15.1899996       4.10869132E-21
  -15.1800003       7.01925677E-21
  -15.1700001       7.96426377E-21
  -15.1599998       4.13818670E-21
  -15.1499996      -6.77067971E-21
  -15.1400003      -2.44174217E-20
  -15.1300001      -4.33471689E-20
  -15.1199999      -5.16899736E-20
  -15.1099997      -3.30248499E-20
  -15.1000004       2.68362416E-20
  -15.0900002       1.28108124E-19
  -15.0799999       2.43607792E-19
  -15.0699997       3.11016033E-19
  -15.0600004       2.41077137E-19
  -15.0500002      -4.93233873E-20
  -15.0400000      -5.78478628E-19
  -15.0299997      -1.23057881E-18
  -15.0200005      -1.71033302E-18
  -15.0100002      -1.57008765E-18
  -15.0000000      -3.53601178E-19
  -14.9899998       2.13464607E-18
  -14.9799995       5.49457410E-18
  -14.9700003       8.47748128E-18
  -14.9600000       9.02994197E-18
  -14.9499998       4.84281244E-18
  -14.9399996      -5.52093097E-18
  -14.9300003      -2.11235972E-17
  -14.9200001      -3.73475322E-17
  -14.9099998      -4.56712522E-17
  -14.8999996      -3.54516177E-17
  -14.8900003       1.81068637E-18
  -14.8800001       6.62729960E-17
  -14.8699999       1.43614092E-16
  -14.8599997       2.02309253E-16
  -14.8500004       1.98140144E-16
  -14.8400002       8.85141754E-17
  -14.8299999      -1.44278232E-16
  -14.8199997      -4.66985993E-16
  -14.8100004      -7.78086424E-16
  -14.8000002      -9.13800425E-16
  -14.7900000      -6.89422033E-16
  -14.7799997       2.23499056E-17
  -14.7700005       1.19187531E-15
  -14.7600002       2.54787129E-15
  -14.7500000       3.55815290E-15
  -14.7399998       3.52480331E-15
  -14.7299995       1.81623113E-15
  -14.7200003      -1.79411573E-15
  -14.7100000      -6.78098282E-15
  -14.6999998      -1.16712145E-14
  -14.6899996      -1.41754132E-14
  -14.6800003      -1.17703275E-14
  -14.6700001      -2.71372077E-15
  -14.6599998       1.27350209E-14
  -14.6499996       3.13302579E-14
  -14.6400003       4.66597755E-14
  -14.6300001       5.02722220E-14
  -14.6199999       3.42926777E-14
  -14.6099997      -4.86111150E-15
  -14.6000004      -6.27247142E-14
  -14.5900002      -1.24603480E-13
  -14.5799999      -1.66669494E-13
  -14.5699997      -1.61466909E-13
  -14.5600004      -8.76068627E-14
  -14.5500002       5.84430507E-14
  -14.5400000       2.52419234E-13
  -14.5299997       4.39144977E-13
  -14.5200005       5.40611447E-13
  -14.5100002       4.76974796E-13
  -14.5000000       1.97632560E-13
  -14.4899998      -2.85744952E-13
  -14.4799995      -8.76621041E-13
  -14.4700003      -1.39482501E-12
  -14.4600000      -1.61103780E-12
  -14.4499998      -1.31466788E-12
  -14.4399996      -4.02168235E-13
  -14.4300003       1.04022726E-12
  -14.4200001       2.69331302E-12
  -14.4099998       4.03302522E-12
  -14.3999996       4.44629273E-12
  -14.3900003       3.42377320E-12
  -14.3800001       7.85666508E-13
  -14.3699999      -3.13135000E-12
  -14.3599997      -7.40906034E-12
  -14.3500004      -1.06709008E-11
  -14.3400002      -1.14133642E-11
  -14.3299999      -8.49595134E-12
  -14.3199997      -1.66572279E-12
  -14.3100004       8.05977420E-12
  -14.3000002       1.83330486E-11
  -14.2900000       2.58632161E-11
  -14.2799997       2.72506843E-11
  -14.2700005       2.01135757E-11
  -14.2600002       4.20171623E-12
  -14.2500000      -1.78902865E-11
  -14.2399998      -4.07704356E-11
  -14.2299995      -5.72530322E-11
  -14.2200003      -6.02393066E-11
  -14.2100000      -4.50753983E-11
  -14.1999998      -1.17194509E-11
  -14.1899996       3.40549741E-11
  -14.1800003       8.10601725E-11
  -14.1700001       1.14960721E-10
  -14.1599998       1.22102994E-10
  -14.1499996       9.40169748E-11
  -14.1400003       3.12735532E-11
  -14.1300001      -5.46992035E-11
  -14.1199999      -1.42869522E-10
  -14.1099997      -2.07166867E-10
  -14.1000004      -2.23570162E-10
  -14.0900002      -1.77950099E-10
  -14.0799999      -7.23103938E-11
  -14.0699997       7.28620150E-11
  -14.0600004       2.21600419E-10
  -14.0500002       3.30816735E-10
  -14.0400000       3.62296138E-10
  -14.0299997       2.95159536E-10
  -14.0200005       1.34927625E-10
  -14.0100002      -8.42069539E-11
  -14.0000000      -3.05677789E-10
  -13.9899998      -4.64727534E-10
  -13.9799995      -5.07168862E-10
  -13.9700003      -4.07471085E-10
  -13.9600000      -1.80357937E-10
  -13.9499998       1.18655391E-10
  -13.9399996       4.05482814E-10
  -13.9300003       5.90309135E-10
  -13.9200001       6.05232420E-10
  -13.9099998       4.28564462E-10
  -13.8999996       9.76122794E-11
  -13.8900003      -2.95678482E-10
  -13.8800001      -6.27126850E-10
  -13.8699999      -7.76084641E-10
  -13.8599997      -6.65024258E-10
  -13.8500004      -2.90937496E-10
  -13.8400002       2.62487809E-10
  -13.8299999       8.38370096E-10
  -13.8199997       1.24516719E-09
  -13.8100004       1.31172839E-09
  -13.8000002       9.44242462E-10
  -13.7900000       1.67970804E-10
  -13.7799997      -8.60896687E-10
  -13.7700005      -1.88076554E-09
  -13.7600002      -2.58495447E-09
  -13.7500000      -2.70366463E-09
  -13.7399998      -2.08664641E-09
  -13.7299995      -7.63192454E-10
  -13.7200003       1.04015419E-09
  -13.7100000       2.93376834E-09
  -13.6999998       4.44713644E-09
  -13.6899996       5.14176168E-09
  -13.6800003       4.72733497E-09
  -13.6700001       3.15090309E-09
  -13.6599998       6.33327168E-10
  -13.6499996      -2.36016762E-09
  -13.6400003      -5.21231813E-09
  -13.6300001      -7.28923810E-09
  -13.6199999      -8.08686274E-09
  -13.6099997      -7.35230943E-09
  -13.6000004      -5.14895993E-09
  -13.5900002      -1.84800042E-09
  -13.5799999       1.95244887E-09
  -13.5699997       5.56038104E-09
  -13.5600004       8.34115532E-09
  -13.5500002       9.84837278E-09
  -13.5400000       9.90126203E-09
  -13.5299997       8.59116334E-09
  -13.5200005       6.21953467E-09
  -13.5100002       3.19049853E-09
  -13.5000000      -1.06332471E-10
  -13.4899998      -3.38371198E-09
  -13.4799995      -6.48632570E-09
  -13.4700003      -9.35265110E-09
  -13.4600000      -1.19233707E-08
  -13.4499998      -1.40327536E-08
  -13.4399996      -1.53296842E-08
  -13.4300003      -1.52724748E-08
  -13.4200001      -1.32217872E-08
  -13.4099998      -8.62614780E-09
  -13.3999996      -1.26054678E-09
  -13.3900003       8.54793925E-09
  -13.3800001       1.97843910E-08
  -13.3699999       3.07655270E-08
  -13.3599997       3.93464745E-08
  -13.3500004       4.33005880E-08
  -13.3400002       4.08058156E-08
  -13.3299999       3.09321457E-08
  -13.3199997       1.40102117E-08
  -13.3100004      -8.22671709E-09
  -13.3000002      -3.27881473E-08
  -13.2900000      -5.58567024E-08
  -13.2799997      -7.34325809E-08
  -13.2700005      -8.20631385E-08
  -13.2600002      -7.95058384E-08
  -13.2500000      -6.51804797E-08
  -13.2399998      -4.03139815E-08
  -13.2299995      -7.75331177E-09
  -13.2200003       2.85045587E-08
  -13.2100000       6.39506226E-08
  -13.1999998       9.42285183E-08
  -13.1899996       1.15687328E-07
  -13.1800003       1.25732925E-07
  -13.1700001       1.22950667E-07
  -13.1599998       1.07042972E-07
  -13.1499996       7.86716683E-08
  -13.1400003       3.93143331E-08
  -13.1300001      -8.78685036E-09
  -13.1199999      -6.25572980E-08
  -13.1099997      -1.17950044E-07
  -13.1000004      -1.69847496E-07
  -13.0900002      -2.12141046E-07
  -13.0799999      -2.38120691E-07
  -13.0699997      -2.41230794E-07
  -13.0600004      -2.16161368E-07
  -13.0500002      -1.60112762E-07
  -13.0400000      -7.39964818E-08
  -13.0299997       3.67278901E-08
  -13.0200005       1.61859120E-07
  -13.0100002       2.87086209E-07
  -13.0000000       3.95491952E-07
  -12.9899998       4.69784879E-07
  -12.9799995       4.94956112E-07
  -12.9700003       4.60924554E-07
  -12.9600000       3.64698707E-07
  -12.9499998       2.11619422E-07
  -12.9399996       1.53963420E-08
  -12.9300003      -2.03164589E-07
  -12.9200001      -4.18594396E-07
  -12.9099998      -6.04032209E-07
  -12.8999996      -7.34821072E-07
  -12.8900003      -7.91902210E-07
  -12.8800001      -7.64473953E-07
  -12.8699999      -6.51552227E-07
  -12.8599997      -4.62215894E-07
  -12.8500004      -2.14553097E-07
  -12.8400002       6.64964475E-08
  -12.8299999       3.52071936E-07
  -12.8199997       6.12694237E-07
  -12.8100004       8.21528147E-07
  -12.8000002       9.57261477E-07
  -12.7900000       1.00631928E-06
  -12.7799997       9.64232072E-07
  -12.7700005       8.36064487E-07
  -12.7600002       6.35877427E-07
  -12.7500000       3.85249450E-07
  -12.7399998       1.10948058E-07
  -12.7299995      -1.58084447E-07
  -12.7200003      -3.94185435E-07
  -12.7100000      -5.74533374E-07
  -12.6999998      -6.84395218E-07
  -12.6899996      -7.19617162E-07
  -12.6800003      -6.87906095E-07
  -12.6700001      -6.08558423E-07
  -12.6599998      -5.10479481E-07
  -12.6499996      -4.28493905E-07
  -12.6400003      -3.98280065E-07
  -12.6300001      -4.50404173E-07
  -12.6199999      -6.04151353E-07
  -12.6099997      -8.61946717E-07
  -12.6000004      -1.20513539E-06
  -12.5900002      -1.59179694E-06
  -12.5799999      -1.95718417E-06
  -12.5699997      -2.21706523E-06
  -12.5600004      -2.27406849E-06
  -12.5500002      -2.02689716E-06
  -12.5400000      -1.38186272E-06
  -12.5299997      -2.66074153E-07
  -12.5200005       1.35873347E-06
  -12.5100002       3.48307003E-06
  -12.5000000       6.03841818E-06
  -12.4899998       8.88962859E-06
  -12.4799995       1.18316138E-05
  -12.4700003       1.45920685E-05
  -12.4600000       1.68397000E-05
  -12.4499998       1.81986852E-05
  -12.4399996       1.82678759E-05
  -12.4300003       1.66435802E-05
  -12.4200001       1.29446153E-05
  -12.4099998       6.83671578E-06
  -12.3999996      -1.94407403E-06
  -12.3900003      -1.35712580E-05
  -12.3800001      -2.81123812E-05
  -12.3699999      -4.55162481E-05
  -12.3599997      -6.56066477E-05
  -12.3500004      -8.80787629E-05
  -12.3400002      -1.12500536E-04
  -12.3299999      -1.38318224E-04
  -12.3199997      -1.64865269E-04
  -12.3100004      -1.91378407E-04
  -12.3000002      -2.17015593E-04
  -12.2900000      -2.40880356E-04
  -12.2799997      -2.62051966E-04
  -12.2700005      -2.79613276E-04
  -12.2600002      -2.92686396E-04
  -12.2500000      -3.00460990E-04
  -12.2399998      -3.02221131E-04
  -12.2299995      -2.97368970E-04
  -12.2200003      -2.85436283E-04
  -12.2100000      -2.66092538E-04
  -12.1999998      -2.39147688E-04
  -12.1899996      -2.04542695E-04
  -12.1800003      -1.62348093E-04
  -12.1700001      -1.12752925E-04
  -12.1599998      -5.60615154E-05
  -12.1499996       7.31507998E-06
  -12.1400003       7.68567988E-05
  -12.1300001       1.51943794E-04
  -12.1199999       2.31852347E-04
  -12.1099997       3.15760262E-04
  -12.1000004       4.02755570E-04
  -12.0900002       4.91845713E-04
  -12.0799999       5.81964268E-04
  -12.0699997       6.71989634E-04
  -12.0600004       7.60752184E-04
  -12.0500002       8.47050396E-04
  -12.0400000       9.29652655E-04
  -12.0299997       1.00730977E-03
  -12.0200005       1.07875734E-03
  -12.0100002       1.14272465E-03
  -12.0000000       1.19794626E-03
  -11.9899998       1.24317687E-03
  -11.9799995       1.27721438E-03
  -11.9700003       1.29892409E-03
  -11.9600000       1.30727282E-03
  -11.9499998       1.30135531E-03
  -11.9399996       1.28042232E-03
  -11.9300003       1.24391192E-03
  -11.9200001       1.19144539E-03
  -11.9099998       1.12284732E-03
  -11.8999996       1.03813293E-03
  -11.8900003       9.37494740E-04
  -11.8800001       8.21289257E-04
  -11.8699999       6.90010784E-04
  -11.8599997       5.44283539E-04
  -11.8500004       3.84837913E-04
  -11.8400002       2.12503539E-04
  -11.8299999       2.82101573E-05
  -11.8199997      -1.67014834E-04
  -11.8100004      -3.72051960E-04
  -11.8000002      -5.85676928E-04
  -11.7900000      -8.06565513E-04
  -11.7799997      -1.03328878E-03
  -11.7700005      -1.26430648E-03
  -11.7600002      -1.49797928E-03
  -11.7500000      -1.73255696E-03
  -11.7399998      -1.96618889E-03
  -11.7299995      -2.19692127E-03
  -11.7200003      -2.42270692E-03
  -11.7100000      -2.64140707E-03
  -11.6999998      -2.85082310E-03
  -11.6899996      -3.04870075E-03
  -11.6800003      -3.23277479E-03
  -11.6700001      -3.40079237E-03
  -11.6599998      -3.55055928E-03
  -11.6499996      -3.67997750E-03
  -11.6400003      -3.78707540E-03
  -11.6300001      -3.87003808E-03
  -11.6199999      -3.92721454E-03
  -11.6099997      -3.95713374E-03
  -11.6000004      -3.95849114E-03
  -11.5900002      -3.93015007E-03
  -11.5799999      -3.87111818E-03
  -11.5699997      -3.78053845E-03
  -11.5600004      -3.65768583E-03
  -11.5500002      -3.50197428E-03
  -11.5400000      -3.31294350E-03
  -11.5299997      -3.09028965E-03
  -11.5200005      -2.83387955E-03
  -11.5100002      -2.54375045E-03
  -11.5000000      -2.22013262E-03
  -11.4899998      -1.86345330E-03
  -11.4799995      -1.47433649E-03
  -11.4700003      -1.05360500E-03
  -11.4600000      -6.02280837E-04
  -11.4499998      -1.21569938E-04
  -11.4399996       3.87131091E-04
  -11.4300003       9.22232924E-04
  -11.4200001       1.48197566E-03
  -11.4099998       2.06442457E-03
  -11.3999996       2.66748061E-03
  -11.3900003       3.28893145E-03
  -11.3800001       3.92645271E-03
  -11.3699999       4.57767211E-03
  -11.3599997       5.24020428E-03
  -11.3500004       5.91168553E-03
  -11.3400002       6.58982107E-03
  -11.3299999       7.27240089E-03
  -11.3199997       7.95731228E-03
  -11.3100004       8.64253938E-03
  -11.3000002       9.32616927E-03
  -11.2900000       1.00063505E-02
  -11.2799997       1.06813191E-02
  -11.2700005       1.13493577E-02
  -11.2600002       1.20088048E-02
  -11.2500000       1.26580587E-02
  -11.2399998       1.32955750E-02
  -11.2299995       1.39198666E-02
  -11.2200003       1.45295169E-02
  -11.2100000       1.51231680E-02
  -11.1999998       1.56995226E-02
  -11.1899996       1.62573289E-02
  -11.1800003       1.67954043E-02
  -11.1700001       1.73126180E-02
  -11.1599998       1.78079046E-02
  -11.1499996       1.82803031E-02
  -11.1400003       1.87289566E-02
  -11.1300001       1.91531591E-02
  -11.1199999       1.95523631E-02
  -11.1099997       1.99262146E-02
  -11.1000004       2.02745348E-02
  -11.0900002       2.05973368E-02
  -11.0799999       2.08947696E-02
  -11.0699997       2.11671628E-02
  -11.0600004       2.14149188E-02
  -11.0500002       2.16385573E-02
  -11.0400000       2.18386520E-02
  -11.0299997       2.20158435E-02
  -11.0200005       2.21708249E-02
  -11.0100002       2.23043356E-02
  -11.0000000       2.24171206E-02
  -10.9899998       2.25099921E-02
  -10.9799995       2.25837175E-02
  -10.9700003       2.26390678E-02
  -10.9600000       2.26767696E-02
  -10.9499998       2.26974506E-02
  -10.9399996       2.27017011E-02
  -10.9300003       2.26899460E-02
  -10.9200001       2.26625279E-02
  -10.9099998       2.26196889E-02
  -10.8999996       2.25615390E-02
  -10.8900003       2.24881396E-02
  -10.8800001       2.23994590E-02
  -10.8699999       2.22954489E-02
  -10.8599997       2.21760105E-02
  -10.8500004       2.20410693E-02
  -10.8400002       2.18905509E-02
  -10.8299999       2.17243880E-02
  -10.8199997       2.15425454E-02
  -10.8100004       2.13450398E-02
  -10.8000002       2.11319271E-02
  -10.7900000       2.09033433E-02
  -10.7799997       2.06595026E-02
  -10.7700005       2.04007365E-02
  -10.7600002       2.01275144E-02
  -10.7500000       1.98404752E-02
  -10.7399998       1.95404328E-02
  -10.7299995       1.92284193E-02
  -10.7200003       1.89056527E-02
  -10.7100000       1.85735412E-02
  -10.6999998       1.82336569E-02
  -10.6899996       1.78877618E-02
  -10.6800003       1.75376479E-02
  -10.6700001       1.71852186E-02
  -10.6599998       1.68324392E-02
  -10.6499996       1.64812300E-02
  -10.6400003       1.61335263E-02
  -10.6300001       1.57912150E-02
  -10.6199999       1.54561270E-02
  -10.6099997       1.51300188E-02
  -10.6000004       1.48146022E-02
  -10.5900002       1.45114912E-02
  -10.5799999       1.42221805E-02
  -10.5699997       1.39480829E-02
  -10.5600004       1.36904465E-02
  -10.5500002       1.34504447E-02
  -10.5400000       1.32290842E-02
  -10.5299997       1.30272787E-02
  -10.5200005       1.28457574E-02
  -10.5100002       1.26851788E-02
  -10.5000000       1.25460587E-02
  -10.4899998       1.24288183E-02
  -10.4799995       1.23337321E-02
  -10.4700003       1.22609753E-02
  -10.4600000       1.22105265E-02
  -10.4499998       1.21822311E-02
  -10.4399996       1.21758105E-02
  -10.4300003       1.21907657E-02
  -10.4200001       1.22264754E-02
  -10.4099998       1.22822039E-02
  -10.3999996       1.23571586E-02
  -10.3900003       1.24504380E-02
  -10.3800001       1.25611983E-02
  -10.3699999       1.26885287E-02
  -10.3599997       1.28315967E-02
  -10.3500004       1.29895061E-02
  -10.3400002       1.31613007E-02
  -10.3299999       1.33460220E-02
  -10.3199997       1.35424826E-02
  -10.3100004       1.37494197E-02
  -10.3000002       1.39653767E-02
  -10.2900000       1.41888224E-02
  -10.2799997       1.44181028E-02
  -10.2700005       1.46515798E-02
  -10.2600002       1.48876337E-02
  -10.2500000       1.51248444E-02
  -10.2399998       1.53617980E-02
  -10.2299995       1.55973826E-02
  -10.2200003       1.58305597E-02
  -10.2100000       1.60604734E-02
  -10.1999998       1.62863843E-02
  -10.1899996       1.65076703E-02
  -10.1800003       1.67237222E-02
  -10.1700001       1.69341732E-02
  -10.1599998       1.71387233E-02
  -10.1499996       1.73371974E-02
  -10.1400003       1.75297707E-02
  -10.1300001       1.77166481E-02
  -10.1199999       1.78984329E-02
  -10.1099997       1.80759300E-02
  -10.1000004       1.82501376E-02
  -10.0900002       1.84222907E-02
  -10.0799999       1.85937975E-02
  -10.0699997       1.87661927E-02
  -10.0600004       1.89412348E-02
  -10.0500002       1.91208012E-02
  -10.0400000       1.93069298E-02
  -10.0299997       1.95017699E-02
  -10.0200005       1.97075959E-02
  -10.0100002       1.99268050E-02
  -10.0000000       2.01617405E-02
  -9.98999977       2.04148069E-02
  -9.97999954       2.06883624E-02
  -9.97000027       2.09845193E-02
  -9.96000004       2.13053729E-02
  -9.94999981       2.16527842E-02
  -9.93999958       2.20283959E-02
  -9.93000031       2.24338453E-02
  -9.92000008       2.28705890E-02
  -9.90999985       2.33400259E-02
  -9.89999962       2.38436218E-02
  -9.89000034       2.43827645E-02
  -9.88000011       2.49588620E-02
  -9.86999989       2.55732611E-02
  -9.85999966       2.62272600E-02
  -9.85000038       2.69219149E-02
  -9.84000015       2.76580416E-02
  -9.82999992       2.84362081E-02
  -9.81999969       2.92565934E-02
  -9.81000042       3.01189665E-02
  -9.80000019       3.10228728E-02
  -9.78999996       3.19675431E-02
  -9.77999973       3.29518914E-02
  -9.77000046       3.39747705E-02
  -9.76000023       3.50349247E-02
  -9.75000000       3.61309685E-02
  -9.73999977       3.72615643E-02
  -9.72999954       3.84250619E-02
  -9.72000027       3.96198854E-02
  -9.71000004       4.08441499E-02
  -9.69999981       4.20957282E-02
  -9.68999958       4.33722921E-02
  -9.68000031       4.46711555E-02
  -9.67000008       4.59893458E-02
  -9.65999985       4.73237224E-02
  -9.64999962       4.86708358E-02
  -9.64000034       5.00271767E-02
  -9.63000011       5.13890721E-02
  -9.61999989       5.27529009E-02
  -9.60999966       5.41147999E-02
  -9.60000038       5.54710254E-02
  -9.59000015       5.68178408E-02
  -9.57999992       5.81514835E-02
  -9.56999969       5.94682023E-02
  -9.56000042       6.07643612E-02
  -9.55000019       6.20362572E-02
  -9.53999996       6.32803813E-02
  -9.52999973       6.44933358E-02
  -9.52000046       6.56718686E-02
  -9.51000023       6.68128580E-02
  -9.50000000       6.79133758E-02
  -9.48999977       6.89704865E-02
  -9.47999954       6.99816719E-02
  -9.47000027       7.09442943E-02
  -9.46000004       7.18561411E-02
  -9.44999981       7.27152377E-02
  -9.43999958       7.35201538E-02
  -9.43000031       7.42699727E-02
  -9.42000008       7.49647468E-02
  -9.40999985       7.56053552E-02
  -9.39999962       7.61936456E-02
  -9.39000034       7.67325163E-02
  -9.38000011       7.72258565E-02
  -9.36999989       7.76781663E-02
  -9.35999966       7.80950934E-02
  -9.35000038       7.84824565E-02
  -9.34000015       7.88468570E-02
  -9.32999992       7.91952834E-02
  -9.31999969       7.95348808E-02
  -9.31000042       7.98734576E-02
  -9.30000019       8.02189484E-02
  -9.28999996       8.05795565E-02
  -9.27999973       8.09636861E-02
  -9.27000046       8.13800320E-02
  -9.26000023       8.18371996E-02
  -9.25000000       8.23437572E-02
  -9.23999977       8.29078853E-02
  -9.22999954       8.35376978E-02
  -9.22000027       8.42408240E-02
  -9.21000004       8.50242823E-02
  -9.19999981       8.58942568E-02
  -9.18999958       8.68565589E-02
  -9.18000031       8.79158899E-02
  -9.17000008       8.90761912E-02
  -9.15999985       9.03402194E-02
  -9.14999962       9.17098746E-02
  -9.14000034       9.31860134E-02
  -9.13000011       9.47680399E-02
  -9.11999989       9.64545682E-02
  -9.10999966       9.82431248E-02
  -9.10000038      0.100129656    
  -9.09000015      0.102109656    
  -9.07999992      0.104177237    
  -9.06999969      0.106325388    
  -9.06000042      0.108546428    
  -9.05000019      0.110831670    
  -9.03999996      0.113171302    
  -9.02999973      0.115555003    
  -9.02000046      0.117971756    
  -9.01000023      0.120409861    
  -9.00000000      0.122857228    
  -8.98999977      0.125301674    
  -8.97999954      0.127730429    
  -8.97000027      0.130130842    
  -8.96000004      0.132490277    
  -8.94999981      0.134796411    
  -8.93999958      0.137036905    
  -8.93000031      0.139200479    
  -8.92000008      0.141275734    
  -8.90999985      0.143252477    
  -8.89999962      0.145121306    
  -8.89000034      0.146873191    
  -8.88000011      0.148500666    
  -8.86999989      0.149997056    
  -8.85999966      0.151356444    
  -8.85000038      0.152574390    
  -8.84000015      0.153647557    
  -8.82999992      0.154573560    
  -8.81999969      0.155350894    
  -8.81000042      0.155979916    
  -8.80000019      0.156461388    
  -8.78999996      0.156797692    
  -8.77999973      0.156991854    
  -8.77000046      0.157048151    
  -8.76000023      0.156971753    
  -8.75000000      0.156768784    
  -8.73999977      0.156446010    
  -8.72999954      0.156011283    
  -8.72000027      0.155472755    
  -8.71000004      0.154839173    
  -8.69999981      0.154119745    
  -8.68999958      0.153324455    
  -8.68000031      0.152462602    
  -8.67000008      0.151544482    
  -8.65999985      0.150580242    
  -8.64999962      0.149580255    
  -8.64000034      0.148554251    
  -8.63000011      0.147512540    
  -8.61999989      0.146464512    
  -8.60999966      0.145420402    
  -8.60000038      0.144389018    
  -8.59000015      0.143379405    
  -8.57999992      0.142400071    
  -8.56999969      0.141459137    
  -8.56000042      0.140564516    
  -8.55000019      0.139723629    
  -8.53999996      0.138943508    
  -8.52999973      0.138230994    
  -8.52000046      0.137592271    
  -8.51000023      0.137033030    
  -8.50000000      0.136558503    
  -8.48999977      0.136173695    
  -8.47999954      0.135882989    
  -8.47000027      0.135690063    
  -8.46000004      0.135598540    
  -8.44999981      0.135611534    
  -8.43999958      0.135731459    
  -8.43000031      0.135960668    
  -8.42000008      0.136300549    
  -8.40999985      0.136752367    
  -8.39999962      0.137317047    
  -8.39000034      0.137994036    
  -8.38000011      0.138783485    
  -8.36999989      0.139684722    
  -8.35999966      0.140696809    
  -8.35000038      0.141819462    
  -8.34000015      0.143051371    
  -8.32999992      0.144391969    
  -8.31999969      0.145840064    
  -8.31000042      0.147395089    
  -8.30000019      0.149056271    
  -8.28999996      0.150822967    
  -8.27999973      0.152694792    
  -8.27000046      0.154671595    
  -8.26000023      0.156753913    
  -8.25000000      0.158942237    
  -8.23999977      0.161237642    
  -8.22999954      0.163641378    
  -8.22000027      0.166155368    
  -8.21000004      0.168781251    
  -8.19999981      0.171520814    
  -8.18999958      0.174376488    
  -8.18000031      0.177350149    
  -8.17000008      0.180443376    
  -8.15999985      0.183658198    
  -8.14999962      0.186996475    
  -8.14000034      0.190459833    
  -8.13000011      0.194049269    
  -8.11999989      0.197765231    
  -8.10999966      0.201608121    
  -8.10000038      0.205576167    
  -8.09000015      0.209668621    
  -8.07999992      0.213881850    
  -8.06999969      0.218212798    
  -8.06000042      0.222656846    
  -8.05000019      0.227209359    
  -8.03999996      0.231864363    
  -8.02999973      0.236615643    
  -8.02000046      0.241456285    
  -8.01000023      0.246378288    
  -8.00000000      0.251374006    
  -7.98999977      0.256434709    
  -7.98000002      0.261551112    
  -7.96999979      0.266713470    
  -7.96000004      0.271911740    
  -7.94999981      0.277136505    
  -7.94000006      0.282377034    
  -7.92999983      0.287623554    
  -7.92000008      0.292866141    
  -7.90999985      0.298095137    
  -7.90000010      0.303300261    
  -7.88999987      0.308472633    
  -7.88000011      0.313602984    
  -7.86999989      0.318682492    
  -7.86000013      0.323702157    
  -7.84999990      0.328655273    
  -7.84000015      0.333533794    
  -7.82999992      0.338331521    
  -7.82000017      0.343043447    
  -7.80999994      0.347664207    
  -7.80000019      0.352190793    
  -7.78999996      0.356619239    
  -7.78000021      0.360947639    
  -7.76999998      0.365175217    
  -7.76000023      0.369300067    
  -7.75000000      0.373323500    
  -7.73999977      0.377245098    
  -7.73000002      0.381067932    
  -7.71999979      0.384792954    
  -7.71000004      0.388422966    
  -7.69999981      0.391962409    
  -7.69000006      0.395415246    
  -7.67999983      0.398786128    
  -7.67000008      0.402080834    
  -7.65999985      0.405305028    
  -7.65000010      0.408464760    
  -7.63999987      0.411566049    
  -7.63000011      0.414617360    
  -7.61999989      0.417625248    
  -7.61000013      0.420596898    
  -7.59999990      0.423542321    
  -7.59000015      0.426468432    
  -7.57999992      0.429384857    
  -7.57000017      0.432300806    
  -7.55999994      0.435225338    
  -7.55000019      0.438168079    
  -7.53999996      0.441137642    
  -7.53000021      0.444144279    
  -7.51999998      0.447196811    
  -7.51000023      0.450305283    
  -7.50000000      0.453478307    
  -7.48999977      0.456725508    
  -7.48000002      0.460055947    
  -7.46999979      0.463476866    
  -7.46000004      0.466997653    
  -7.44999981      0.470625967    
  -7.44000006      0.474368870    