  -16.0000000       0.00000000    
  -15.9899998       0.00000000    
  -15.9799995       0.00000000    
  -15.9700003       0.00000000    
  -15.9600000       0.00000000    
  -15.9499998       0.00000000    
  -15.9399996       0.00000000    
  -15.9300003       0.00000000    
  -15.9200001       0.00000000    
  -15.9099998       0.00000000    
  -15.8999996       0.00000000    
  -15.8900003       0.00000000    
  -15.8800001       0.00000000    
  -15.8699999       0.00000000    
  -15.8599997       0.00000000    
  -15.8500004       0.00000000    
  -15.8400002      -0.00000000    
  -15.8299999      -1.40129846E-45
  -15.8199997      -1.82168800E-44
  -15.8100004      -9.66895940E-44
  -15.8000002      -4.00771361E-43
  -15.7900000      -1.32142445E-42
  -15.7799997      -3.41356306E-42
  -15.7700005      -6.30584309E-42
  -15.7600002      -4.54020702E-42
  -15.7500000       2.30555636E-41
  -15.7399998       1.32592262E-40
  -15.7299995       4.36469439E-40
  -15.7200003       1.09791454E-39
  -15.7100000       2.23306159E-39
  -15.6999998       3.61701058E-39
  -15.6899996       4.08066521E-39
  -15.6800003       5.37518473E-40
  -15.6700001      -1.32689008E-38
  -15.6599998      -4.78320115E-38
  -15.6499996      -1.17262898E-37
  -15.6400003      -2.32855829E-37
  -15.6300001      -3.81751907E-37
  -15.6199999      -4.76663354E-37
  -15.6099997      -2.68577258E-37
  -15.6000004       7.45155144E-37
  -15.5900002       3.28267667E-36
  -15.5799999       7.81947179E-36
  -15.5699997       1.33325080E-35
  -15.5600004       1.51511220E-35
  -15.5500002       2.89705189E-36
  -15.5400000      -3.84492780E-35
  -15.5299997      -1.19116837E-34
  -15.5200005      -2.21856834E-34
  -15.5100002      -2.68545220E-34
  -15.5000000      -9.69861933E-35
  -15.4899998       5.04816967E-34
  -15.4799995       1.64326176E-33
  -15.4700003       3.00927031E-33
  -15.4600000       3.50095205E-33
  -15.4499998       1.08688219E-33
  -15.4399996      -6.54538471E-33
  -15.4300003      -1.99930078E-32
  -15.4200001      -3.47846617E-32
  -15.4099998      -3.80588983E-32
  -15.3999996      -8.69811673E-33
  -15.3900003       7.41285898E-32
  -15.3800001       2.10266176E-31
  -15.3699999       3.48493897E-31
  -15.3599997       3.62593998E-31
  -15.3500004       6.42922647E-32
  -15.3400002      -7.09495899E-31
  -15.3299999      -1.91640355E-30
  -15.3199997      -3.07580661E-30
  -15.3100004      -3.12102496E-30
  -15.3000002      -5.70268750E-31
  -15.2900000       5.73826990E-30
  -15.2799997       1.52835330E-29
  -15.2700005       2.42533983E-29
  -15.2600002       2.47167439E-29
  -15.2500000       6.13927598E-30
  -15.2399998      -3.93067015E-29
  -15.2299995      -1.07568303E-28
  -15.2200003      -1.72522686E-28
  -15.2100000      -1.81450033E-28
  -15.1999998      -6.56157351E-29
  -15.1899996       2.26038862E-28
  -15.1800003       6.70925381E-28
  -15.1700001       1.11244391E-27
  -15.1599998       1.23409267E-27
  -15.1499996       6.20616913E-28
  -15.1400003      -1.05143584E-27
  -15.1300001      -3.70072908E-27
  -15.1199999      -6.50330074E-27
  -15.1099997      -7.73513632E-27
  -15.1000004      -5.06773875E-27
  -15.0900002       3.46439475E-27
  -15.0799999       1.78509562E-26
  -15.0699997       3.43167066E-26
  -15.0600004       4.43470915E-26
  -15.0500002       3.58537004E-26
  -15.0400000      -2.41668598E-27
  -15.0299997      -7.32209537E-26
  -15.0200005      -1.61895002E-25
  -15.0100002      -2.30551231E-25
  -15.0000000      -2.21436781E-25
  -14.9899998      -7.48242519E-26
  -14.9799995       2.37573301E-25
  -14.9700003       6.71008044E-25
  -14.9600000       1.07566243E-24
  -14.9499998       1.19986749E-24
  -14.9399996       7.53426703E-25
  -14.9300003      -4.59657663E-25
  -14.9200001      -2.36179532E-24
  -14.9099998      -4.44080017E-24
  -14.8999996      -5.70865189E-24
  -14.8900003      -4.88769184E-24
  -14.8800001      -8.84181729E-25
  -14.8699999       6.50327385E-24
  -14.8599997       1.58532438E-23
  -14.8500004       2.37363292E-23
  -14.8400002       2.51068283E-23
  -14.8299999       1.47844651E-23
  -14.8199997      -1.00158837E-23
  -14.8100004      -4.67078168E-23
  -14.8000002      -8.51175805E-23
  -14.7900000      -1.07611091E-22
  -14.7799997      -9.29635847E-23
  -14.7700005      -2.43872468E-23
  -14.7600002       9.96433686E-23
  -14.7500000       2.55292681E-22
  -14.7399998       3.89244367E-22
  -14.7299995       4.26026086E-22
  -14.7200003       2.89985168E-22
  -14.7100000      -5.99163965E-23
  -14.6999998      -5.91306254E-22
  -14.6899996      -1.17115628E-21
  -14.6800003      -1.56888152E-21
  -14.6700001      -1.50497071E-21
  -14.6599998      -7.47946514E-22
  -14.6499996       7.57676388E-22
  -14.6400003       2.77256139E-21
  -14.6300001       4.70963360E-21
  -14.6199999       5.70397012E-21
  -14.6099997       4.83767170E-21
  -14.6000004       1.50118387E-21
  -14.5900002      -4.19491763E-21
  -14.5799999      -1.11066744E-20
  -14.5699997      -1.70207064E-20
  -14.5600004      -1.90424603E-20
  -14.5500002      -1.44482361E-20
  -14.5400000      -1.86746646E-21
  -14.5299997       1.75339171E-20
  -14.5200005       3.93459509E-20
  -14.5100002       5.61788890E-20
  -14.5000000       5.92220218E-20
  -14.4899998       4.10443950E-20
  -14.4799995      -9.27950639E-22
  -14.4700003      -6.13253159E-20
  -14.4600000      -1.25493471E-19
  -14.4499998      -1.71130796E-19
  -14.4399996      -1.73487498E-19
  -14.4300003      -1.13584939E-19
  -14.4200001       1.24411203E-20
  -14.4099998       1.85918950E-19
  -14.3999996       3.63623169E-19
  -14.3900003       4.83938502E-19
  -14.3800001       4.81992353E-19
  -14.3699999       3.11552847E-19
  -14.3599997      -3.17504877E-20
  -14.3500004      -4.93707401E-19
  -14.3400002      -9.59502834E-19
  -14.3299999      -1.27214102E-18
  -14.3199997      -1.27176889E-18
  -14.3100004      -8.49177878E-19
  -14.3000002       3.34427016E-22
  -14.2900000       1.14105740E-18
  -14.2799997       2.29676727E-18
  -14.2700005       3.09752318E-18
  -14.2600002       3.17190078E-18
  -14.2500000       2.26750120E-18
  -14.2399998       3.68197840E-19
  -14.2299995      -2.23125952E-18
  -14.2200003      -4.92950759E-18
  -14.2100000      -6.92195779E-18
  -14.1999998      -7.39676402E-18
  -14.1899996      -5.78526067E-18
  -14.1800003      -2.00165466E-18
  -14.1700001       3.40596539E-18
  -14.1599998       9.26208194E-18
  -14.1499996       1.39632819E-17
  -14.1400003       1.58544930E-17
  -14.1300001       1.37072339E-17
  -14.1199999       7.17760665E-18
  -14.1099997      -2.89796586E-18
  -14.1000004      -1.44911207E-17
  -14.0900002      -2.47146942E-17
  -14.0799999      -3.04698034E-17
  -14.0699997      -2.92771744E-17
  -14.0600004      -2.00853267E-17
  -14.0500002      -3.81923061E-18
  -14.0400000       1.65304485E-17
  -14.0299997       3.63765413E-17
  -14.0200005       5.05164560E-17
  -14.0100002       5.44258042E-17
  -14.0000000       4.55492034E-17
  -13.9899998       2.42328202E-17
  -13.9799995      -5.99968367E-18
  -13.9700003      -3.89770681E-17
  -13.9600000      -6.71581256E-17
  -13.9499998      -8.33866813E-17
  -13.9399996      -8.26986192E-17
  -13.9300003      -6.37076310E-17
  -13.9200001      -2.91774958E-17
  -13.9099998       1.44143154E-17
  -13.8999996       5.82529373E-17
  -13.8900003       9.31763837E-17
  -13.8800001       1.11776956E-16
  -13.8699999       1.10071263E-16
  -13.8599997       8.83090610E-17
  -13.8500004       5.07297991E-17
  -13.8400002       4.37166319E-18
  -13.8299999      -4.26975114E-17
  -13.8199997      -8.32040332E-17
  -13.8100004      -1.12031251E-16
  -13.8000002      -1.26773965E-16
  -13.7900000      -1.27413952E-16
  -13.7799997      -1.15344142E-16
  -13.7700005      -9.21894381E-17
  -13.7600002      -5.89382995E-17
  -13.7500000      -1.57842158E-17
  -13.7399998       3.71903050E-17
  -13.7299995       9.86871734E-17
  -13.7200003       1.64713961E-16
  -13.7100000       2.27585180E-16
  -13.6999998       2.75972969E-16
  -13.6899996       2.96310601E-16
  -13.6800003       2.75454241E-16
  -13.6700001       2.04097486E-16
  -13.6599998       8.01344387E-17
  -13.6499996      -8.89205130E-17
  -13.6400003      -2.85191361E-16
  -13.6300001      -4.81752318E-16
  -13.6199999      -6.45904868E-16
  -13.6099997      -7.43905098E-16
  -13.6000004      -7.46346882E-16
  -13.5900002      -6.33337281E-16
  -13.5799999      -3.98734195E-16
  -13.5699997      -5.29626045E-17
  -13.5600004       3.75824284E-16
  -13.5500002       8.42330697E-16
  -13.5400000       1.28654479E-15
  -13.5299997       1.63820841E-15
  -13.5200005       1.82362001E-15
  -13.5100002       1.77497141E-15
  -13.5000000       1.44201494E-15
  -13.4899998       8.05118634E-16
  -13.4799995      -1.12194053E-16
  -13.4700003      -1.23404368E-15
  -13.4600000      -2.42966488E-15
  -13.4499998      -3.52063654E-15
  -13.4399996      -4.29973533E-15
  -13.4300003      -4.56110513E-15
  -13.4200001      -4.13864957E-15
  -13.4099998      -2.94670967E-15
  -13.3999996      -1.01500371E-15
  -13.3900003       1.49086216E-15
  -13.3800001       4.27073504E-15
  -13.3699999       6.91728143E-15
  -13.3599997       8.96874314E-15
  -13.3500004       9.98102375E-15
  -13.3400002       9.60807006E-15
  -13.3299999       7.67645292E-15
  -13.3199997       4.23939270E-15
  -13.3100004      -4.01880764E-16
  -13.3000002      -5.71644791E-15
  -13.2900000      -1.10017806E-14
  -13.2799997      -1.54743890E-14
  -13.2700005      -1.83799034E-14
  -13.2600002      -1.91058717E-14
  -13.2500000      -1.72801802E-14
  -13.2399998      -1.28406527E-14
  -13.2299995      -6.06631275E-15
  -13.2200003       2.43320146E-15
  -13.2100000       1.17680032E-14
  -13.1999998       2.08517929E-14
  -13.1899996       2.85104683E-14
  -13.1800003       3.36061880E-14
  -13.1700001       3.51676357E-14
  -13.1599998       3.25175881E-14
  -13.1499996       2.53877441E-14
  -13.1400003       1.40093134E-14
  -13.1300001      -8.34750493E-16
  -13.1199999      -1.78112648E-14
  -13.1099997      -3.51062088E-14
  -13.1000004      -5.05710315E-14
  -13.0900002      -6.19450576E-14
  -13.0799999      -6.71391992E-14
  -13.0699997      -6.45512357E-14
  -13.0600004      -5.33689202E-14
  -13.0500002      -3.38093743E-14
  -13.0400000      -7.24409597E-15
  -13.0299997       2.38299692E-14
  -13.0200005       5.59913613E-14
  -13.0100002       8.52573559E-14
  -13.0000000       1.07569932E-13
  -12.9899998       1.19340139E-13
  -12.9799995       1.17971334E-13
  -12.9700003       1.02281038E-13
  -12.9600000       7.27548040E-14
  -12.9499998       3.15914219E-14
  -12.9399996      -1.74682571E-14
  -12.9300003      -6.95039458E-14
  -12.9200001      -1.18919360E-13
  -12.9099998      -1.60020949E-13
  -12.8999996      -1.87606183E-13
  -12.8900003      -1.97504421E-13
  -12.8800001      -1.87030607E-13
  -12.8699999      -1.55327831E-13
  -12.8599997      -1.03585699E-13
  -12.8500004      -3.51232613E-14
  -12.8400002       4.46793142E-14
  -12.8299999       1.28625477E-13
  -12.8199997       2.08151977E-13
  -12.8100004       2.74004154E-13
  -12.8000002       3.17133662E-13
  -12.7900000       3.29772857E-13
  -12.7799997       3.06588820E-13
  -12.7700005       2.45767355E-13
  -12.7600002       1.49840643E-13
  -12.7500000       2.60665174E-14
  -12.7399998      -1.13800327E-13
  -12.7299995      -2.54429670E-13
  -12.7200003      -3.78506606E-13
  -12.7100000      -4.68845557E-13
  -12.6999998      -5.10764391E-13
  -12.6899996      -4.94378681E-13
  -12.6800003      -4.16445605E-13
  -12.6700001      -2.81429773E-13
  -12.6599998      -1.01564278E-13
  -12.6499996       1.04170856E-13
  -12.6400003       3.12061439E-13
  -12.6300001       4.96415734E-13
  -12.6199999       6.32701411E-13
  -12.6099997       7.00647060E-13
  -12.6000004       6.86909297E-13
  -12.5900002       5.86980497E-13
  -12.5799999       4.06135466E-13
  -12.5699997       1.59343188E-13
  -12.5600004      -1.29805942E-13
  -12.5500002      -4.31023029E-13
  -12.5400000      -7.09907285E-13
  -12.5299997      -9.31001478E-13
  -12.5200005      -1.06112547E-12
  -12.5100002      -1.07280959E-12
  -12.5000000      -9.47643548E-13
  -12.4899998      -6.79325194E-13
  -12.4799995      -2.76155617E-13
  -12.4700003       2.37325106E-13
  -12.4600000       8.19877478E-13
  -12.4499998       1.41457083E-12
  -12.4399996       1.95144768E-12
  -12.4300003       2.35187000E-12
  -12.4200001       2.53435380E-12
  -12.4099998       2.42146277E-12
  -12.3999996       1.94712714E-12
  -12.3900003       1.06362423E-12
  -12.3800001      -2.52580725E-13
  -12.3699999      -1.99682415E-12
  -12.3599997      -4.13457029E-12
  -12.3500004      -6.60227819E-12
  -12.3400002      -9.31069544E-12
  -12.3299999      -1.21502071E-11
  -12.3199997      -1.49976247E-11
  -12.3100004      -1.77236906E-11
  -12.3000002      -2.02006120E-11
  -12.2900000      -2.23089811E-11
  -12.2799997      -2.39436596E-11
  -12.2700005      -2.50182826E-11
  -12.2600002      -2.54683826E-11
  -12.2500000      -2.52529612E-11
  -12.2399998      -2.43547266E-11
  -12.2299995      -2.27789176E-11
  -12.2200003      -2.05508839E-11
  -12.2100000      -1.77125745E-11
  -12.1999998      -1.43179687E-11
  -12.1899996      -1.04278955E-11
  -12.1800003      -6.10458212E-12
  -12.1700001      -1.40644473E-12
  -12.1599998       3.61616401E-12
  -12.1499996       8.92366910E-12
  -12.1400003       1.44880375E-11
  -12.1300001       2.02912270E-11
  -12.1199999       2.63215023E-11
  -12.1099997       3.25679865E-11
  -12.1000004       3.90141530E-11
  -12.0900002       4.56312314E-11
  -12.0799999       5.23724224E-11
  -12.0699997       5.91688434E-11
  -12.0600004       6.59277702E-11
  -12.0500002       7.25333058E-11
  -12.0400000       7.88496005E-11
  -12.0299997       8.47257473E-11
  -12.0200005       9.00020544E-11
  -12.0100002       9.45167417E-11
  -12.0000000       9.81125250E-11
  -11.9899998       1.00642460E-10
  -11.9799995       1.01974866E-10
  -11.9700003       1.01997494E-10
  -11.9600000       1.00620623E-10
  -11.9499998       9.77796802E-11
  -11.9399996       9.34373204E-11
  -11.9300003       8.75847589E-11
  -11.9200001       8.02425626E-11
  -11.9099998       7.14604487E-11
  -11.8999996       6.13158135E-11
  -11.8900003       4.99110996E-11
  -11.8800001       3.73695450E-11
  -11.8699999       2.38302468E-11
  -11.8599997       9.44207299E-12
  -11.8500004      -5.64195695E-12
  -11.8400002      -2.12701124E-11
  -11.8299999      -3.72959649E-11
  -11.8199997      -5.35811048E-11
  -11.8100004      -6.99962380E-11
  -11.8000002      -8.64208219E-11
  -11.7900000      -1.02741933E-10
  -11.7799997      -1.18852511E-10
  -11.7700005      -1.34649666E-10
  -11.7600002      -1.50033513E-10
  -11.7500000      -1.64906533E-10
  -11.7399998      -1.79173440E-10
  -11.7299995      -1.92741448E-10
  -11.7200003      -2.05520198E-10
  -11.7100000      -2.17421817E-10
  -11.6999998      -2.28359678E-10
  -11.6899996      -2.38246922E-10
  -11.6800003      -2.46994231E-10
  -11.6700001      -2.54507582E-10
  -11.6599998      -2.60685806E-10
  -11.6499996      -2.65419492E-10
  -11.6400003      -2.68590261E-10
  -11.6300001      -2.70072104E-10
  -11.6199999      -2.69733236E-10
  -11.6099997      -2.67439765E-10
  -11.6000004      -2.63060240E-10
  -11.5900002      -2.56470289E-10
  -11.5799999      -2.47557835E-10
  -11.5699997      -2.36228009E-10
  -11.5600004      -2.22407953E-10
  -11.5500002      -2.06051037E-10
  -11.5400000      -1.87140553E-10
  -11.5299997      -1.65692987E-10
  -11.5200005      -1.41760464E-10
  -11.5100002      -1.15432268E-10
  -11.5000000      -8.68358163E-11
  -11.4899998      -5.61353811E-11
  -11.4799995      -2.35297493E-11
  -11.4700003       1.07521075E-11
  -11.4600000       4.64576051E-11
  -11.4499998       8.33185257E-11
  -11.4399996       1.21060773E-10
  -11.4300003       1.59414940E-10
  -11.4200001       1.98127154E-10
  -11.4099998       2.36969694E-10
  -11.3999996       2.75750284E-10
  -11.3900003       3.14319737E-10
  -11.3800001       3.52577051E-10
  -11.3699999       3.90472321E-10
  -11.3599997       4.28006242E-10
  -11.3500004       4.65227329E-10
  -11.3400002       5.02225705E-10
  -11.3299999       5.39124967E-10
  -11.3199997       5.76071912E-10
  -11.3100004       6.13224804E-10
  -11.3000002       6.50740517E-10
  -11.2900000       6.88762325E-10
  -11.2799997       7.27408134E-10
  -11.2700005       7.66759267E-10
  -11.2600002       8.06852696E-10
  -11.2500000       8.47675818E-10
  -11.2399998       8.89163521E-10
  -11.2299995       9.31198285E-10
  -11.2200003       9.73614522E-10
  -11.2100000       1.01620479E-09
  -11.1999998       1.05872944E-09
  -11.1899996       1.10092746E-09
  -11.1800003       1.14253007E-09
  -11.1700001       1.18327481E-09
  -11.1599998       1.22291988E-09
  -11.1499996       1.26125910E-09
  -11.1400003       1.29813515E-09
  -11.1300001       1.33345113E-09
  -11.1199999       1.36717870E-09
  -11.1099997       1.39936396E-09
  -11.1000004       1.43012524E-09
  -11.0900002       1.45965207E-09
  -11.0799999       1.48819235E-09
  -11.0699997       1.51604063E-09
  -11.0600004       1.54352131E-09
  -11.0500002       1.57097124E-09
  -11.0400000       1.59871671E-09
  -11.0299997       1.62705927E-09
  -11.0200005       1.65625669E-09
  -11.0100002       1.68651049E-09
  -11.0000000       1.71795589E-09
  -10.9899998       1.75065529E-09
  -10.9799995       1.78459580E-09
  -10.9700003       1.81968818E-09
  -10.9600000       1.85577154E-09
  -10.9499998       1.89261584E-09
  -10.9399996       1.92993310E-09
  -10.9300003       1.96738403E-09
  -10.9200001       2.00459160E-09
  -10.9099998       2.04115103E-09
  -10.8999996       2.07664375E-09
  -10.8900003       2.11065143E-09
  -10.8800001       2.14276596E-09
  -10.8699999       2.17260654E-09
  -10.8599997       2.19982699E-09
  -10.8500004       2.22412555E-09
  -10.8400002       2.24525532E-09
  -10.8299999       2.26302732E-09
  -10.8199997       2.27731278E-09
  -10.8100004       2.28804775E-09
  -10.8000002       2.29522623E-09
  -10.7900000       2.29889729E-09
  -10.7799997       2.29915931E-09
  -10.7700005       2.29614439E-09
  -10.7600002       2.29001218E-09
  -10.7500000       2.28092922E-09
  -10.7399998       2.26906050E-09
  -10.7299995       2.25455432E-09
  -10.7200003       2.23752972E-09
  -10.7100000       2.21806995E-09
  -10.6999998       2.19621454E-09
  -10.6899996       2.17195706E-09
  -10.6800003       2.14524687E-09
  -10.6700001       2.11598894E-09
  -10.6599998       2.08405226E-09
  -10.6499996       2.04927164E-09
  -10.6400003       2.01145811E-09
  -10.6300001       1.97040917E-09
  -10.6199999       1.92591276E-09
  -10.6099997       1.87776128E-09
  -10.6000004       1.82575277E-09
  -10.5900002       1.76970827E-09
  -10.5799999       1.70947090E-09
  -10.5699997       1.64491543E-09
  -10.5600004       1.57595303E-09
  -10.5500002       1.50253820E-09
  -10.5400000       1.42466505E-09
  -10.5299997       1.34237621E-09
  -10.5200005       1.25575894E-09
  -10.5100002       1.16495225E-09
  -10.5000000       1.07013987E-09
  -10.4899998       9.71558722E-10
  -10.4799995       8.69493533E-10
  -10.4700003       7.64278363E-10
  -10.4600000       6.56293631E-10
  -10.4499998       5.45965329E-10
  -10.4399996       4.33757891E-10
  -10.4300003       3.20168725E-10
  -10.4200001       2.05719608E-10
  -10.4099998       9.09452721E-11
  -10.3999996      -2.36153042E-11
  -10.3900003      -1.37433356E-10
  -10.3800001      -2.50000798E-10
  -10.3699999      -3.60840774E-10
  -10.3599997      -4.69518535E-10
  -10.3500004      -5.75647474E-10
  -10.3400002      -6.78895939E-10
  -10.3299999      -7.78991205E-10
  -10.3199997      -8.75719830E-10
  -10.3100004      -9.68932823E-10
  -10.3000002      -1.05854447E-09
  -10.2900000      -1.14453247E-09
  -10.2799997      -1.22693955E-09
  -10.2700005      -1.30587086E-09
  -10.2600002      -1.38149192E-09
  -10.2500000      -1.45402590E-09
  -10.2399998      -1.52374557E-09
  -10.2299995      -1.59096425E-09
  -10.2200003      -1.65602698E-09
  -10.2100000      -1.71929793E-09
  -10.1999998      -1.78114823E-09
  -10.1899996      -1.84194526E-09
  -10.1800003      -1.90204319E-09
  -10.1700001      -1.96177363E-09
  -10.1599998      -2.02144212E-09
  -10.1499996      -2.08132223E-09
  -10.1400003      -2.14165463E-09
  -10.1300001      -2.20264496E-09
  -10.1199999      -2.26446195E-09
  -10.1099997      -2.32724173E-09
  -10.1000004      -2.39107956E-09
  -10.0900002      -2.45603404E-09
  -10.0799999      -2.52212295E-09
  -10.0699997      -2.58932142E-09
  -10.0600004      -2.65755840E-09
  -10.0500002      -2.72671796E-09
  -10.0400000      -2.79663603E-09
  -10.0299997      -2.86709612E-09
  -10.0200005      -2.93783797E-09
  -10.0100002      -3.00855585E-09
  -10.0000000      -3.07890891E-09
  -9.98999977      -3.14852810E-09
  -9.97999954      -3.21703153E-09
  -9.97000027      -3.28404148E-09
  -9.96000004      -3.34920425E-09
  -9.94999981      -3.41220896E-09
  -9.93999958      -3.47280449E-09
  -9.93000031      -3.53082452E-09
  -9.92000008      -3.58619734E-09
  -9.90999985      -3.63895603E-09
  -9.89999962      -3.68924291E-09
  -9.89000034      -3.73730957E-09
  -9.88000011      -3.78350862E-09
  -9.86999989      -3.82828480E-09
  -9.85999966      -3.87215993E-09
  -9.85000038      -3.91572019E-09
  -9.84000015      -3.95958999E-09
  -9.82999992      -4.00442213E-09
  -9.81999969      -4.05087652E-09
  -9.81000042      -4.09960244E-09
  -9.80000019      -4.15122514E-09
  -9.78999996      -4.20632862E-09
  -9.77999973      -4.26544355E-09
  -9.77000046      -4.32903802E-09
  -9.76000023      -4.39750414E-09
  -9.75000000      -4.47115278E-09
  -9.73999977      -4.55021043E-09
  -9.72999954      -4.63480987E-09
  -9.72000027      -4.72498796E-09
  -9.71000004      -4.82068518E-09
  -9.69999981      -4.92173857E-09
  -9.68999958      -5.02787900E-09
  -9.68000031      -5.13873299E-09
  -9.67000008      -5.25382182E-09
  -9.65999985      -5.37255929E-09
  -9.64999962      -5.49426193E-09
  -9.64000034      -5.61816016E-09
  -9.63000011      -5.74340353E-09
  -9.61999989      -5.86907722E-09
  -9.60999966      -5.99422112E-09
  -9.60000038      -6.11783868E-09
  -9.59000015      -6.23892360E-09
  -9.57999992      -6.35646336E-09
  -9.56999969      -6.46946052E-09
  -9.56000042      -6.57694388E-09
  -9.55000019      -6.67797950E-09
  -9.53999996      -6.77168410E-09
  -9.52999973      -6.85723878E-09
  -9.52000046      -6.93389790E-09
  -9.51000023      -7.00100555E-09
  -9.50000000      -7.05800529E-09
  -9.48999977      -7.10444814E-09
  -9.47999954      -7.14001391E-09
  -9.47000027      -7.16451476E-09
  -9.46000004      -7.17791293E-09
  -9.44999981      -7.18033677E-09
  -9.43999958      -7.17209137E-09
  -9.43000031      -7.15366477E-09
  -9.42000008      -7.12574977E-09
  -9.40999985      -7.08922387E-09
  -9.39999962      -7.04515424E-09
  -9.39000034      -6.99479141E-09
  -9.38000011      -6.93954716E-09
  -9.36999989      -6.88097934E-09
  -9.35999966      -6.82077594E-09
  -9.35000038      -6.76074041E-09
  -9.34000015      -6.70277522E-09
  -9.32999992      -6.64885613E-09
  -9.31999969      -6.60103172E-09
  -9.31000042      -6.56139543E-09
  -9.30000019      -6.53207177E-09
  -9.28999996      -6.51519860E-09
  -9.27999973      -6.51288046E-09
  -9.27000046      -6.52718679E-09
  -9.26000023      -6.56009203E-09
  -9.25000000      -6.61347643E-09
  -9.23999977      -6.68908040E-09
  -9.22999954      -6.78847734E-09
  -9.22000027      -6.91305635E-09
  -9.21000004      -7.06401204E-09
  -9.19999981      -7.24231741E-09
  -9.18999958      -7.44869011E-09
  -9.18000031      -7.68360309E-09
  -9.17000008      -7.94725530E-09
  -9.15999985      -8.23956992E-09
  -9.14999962      -8.56017568E-09
  -9.14000034      -8.90840557E-09
  -9.13000011      -9.28332522E-09
  -9.11999989      -9.68371427E-09
  -9.10999966      -1.01080824E-08
  -9.10000038      -1.05546860E-08
  -9.09000015      -1.10215339E-08
  -9.07999992      -1.15064145E-08
  -9.06999969      -1.20068764E-08
  -9.06000042      -1.25202950E-08
  -9.05000019      -1.30438442E-08
  -9.03999996      -1.35745459E-08
  -9.02999973      -1.41092773E-08
  -9.02000046      -1.46448027E-08
  -9.01000023      -1.51778146E-08
  -9.00000000      -1.57049431E-08
  -8.98999977      -1.62227938E-08
  -8.97999954      -1.67279861E-08
  -8.97000027      -1.72171539E-08
  -8.96000004      -1.76870074E-08
  -8.94999981      -1.81343385E-08
  -8.93999958      -1.85560776E-08
  -8.93000031      -1.89492866E-08
  -8.92000008      -1.93112264E-08
  -8.90999985      -1.96393568E-08
  -8.89999962      -1.99313508E-08
  -8.89000034      -2.01851584E-08
  -8.88000011      -2.03989590E-08
  -8.86999989      -2.05712407E-08
  -8.85999966      -2.07007673E-08
  -8.85000038      -2.07865813E-08
  -8.84000015      -2.08280380E-08
  -8.82999992      -2.08247819E-08
  -8.81999969      -2.07767723E-08
  -8.81000042      -2.06842401E-08
  -8.80000019      -2.05477466E-08
  -8.78999996      -2.03681125E-08
  -8.77999973      -2.01464250E-08
  -8.77000046      -1.98840162E-08
  -8.76000023      -1.95824406E-08
  -8.75000000      -1.92434619E-08
  -8.73999977      -1.88689864E-08
  -8.72999954      -1.84610638E-08
  -8.72000027      -1.80218347E-08
  -8.71000004      -1.75535089E-08
  -8.69999981      -1.70583281E-08
  -8.68999958      -1.65385821E-08
  -8.68000031      -1.59964895E-08
  -8.67000008      -1.54342672E-08
  -8.65999985      -1.48540549E-08
  -8.64999962      -1.42579113E-08
  -8.64000034      -1.36478002E-08
  -8.63000011      -1.30255646E-08
  -8.61999989      -1.23929418E-08
  -8.60999966      -1.17515437E-08
  -8.60000038      -1.11028786E-08
  -8.59000015      -1.04483195E-08
  -8.57999992      -9.78909487E-09
  -8.56999969      -9.12633880E-09
  -8.56000042      -8.46105230E-09
  -8.55000019      -7.79411646E-09
  -8.53999996      -7.12625114E-09
  -8.52999973      -6.45810916E-09
  -8.52000046      -5.79021764E-09
  -8.51000023      -5.12300247E-09
  -8.50000000      -4.45681003E-09
  -8.48999977      -3.79186771E-09
  -8.47999954      -3.12838222E-09
  -8.47000027      -2.46648169E-09
  -8.46000004      -1.80626325E-09
  -8.44999981      -1.14776777E-09
  -8.43999958      -4.91015728E-10
  -8.43000031       1.63971434E-10
  -8.42000008       8.17193757E-10
  -8.40999985       1.46862200E-09
  -8.39999962       2.11818763E-09
  -8.39000034       2.76578405E-09
  -8.38000011       3.41121709E-09
  -8.36999989       4.05421341E-09
  -8.35999966       4.69438621E-09
  -8.35000038       5.33123856E-09
  -8.34000015       5.96416605E-09
  -8.32999992       6.59244348E-09
  -8.31999969       7.21519067E-09
  -8.31000042       7.83144660E-09
  -8.30000019       8.44010195E-09
  -8.28999996       9.03996344E-09
  -8.27999973       9.62968016E-09
  -8.27000046       1.02078452E-08
  -8.26000023       1.07729443E-08
  -8.25000000       1.13233813E-08
  -8.23999977       1.18575096E-08
  -8.22999954       1.23735902E-08
  -8.22000027       1.28699025E-08
  -8.21000004       1.33446703E-08
  -8.19999981       1.37961536E-08
  -8.18999958       1.42225973E-08
  -8.18000031       1.46222998E-08
  -8.17000008       1.49935477E-08
  -8.15999985       1.53347486E-08
  -8.14999962       1.56443463E-08
  -8.14000034       1.59208771E-08
  -8.13000011       1.61629572E-08
  -8.11999989       1.63693628E-08
  -8.10999966       1.65389640E-08
  -8.10000038       1.66708052E-08
  -8.09000015       1.67640835E-08
  -8.07999992       1.68181842E-08
  -8.06999969       1.68326615E-08
  -8.06000042       1.68072525E-08
  -8.05000019       1.67419252E-08
  -8.03999996       1.66368039E-08
  -8.02999973       1.64922049E-08
  -8.02000046       1.63086238E-08
  -8.01000023       1.60867479E-08
  -8.00000000       1.58274176E-08
  -7.98999977       1.55316311E-08
  -7.98000002       1.52005555E-08
  -7.96999979       1.48354875E-08
  -7.96000004       1.44378358E-08
  -7.94999981       1.40091378E-08
  -7.94000006       1.35510030E-08
  -7.92999983       1.30651445E-08
  -7.92000008       1.25533033E-08
  -7.90999985       1.20172787E-08
  -7.90000010       1.14589209E-08
  -7.88999987       1.08800995E-08
  -7.88000011       1.02827435E-08
  -7.86999989       9.66877067E-09
  -7.86000013       9.04012776E-09
  -7.84999990       8.39877234E-09
  -7.84000015       7.74663889E-09
  -7.82999992       7.08562453E-09
  -7.82000017       6.41757492E-09
  -7.80999994       5.74427528E-09
  -7.80000019       5.06741360E-09
  -7.78999996       4.38862280E-09
  -7.78000021       3.70944053E-09
  -7.76999998       3.03131209E-09
  -7.76000023       2.35560083E-09
  -7.75000000       1.68356007E-09
  -7.73999977       1.01634690E-09
  -7.73000002       3.54989815E-10
  -7.71999979      -2.99576586E-10
  -7.71000004      -9.46598799E-10
  -7.69999981      -1.58543245E-09
  -7.69000006      -2.21554863E-09
  -7.67999983      -2.83650969E-09
  -7.67000008      -3.44804296E-09
  -7.65999985      -4.04993461E-09
  -7.65000010      -4.64205474E-09
  -7.63999987      -5.22442090E-09
  -7.63000011      -5.79718096E-09
  -7.61999989      -6.36054098E-09
  -7.61000013      -6.91485846E-09
  -7.59999990      -7.46062945E-09
  -7.59000015      -7.99841349E-09
  -7.57999992      -8.52890825E-09
  -7.57000017      -9.05281716E-09
  -7.55999994      -9.57100443E-09
  -7.55000019      -1.00843662E-08
  -7.53999996      -1.05938422E-08
  -7.53000021      -1.11005090E-08
  -7.51999998      -1.16054872E-08
  -7.51000023      -1.21099166E-08
  -7.50000000      -1.26150645E-08
  -7.48999977      -1.31221274E-08
  -7.48000002      -1.36323370E-08
  -7.46999979      -1.41468588E-08
  -7.46000004      -1.46668118E-08
  -7.44999981      -1.51932884E-08
  -7.44000006      -1.57272773E-08