  -16.0000000       0.00000000    
  -15.9899998       0.00000000    
  -15.9799995       0.00000000    
  -15.9700003       0.00000000    
  -15.9600000       0.00000000    
  -15.9499998       0.00000000    
  -15.9399996       0.00000000    
  -15.9300003       0.00000000    
  -15.9200001       0.00000000    
  -15.9099998       0.00000000    
  -15.8999996       0.00000000    
  -15.8900003       0.00000000    
  -15.8800001      -9.80908925E-45
  -15.8699999      -2.55036321E-43
  -15.8599997      -6.61412875E-43
  -15.8500004       3.53729771E-41
  -15.8400002       5.99248473E-40
  -15.8299999       5.55524457E-39
  -15.8199997       3.70786544E-38
  -15.8100004       1.96512805E-37
  -15.8000002       8.70146169E-37
  -15.7900000       3.31828983E-36
  -15.7799997       1.11038169E-35
  -15.7700005       3.29510094E-35
  -15.7600002       8.70541212E-35
  -15.7500000       2.04131229E-34
  -15.7399998       4.19544954E-34
  -15.7299995       7.32972523E-34
  -15.7200003       1.00400883E-33
  -15.7100000       7.65946517E-34
  -15.6999998      -9.82111387E-34
  -15.6899996      -5.76818457E-33
  -15.6800003      -1.49547787E-32
  -15.6700001      -2.78187850E-32
  -15.6599998      -3.83959449E-32
  -15.6499996      -3.26744524E-32
  -15.6400003       9.79718705E-33
  -15.6300001       1.04172333E-31
  -15.6199999       2.35553928E-31
  -15.6099997       3.29640848E-31
  -15.6000004       2.46521078E-31
  -15.5900002      -1.58697850E-31
  -15.5799999      -8.77392651E-31
  -15.5699997      -1.52983725E-30
  -15.5600004      -1.25618809E-30
  -15.5500002       9.93745903E-31
  -15.5400000       5.51615263E-30
  -15.5299997       1.03696191E-29
  -15.5200005       1.02223539E-29
  -15.5100002      -2.76685265E-30
  -15.5000000      -3.41880822E-29
  -15.4899998      -7.84293201E-29
  -15.4799995      -1.08912687E-28
  -15.4700003      -7.56918635E-29
  -15.4600000       7.86547924E-29
  -15.4499998       3.77624716E-28
  -15.4399996       7.49972191E-28
  -15.4300003       9.76603541E-28
  -15.4200001       6.92210567E-28
  -15.4099998      -5.06346916E-28
  -15.3999996      -2.81473255E-27
  -15.3900003      -5.86024429E-27
  -15.3800001      -8.32155733E-27
  -15.3699999      -7.71783761E-27
  -15.3599997      -6.69834679E-28
  -15.3500004       1.59351151E-26
  -15.3400002       4.23848986E-26
  -15.3299999       7.19871260E-26
  -15.3199997       8.62063684E-26
  -15.3100004       5.22864773E-26
  -15.3000002      -7.03075548E-26
  -15.2900000      -3.06387511E-25
  -15.2799997      -6.19812598E-25
  -15.2700005      -8.55997504E-25
  -15.2600002      -7.07974165E-25
  -15.2500000       2.28096592E-25
  -15.2399998       2.23254341E-24
  -15.2299995       5.05005559E-24
  -15.2200003       7.39746977E-24
  -15.2100000       6.72092689E-24
  -15.1999998      -2.67770453E-25
  -15.1899996      -1.57618322E-23
  -15.1800003      -3.77027613E-23
  -15.1700001      -5.63380098E-23
  -15.1599998      -5.29888472E-23
  -15.1499996      -4.57311541E-24
  -15.1400003       1.03233115E-22
  -15.1300001       2.55008868E-22
  -15.1199999       3.84619623E-22
  -15.1099997       3.70451227E-22
  -15.1000004       6.75694201E-23
  -15.0900002      -6.09056054E-22
  -15.0799999      -1.55995389E-21
  -15.0699997      -2.38511734E-21
  -15.0600004      -2.36931387E-21
  -15.0500002      -6.78259930E-22
  -15.0400000       3.17077635E-21
  -15.0299997       8.63426471E-21
  -15.0200005       1.35416809E-20
  -15.0100002       1.40500908E-20
  -15.0000000       5.69026712E-21
  -14.9899998      -1.42206532E-20
  -14.9799995      -4.31980212E-20
  -14.9700003      -7.06251395E-20
  -14.9600000      -7.75018280E-20
  -14.9499998      -4.13790671E-20
  -14.9399996       5.23223241E-20
  -14.9300003       1.94493465E-19
  -14.9200001       3.38275331E-19
  -14.9099998       3.96933939E-19
  -14.8999996       2.64528017E-19
  -14.8900003      -1.35263068E-19
  -14.8800001      -7.79764190E-19
  -14.8699999      -1.48320411E-18
  -14.8599997      -1.88006800E-18
  -14.8500004      -1.50144531E-18
  -14.8400002       3.11023626E-20
  -14.8299999       2.72019089E-18
  -14.8199997       5.91339715E-18
  -14.8100004       8.19381788E-18
  -14.8000002       7.62283248E-18
  -14.7900000       2.44614202E-18
  -14.7799997      -7.80822599E-18
  -14.7700005      -2.11769536E-17
  -14.7600002      -3.26472802E-17
  -14.7500000      -3.47766516E-17
  -14.7399998      -2.00302960E-17
  -14.7299995       1.52862216E-17
  -14.7200003       6.65511934E-17
  -14.7100000       1.17815004E-16
  -14.6999998       1.42753586E-16
  -14.6899996       1.11578763E-16
  -14.6800003       4.04502197E-18
  -14.6700001      -1.74350072E-16
  -14.6599998      -3.79243650E-16
  -14.6499996      -5.25809360E-16
  -14.6400003      -5.06316009E-16
  -14.6300001      -2.29376919E-16
  -14.6199999       3.25837349E-16
  -14.6099997       1.05831653E-15
  -14.6000004       1.72338710E-15
  -14.5900002       1.96738246E-15
  -14.5799999       1.43357912E-15
  -14.5699997      -7.17680561E-17
  -14.5600004      -2.39891780E-15
  -14.5500002      -4.93635259E-15
  -14.5400000      -6.64266785E-15
  -14.5299997      -6.29274710E-15
  -14.5200005      -2.93658805E-15
  -14.5100002       3.52882968E-15
  -14.5000000       1.18756899E-14
  -14.4899998       1.94107222E-14
  -14.4799995       2.24229289E-14
  -14.4700003       1.73010799E-14
  -14.4600000       2.15427499E-15
  -14.4499998      -2.15306441E-14
  -14.4399996      -4.78960337E-14
  -14.4300003      -6.71232614E-14
  -14.4200001      -6.77190509E-14
  -14.4099998      -4.05653870E-14
  -14.3999996       1.61788443E-14
  -14.3900003       9.29982138E-14
  -14.3800001       1.67823708E-13
  -14.3699999       2.09470245E-13
  -14.3599997       1.86293079E-13
  -14.3500004       7.87536472E-14
  -14.3400002      -1.07553255E-13
  -14.3299999      -3.33462370E-13
  -14.3199997      -5.27645744E-13
  -14.3100004      -6.01295110E-13
  -14.3000002      -4.75595312E-13
  -14.2900000      -1.16280154E-13
  -14.2799997       4.35420417E-13
  -14.2700005       1.04879159E-12
  -14.2600002       1.51842135E-12
  -14.2500000       1.61291672E-12
  -14.2399998       1.15165158E-12
  -14.2299995       9.08958510E-14
  -14.2200003      -1.40948917E-12
  -14.2100000      -2.97047261E-12
  -14.1999998      -4.05306691E-12
  -14.1899996      -4.09651610E-12
  -14.1800003      -2.71210441E-12
  -14.1700001       1.18773332E-13
  -14.1599998       3.91200310E-12
  -14.1499996       7.68232266E-12
  -14.1400003       1.01217767E-11
  -14.1300001       9.94841882E-12
  -14.1199999       6.35665045E-12
  -14.1099997      -5.55898535E-13
  -14.1000004      -9.53933720E-12
  -14.0900002      -1.82589586E-11
  -14.0799999      -2.37494260E-11
  -14.0699997      -2.32143870E-11
  -14.0600004      -1.50015625E-11
  -14.0500002       5.22875580E-13
  -14.0400000       2.05182642E-11
  -14.0299997       3.98960587E-11
  -14.0200005       5.23378355E-11
  -14.0100002       5.19822588E-11
  -14.0000000       3.54096370E-11
  -13.9899998       3.36297808E-12
  -13.9799995      -3.84093521E-11
  -13.9700003      -7.96726365E-11
  -13.9600000      -1.07752703E-10
  -13.9499998      -1.10833502E-10
  -13.9399996      -8.17721238E-11
  -13.9300003      -2.13706101E-11
  -13.9200001       6.00225425E-11
  -13.9099998       1.43439774E-10
  -13.8999996       2.05017184E-10
  -13.8900003       2.21983404E-10
  -13.8800001       1.79589149E-10
  -13.8699999       7.71014780E-11
  -13.8599997      -6.91050064E-11
  -13.8500004      -2.26841740E-10
  -13.8400002      -3.54246216E-10
  -13.8299999      -4.09882489E-10
  -13.8199997      -3.64588248E-10
  -13.8100004      -2.11949860E-10
  -13.8000002       2.58591482E-11
  -13.7900000       2.99345243E-10
  -13.7799997       5.40888334E-10
  -13.7700005       6.80524470E-10
  -13.7600002       6.64867661E-10
  -13.7500000       4.74287276E-10
  -13.7399998       1.33220351E-10
  -13.7299995      -2.90282298E-10
  -13.7200003      -6.97152336E-10
  -13.7100000      -9.80134529E-10
  -13.6999998      -1.05176412E-09
  -13.6899996      -8.70261585E-10
  -13.6800003      -4.55806587E-10
  -13.6700001       1.08514725E-10
  -13.6599998       6.93058000E-10
  -13.6499996       1.15247223E-09
  -13.6400003       1.36374734E-09
  -13.6300001       1.26126865E-09
  -13.6199999       8.58501770E-10
  -13.6099997       2.48816245E-10
  -13.6000004      -4.16585155E-10
  -13.5900002      -9.68988112E-10
  -13.5799999      -1.27011335E-09
  -13.5699997      -1.25368371E-09
  -13.5600004      -9.47219525E-10
  -13.5500002      -4.65537997E-10
  -13.5400000       2.44267037E-11
  -13.5299997       3.58656022E-10
  -13.5200005       4.34596942E-10
  -13.5100002       2.53751936E-10
  -13.5000000      -6.83624685E-11
  -13.4899998      -3.32877642E-10
  -13.4799995      -3.24266836E-10
  -13.4700003       1.04471182E-10
  -13.4600000       9.54859969E-10
  -13.4499998       2.04278372E-09
  -13.4399996       3.01642178E-09
  -13.4300003       3.43812823E-09
  -13.4200001       2.91606539E-09
  -13.4099998       1.25243071E-09
  -13.3999996      -1.43661194E-09
  -13.3900003      -4.67378181E-09
  -13.3800001      -7.67640351E-09
  -13.3699999      -9.51886392E-09
  -13.3599997      -9.37374356E-09
  -13.3500004      -6.77470391E-09
  -13.3400002      -1.82759541E-09
  -13.3299999       4.70121719E-09
  -13.3199997       1.14665326E-08
  -13.3100004       1.68019572E-08
  -13.3000002       1.91101783E-08
  -13.2900000       1.72983281E-08
  -13.2799997       1.11452847E-08
  -13.2700005       1.49033086E-09
  -13.2600002      -9.83323289E-09
  -13.2500000      -2.03360706E-08
  -13.2399998      -2.74266778E-08
  -13.2299995      -2.90595477E-08
  -13.2200003      -2.43157157E-08
  -13.2100000      -1.37531622E-08
  -13.1999998       5.91592608E-10
  -13.1899996       1.55879292E-08
  -13.1800003       2.77183876E-08
  -13.1700001       3.39514976E-08
  -13.1599998       3.25620242E-08
  -13.1499996       2.36730102E-08
  -13.1400003       9.34762312E-09
  -13.1300001      -6.83472479E-09
  -13.1199999      -2.06486117E-08
  -13.1099997      -2.83400770E-08
  -13.1000004      -2.77049192E-08
  -13.0900002      -1.88243590E-08
  -13.0799999      -4.22009050E-09
  -13.0699997       1.16709877E-08
  -13.0600004       2.36221265E-08
  -13.0500002       2.70859424E-08
  -13.0400000       1.96282759E-08
  -13.0299997       1.91742400E-09
  -13.0200005      -2.20601883E-08
  -13.0100002      -4.57068765E-08
  -13.0000000      -6.13521607E-08
  -12.9899998      -6.22923579E-08
  -12.9799995      -4.48270292E-08
  -12.9700003      -9.73527392E-09
  -12.9600000       3.72725921E-08
  -12.9499998       8.63636558E-08
  -12.9399996       1.25573948E-07
  -12.9300003       1.43583435E-07
  -12.9200001       1.32631172E-07
  -12.9099998       9.08333320E-08
  -12.8999996       2.32601458E-08
  -12.8900003      -5.86017315E-08
  -12.8800001      -1.38987360E-07
  -12.8699999      -2.01167083E-07
  -12.8599997      -2.31184416E-07
  -12.8500004      -2.21119350E-07
  -12.8400002      -1.71054907E-07
  -12.8299999      -8.92213166E-08
  -12.8199997       9.76061276E-09
  -12.8100004       1.08131459E-07
  -12.8000002       1.88940149E-07
  -12.7900000       2.39692469E-07
  -12.7799997       2.54775586E-07
  -12.7700005       2.36052173E-07
  -12.7600002       1.91515170E-07
  -12.7500000       1.32428880E-07
  -12.7399998       6.98143268E-08
  -12.7299995       1.13348211E-08
  -12.7200003      -4.04660945E-08
  -12.7100000      -8.80094007E-08
  -12.6999998      -1.36619235E-07
  -12.6899996      -1.91171694E-07
  -12.6800003      -2.52528537E-07
  -12.6700001      -3.14994367E-07
  -12.6599998      -3.65835518E-07
  -12.6499996      -3.87359961E-07
  -12.6400003      -3.61311606E-07
  -12.6300001      -2.74578298E-07
  -12.6199999      -1.24669910E-07
  -12.6099997       7.67269199E-08
  -12.6000004       3.03487326E-07
  -12.5900002       5.18692786E-07
  -12.5799999       6.81775191E-07
  -12.5699997       7.57730561E-07
  -12.5600004       7.26228052E-07
  -12.5500002       5.88207399E-07
  -12.5400000       3.67952822E-07
  -12.5299997       1.09597067E-07
  -12.5200005      -1.31648306E-07
  -12.5100002      -3.01865214E-07
  -12.5000000      -3.61667219E-07
  -12.4899998      -2.97131180E-07
  -12.4799995      -1.25594298E-07
  -12.4700003       1.05420703E-07
  -12.4600000       3.26289637E-07
  -12.4499998       4.58793835E-07
  -12.4399996       4.32058926E-07
  -12.4300003       1.97228289E-07
  -12.4200001      -2.62618897E-07
  -12.4099998      -9.29681903E-07
  -12.3999996      -1.75641276E-06
  -12.3900003      -2.67690234E-06
  -12.3800001      -3.62167384E-06
  -12.3699999      -4.53195753E-06
  -12.3599997      -5.36963762E-06
  -12.3500004      -6.12019585E-06
  -12.3400002      -6.78789002E-06
  -12.3299999      -7.38457175E-06
  -12.3199997      -7.91544244E-06
  -12.3100004      -8.36607705E-06
  -12.3000002      -8.69498126E-06
  -12.2900000      -8.83461325E-06
  -12.2799997      -8.70165422E-06
  -12.2700005      -8.21476078E-06
  -12.2600002      -7.31580030E-06
  -12.2500000      -5.98920542E-06
  -12.2399998      -4.27415898E-06
  -12.2299995      -2.26565999E-06
  -12.2200003      -1.03059101E-07
  -12.2100000       2.05229981E-06
  -12.1999998       4.04589036E-06
  -12.1899996       5.75896001E-06
  -12.1800003       7.13094732E-06
  -12.1700001       8.16993179E-06
  -12.1599998       8.94829100E-06
  -12.1499996       9.58422697E-06
  -12.1400003       1.02131135E-05
  -12.1300001       1.09551793E-05
  -12.1199999       1.18869330E-05
  -12.1099997       1.30229455E-05
  -12.1000004       1.43121160E-05
  -12.0900002       1.56490587E-05
  -12.0799999       1.68976130E-05
  -12.0699997       1.79205745E-05
  -12.0600004       1.86083034E-05
  -12.0500002       1.88993945E-05
  -12.0400000       1.87886653E-05
  -12.0299997       1.83211050E-05
  -12.0200005       1.75741279E-05
  -12.0100002       1.66332902E-05
  -12.0000000       1.55683629E-05
  -11.9899998       1.44161295E-05
  -11.9799995       1.31744673E-05
  -11.9700003       1.18088128E-05
  -11.9600000       1.02688600E-05
  -11.9499998       8.51027016E-06
  -11.9399996       6.51499704E-06
  -11.9300003       4.30414730E-06
  -11.9200001       1.93949813E-06
  -11.9099998      -4.86949205E-07
  -11.8999996      -2.87261764E-06
  -11.8900003      -5.12773022E-06
  -11.8800001      -7.19586615E-06
  -11.8699999      -9.06579044E-06
  -11.8599997      -1.07710712E-05
  -11.8500004      -1.23773580E-05
  -11.8400002      -1.39606000E-05
  -11.8299999      -1.55820544E-05
  -11.8199997      -1.72669043E-05
  -11.8100004      -1.89923630E-05
  -11.8000002      -2.06886562E-05
  -11.7900000      -2.22527742E-05
  -11.7799997      -2.35716234E-05
  -11.7700005      -2.45484789E-05
  -11.7600002      -2.51260335E-05
  -11.7500000      -2.53000781E-05
  -11.7399998      -2.51204310E-05
  -11.7299995      -2.46790605E-05
  -11.7200003      -2.40885602E-05
  -11.7100000      -2.34565196E-05
  -11.6999998      -2.28621975E-05
  -11.6899996      -2.23410279E-05
  -11.6800003      -2.18802707E-05
  -11.6700001      -2.14260490E-05
  -11.6599998      -2.08992697E-05
  -11.6499996      -2.02156116E-05
  -11.6400003      -1.93042633E-05
  -11.6300001      -1.81207470E-05
  -11.6199999      -1.66510981E-05
  -11.6099997      -1.49074413E-05
  -11.6000004      -1.29171849E-05
  -11.5900002      -1.07099468E-05
  -11.5799999      -8.30660611E-06
  -11.5699997      -5.71409191E-06
  -11.5600004      -2.92752998E-06
  -11.5500002       6.08903861E-08
  -11.5400000       3.24917960E-06
  -11.5299997       6.61303829E-06
  -11.5200005       1.00978550E-05
  -11.5100002       1.36182416E-05
  -11.5000000       1.70662115E-05
  -11.4899998       2.03265008E-05
  -11.4799995       2.32955954E-05
  -11.4700003       2.58995151E-05
  -11.4600000       2.81057964E-05
  -11.4499998       2.99262101E-05
  -11.4399996       3.14092358E-05
  -11.4300003       3.26239569E-05
  -11.4200001       3.36395024E-05
  -11.4099998       3.45054359E-05
  -11.3999996       3.52382885E-05
  -11.3900003       3.58181860E-05
  -11.3800001       3.61965431E-05
  -11.3699999       3.63128820E-05
  -11.3599997       3.61162456E-05
  -11.3500004       3.55851625E-05
  -11.3400002       3.47402674E-05
  -11.3299999       3.36456906E-05
  -11.3199997       3.23981149E-05
  -11.3100004       3.11061558E-05
  -11.3000002       2.98653522E-05
  -11.2900000       2.87356434E-05
  -11.2799997       2.77277122E-05
  -11.2700005       2.68023887E-05
  -11.2600002       2.58835225E-05
  -11.2500000       2.48811939E-05
  -11.2399998       2.37187960E-05
  -11.2299995       2.23563566E-05
  -11.2200003       2.08033125E-05
  -11.2100000       1.91167419E-05
  -11.1999998       1.73851877E-05
  -11.1899996       1.57024406E-05
  -11.1800003       1.41385999E-05
  -11.1700001       1.27169151E-05
  -11.1599998       1.14034592E-05
  -11.1499996       1.01131991E-05
  -11.1400003       8.73163663E-06
  -11.1300001       7.14665384E-06
  -11.1199999       5.28225473E-06
  -11.1099997       3.12521865E-06
  -11.1000004       7.37338951E-07
  -11.0900002      -1.75026025E-06
  -11.0799999      -4.15955401E-06
  -11.0699997      -6.29933584E-06
  -11.0600004      -8.00181806E-06
  -11.0500002      -9.15332475E-06
  -11.0400000      -9.71191366E-06
  -11.0299997      -9.70839938E-06
  -11.0200005      -9.23158586E-06
  -11.0100002      -8.40235680E-06
  -11.0000000      -7.34381365E-06
  -10.9899998      -6.15509271E-06
  -10.9799995      -4.89509102E-06
  -10.9700003      -3.57929139E-06
  -10.9600000      -2.18935475E-06
  -10.9499998      -6.91975970E-07
  -10.9399996       9.38756727E-07
  -10.9300003       2.70166538E-06
  -10.9200001       4.55672398E-06
  -10.9099998       6.42421128E-06
  -10.8999996       8.19495199E-06
  -10.8900003       9.74901741E-06
  -10.8800001       1.09782286E-05
  -10.8699999       1.18069229E-05
  -10.8599997       1.22057918E-05
  -10.8500004       1.21952980E-05
  -10.8400002       1.18376165E-05
  -10.8299999       1.12188291E-05
  -10.8199997       1.04255232E-05
  -10.8100004       9.52158007E-06
  -10.8000002       8.53107940E-06
  -10.7900000       7.43208784E-06
  -10.7799997       6.16356920E-06
  -10.7700005       4.64445293E-06
  -10.7600002       2.80074391E-06
  -10.7500000       5.94166352E-07
  -10.7399998      -1.95489906E-06
  -10.7299995      -4.75646493E-06
  -10.7200003      -7.65554250E-06
  -10.7100000      -1.04522032E-05
  -10.6999998      -1.29331374E-05
  -10.6899996      -1.49078769E-05
  -10.6800003      -1.62416054E-05
  -10.6700001      -1.68772694E-05
  -10.6599998      -1.68423376E-05
  -10.6499996      -1.62391516E-05
  -10.6400003      -1.52216580E-05
  -10.6300001      -1.39642489E-05
  -10.6199999      -1.26296645E-05
  -10.6099997      -1.13426577E-05
  -10.6000004      -1.01740343E-05
  -10.5900002      -9.13696294E-06
  -10.5799999      -8.19465367E-06
  -10.5699997      -7.27624138E-06
  -10.5600004      -6.29666920E-06
  -10.5500002      -5.17628632E-06
  -10.5400000      -3.85672683E-06
  -10.5299997      -2.31093009E-06
  -10.5200005      -5.46448632E-07
  -10.5100002       1.39764256E-06
  -10.5000000       3.45910689E-06
  -10.4899998       5.56443638E-06
  -10.4799995       7.64213110E-06
  -10.4700003       9.63490311E-06
  -10.4600000       1.15084440E-05
  -10.4499998       1.32547511E-05
  -10.4399996       1.48889594E-05
  -10.4300003       1.64401063E-05
  -10.4200001       1.79377039E-05
  -10.4099998       1.93974556E-05
  -10.3999996       2.08099664E-05
  -10.3900003       2.21359041E-05
  -10.3800001       2.33094124E-05
  -10.3699999       2.42494316E-05
  -10.3599997       2.48760716E-05
  -10.3500004       2.51275833E-05
  -10.3400002       2.49730419E-05
  -10.3299999       2.44169660E-05
  -10.3199997       2.34944382E-05
  -10.3100004       2.22582294E-05
  -10.3000002       2.07618978E-05
  -10.2900000       1.90441278E-05
  -10.2799997       1.71191587E-05
  -10.2700005       1.49762809E-05
  -10.2600002       1.25883198E-05
  -10.2500000       9.92627611E-06
  -10.2399998       6.97518090E-06
  -10.2299995       3.74596061E-06
  -10.2200003       2.79423944E-07
  -10.2100000      -3.35896880E-06
  -10.1999998      -7.09186497E-06
  -10.1899996      -1.08462791E-05
  -10.1800003      -1.45682225E-05
  -10.1700001      -1.82311669E-05
  -10.1599998      -2.18357618E-05
  -10.1499996      -2.54008319E-05
  -10.1400003      -2.89482505E-05
  -10.1300001      -3.24859029E-05
  -10.1199999      -3.59932055E-05
  -10.1099997      -3.94127565E-05
  -10.1000004      -4.26499246E-05
  -10.0900002      -4.55801346E-05
  -10.0799999      -4.80620474E-05
  -10.0699997      -4.99540402E-05
  -10.0600004      -5.11313410E-05
  -10.0500002      -5.15016145E-05
  -10.0400000      -5.10175887E-05
  -10.0299997      -4.96857210E-05
  -10.0200005      -4.75699489E-05
  -10.0100002      -4.47896236E-05
  -10.0000000      -4.15104878E-05
  -9.98999977      -3.79280900E-05
  -9.97999954      -3.42442181E-05
  -9.97000027      -3.06382899E-05
  -9.96000004      -2.72381785E-05
  -9.94999981      -2.40959143E-05
  -9.93999958      -2.11745664E-05
  -9.93000031      -1.83513330E-05
  -9.92000008      -1.54389090E-05
  -9.90999985      -1.22233814E-05
  -9.89999962      -8.51236928E-06
  -9.89000034      -4.18376840E-06
  -9.88000011       7.75859803E-07
  -9.86999989       6.25313078E-06
  -9.85999966       1.20155737E-05
  -9.85000038       1.77452202E-05
  -9.84000015       2.30916994E-05
  -9.82999992       2.77333511E-05
  -9.81999969       3.14327408E-05
  -9.81000042       3.40738552E-05
  -9.80000019       3.56730452E-05
  -9.78999996       3.63621875E-05
  -9.77999973       3.63497129E-05
  -9.77000046       3.58704092E-05
  -9.76000023       3.51371818E-05
  -9.75000000       3.43062020E-05
  -9.73999977       3.34623473E-05
  -9.72999954       3.26251720E-05
  -9.72000027       3.17696467E-05
  -9.71000004       3.08521994E-05
  -9.69999981       2.98323539E-05
  -9.68999958       2.86830400E-05
  -9.68000031       2.73882433E-05
  -9.67000008       2.59318203E-05
  -9.65999985       2.42851456E-05
  -9.64999962       2.24017276E-05
  -9.64000034       2.02242300E-05
  -9.63000011       1.77039983E-05
  -9.61999989       1.48279669E-05
  -9.60999966       1.16435094E-05
  -9.60000038       8.27161784E-06
  -9.59000015       4.90125467E-06
  -9.57999992       1.76396907E-06
  -9.56999969      -9.06122011E-07
  -9.56000042      -2.91645051E-06
  -9.55000019      -4.15195427E-06
  -9.53999996      -4.59277362E-06
  -9.52999973      -4.30874115E-06
  -9.52000046      -3.43283227E-06
  -9.51000023      -2.12160853E-06
  -9.50000000      -5.14154692E-07
  -9.48999977       1.29920613E-06
  -9.47999954       3.29099566E-06
  -9.47000027       5.49152674E-06
  -9.46000004       7.96855329E-06
  -9.44999981       1.07992373E-05
  -9.43999958       1.40429602E-05
  -9.43000031       1.77217480E-05
  -9.42000008       2.18115874E-05
  -9.40999985       2.62438207E-05
  -9.39999962       3.09132374E-05
  -9.39000034       3.56887504E-05
  -9.38000011       4.04231869E-05
  -9.36999989       4.49609506E-05
  -9.35999966       4.91441897E-05
  -9.35000038       5.28187338E-05
  -9.34000015       5.58411448E-05
  -9.32999992       5.80866217E-05
  -9.31999969       5.94562553E-05
  -9.31000042       5.98816587E-05
  -9.30000019       5.93251607E-05
  -9.28999996       5.77757746E-05
  -9.27999973       5.52424353E-05
  -9.27000046       5.17478511E-05
  -9.26000023       4.73258478E-05
  -9.25000000       4.20236902E-05
  -9.23999977       3.59085025E-05
  -9.22999954       2.90745538E-05
  -9.22000027       2.16468143E-05
  -9.21000004       1.37770021E-05
  -9.19999981       5.63073763E-06
  -9.18999958      -2.63234847E-06
  -9.18000031      -1.08805298E-05
  -9.17000008      -1.90275459E-05
  -9.15999985      -2.70399323E-05
  -9.14999962      -3.49314323E-05
  -9.14000034      -4.27455161E-05
  -9.13000011      -5.05308562E-05
  -9.11999989      -5.83169858E-05
  -9.10999966      -6.60968944E-05
  -9.10000038      -7.38211093E-05
  -9.09000015      -8.14040395E-05
  -9.07999992      -8.87395145E-05
  -9.06999969      -9.57201992E-05
  -9.06000042      -1.02254620E-04
  -9.05000019      -1.08277651E-04
  -9.03999996      -1.13752678E-04
  -9.02999973      -1.18666336E-04
  -9.02000046      -1.23019374E-04
  -9.01000023      -1.26816885E-04
  -9.00000000      -1.30061206E-04
  -8.98999977      -1.32748493E-04
  -8.97999954      -1.34868678E-04
  -8.97000027      -1.36407049E-04
  -8.96000004      -1.37346389E-04
  -8.94999981      -1.37668030E-04
  -8.93999958      -1.37351773E-04
  -8.93000031      -1.36375878E-04
  -8.92000008      -1.34716844E-04
  -8.90999985      -1.32350207E-04
  -8.89999962      -1.29251726E-04
  -8.89000034      -1.25398932E-04
  -8.88000011      -1.20771983E-04
  -8.86999989      -1.15354203E-04
  -8.85999966      -1.09132445E-04
  -8.85000038      -1.02098405E-04
  -8.84000015      -9.42512197E-05
  -8.82999992      -8.56020633E-05
  -8.81999969      -7.61793999E-05
  -8.81000042      -6.60339501E-05
  -8.80000019      -5.52415186E-05
  -8.78999996      -4.39022042E-05
  -8.77999973      -3.21361731E-05
  -8.77000046      -2.00762242E-05
  -8.76000023      -7.85913835E-06
  -8.75000000       4.38287134E-06
  -8.73999977       1.65290876E-05
  -8.72999954       2.84752132E-05
  -8.72000027       4.01362740E-05
  -8.71000004       5.14479543E-05
  -8.69999981       6.23664309E-05
  -8.68999958       7.28662126E-05
  -8.68000031       8.29356286E-05
  -8.67000008       9.25693457E-05
  -8.65999985       1.01758771E-04
  -8.64999962       1.10482200E-04
  -8.64000034       1.18697710E-04
  -8.63000011       1.26341634E-04
  -8.61999989       1.33334266E-04
  -8.60999966       1.39592623E-04
  -8.60000038       1.45046302E-04
  -8.59000015       1.49652362E-04
  -8.57999992       1.53402958E-04
  -8.56999969       1.56323455E-04
  -8.56000042       1.58460069E-04
  -8.55000019       1.59861680E-04
  -8.53999996       1.60560841E-04
  -8.52999973       1.60562005E-04
  -8.52000046       1.59840842E-04
  -8.51000023       1.58355004E-04
  -8.50000000       1.56064212E-04
  -8.48999977       1.52951354E-04
  -8.47999954       1.49039523E-04
  -8.47000027       1.44398873E-04
  -8.46000004       1.39143478E-04
  -8.44999981       1.33420486E-04
  -8.43999958       1.27397434E-04
  -8.43000031       1.21252095E-04
  -8.42000008       1.15167684E-04
  -8.40999985       1.09331486E-04
  -8.39999962       1.03932762E-04
  -8.39000034       9.91548732E-05
  -8.38000011       9.51595357E-05
  -8.36999989       9.20647144E-05
  -8.35999966       8.99229926E-05
  -8.35000038       8.87088318E-05
  -8.34000015       8.83227840E-05
  -8.32999992       8.86149937E-05
  -8.31999969       8.94232362E-05
  -8.31000042       9.06149362E-05
  -8.30000019       9.21188548E-05
  -8.28999996       9.39349411E-05
  -8.27999973       9.61170881E-05
  -8.27000046       9.87334133E-05
  -8.26000023       1.01817102E-04
  -8.25000000       1.05325220E-04
  -8.23999977       1.09120607E-04
  -8.22999954       1.12984802E-04
  -8.22000027       1.16659328E-04
  -8.21000004       1.19901677E-04
  -8.19999981       1.22538258E-04
  -8.18999958       1.24496859E-04
  -8.18000031       1.25808336E-04
  -8.17000008       1.26579165E-04
  -8.15999985       1.26944942E-04
  -8.14999962       1.27022533E-04
  -8.14000034       1.26876374E-04
  -8.13000011       1.26509185E-04
  -8.11999989       1.25876468E-04
  -8.10999966       1.24915692E-04
  -8.10000038       1.23575621E-04
  -8.09000015       1.21832963E-04
  -8.07999992       1.19688477E-04
  -8.06999969       1.17145290E-04
  -8.06000042       1.14178431E-04
  -8.05000019       1.10709319E-04
  -8.03999996       1.06596643E-04
  -8.02999973       1.01649101E-04
  -8.02000046       9.56566000E-05
  -8.01000023       8.84302062E-05
  -8.00000000       7.98378824E-05
  -7.98999977       6.98253498E-05
  -7.98000002       5.84172121E-05
  -7.96999979       4.57009082E-05
  -7.96000004       3.18016209E-05
  -7.94999981       1.68584174E-05
  -7.94000006       1.00967770E-06
  -7.92999983      -1.56089864E-05
  -7.92000008      -3.28568494E-05
  -7.90999985      -5.05767639E-05
  -7.90000010      -6.85876075E-05
  -7.88999987      -8.66852424E-05
  -7.88000011      -1.04652900E-04
  -7.86999989      -1.22277110E-04
  -7.86000013      -1.39363518E-04
  -7.84999990      -1.55747213E-04
  -7.84000015      -1.71294654E-04
  -7.82999992      -1.85897792E-04
  -7.82000017      -1.99464266E-04
  -7.80999994      -2.11908162E-04
  -7.80000019      -2.23145165E-04
  -7.78999996      -2.33093262E-04
  -7.78000021      -2.41677859E-04
  -7.76999998      -2.48838129E-04
  -7.76000023      -2.54531886E-04
  -7.75000000      -2.58736953E-04
  -7.73999977      -2.61449342E-04
  -7.73000002      -2.62680784E-04
  -7.71999979      -2.62456364E-04
  -7.71000004      -2.60815257E-04
  -7.69999981      -2.57813197E-04
  -7.69000006      -2.53526494E-04
  -7.67999983      -2.48053955E-04
  -7.67000008      -2.41516042E-04
  -7.65999985      -2.34049759E-04
  -7.65000010      -2.25799784E-04
  -7.63999987      -2.16906643E-04
  -7.63000011      -2.07493838E-04
  -7.61999989      -1.97655056E-04
  -7.61000013      -1.87443031E-04
  -7.59999990      -1.76861664E-04
  -7.59000015      -1.65864549E-04
  -7.57999992      -1.54362220E-04
  -7.57000017      -1.42240940E-04
  -7.55999994      -1.29392836E-04
  -7.55000019      -1.15753282E-04
  -7.53999996      -1.01338177E-04
  -7.53000021      -8.62698580E-05
  -7.51999998      -7.07818253E-05
  -7.51000023      -5.51961857E-05
  -7.50000000      -3.98749980E-05
  -7.48999977      -2.51556248E-05
  -7.48000002      -1.12869229E-05
  -7.46999979       1.61565617E-06
  -7.46000004       1.35815380E-05
  -7.44999981       2.47584067E-05
  -7.44000006       3.53549513E-05