  -16.0000000       0.00000000    
  -15.9899998       0.00000000    
  -15.9799995       0.00000000    
  -15.9700003       0.00000000    
  -15.9600000       0.00000000    
  -15.9499998       0.00000000    
  -15.9399996       0.00000000    
  -15.9300003       0.00000000    
  -15.9200001       0.00000000    
  -15.9099998       0.00000000    
  -15.8999996       0.00000000    
  -15.8900003       0.00000000    
  -15.8800001       0.00000000    
  -15.8699999       0.00000000    
  -15.8599997       0.00000000    
  -15.8500004       9.80908925E-45
  -15.8400002       1.63951920E-43
  -15.8299999       1.92958799E-42
  -15.8199997       1.65100985E-41
  -15.8100004       1.11830624E-40
  -15.8000002       6.29541743E-40
  -15.7900000       3.03944299E-39
  -15.7799997       1.28564272E-38
  -15.7700005       4.83516017E-38
  -15.7600002       1.63357321E-37
  -15.7500000       4.99311386E-37
  -15.7399998       1.38697858E-36
  -15.7299995       3.50927825E-36
  -15.7200003       8.08710195E-36
  -15.7100000       1.69248357E-35
  -15.6999998       3.19359172E-35
  -15.6899996       5.35289018E-35
  -15.6800003       7.72083401E-35
  -15.6700001       8.83779356E-35
  -15.6599998       5.71372562E-35
  -15.6499996      -6.20479068E-35
  -15.6400003      -3.17617242E-34
  -15.6300001      -7.26412484E-34
  -15.6199999      -1.21563206E-33
  -15.6099997      -1.55811593E-33
  -15.6000004      -1.34693038E-33
  -15.5900002      -8.18060555E-35
  -15.5799999       2.56417085E-33
  -15.5699997       6.30096637E-33
  -15.5600004       9.76550381E-33
  -15.5500002       1.04334579E-32
  -15.5400000       5.41744608E-33
  -15.5299997      -6.50483235E-33
  -15.5200005      -2.20240019E-32
  -15.5100002      -3.13117106E-32
  -15.5000000      -2.00309806E-32
  -15.4899998       2.13740211E-32
  -15.4799995       8.07938544E-32
  -15.4700003       1.07118169E-31
  -15.4600000       1.02071282E-32
  -15.4499998      -2.96772122E-31
  -15.4399996      -7.95824816E-31
  -15.4300003      -1.22384516E-30
  -15.4200001      -9.82886780E-31
  -15.4099998       7.34984661E-31
  -15.3999996       4.43085800E-30
  -15.3900003       9.35761663E-30
  -15.3800001       1.24944758E-29
  -15.3699999       8.31740833E-30
  -15.3599997      -9.35195771E-30
  -15.3500004      -4.24329492E-29
  -15.3400002      -8.12282621E-29
  -15.3299999      -9.82999820E-29
  -15.3199997      -5.07324193E-29
  -15.3100004       1.00846296E-28
  -15.3000002       3.52974257E-28
  -15.2900000       6.10104851E-28
  -15.2799997       6.56725837E-28
  -15.2700005       2.00304996E-28
  -15.2600002      -9.69301474E-28
  -15.2500000      -2.70559473E-27
  -15.2399998      -4.21688948E-27
  -15.2299995      -3.98836980E-27
  -15.2200003      -2.13592540E-28
  -15.2100000       8.05701006E-27
  -15.1999998       1.92005447E-26
  -15.1899996       2.75035769E-26
  -15.1800003       2.32548522E-26
  -15.1700001      -3.93101985E-27
  -15.1599998      -5.77809490E-26
  -15.1499996      -1.25532027E-25
  -15.1400003      -1.70527433E-25
  -15.1300001      -1.35231615E-25
  -15.1199999       3.72472879E-26
  -15.1099997       3.60808067E-25
  -15.1000004       7.53783515E-25
  -15.0900002       1.00413562E-24
  -15.0799999       7.93942156E-25
  -15.0699997      -1.78690036E-25
  -15.0600004      -1.97518819E-24
  -15.0500002      -4.15050882E-24
  -15.0400000      -5.58917299E-24
  -15.0299997      -4.64452705E-24
  -15.0200005       2.45035900E-25
  -15.0100002       9.45498152E-24
  -15.0000000       2.08911067E-23
  -14.9899998       2.91978657E-23
  -14.9799995       2.63765063E-23
  -14.9700003       4.58868319E-24
  -14.9600000      -3.88235370E-23
  -14.9499998      -9.54238968E-23
  -14.9399996      -1.41792144E-22
  -14.9300003      -1.41619642E-22
  -14.9200001      -5.71934506E-23
  -14.9099998       1.29349371E-22
  -14.8999996       3.90116254E-22
  -14.8900003       6.32561079E-22
  -14.8800001       7.03752179E-22
  -14.8699999       4.32361864E-22
  -14.8599997      -2.88143525E-22
  -14.8500004      -1.39247364E-21
  -14.8400002      -2.55553997E-21
  -14.8299999      -3.18557008E-21
  -14.8199997      -2.55817499E-21
  -14.8100004      -1.14809264E-22
  -14.8000002       4.12422762E-21
  -14.7900000       9.17647272E-21
  -14.7799997       1.29663227E-20
  -14.7700005       1.26796246E-20
  -14.7600002       5.73192099E-21
  -14.7500000      -8.75906074E-21
  -14.7399998      -2.84336744E-20
  -14.7299995      -4.68235376E-20
  -14.7200003      -5.40076336E-20
  -14.7100000      -3.93878431E-20
  -14.6999998       3.52031105E-21
  -14.6899996       7.14426589E-20
  -14.6800003       1.47099894E-19
  -14.6700001       1.99223904E-19
  -14.6599998       1.89267661E-19
  -14.6499996       8.53951861E-20
  -14.6400003      -1.18794212E-19
  -14.6300001      -3.86977631E-19
  -14.6199999      -6.33085525E-19
  -14.6099997      -7.33320945E-19
  -14.6000004      -5.61848421E-19
  -14.5900002      -4.63701005E-20
  -14.5799999       7.71171851E-19
  -14.5699997       1.69334118E-18
  -14.5600004       2.37362599E-18
  -14.5500002       2.39159318E-18
  -14.5400000       1.39787526E-18
  -14.5299997      -6.99931903E-19
  -14.5200005      -3.57100488E-18
  -14.5100002      -6.39533533E-18
  -14.5000000      -7.97346855E-18
  -14.4899998      -7.04739188E-18
  -14.4799995      -2.79506811E-18
  -14.4700003       4.62856026E-18
  -14.4600000       1.37069990E-17
  -14.4499998       2.15613544E-17
  -14.4399996       2.45014405E-17
  -14.4300003       1.91442036E-17
  -14.4200001       3.89181861E-18
  -14.4099998      -1.96690679E-17
  -14.3999996      -4.60342224E-17
  -14.3900003      -6.62768341E-17
  -14.3800001      -7.00746122E-17
  -14.3699999      -4.90949329E-17
  -14.3599997      -9.69910007E-19
  -14.3500004       6.74298246E-17
  -14.3400002       1.38935373E-16
  -14.3299999       1.88473129E-16
  -14.3199997       1.89306212E-16
  -14.3100004       1.22222778E-16
  -14.3000002      -1.46498401E-17
  -14.2900000      -1.98779349E-16
  -14.2799997      -3.82456816E-16
  -14.2700005      -5.00794783E-16
  -14.2600002      -4.88644149E-16
  -14.2500000      -3.03423931E-16
  -14.2399998       5.22380339E-17
  -14.2299995       5.16076105E-16
  -14.2200003       9.67676273E-16
  -14.2100000       1.25047135E-15
  -14.1999998       1.21314928E-15
  -14.1899996       7.62359510E-16
  -14.1800003      -8.77025259E-17
  -14.1700001      -1.18650046E-15
  -14.1599998      -2.25497937E-15
  -14.1499996      -2.93815655E-15
  -14.1400003      -2.89805780E-15
  -14.1300001      -1.92800750E-15
  -14.1199999      -5.70401119E-17
  -14.1099997       2.39208944E-15
  -14.1000004       4.82256557E-15
  -14.0900002       6.47540637E-15
  -14.0799999       6.62243604E-15
  -14.0699997       4.80065537E-15
  -14.0600004       1.02520601E-15
  -14.0500002      -4.09069099E-15
  -14.0400000      -9.36900432E-15
  -14.0299997      -1.32806177E-14
  -14.0200005      -1.43176757E-14
  -14.0100002      -1.14492122E-14
  -14.0000000      -4.54196812E-15
  -13.9899998       5.38775508E-15
  -13.9799995       1.62044924E-14
  -13.9700003       2.50199912E-14
  -13.9600000       2.88610214E-14
  -13.9499998       2.55075146E-14
  -13.9399996       1.42924477E-14
  -13.9300003      -3.37672543E-15
  -13.9200001      -2.39827909E-14
  -13.9099998      -4.24572080E-14
  -13.8999996      -5.32895735E-14
  -13.8900003      -5.19782412E-14
  -13.8800001      -3.64753190E-14
  -13.8699999      -8.21625093E-15
  -13.8599997       2.76313532E-14
  -13.8500004       6.29088321E-14
  -13.8400002       8.81629025E-14
  -13.8299999       9.49875351E-14
  -13.8199997       7.84686918E-14
  -13.8100004       3.90717156E-14
  -13.8000002      -1.66372839E-14
  -13.7900000      -7.68130270E-14
  -13.7799997      -1.26699920E-13
  -13.7700005      -1.52122211E-13
  -13.7600002      -1.43298459E-13
  -13.7500000      -9.79832873E-14
  -13.7399998      -2.29947897E-14
  -13.7299995       6.64876344E-14
  -13.7200003       1.49928857E-13
  -13.7100000       2.06191712E-13
  -13.6999998       2.18937132E-13
  -13.6899996       1.81271922E-13
  -13.6800003       9.83117125E-14
  -13.6700001      -1.32232295E-14
  -13.6599998      -1.28513330E-13
  -13.6499996      -2.20525489E-13
  -13.6400003      -2.66830367E-13
  -13.6300001      -2.55531111E-13
  -13.6199999      -1.88609504E-13
  -13.6099997      -8.16262070E-14
  -13.6000004       4.02947905E-14
  -13.5900002       1.49181516E-13
  -13.5799999       2.21756397E-13
  -13.5699997       2.45586104E-13
  -13.5600004       2.21936469E-13
  -13.5500002       1.64364629E-13
  -13.5400000       9.33970918E-14
  -13.5299997       2.89483708E-14
  -13.5200005      -1.69858990E-14
  -13.5100002      -4.47147947E-14
  -13.5000000      -6.64376391E-14
  -13.4899998      -1.00652471E-13
  -13.4799995      -1.62837788E-13
  -13.4700003      -2.55442857E-13
  -13.4600000      -3.60999723E-13
  -13.4499998      -4.41759801E-13
  -13.4399996      -4.47604356E-13
  -13.4300003      -3.31425181E-13
  -13.4200001      -6.83945630E-14
  -13.4099998       3.26591483E-13
  -13.3999996       7.89709498E-13
  -13.3900003       1.21244020E-12
  -13.3800001       1.46131794E-12
  -13.3699999       1.41089863E-12
  -13.3599997       9.83078527E-13
  -13.3500004       1.82508997E-13
  -13.3400002      -8.83184801E-13
  -13.3299999      -2.00757011E-12
  -13.3199997      -2.91802476E-12
  -13.3100004      -3.33363003E-12
  -13.3000002      -3.03749061E-12
  -13.2900000      -1.94665139E-12
  -13.2799997      -1.60382558E-13
  -13.2700005       2.02990923E-12
  -13.2600002       4.17848048E-12
  -13.2500000       5.76896473E-12
  -13.2399998       6.32984247E-12
  -13.2299995       5.55703790E-12
  -13.2200003       3.41350169E-12
  -13.2100000       1.77320533E-13
  -13.1999998      -3.58082097E-12
  -13.1899996      -7.09441490E-12
  -13.1800003      -9.55728899E-12
  -13.1700001      -1.03074650E-11
  -13.1599998      -8.99634360E-12
  -13.1499996      -5.70008624E-12
  -13.1400003      -9.40133279E-13
  -13.1300001       4.40039455E-12
  -13.1199999       9.25261430E-12
  -13.1099997       1.25939962E-11
  -13.1000004       1.36834693E-11
  -13.0900002       1.22416920E-11
  -13.0799999       8.52857195E-12
  -13.0699997       3.29355120E-12
  -13.0600004      -2.39453184E-12
  -13.0500002      -7.39951416E-12
  -13.0400000      -1.07898699E-11
  -13.0299997      -1.20602694E-11
  -13.0200005      -1.12424887E-11
  -13.0100002      -8.87262746E-12
  -13.0000000      -5.81932462E-12
  -12.9899998      -3.01662298E-12
  -12.9799995      -1.17424907E-12
  -12.9700003      -5.48881524E-13
  -12.9600000      -8.47836504E-13
  -12.9499998      -1.30352977E-12
  -12.9399996      -9.10384290E-13
  -12.9300003       1.23220032E-12
  -12.9200001       5.56344901E-12
  -12.9099998       1.17973149E-11
  -12.8999996       1.88418968E-11
  -12.8900003       2.49507914E-11
  -12.8800001       2.80955120E-11
  -12.8699999       2.64854319E-11
  -12.8599997       1.91126750E-11
  -12.8500004       6.17878708E-12
  -12.8400002      -1.07255819E-11
  -12.8299999      -2.87663400E-11
  -12.8199997      -4.43409753E-11
  -12.8100004      -5.38045407E-11
  -12.8000002      -5.42988571E-11
  -12.7900000      -4.44992480E-11
  -12.7799997      -2.50973357E-11
  -12.7700005       1.11231402E-12
  -12.7600002       2.95911663E-11
  -12.7500000       5.48122277E-11
  -12.7399998       7.12719953E-11
  -12.7299995       7.45583248E-11
  -12.7200003       6.22581778E-11
  -12.7100000       3.45242758E-11
  -12.6999998      -5.80684459E-12
  -12.6899996      -5.35537240E-11
  -12.6800003      -1.01900453E-10
  -12.6700001      -1.43324991E-10
  -12.6599998      -1.70565520E-10
  -12.6499996      -1.77467069E-10
  -12.6400003      -1.59610367E-10
  -12.6300001      -1.14702720E-10
  -12.6199999      -4.27823402E-11
  -12.6099997       5.36771183E-11
  -12.6000004       1.69675718E-10
  -12.5900002       2.97577490E-10
  -12.5799999       4.27027191E-10
  -12.5699997       5.45019918E-10
  -12.5600004       6.36300235E-10
  -12.5500002       6.84261592E-10
  -12.5400000       6.72451150E-10
  -12.5299997       5.86644899E-10
  -12.5200005       4.17299667E-10
  -12.5100002       1.62028363E-10
  -12.5000000      -1.72349704E-10
  -12.4899998      -5.68659619E-10
  -12.4799995      -9.99489491E-10
  -12.4700003      -1.42874956E-09
  -12.4600000      -1.81459603E-09
  -12.4499998      -2.11335993E-09
  -12.4399996      -2.28389396E-09
  -12.4300003      -2.29165908E-09
  -12.4200001      -2.11184759E-09
  -12.4099998      -1.73107162E-09
  -12.3999996      -1.14734633E-09
  -12.3900003      -3.68484077E-10
  -12.3800001       5.90677451E-10
  -12.3699999       1.71159076E-09
  -12.3599997       2.97509328E-09
  -12.3500004       4.36362635E-09
  -12.3400002       5.86208726E-09
  -12.3299999       7.45716910E-09
  -12.3199997       9.13538223E-09
  -12.3100004       1.08801101E-08
  -12.3000002       1.26685027E-08
  -12.2900000       1.44687160E-08
  -12.2799997       1.62381593E-08
  -12.2700005       1.79230408E-08
  -12.2600002       1.94592680E-08
  -12.2500000       2.07746460E-08
  -12.2399998       2.17916885E-08
  -12.2299995       2.24309371E-08
  -12.2200003       2.26142589E-08
  -12.2100000       2.22677823E-08
  -12.1999998       2.13246985E-08
  -12.1899996       1.97278460E-08
  -12.1800003       1.74324803E-08
  -12.1700001       1.44091556E-08
  -12.1599998       1.06469820E-08
  -12.1499996       6.15694207E-09
  -12.1400003       9.74862746E-10
  -12.1300001      -4.83668394E-09
  -12.1199999      -1.11881899E-08
  -12.1099997      -1.79651138E-08
  -12.1000004      -2.50323495E-08
  -12.0900002      -3.22408980E-08
  -12.0799999      -3.94362196E-08
  -12.0699997      -4.64671217E-08
  -12.0600004      -5.31942632E-08
  -12.0500002      -5.94968874E-08
  -12.0400000      -6.52769998E-08
  -12.0299997      -7.04602883E-08
  -12.0200005      -7.49944249E-08
  -12.0100002      -7.88446997E-08
  -12.0000000      -8.19883397E-08
  -11.9899998      -8.44085406E-08
  -11.9799995      -8.60893081E-08
  -11.9700003      -8.70117418E-08
  -11.9600000      -8.71528130E-08
  -11.9499998      -8.64853078E-08
  -11.9399996      -8.49799733E-08
  -11.9300003      -8.26080964E-08
  -11.9200001      -7.93445594E-08
  -11.9099998      -7.51701634E-08
  -11.8999996      -7.00729856E-08
  -11.8900003      -6.40495301E-08
  -11.8800001      -5.71039678E-08
  -11.8699999      -4.92478840E-08
  -11.8599997      -4.04988612E-08
  -11.8500004      -3.08800558E-08
  -11.8400002      -2.04198400E-08
  -11.8299999      -9.15196630E-09
  -11.8199997       2.88421731E-09
  -11.8100004       1.56427440E-08
  -11.8000002       2.90700779E-08
  -11.7900000       4.31042047E-08
  -11.7799997       5.76733363E-08
  -11.7700005       7.26949736E-08
  -11.7600002       8.80745503E-08
  -11.7500000       1.03704664E-07
  -11.7399998       1.19463934E-07
  -11.7299995       1.35217007E-07
  -11.7200003       1.50814458E-07
  -11.7100000       1.66094239E-07
  -11.6999998       1.80884030E-07
  -11.6899996       1.95004503E-07
  -11.6800003       2.08274187E-07
  -11.6700001       2.20514721E-07
  -11.6599998       2.31556243E-07
  -11.6499996       2.41242844E-07
  -11.6400003       2.49436852E-07
  -11.6300001       2.56021593E-07
  -11.6199999       2.60902453E-07
  -11.6099997       2.64007042E-07
  -11.6000004       2.65281813E-07
  -11.5900002       2.64689305E-07
  -11.5799999       2.62203997E-07
  -11.5699997       2.57807613E-07
  -11.5600004       2.51484778E-07
  -11.5500002       2.43220740E-07
  -11.5400000       2.32998232E-07
  -11.5299997       2.20798086E-07
  -11.5200005       2.06598628E-07
  -11.5100002       1.90376554E-07
  -11.5000000       1.72109452E-07
  -11.4899998       1.51777925E-07
  -11.4799995       1.29367777E-07
  -11.4700003       1.04872996E-07
  -11.4600000       7.82986405E-08
  -11.4499998       4.96637185E-08
  -11.4399996       1.90031564E-08
  -11.4300003      -1.36310288E-08
  -11.4200001      -4.81672018E-08
  -11.4099998      -8.45163726E-08
  -11.3999996      -1.22574050E-07
  -11.3900003      -1.62223387E-07
  -11.3800001      -2.03341500E-07
  -11.3699999      -2.45803335E-07
  -11.3599997      -2.89489151E-07
  -11.3500004      -3.34286142E-07
  -11.3400002      -3.80092359E-07
  -11.3299999      -4.26813529E-07
  -11.3199997      -4.74360291E-07
  -11.3100004      -5.22640789E-07
  -11.3000002      -5.71553585E-07
  -11.2900000      -6.20978653E-07
  -11.2799997      -6.70772408E-07
  -11.2700005      -7.20762955E-07
  -11.2600002      -7.70748954E-07
  -11.2500000      -8.20504795E-07
  -11.2399998      -8.69786049E-07
  -11.2299995      -9.18339879E-07
  -11.2200003      -9.65915092E-07
  -11.2100000      -1.01227261E-06
  -11.1999998      -1.05719459E-06
  -11.1899996      -1.10049484E-06
  -11.1800003      -1.14201669E-06
  -11.1700001      -1.18164303E-06
  -11.1599998      -1.21929372E-06
  -11.1499996      -1.25492147E-06
  -11.1400003      -1.28851195E-06
  -11.1300001      -1.32008029E-06
  -11.1199999      -1.34966433E-06
  -11.1099997      -1.37732513E-06
  -11.1000004      -1.40313023E-06
  -11.0900002      -1.42716158E-06
  -11.0799999      -1.44949490E-06
  -11.0699997      -1.47020569E-06
  -11.0600004      -1.48935203E-06
  -11.0500002      -1.50696610E-06
  -11.0400000      -1.52305461E-06
  -11.0299997      -1.53759458E-06
  -11.0200005      -1.55052305E-06
  -11.0100002      -1.56175997E-06
  -11.0000000      -1.57119212E-06
  -10.9899998      -1.57869886E-06
  -10.9799995      -1.58416242E-06
  -10.9700003      -1.58747707E-06
  -10.9600000      -1.58856312E-06
  -10.9499998      -1.58738635E-06
  -10.9399996      -1.58395528E-06
  -10.9300003      -1.57833119E-06
  -10.9200001      -1.57062266E-06
  -10.9099998      -1.56098281E-06
  -10.8999996      -1.54960185E-06
  -10.8900003      -1.53669225E-06
  -10.8800001      -1.52248083E-06
  -10.8699999      -1.50719393E-06
  -10.8599997      -1.49105654E-06
  -10.8500004      -1.47427750E-06
  -10.8400002      -1.45704610E-06
  -10.8299999      -1.43953105E-06
  -10.8199997      -1.42188230E-06
  -10.8100004      -1.40421628E-06
  -10.8000002      -1.38663484E-06
  -10.7900000      -1.36920539E-06
  -10.7799997      -1.35196683E-06
  -10.7700005      -1.33492756E-06
  -10.7600002      -1.31808702E-06
  -10.7500000      -1.30140734E-06
  -10.7399998      -1.28482850E-06
  -10.7299995      -1.26828502E-06
  -10.7200003      -1.25170243E-06
  -10.7100000      -1.23501616E-06
  -10.6999998      -1.21816936E-06
  -10.6899996      -1.20113725E-06
  -10.6800003      -1.18393029E-06
  -10.6700001      -1.16659680E-06
  -10.6599998      -1.14923205E-06
  -10.6499996      -1.13196165E-06
  -10.6400003      -1.11496342E-06
  -10.6300001      -1.09841676E-06
  -10.6199999      -1.08252641E-06
  -10.6099997      -1.06748666E-06
  -10.6000004      -1.05348738E-06
  -10.5900002      -1.04071285E-06
  -10.5799999      -1.02931779E-06
  -10.5699997      -1.01945227E-06
  -10.5600004      -1.01124238E-06
  -10.5500002      -1.00484181E-06
  -10.5400000      -1.00038210E-06
  -10.5299997      -9.98013434E-07
  -10.5200005      -9.97889060E-07
  -10.5100002      -1.00015836E-06
  -10.5000000      -1.00495470E-06
  -10.4899998      -1.01238641E-06
  -10.4799995      -1.02250488E-06
  -10.4700003      -1.03530795E-06
  -10.4600000      -1.05072263E-06
  -10.4499998      -1.06862194E-06
  -10.4399996      -1.08879374E-06
  -10.4300003      -1.11098007E-06
  -10.4200001      -1.13488454E-06
  -10.4099998      -1.16017327E-06
  -10.3999996      -1.18651440E-06
  -10.3900003      -1.21357527E-06
  -10.3800001      -1.24101234E-06
  -10.3699999      -1.26853502E-06
  -10.3599997      -1.29583123E-06
  -10.3500004      -1.32260959E-06
  -10.3400002      -1.34857567E-06
  -10.3299999      -1.37345933E-06
  -10.3199997      -1.39699443E-06
  -10.3100004      -1.41893531E-06
  -10.3000002      -1.43907130E-06
  -10.2900000      -1.45723823E-06
  -10.2799997      -1.47331389E-06
  -10.2700005      -1.48725428E-06
  -10.2600002      -1.49905327E-06
  -10.2500000      -1.50876406E-06
  -10.2399998      -1.51646100E-06
  -10.2299995      -1.52224413E-06
  -10.2200003      -1.52622488E-06
  -10.2100000      -1.52848827E-06
  -10.1999998      -1.52911571E-06
  -10.1899996      -1.52816153E-06
  -10.1800003      -1.52568578E-06
  -10.1700001      -1.52173845E-06
  -10.1599998      -1.51639222E-06
  -10.1499996      -1.50973858E-06
  -10.1400003      -1.50189578E-06
  -10.1300001      -1.49300763E-06
  -10.1199999      -1.48322056E-06
  -10.1099997      -1.47268486E-06
  -10.1000004      -1.46154241E-06
  -10.0900002      -1.44991679E-06
  -10.0799999      -1.43790521E-06
  -10.0699997      -1.42557712E-06
  -10.0600004      -1.41297448E-06
  -10.0500002      -1.40013788E-06
  -10.0400000      -1.38708901E-06
  -10.0299997      -1.37385666E-06
  -10.0200005      -1.36046083E-06
  -10.0100002      -1.34689594E-06
  -10.0000000      -1.33315382E-06
  -9.98999977      -1.31920069E-06
  -9.97999954      -1.30496699E-06
  -9.97000027      -1.29036380E-06
  -9.96000004      -1.27527619E-06
  -9.94999981      -1.25957547E-06
  -9.93999958      -1.24316171E-06
  -9.93000031      -1.22595236E-06
  -9.92000008      -1.20793186E-06
  -9.90999985      -1.18912101E-06
  -9.89999962      -1.16961996E-06
  -9.89000034      -1.14957879E-06
  -9.88000011      -1.12919804E-06
  -9.86999989      -1.10870394E-06
  -9.85999966      -1.08834433E-06
  -9.85000038      -1.06836148E-06
  -9.84000015      -1.04900062E-06
  -9.82999992      -1.03048410E-06
  -9.81999969      -1.01302624E-06
  -9.81000042      -9.96827225E-07
  -9.80000019      -9.82084998E-07
  -9.78999996      -9.68987933E-07
  -9.77999973      -9.57727934E-07
  -9.77000046      -9.48481897E-07
  -9.76000023      -9.41439055E-07
  -9.75000000      -9.36752997E-07
  -9.73999977      -9.34587661E-07
  -9.72999954      -9.35068215E-07
  -9.72000027      -9.38297831E-07
  -9.71000004      -9.44346823E-07
  -9.69999981      -9.53242079E-07
  -9.68999958      -9.64969900E-07
  -9.68000031      -9.79464403E-07
  -9.67000008      -9.96631229E-07
  -9.65999985      -1.01632475E-06
  -9.64999962      -1.03837681E-06
  -9.64000034      -1.06260279E-06
  -9.63000011      -1.08880693E-06
  -9.61999989      -1.11680140E-06
  -9.60999966      -1.14639249E-06
  -9.60000038      -1.17740592E-06
  -9.59000015      -1.20967195E-06
  -9.57999992      -1.24303540E-06
  -9.56999969      -1.27735314E-06
  -9.56000042      -1.31248976E-06
  -9.55000019      -1.34833078E-06
  -9.53999996      -1.38479322E-06
  -9.52999973      -1.42181273E-06
  -9.52000046      -1.45936042E-06
  -9.51000023      -1.49742334E-06
  -9.50000000      -1.53601343E-06
  -9.48999977      -1.57514557E-06
  -9.47999954      -1.61483456E-06
  -9.47000027      -1.65509221E-06
  -9.46000004      -1.69592181E-06
  -9.44999981      -1.73733076E-06
  -9.43999958      -1.77932554E-06
  -9.43000031      -1.82191025E-06
  -9.42000008      -1.86509021E-06
  -9.40999985      -1.90886021E-06
  -9.39999962      -1.95317443E-06
  -9.39000034      -1.99794886E-06
  -9.38000011      -2.04302660E-06
  -9.36999989      -2.08817050E-06
  -9.35999966      -2.13306475E-06
  -9.35000038      -2.17731736E-06
  -9.34000015      -2.22049675E-06
  -9.32999992      -2.26212887E-06
  -9.31999969      -2.30174169E-06
  -9.31000042      -2.33886772E-06
  -9.30000019      -2.37305903E-06
  -9.28999996      -2.40388795E-06
  -9.27999973      -2.43094087E-06
  -9.27000046      -2.45381693E-06
  -9.26000023      -2.47210960E-06
  -9.25000000      -2.48542165E-06
  -9.23999977      -2.49338245E-06
  -9.22999954      -2.49561504E-06
  -9.22000027      -2.49178129E-06
  -9.21000004      -2.48156198E-06
  -9.19999981      -2.46466925E-06
  -9.18999958      -2.44082275E-06
  -9.18000031      -2.40976442E-06
  -9.17000008      -2.37122117E-06
  -9.15999985      -2.32496427E-06
  -9.14999962      -2.27075452E-06
  -9.14000034      -2.20842207E-06
  -9.13000011      -2.13784733E-06
  -9.11999989      -2.05902325E-06
  -9.10999966      -1.97203417E-06
  -9.10000038      -1.87710998E-06
  -9.09000015      -1.77459094E-06
  -9.07999992      -1.66496352E-06
  -9.06999969      -1.54879842E-06
  -9.06000042      -1.42677663E-06
  -9.05000019      -1.29966168E-06
  -9.03999996      -1.16827050E-06
  -9.02999973      -1.03351647E-06
  -9.02000046      -8.96371319E-07
  -9.01000023      -7.57873863E-07
  -9.00000000      -6.19126581E-07
  -8.98999977      -4.81313748E-07
  -8.97999954      -3.45665057E-07
  -8.97000027      -2.13445077E-07
  -8.96000004      -8.59399449E-08
  -8.94999981       3.55661633E-08
  -8.93999958       1.49797785E-07
  -8.93000031       2.55520604E-07
  -8.92000008       3.51519049E-07
  -8.90999985       4.36659235E-07
  -8.89999962       5.09823906E-07
  -8.89000034       5.69993801E-07
  -8.88000011       6.16168620E-07
  -8.86999989       6.47446882E-07
  -8.85999966       6.62988384E-07
  -8.85000038       6.62002378E-07
  -8.84000015       6.43805492E-07
  -8.82999992       6.07738002E-07
  -8.81999969       5.53234543E-07
  -8.81000042       4.79791481E-07
  -8.80000019       3.86968225E-07
  -8.78999996       2.74389436E-07
  -8.77999973       1.41744962E-07
  -8.77000046      -1.11834071E-08
  -8.76000023      -1.84553912E-07
  -8.75000000      -3.78442763E-07
  -8.73999977      -5.92833089E-07
  -8.72999954      -8.27629208E-07
  -8.72000027      -1.08265988E-06
  -8.71000004      -1.35767630E-06
  -8.69999981      -1.65235508E-06
  -8.68999958      -1.96630754E-06
  -8.68000031      -2.29907641E-06
  -8.67000008      -2.65014341E-06
  -8.65999985      -3.01891828E-06
  -8.64999962      -3.40473798E-06
  -8.64000034      -3.80687561E-06
  -8.63000011      -4.22456696E-06
  -8.61999989      -4.65699986E-06
  -8.60999966      -5.10331756E-06
  -8.60000038      -5.56264422E-06
  -8.59000015      -6.03406670E-06
  -8.57999992      -6.51664459E-06
  -8.56999969      -7.00938745E-06
  -8.56000042      -7.51125890E-06
  -8.55000019      -8.02116938E-06
  -8.53999996      -8.53800520E-06
  -8.52999973      -9.06062451E-06
  -8.52000046      -9.58788769E-06
  -8.51000023      -1.01186879E-05
  -8.50000000      -1.06519983E-05
  -8.48999977      -1.11868876E-05
  -8.47999954      -1.17224763E-05
  -8.47000027      -1.22580232E-05
  -8.46000004      -1.27928115E-05
  -8.44999981      -1.33262156E-05
  -8.43999958      -1.38576424E-05
  -8.43000031      -1.43865382E-05
  -8.42000008      -1.49123807E-05
  -8.40999985      -1.54347090E-05
  -8.39999962      -1.59531155E-05
  -8.39000034      -1.64672419E-05
  -8.38000011      -1.69767809E-05
  -8.36999989      -1.74814359E-05
  -8.35999966      -1.79809213E-05
  -8.35000038      -1.84748969E-05
  -8.34000015      -1.89629645E-05
  -8.32999992      -1.94446693E-05
  -8.31999969      -1.99194710E-05
  -8.31000042      -2.03868549E-05
  -8.30000019      -2.08462643E-05
  -8.28999996      -2.12971172E-05
  -8.27999973      -2.17388915E-05
  -8.27000046      -2.21709870E-05
  -8.26000023      -2.25927834E-05
  -8.25000000      -2.30036476E-05
  -8.23999977      -2.34028157E-05
  -8.22999954      -2.37894183E-05
  -8.22000027      -2.41624475E-05
  -8.21000004      -2.45209212E-05
  -8.19999981      -2.48637261E-05
  -8.18999958      -2.51897090E-05
  -8.18000031      -2.54978186E-05
  -8.17000008      -2.57871052E-05
  -8.15999985      -2.60565521E-05
  -8.14999962      -2.63052789E-05
  -8.14000034      -2.65324743E-05
  -8.13000011      -2.67373016E-05
  -8.11999989      -2.69190641E-05
  -8.10999966      -2.70771325E-05
  -8.10000038      -2.72109737E-05
  -8.09000015      -2.73202095E-05
  -8.07999992      -2.74046379E-05
  -8.06999969      -2.74642098E-05
  -8.06000042      -2.74990543E-05
  -8.05000019      -2.75093826E-05
  -8.03999996      -2.74955783E-05
  -8.02999973      -2.74581016E-05
  -8.02000046      -2.73974874E-05
  -8.01000023      -2.73142687E-05
  -8.00000000      -2.72091766E-05
  -7.98999977      -2.70828132E-05
  -7.98000002      -2.69359989E-05
  -7.96999979      -2.67694741E-05
  -7.96000004      -2.65841427E-05
  -7.94999981      -2.63808215E-05
  -7.94000006      -2.61603072E-05
  -7.92999983      -2.59235749E-05
  -7.92000008      -2.56713884E-05
  -7.90999985      -2.54045553E-05
  -7.90000010      -2.51239180E-05
  -7.88999987      -2.48302349E-05
  -7.88000011      -2.45244883E-05
  -7.86999989      -2.42075930E-05
  -7.86000013      -2.38805569E-05
  -7.84999990      -2.35444368E-05
  -7.84000015      -2.32002749E-05
  -7.82999992      -2.28492318E-05
  -7.82000017      -2.24923406E-05
  -7.80999994      -2.21306036E-05
  -7.80000019      -2.17649958E-05
  -7.78999996      -2.13966759E-05
  -7.78000021      -2.10264279E-05
  -7.76999998      -2.06553814E-05
  -7.76000023      -2.02845877E-05
  -7.75000000      -1.99151527E-05
  -7.73999977      -1.95482116E-05
  -7.73000002      -1.91849886E-05
  -7.71999979      -1.88265549E-05
  -7.71000004      -1.84741202E-05
  -7.69999981      -1.81289233E-05
  -7.69000006      -1.77921211E-05
  -7.67999983      -1.74650067E-05
  -7.67000008      -1.71488318E-05
  -7.65999985      -1.68448678E-05
  -7.65000010      -1.65545371E-05
  -7.63999987      -1.62790639E-05
  -7.63000011      -1.60197651E-05
  -7.61999989      -1.57776067E-05
  -7.61000013      -1.55536309E-05
  -7.59999990      -1.53485598E-05
  -7.59000015      -1.51630729E-05
  -7.57999992      -1.49976722E-05
  -7.57000017      -1.48528015E-05
  -7.55999994      -1.47288511E-05
  -7.55000019      -1.46262119E-05
  -7.53999996      -1.45450131E-05
  -7.53000021      -1.44856886E-05
  -7.51999998      -1.44484220E-05
  -7.51000023      -1.44332616E-05
  -7.50000000      -1.44403684E-05
  -7.48999977      -1.44697251E-05
  -7.48000002      -1.45211761E-05
  -7.46999979      -1.45946260E-05
  -7.46000004      -1.46900084E-05
  -7.44999981      -1.48070922E-05
  -7.44000006      -1.49457946E-05