  -16.0000000       0.00000000    
  -15.9899998       0.00000000    
  -15.9799995       0.00000000    
  -15.9700003       0.00000000    
  -15.9600000       0.00000000    
  -15.9499998       0.00000000    
  -15.9399996       0.00000000    
  -15.9300003       0.00000000    
  -15.9200001       0.00000000    
  -15.9099998       0.00000000    
  -15.8999996       0.00000000    
  -15.8900003       0.00000000    
  -15.8800001       0.00000000    
  -15.8699999       0.00000000    
  -15.8599997       0.00000000    
  -15.8500004       0.00000000    
  -15.8400002      -0.00000000    
  -15.8299999      -1.40129846E-45
  -15.8199997      -8.40779079E-45
  -15.8100004      -5.88545355E-44
  -15.8000002      -3.71344093E-43
  -15.7900000      -1.97863343E-42
  -15.7799997      -9.19251793E-42
  -15.7700005      -3.78686897E-41
  -15.7600002      -1.39968697E-40
  -15.7500000      -4.68552168E-40
  -15.7399998      -1.43069630E-39
  -15.7299995      -4.00612874E-39
  -15.7200003      -1.03261418E-38
  -15.7100000      -2.45575678E-38
  -15.6999998      -5.39230019E-38
  -15.6899996      -1.09189513E-37
  -15.6800003      -2.03116284E-37
  -15.6700001      -3.44360892E-37
  -15.6599998      -5.23904376E-37
  -15.6499996      -6.92554077E-37
  -15.6400003      -7.33351413E-37
  -15.6300001      -4.42961251E-37
  -15.6199999       4.50135272E-37
  -15.6099997       2.19239293E-36
  -15.6000004       4.80504876E-36
  -15.5900002       7.78578251E-36
  -15.5799999       9.80677901E-36
  -15.5699997       8.62243186E-36
  -15.5600004       1.49660030E-36
  -15.5500002      -1.35672768E-35
  -15.5400000      -3.57787965E-35
  -15.5299997      -5.92513265E-35
  -15.5200005      -7.17444897E-35
  -15.5100002      -5.63416738E-35
  -15.5000000       2.28623607E-36
  -15.4899998       1.07023365E-34
  -15.4799995       2.36029370E-34
  -15.4700003       3.36005670E-34
  -15.4600000       3.30156874E-34
  -15.4499998       1.47522222E-34
  -15.4399996      -2.29019567E-34
  -15.4300003      -7.14057304E-34
  -15.4200001      -1.10314543E-33
  -15.4099998      -1.12441306E-33
  -15.3999996      -5.73120490E-34
  -15.3900003       5.05587559E-34
  -15.3800001       1.68481971E-33
  -15.3699999       2.21615656E-33
  -15.3599997       1.39121253E-33
  -15.3500004      -8.31796517E-34
  -15.3400002      -3.21844402E-33
  -15.3299999      -3.18996437E-33
  -15.3199997       2.13201853E-33
  -15.3100004       1.35601472E-32
  -15.3000002       2.68166202E-32
  -15.2900000       3.06825184E-32
  -15.2799997       9.01704451E-33
  -15.2700005      -5.10426977E-32
  -15.2600002      -1.44892844E-31
  -15.2500000      -2.35208497E-31
  -15.2399998      -2.46118354E-31
  -15.2299995      -8.04681660E-32
  -15.2200003       3.29868612E-31
  -15.2100000       9.44890853E-31
  -15.1999998       1.53718841E-30
  -15.1899996       1.66788336E-30
  -15.1800003       7.86244537E-31
  -15.1700001      -1.50036036E-30
  -15.1599998      -5.01239631E-30
  -15.1499996      -8.58637498E-30
  -15.1400003      -9.94075135E-30
  -15.1300001      -6.15513857E-30
  -15.1199999       5.00908800E-30
  -15.1099997       2.30677070E-29
  -15.1000004       4.27420820E-29
  -15.0900002       5.31544868E-29
  -15.0799999       3.98743513E-29
  -15.0699997      -9.08436253E-30
  -15.0600004      -9.37959360E-29
  -15.0500002      -1.92537889E-28
  -15.0400000      -2.57280431E-28
  -15.0299997      -2.21661272E-28
  -15.0200005      -2.65037271E-29
  -15.0100002       3.38865905E-28
  -15.0000000       7.92278179E-28
  -14.9899998       1.13584790E-27
  -14.9799995       1.08478447E-27
  -14.9700003       3.69791646E-28
  -14.9600000      -1.09283091E-27
  -14.9499998      -3.01415856E-27
  -14.9399996      -4.62691265E-27
  -14.9300003      -4.78266876E-27
  -14.9200001      -2.34161997E-27
  -14.9099998       3.16338038E-27
  -14.8999996       1.07803282E-26
  -14.8900003       1.76839226E-26
  -14.8800001       1.94799186E-26
  -14.8699999       1.16178080E-26
  -14.8599997      -8.13642462E-27
  -14.8500004      -3.68556246E-26
  -14.8400002      -6.45986855E-26
  -14.8299999      -7.52612500E-26
  -14.8199997      -5.14486701E-26
  -14.8100004       1.67038909E-26
  -14.8000002       1.21095881E-25
  -14.7900000       2.28348559E-25
  -14.7799997       2.81662614E-25
  -14.7700005       2.16695826E-25
  -14.7600002      -8.30729544E-27
  -14.7500000      -3.75514234E-25
  -14.7399998      -7.79313618E-25
  -14.7299995      -1.02752939E-24
  -14.7200003      -8.89479029E-25
  -14.7100000      -1.93972688E-25
  -14.6999998       1.04417781E-24
  -14.6899996       2.51827830E-24
  -14.6800003       3.61184935E-24
  -14.6700001       3.52980506E-24
  -14.6599998       1.59846599E-24
  -14.6499996      -2.32081103E-24
  -14.6400003      -7.44867474E-24
  -14.6300001      -1.19454604E-23
  -14.6199999      -1.32159445E-23
  -14.6099997      -8.75912495E-24
  -14.6000004       2.55466490E-24
  -14.5900002       1.91701246E-23
  -14.5799999       3.61146171E-23
  -14.5699997       4.55107456E-23
  -14.5600004       3.87476802E-23
  -14.5500002       1.01489922E-23
  -14.5400000      -3.88171630E-23
  -14.5299997      -9.64778654E-23
  -14.5200005      -1.41051044E-22
  -14.5100002      -1.45435015E-22
  -14.5000000      -8.68264678E-23
  -14.4899998       4.08394079E-23
  -14.4799995       2.15875965E-22
  -14.4700003       3.84881727E-22
  -14.4600000       4.70933855E-22
  -14.4499998       3.96016757E-22
  -14.4399996       1.14437843E-22
  -14.4300003      -3.52297707E-22
  -14.4200001      -8.93583768E-22
  -14.4099998      -1.31600124E-21
  -14.3999996      -1.38758538E-21
  -14.3900003      -9.17927536E-22
  -14.3800001       1.44100540E-22
  -14.3699999       1.62829575E-21
  -14.3599997       3.11738362E-21
  -14.3500004       4.01167007E-21
  -14.3400002       3.69489301E-21
  -14.3299999       1.77511041E-21
  -14.3199997      -1.66629365E-21
  -14.3100004      -5.91393425E-21
  -14.3000002      -9.64457213E-21
  -14.2900000      -1.12021750E-20
  -14.2799997      -9.10941778E-21
  -14.2700005      -2.70608482E-21
  -14.2600002       7.28468723E-21
  -14.2500000       1.85059254E-20
  -14.2399998       2.72422887E-20
  -14.2299995       2.93064469E-20
  -14.2200003       2.14207887E-20
  -14.2100000       2.75396779E-21
  -14.1999998      -2.39017215E-20
  -14.1899996      -5.18659919E-20
  -14.1800003      -7.16229649E-20
  -14.1700001      -7.32479935E-20
  -14.1599998      -4.97900755E-20
  -14.1499996      -7.17050581E-22
  -14.1400003       6.57720967E-20
  -14.1300001       1.32733537E-19
  -14.1199999       1.77483685E-19
  -14.1099997       1.77512494E-19
  -14.1000004       1.18163694E-19
  -14.0900002       3.17278121E-24
  -14.0799999      -1.56696740E-19
  -14.0699997      -3.12692676E-19
  -14.0600004      -4.16979343E-19
  -14.0500002      -4.19931964E-19
  -14.0400000      -2.89751313E-19
  -14.0299997      -2.77971686E-20
  -14.0200005       3.22416908E-19
  -14.0100002       6.77134082E-19
  -14.0000000       9.27454031E-19
  -13.9899998       9.66323145E-19
  -13.9799995       7.22077131E-19
  -13.9700003       1.89829562E-19
  -13.9600000      -5.49465217E-19
  -13.9499998      -1.33113751E-18
  -13.9399996      -1.93465572E-18
  -13.9300003      -2.13505614E-18
  -13.9200001      -1.76823608E-18
  -13.9099998      -7.94039363E-19
  -13.8999996       6.61928900E-19
  -13.8900003       2.30483352E-18
  -13.8800001       3.71514937E-18
  -13.8699999       4.43907220E-18
  -13.8599997       4.10895848E-18
  -13.8500004       2.56603937E-18
  -13.8400002      -4.88038274E-20
  -13.8299999      -3.26838871E-18
  -13.8199997      -6.35736070E-18
  -13.8100004      -8.45612761E-18
  -13.8000002      -8.78797510E-18
  -13.7900000      -6.88491003E-18
  -13.7799997      -2.77434041E-18
  -13.7700005       2.93126257E-18
  -13.7600002       9.08347131E-18
  -13.7500000       1.41973856E-17
  -13.7399998       1.67745892E-17
  -13.7299995       1.56852420E-17
  -13.7200003       1.05190565E-17
  -13.7100000       1.80911266E-18
  -13.6999998      -8.94843077E-18
  -13.6899996      -1.95134653E-17
  -13.6800003      -2.73376029E-17
  -13.6700001      -3.01356753E-17
  -13.6599998      -2.64679449E-17
  -13.6499996      -1.61909008E-17
  -13.6400003      -6.52557357E-19
  -13.6300001       1.74405060E-17
  -13.6199999       3.44827477E-17
  -13.6099997       4.66748506E-17
  -13.6000004       5.08290509E-17
  -13.5900002       4.50980028E-17
  -13.5799999       2.94614669E-17
  -13.5699997       5.85751614E-18
  -13.5600004      -2.20750798E-17
  -13.5500002      -4.95894546E-17
  -13.5400000      -7.16332587E-17
  -13.5299997      -8.37000438E-17
  -13.5200005      -8.25744759E-17
  -13.5100002      -6.68601685E-17
  -13.5000000      -3.72430792E-17
  -13.4899998       3.49553168E-18
  -13.4799995       5.06663048E-17
  -13.4700003       9.80091500E-17
  -13.4600000       1.38165222E-16
  -13.4499998       1.63315536E-16
  -13.4399996       1.66052776E-16
  -13.4300003       1.40539654E-16
  -13.4200001       8.39324153E-17
  -13.4099998      -2.08775031E-18
  -13.3999996      -1.09995791E-16
  -13.3900003      -2.25776103E-16
  -13.3800001      -3.29452062E-16
  -13.3699999      -3.97195639E-16
  -13.3599997      -4.05141947E-16
  -13.3500004      -3.34605649E-16
  -13.3400002      -1.77892417E-16
  -13.3299999       5.65505864E-17
  -13.3199997       3.41151360E-16
  -13.3100004       6.29820983E-16
  -13.3000002       8.63074481E-16
  -13.2900000       9.77711073E-16
  -13.2799997       9.19957190E-16
  -13.2700005       6.59822361E-16
  -13.2600002       2.03552645E-16
  -13.2500000      -3.99217639E-16
  -13.2399998      -1.05651076E-15
  -13.2299995      -1.64479695E-15
  -13.2200003      -2.02908267E-15
  -13.2100000      -2.08954621E-15
  -13.1999998      -1.74991131E-15
  -13.1899996      -1.00148708E-15
  -13.1800003       8.32220392E-17
  -13.1700001       1.35199503E-15
  -13.1599998       2.59138846E-15
  -13.1499996       3.56058177E-15
  -13.1400003       4.03529080E-15
  -13.1300001       3.85364246E-15
  -13.1199999       2.95468131E-15
  -13.1099997       1.40092960E-15
  -13.1000004      -6.20783194E-16
  -13.0900002      -2.82178735E-15
  -13.0799999      -4.85415016E-15
  -13.0699997      -6.36601333E-15
  -13.0600004      -7.05974560E-15
  -13.0500002      -6.74251990E-15
  -13.0400000      -5.36073557E-15
  -13.0299997      -3.01316153E-15
  -13.0200005       5.81462972E-17
  -13.0100002       3.49625237E-15
  -13.0000000       6.87160179E-15
  -12.9899998       9.73175720E-15
  -12.9799995       1.16527864E-14
  -12.9700003       1.22879154E-14
  -12.9600000       1.14104859E-14
  -12.9499998       8.94879213E-15
  -12.9399996       5.01012577E-15
  -12.9300003      -1.09874070E-16
  -12.9200001      -5.93718554E-15
  -12.9099998      -1.18528971E-14
  -12.8999996      -1.71518226E-14
  -12.8900003      -2.11230451E-14
  -12.8800001      -2.31431322E-14
  -12.8699999      -2.27670937E-14
  -12.8599997      -1.97991902E-14
  -12.8500004      -1.43272455E-14
  -12.8400002      -6.71077057E-15
  -12.8299999       2.47586799E-15
  -12.8199997       1.25314289E-14
  -12.8100004       2.27226769E-14
  -12.8000002       3.23576107E-14
  -12.7900000       4.08129476E-14
  -12.7799997       4.75049856E-14
  -12.7700005       5.18129004E-14
  -12.7600002       5.29846315E-14
  -12.7500000       5.00712177E-14
  -12.7399998       4.19397251E-14
  -12.7299995       2.74040349E-14
  -12.7200003       5.48671987E-15
  -12.7100000      -2.42104785E-14
  -12.6999998      -6.10882804E-14
  -12.6899996      -1.03174007E-13
  -12.6800003      -1.46890407E-13
  -12.6700001      -1.87061954E-13
  -12.6599998      -2.17217927E-13
  -12.6499996      -2.30201681E-13
  -12.6400003      -2.19040145E-13
  -12.6300001      -1.77976693E-13
  -12.6199999      -1.03537818E-13
  -12.6099997       4.50596879E-15
  -12.6000004       1.42413384E-13
  -12.5900002       3.02075015E-13
  -12.5799999       4.71004204E-13
  -12.5699997       6.32737677E-13
  -12.5600004       7.67642135E-13
  -12.5500002       8.54110240E-13
  -12.5400000       8.70124285E-13
  -12.5299997       7.95162493E-13
  -12.5200005       6.12410947E-13
  -12.5100002       3.11207467E-13
  -12.5000000      -1.10399496E-13
  -12.4899998      -6.43162607E-13
  -12.4799995      -1.26447388E-12
  -12.4700003      -1.93682201E-12
  -12.4600000      -2.60719094E-12
  -12.4499998      -3.20767588E-12
  -12.4399996      -3.65752003E-12
  -12.4300003      -3.86663531E-12
  -12.4200001      -3.74051614E-12
  -12.4099998      -3.18629498E-12
  -12.3999996      -2.11953241E-12
  -12.3900003      -4.71226031E-13
  -12.3800001       1.80552036E-12
  -12.3699999       4.72974307E-12
  -12.3599997       8.28825723E-12
  -12.3500004       1.24331032E-11
  -12.3400002       1.70809512E-11
  -12.3299999       2.21146799E-11
  -12.3199997       2.73868359E-11
  -12.3100004       3.27248888E-11
  -12.3000002       3.79377398E-11
  -12.2900000       4.28232137E-11
  -12.2799997       4.71758257E-11
  -12.2700005       5.07946775E-11
  -12.2600002       5.34907917E-11
  -12.2500000       5.50939849E-11
  -12.2399998       5.54587834E-11
  -12.2299995       5.44694359E-11
  -12.2200003       5.20441711E-11
  -12.2100000       4.81383024E-11
  -12.1999998       4.27460844E-11
  -12.1899996       3.59011293E-11
  -12.1800003       2.76754696E-11
  -12.1700001       1.81761464E-11
  -12.1599998       7.53986543E-12
  -12.1499996      -4.07418413E-12
  -12.1400003      -1.64932651E-11
  -12.1300001      -2.95404777E-11
  -12.1199999      -4.30442314E-11
  -12.1099997      -5.68458683E-11
  -12.1000004      -7.08048412E-11
  -12.0900002      -8.48005138E-11
  -12.0799999      -9.87301352E-11
  -12.0699997      -1.12503493E-10
  -12.0600004      -1.26034849E-10
  -12.0500002      -1.39233930E-10
  -12.0400000      -1.51996651E-10
  -12.0299997      -1.64197725E-10
  -12.0200005      -1.75685425E-10
  -12.0100002      -1.86280061E-10
  -12.0000000      -1.95775299E-10
  -11.9899998      -2.03942599E-10
  -11.9799995      -2.10538115E-10
  -11.9700003      -2.15310852E-10
  -11.9600000      -2.18012067E-10
  -11.9499998      -2.18405072E-10
  -11.9399996      -2.16275192E-10
  -11.9300003      -2.11439338E-10
  -11.9200001      -2.03754583E-10
  -11.9099998      -1.93125710E-10
  -11.8999996      -1.79510892E-10
  -11.8900003      -1.62924021E-10
  -11.8800001      -1.43434306E-10
  -11.8699999      -1.21162108E-10
  -11.8599997      -9.62716989E-11
  -11.8500004      -6.89611701E-11
  -11.8400002      -3.94519660E-11
  -11.8299999      -7.97811990E-12
  -11.8199997       2.52225307E-11
  -11.8100004       5.99140390E-11
  -11.8000002       9.58642402E-11
  -11.7900000       1.32844222E-10
  -11.7799997       1.70623127E-10
  -11.7700005       2.08963541E-10
  -11.7600002       2.47615289E-10
  -11.7500000       2.86309310E-10
  -11.7399998       3.24754751E-10
  -11.7299995       3.62636698E-10
  -11.7200003       3.99616645E-10
  -11.7100000       4.35335434E-10
  -11.6999998       4.69418171E-10
  -11.6899996       5.01480912E-10
  -11.6800003       5.31139299E-10
  -11.6700001       5.58018576E-10
  -11.6599998       5.81764359E-10
  -11.6499996       6.02053574E-10
  -11.6400003       6.18602947E-10
  -11.6300001       6.31174280E-10
  -11.6199999       6.39577002E-10
  -11.6099997       6.43663789E-10
  -11.6000004       6.43323006E-10
  -11.5900002       6.38466058E-10
  -11.5799999       6.29014507E-10
  -11.5699997       6.14888973E-10
  -11.5600004       5.95998639E-10
  -11.5500002       5.72239922E-10
  -11.5400000       5.43500800E-10
  -11.5299997       5.09670028E-10
  -11.5200005       4.70652572E-10
  -11.5100002       4.26383401E-10
  -11.5000000       3.76843168E-10
  -11.4899998       3.22065791E-10
  -11.4799995       2.62142308E-10
  -11.4700003       1.97214134E-10
  -11.4600000       1.27464844E-10
  -11.4499998       5.31062416E-11
  -11.4399996      -2.56373620E-11
  -11.4300003      -1.08541884E-10
  -11.4200001      -1.95388511E-10
  -11.4099998      -2.85966972E-10
  -11.3999996      -3.80073084E-10
  -11.3900003      -4.77498430E-10
  -11.3800001      -5.78021853E-10
  -11.3699999      -6.81397438E-10
  -11.3599997      -7.87346244E-10
  -11.3500004      -8.95553631E-10
  -11.3400002      -1.00566944E-09
  -11.3299999      -1.11731424E-09
  -11.3199997      -1.23009258E-09
  -11.3100004      -1.34360612E-09
  -11.3000002      -1.45747014E-09
  -11.2900000      -1.57133018E-09
  -11.2799997      -1.68487280E-09
  -11.2700005      -1.79783666E-09
  -11.2600002      -1.91001481E-09
  -11.2500000      -2.02125072E-09
  -11.2399998      -2.13143170E-09
  -11.2299995      -2.24047336E-09
  -11.2200003      -2.34830910E-09
  -11.2100000      -2.45486786E-09
  -11.1999998      -2.56006905E-09
  -11.1899996      -2.66380606E-09
  -11.1800003      -2.76594569E-09
  -11.1700001      -2.86632518E-09
  -11.1599998      -2.96476244E-09
  -11.1499996      -3.06105252E-09
  -11.1400003      -3.15499293E-09
  -11.1300001      -3.24638560E-09
  -11.1199999      -3.33505135E-09
  -11.1099997      -3.42083473E-09
  -11.1000004      -3.50362406E-09
  -11.0900002      -3.58334939E-09
  -11.0799999      -3.65999719E-09
  -11.0699997      -3.73360942E-09
  -11.0600004      -3.80428711E-09
  -11.0500002      -3.87217813E-09
  -11.0400000      -3.93746946E-09
  -11.0299997      -4.00037292E-09
  -11.0200005      -4.06109502E-09
  -11.0100002      -4.11981382E-09
  -11.0000000      -4.17665191E-09
  -10.9899998      -4.23166702E-09
  -10.9799995      -4.28483604E-09
  -10.9700003      -4.33604086E-09
  -10.9600000      -4.38509140E-09
  -10.9499998      -4.43174697E-09
  -10.9399996      -4.47573978E-09
  -10.9300003      -4.51680426E-09
  -10.9200001      -4.55470772E-09
  -10.9099998      -4.58927740E-09
  -10.8999996      -4.62040628E-09
  -10.8900003      -4.64807526E-09
  -10.8800001      -4.67234251E-09
  -10.8699999      -4.69331374E-09
  -10.8599997      -4.71114792E-09
  -10.8500004      -4.72602668E-09
  -10.8400002      -4.73809658E-09
  -10.8299999      -4.74750284E-09
  -10.8199997      -4.75430229E-09
  -10.8100004      -4.75849538E-09
  -10.8000002      -4.76002038E-09
  -10.7900000      -4.75871964E-09
  -10.7799997      -4.75440354E-09
  -10.7700005      -4.74687933E-09
  -10.7600002      -4.73593786E-09
  -10.7500000      -4.72141304E-09
  -10.7399998      -4.70322492E-09
  -10.7299995      -4.68136907E-09
  -10.7200003      -4.65595740E-09
  -10.7100000      -4.62716265E-09
  -10.6999998      -4.59525307E-09
  -10.6899996      -4.56052485E-09
  -10.6800003      -4.52331728E-09
  -10.6700001      -4.48395321E-09
  -10.6599998      -4.44273773E-09
  -10.6499996      -4.39994974E-09
  -10.6400003      -4.35586056E-09
  -10.6300001      -4.31069846E-09
  -10.6199999      -4.26468993E-09
  -10.6099997      -4.21807966E-09
  -10.6000004      -4.17107948E-09
  -10.5900002      -4.12392698E-09
  -10.5799999      -4.07685441E-09
  -10.5699997      -4.03009270E-09
  -10.5600004      -3.98381905E-09
  -10.5500002      -3.93823241E-09
  -10.5400000      -3.89349086E-09
  -10.5299997      -3.84972276E-09
  -10.5200005      -3.80708576E-09
  -10.5100002      -3.76571219E-09
  -10.5000000      -3.72575881E-09
  -10.4899998      -3.68741104E-09
  -10.4799995      -3.65088004E-09
  -10.4700003      -3.61640473E-09
  -10.4600000      -3.58424201E-09
  -10.4499998      -3.55468543E-09
  -10.4399996      -3.52798524E-09
  -10.4300003      -3.50439167E-09
  -10.4200001      -3.48411766E-09
  -10.4099998      -3.46730422E-09
  -10.3999996      -3.45404860E-09
  -10.3900003      -3.44436502E-09
  -10.3800001      -3.43817841E-09
  -10.3699999      -3.43532269E-09
  -10.3599997      -3.43564355E-09
  -10.3500004      -3.43888584E-09
  -10.3400002      -3.44479556E-09
  -10.3299999      -3.45307849E-09
  -10.3199997      -3.46350948E-09
  -10.3100004      -3.47588247E-09
  -10.3000002      -3.49002005E-09
  -10.2900000      -3.50579832E-09
  -10.2799997      -3.52315932E-09
  -10.2700005      -3.54207730E-09
  -10.2600002      -3.56261598E-09
  -10.2500000      -3.58484309E-09
  -10.2399998      -3.60889874E-09
  -10.2299995      -3.63489527E-09
  -10.2200003      -3.66298014E-09
  -10.2100000      -3.69327702E-09
  -10.1999998      -3.72581566E-09
  -10.1899996      -3.76058829E-09
  -10.1800003      -3.79754272E-09
  -10.1700001      -3.83652043E-09
  -10.1599998      -3.87738774E-09
  -10.1499996      -3.91997013E-09
  -10.1400003      -3.96414102E-09
  -10.1300001      -4.00982136E-09
  -10.1199999      -4.05699563E-09
  -10.1099997      -4.10572865E-09
  -10.1000004      -4.15614965E-09
  -10.0900002      -4.20851043E-09
  -10.0799999      -4.26305125E-09
  -10.0699997      -4.32009584E-09
  -10.0600004      -4.37994796E-09
  -10.0500002      -4.44294557E-09
  -10.0400000      -4.50937332E-09
  -10.0299997      -4.57953897E-09
  -10.0200005      -4.65368322E-09
  -10.0100002      -4.73201167E-09
  -10.0000000      -4.81463003E-09
  -9.98999977      -4.90163909E-09
  -9.97999954      -4.99299135E-09
  -9.97000027      -5.08861575E-09
  -9.96000004      -5.18837151E-09
  -9.94999981      -5.29207300E-09
  -9.93999958      -5.39951284E-09
  -9.93000031      -5.51051160E-09
  -9.92000008      -5.62494273E-09
  -9.90999985      -5.74273340E-09
  -9.89999962      -5.86386095E-09
  -9.89000034      -5.98839511E-09
  -9.88000011      -6.11641893E-09
  -9.86999989      -6.24801855E-09
  -9.85999966      -6.38335074E-09
  -9.85000038      -6.52250476E-09
  -9.84000015      -6.66560718E-09
  -9.82999992      -6.81271262E-09
  -9.81999969      -6.96382774E-09
  -9.81000042      -7.11895165E-09
  -9.80000019      -7.27804750E-09
  -9.78999996      -7.44102069E-09
  -9.77999973      -7.60777130E-09
  -9.77000046      -7.77820031E-09
  -9.76000023      -7.95219623E-09
  -9.75000000      -8.12971557E-09
  -9.73999977      -8.31065883E-09
  -9.72999954      -8.49502335E-09
  -9.72000027      -8.68287131E-09
  -9.71000004      -8.87423290E-09
  -9.69999981      -9.06926001E-09
  -9.68999958      -9.26803878E-09
  -9.68000031      -9.47075751E-09
  -9.67000008      -9.67752456E-09
  -9.65999985      -9.88851045E-09
  -9.64999962      -1.01038493E-08
  -9.64000034      -1.03235882E-08
  -9.63000011      -1.05477049E-08
  -9.61999989      -1.07761213E-08
  -9.60999966      -1.10086473E-08
  -9.60000038      -1.12449285E-08
  -9.59000015      -1.14845697E-08
  -9.57999992      -1.17270593E-08
  -9.56999969      -1.19717649E-08
  -9.56000042      -1.22179893E-08
  -9.55000019      -1.24649935E-08
  -9.53999996      -1.27120634E-08
  -9.52999973      -1.29584521E-08
  -9.52000046      -1.32034739E-08
  -9.51000023      -1.34464964E-08
  -9.50000000      -1.36869547E-08
  -9.48999977      -1.39243044E-08
  -9.47999954      -1.41581680E-08
  -9.47000027      -1.43882470E-08
  -9.46000004      -1.46143035E-08
  -9.44999981      -1.48362007E-08
  -9.43999958      -1.50539012E-08
  -9.43000031      -1.52674247E-08
  -9.42000008      -1.54768411E-08
  -9.40999985      -1.56822768E-08
  -9.39999962      -1.58839324E-08
  -9.39000034      -1.60819393E-08
  -9.38000011      -1.62766174E-08
  -9.36999989      -1.64683502E-08
  -9.35999966      -1.66575607E-08
  -9.35000038      -1.68448562E-08
  -9.34000015      -1.70309686E-08
  -9.32999992      -1.72167773E-08
  -9.31999969      -1.74033712E-08
  -9.31000042      -1.75918249E-08
  -9.30000019      -1.77833606E-08
  -9.28999996      -1.79792199E-08
  -9.27999973      -1.81807263E-08
  -9.27000046      -1.83891373E-08
  -9.26000023      -1.86056131E-08
  -9.25000000      -1.88313329E-08
  -9.23999977      -1.90672651E-08
  -9.22999954      -1.93143848E-08
  -9.22000027      -1.95734433E-08
  -9.21000004      -1.98451406E-08
  -9.19999981      -2.01299102E-08
  -9.18999958      -2.04282333E-08
  -9.18000031      -2.07403428E-08
  -9.17000008      -2.10664037E-08
  -9.15999985      -2.14065050E-08
  -9.14999962      -2.17606075E-08
  -9.14000034      -2.21286403E-08
  -9.13000011      -2.25104326E-08
  -9.11999989      -2.29057289E-08
  -9.10999966      -2.33141897E-08
  -9.10000038      -2.37354154E-08
  -9.09000015      -2.41688287E-08
  -9.07999992      -2.46138931E-08
  -9.06999969      -2.50699301E-08
  -9.06000042      -2.55360888E-08
  -9.05000019      -2.60114152E-08
  -9.03999996      -2.64948206E-08
  -9.02999973      -2.69851288E-08
  -9.02000046      -2.74810983E-08
  -9.01000023      -2.79813186E-08
  -9.00000000      -2.84845019E-08
  -8.98999977      -2.89890920E-08
  -8.97999954      -2.94937550E-08
  -8.97000027      -2.99970182E-08
  -8.96000004      -3.04975032E-08
  -8.94999981      -3.09938422E-08
  -8.93999958      -3.14848698E-08
  -8.93000031      -3.19693179E-08
  -8.92000008      -3.24461666E-08
  -8.90999985      -3.29144569E-08
  -8.89999962      -3.33733681E-08
  -8.89000034      -3.38222321E-08
  -8.88000011      -3.42605482E-08
  -8.86999989      -3.46877513E-08
  -8.85999966      -3.51037173E-08
  -8.85000038      -3.55082435E-08
  -8.84000015      -3.59013086E-08
  -8.82999992      -3.62828452E-08
  -8.81999969      -3.66531125E-08
  -8.81000042      -3.70124020E-08
  -8.80000019      -3.73609694E-08
  -8.78999996      -3.76992908E-08
  -8.77999973      -3.80277747E-08
  -8.77000046      -3.83468830E-08
  -8.76000023      -3.86570527E-08
  -8.75000000      -3.89589232E-08
  -8.73999977      -3.92530843E-08
  -8.72999954      -3.95401720E-08
  -8.72000027      -3.98206161E-08
  -8.71000004      -4.00952338E-08
  -8.69999981      -4.03647533E-08
  -8.68999958      -4.06299279E-08
  -8.68000031      -4.08916065E-08
  -8.67000008      -4.11505461E-08
  -8.65999985      -4.14077483E-08
  -8.64999962      -4.16642294E-08
  -8.64000034      -4.19208774E-08
  -8.63000011      -4.21786588E-08
  -8.61999989      -4.24385611E-08
  -8.60999966      -4.27015827E-08
  -8.60000038      -4.29685905E-08
  -8.59000015      -4.32402807E-08
  -8.57999992      -4.35173355E-08
  -8.56999969      -4.38004939E-08
  -8.56000042      -4.40900685E-08
  -8.55000019      -4.43865567E-08
  -8.53999996      -4.46901929E-08
  -8.52999973      -4.50010837E-08
  -8.52000046      -4.53194140E-08
  -8.51000023      -4.56453826E-08
  -8.50000000      -4.59789256E-08
  -8.48999977      -4.63201033E-08
  -8.47999954      -4.66687382E-08
  -8.47000027      -4.70247272E-08
  -8.46000004      -4.73880100E-08
  -8.44999981      -4.77581885E-08
  -8.43999958      -4.81351634E-08
  -8.43000031      -4.85186220E-08
  -8.42000008      -4.89082268E-08
  -8.40999985      -4.93037682E-08
  -8.39999962      -4.97051218E-08
  -8.39000034      -5.01121349E-08
  -8.38000011      -5.05245730E-08
  -8.36999989      -5.09424005E-08
  -8.35999966      -5.13656495E-08
  -8.35000038      -5.17943661E-08
  -8.34000015      -5.22286285E-08
  -8.32999992      -5.26687458E-08
  -8.31999969      -5.31151301E-08
  -8.31000042      -5.35681188E-08
  -8.30000019      -5.40283480E-08
  -8.28999996      -5.44965637E-08
  -8.27999973      -5.49729826E-08
  -8.27000046      -5.54581554E-08
  -8.26000023      -5.59526363E-08
  -8.25000000      -5.64566811E-08
  -8.23999977      -5.69708192E-08
  -8.22999954      -5.74951464E-08
  -8.22000027      -5.80303237E-08
  -8.21000004      -5.85766564E-08
  -8.19999981      -5.91343010E-08
  -8.18999958      -5.97035807E-08
  -8.18000031      -6.02846129E-08
  -8.17000008      -6.08774471E-08
  -8.15999985      -6.14823108E-08
  -8.14999962      -6.20993390E-08
  -8.14000034      -6.27282901E-08
  -8.13000011      -6.33691926E-08
  -8.11999989      -6.40220463E-08
  -8.10999966      -6.46867377E-08
  -8.10000038      -6.53628902E-08
  -8.09000015      -6.60503758E-08
  -8.07999992      -6.67485622E-08
  -8.06999969      -6.74572576E-08
  -8.06000042      -6.81760142E-08
  -8.05000019      -6.89040291E-08
  -8.03999996      -6.96411036E-08
  -8.02999973      -7.03865410E-08
  -8.02000046      -7.11396524E-08
  -8.01000023      -7.19002031E-08
  -8.00000000      -7.26671914E-08
  -7.98999977      -7.34401127E-08
  -7.98000002      -7.42181356E-08
  -7.96999979      -7.50002158E-08
  -7.96000004      -7.57858345E-08
  -7.94999981      -7.65739969E-08
  -7.94000006      -7.73638433E-08
  -7.92999983      -7.81544642E-08
  -7.92000008      -7.89451846E-08
  -7.90999985      -7.97351802E-08
  -7.90000010      -8.05240461E-08
  -7.88999987      -8.13106098E-08
  -7.88000011      -8.20944877E-08
  -7.86999989      -8.28751396E-08
  -7.86000013      -8.36519831E-08
  -7.84999990      -8.44243715E-08
  -7.84000015      -8.51918713E-08
  -7.82999992      -8.59542837E-08
  -7.82000017      -8.67118644E-08
  -7.80999994      -8.74639809E-08
  -7.80000019      -8.82106050E-08
  -7.78999996      -8.89517082E-08
  -7.78000021      -8.96873971E-08
  -7.76999998      -9.04177568E-08
  -7.76000023      -9.11431712E-08
  -7.75000000      -9.18636616E-08
  -7.73999977      -9.25803576E-08
  -7.73000002      -9.32936999E-08
  -7.71999979      -9.40039371E-08
  -7.71000004      -9.47120924E-08
  -7.69999981      -9.54189474E-08
  -7.69000006      -9.61251985E-08
  -7.67999983      -9.68320251E-08
  -7.67000008      -9.75404078E-08
  -7.65999985      -9.82513200E-08
  -7.65000010      -9.89655149E-08
  -7.63999987      -9.96846339E-08
  -7.63000011      -1.00410254E-07
  -7.61999989      -1.01143087E-07
  -7.61000013      -1.01884837E-07
  -7.59999990      -1.02637237E-07
  -7.59000015      -1.03401291E-07
  -7.57999992      -1.04178731E-07
  -7.57000017      -1.04970951E-07
  -7.55999994      -1.05779471E-07
  -7.55000019      -1.06605917E-07
  -7.53999996      -1.07451335E-07
  -7.53000021      -1.08317394E-07
  -7.51999998      -1.09205985E-07
  -7.51000023      -1.10118300E-07
  -7.50000000      -1.11055989E-07
  -7.48999977      -1.12020309E-07
  -7.48000002      -1.13012597E-07
  -7.46999979      -1.14034592E-07
  -7.46000004      -1.15087289E-07
  -7.44999981      -1.16171790E-07
  -7.44000006      -1.17289581E-07