  -16.0000000       0.00000000    
  -15.9899998       0.00000000    
  -15.9799995       0.00000000    
  -15.9700003       0.00000000    
  -15.9600000       0.00000000    
  -15.9499998       0.00000000    
  -15.9399996       0.00000000    
  -15.9300003       0.00000000    
  -15.9200001       0.00000000    
  -15.9099998       0.00000000    
  -15.8999996       0.00000000    
  -15.8900003       0.00000000    
  -15.8800001       0.00000000    
  -15.8699999      -1.40129846E-44
  -15.8599997      -5.73131072E-43
  -15.8500004      -1.06050268E-41
  -15.8400002      -1.16509560E-40
  -15.8299999      -1.08031704E-39
  -15.8199997      -8.39135916E-39
  -15.8100004      -5.45135987E-38
  -15.8000002      -2.97820496E-37
  -15.7900000      -1.38392819E-36
  -15.7799997      -5.53740061E-36
  -15.7700005      -1.92911824E-35
  -15.7600002      -5.90507980E-35
  -15.7500000      -1.59718022E-34
  -15.7399998      -3.82301643E-34
  -15.7299995      -8.06078721E-34
  -15.7200003      -1.47388450E-33
  -15.7100000      -2.24186279E-33
  -15.6999998      -2.48782818E-33
  -15.6899996      -6.91762262E-34
  -15.6800003       5.93387161E-33
  -15.6700001       2.12933719E-32
  -15.6599998       4.88967505E-32
  -15.6499996       8.79329137E-32
  -15.6400003       1.26288777E-31
  -15.6300001       1.31658482E-31
  -15.6199999       4.56817500E-32
  -15.6099997      -2.08351719E-31
  -15.6000004      -6.88681703E-31
  -15.5900002      -1.35541326E-30
  -15.5799999      -1.95235299E-30
  -15.5699997      -1.89835905E-30
  -15.5600004      -3.03301687E-31
  -15.5500002       3.71388356E-30
  -15.5400000       1.02408978E-29
  -15.5299997       1.73452606E-29
  -15.5200005       1.98795076E-29
  -15.5100002       9.45639577E-30
  -15.5000000      -2.27026756E-29
  -15.4899998      -7.85656098E-29
  -15.4799995      -1.42145414E-28
  -15.4700003      -1.69004421E-28
  -15.4600000      -8.67181434E-29
  -15.4499998       1.79243303E-28
  -15.4399996       6.43099738E-28
  -15.4300003       1.16651641E-27
  -15.4200001       1.37856428E-27
  -15.4099998       6.93832681E-28
  -15.3999996      -1.46077809E-27
  -15.3900003      -5.14160125E-27
  -15.3800001      -9.19108158E-27
  -15.3699999      -1.07044311E-26
  -15.3599997      -5.31386181E-27
  -15.3500004       1.09603356E-26
  -15.3400002       3.79682636E-26
  -15.3299999       6.66796267E-26
  -15.3199997       7.61691303E-26
  -15.3100004       3.67993382E-26
  -15.3000002      -7.59661404E-26
  -15.2900000      -2.56383936E-25
  -15.2799997      -4.39530567E-25
  -15.2700005      -4.87610801E-25
  -15.2600002      -2.18634673E-25
  -15.2500000       5.00101132E-25
  -15.2399998       1.59860552E-24
  -15.2299995       2.64748681E-24
  -15.2200003       2.81477167E-24
  -15.2100000       1.08379864E-24
  -15.1999998      -3.17235345E-24
  -15.1899996      -9.33973841E-24
  -15.1800003      -1.48010816E-23
  -15.1700001      -1.49119544E-23
  -15.1599998      -4.43728461E-24
  -15.1499996       1.92226722E-23
  -15.1400003       5.16854439E-23
  -15.1300001       7.82091595E-23
  -15.1199999       7.45835800E-23
  -15.1099997       1.55153289E-23
  -15.1000004      -1.08680976E-22
  -15.0900002      -2.71371383E-22
  -15.0799999      -3.95681447E-22
  -15.0699997      -3.62809247E-22
  -15.0600004      -5.59891692E-23
  -15.0500002       5.59301322E-22
  -15.0400000       1.34215446E-21
  -15.0299997       1.92115706E-21
  -15.0200005       1.74503504E-21
  -15.0100002       2.91965373E-22
  -15.0000000      -2.57029109E-21
  -14.9899998      -6.18456852E-21
  -14.9799995      -8.88809769E-21
  -14.9700003      -8.25940730E-21
  -14.9600000      -2.03053393E-21
  -14.9499998       1.03951780E-20
  -14.9399996       2.62978181E-20
  -14.9300003       3.87780591E-20
  -14.9200001       3.77765502E-20
  -14.9099998       1.37347977E-20
  -14.8999996      -3.63808768E-20
  -14.8900003      -1.02570751E-19
  -14.8800001      -1.58287292E-19
  -14.8699999      -1.64052236E-19
  -14.8599997      -8.10446878E-20
  -14.8500004       1.06337732E-19
  -14.8400002       3.65717383E-19
  -14.8299999       6.02322885E-19
  -14.8199997       6.69877537E-19
  -14.8100004       4.17291552E-19
  -14.8000002      -2.31443998E-19
  -14.7900000      -1.18678746E-18
  -14.7799997      -2.13533656E-18
  -14.7700005      -2.56554492E-18
  -14.7600002      -1.91610971E-18
  -14.7500000       1.56702271E-19
  -14.7399998       3.46204637E-18
  -14.7299995       7.04564818E-18
  -14.7200003       9.22189585E-18
  -14.7100000       8.00583613E-18
  -14.6999998       1.95695051E-18
  -14.6899996      -8.75945639E-18
  -14.6800003      -2.15108384E-17
  -14.6700001      -3.10884484E-17
  -14.6599998      -3.08358175E-17
  -14.6499996      -1.51439284E-17
  -14.6400003       1.71663899E-17
  -14.6300001       5.97647456E-17
  -14.6199999       9.77148855E-17
  -14.6099997       1.09983145E-16
  -14.6000004       7.62731464E-17
  -14.5900002      -1.28021114E-17
  -14.5799999      -1.45334231E-16
  -14.5699997      -2.82368386E-16
  -14.5600004      -3.61928761E-16
  -14.5500002      -3.15974444E-16
  -14.5400000      -9.89584688E-17
  -14.5299997       2.79427355E-16
  -14.5200005       7.30389046E-16
  -14.5100002       1.08639588E-15
  -14.5000000       1.13763354E-15
  -14.4899998       7.05593639E-16
  -14.4799995      -2.61379968E-16
  -14.4700003      -1.60285717E-15
  -14.4600000      -2.91428949E-15
  -14.4499998      -3.60742820E-15
  -14.4399996      -3.07967712E-15
  -14.4300003      -9.68964399E-16
  -14.4200001       2.57758648E-15
  -14.4099998       6.73068770E-15
  -14.3999996       1.00188200E-14
  -14.3900003       1.06584561E-14
  -14.3800001       7.16313656E-15
  -14.3699999      -9.03667688E-16
  -14.3599997      -1.22844358E-14
  -14.3500004      -2.38054358E-14
  -14.3400002      -3.08479472E-14
  -14.3299999      -2.86083379E-14
  -14.3199997      -1.39607361E-14
  -14.3100004       1.25837764E-14
  -14.3000002       4.55737200E-14
  -14.2900000       7.47503933E-14
  -14.2799997       8.71365968E-14
  -14.2700005       7.10251356E-14
  -14.2600002       2.10337881E-14
  -14.2500000      -5.73284164E-14
  -14.2399998      -1.45547081E-13
  -14.2299995      -2.14167605E-13
  -14.2200003      -2.29809634E-13
  -14.2100000      -1.66263528E-13
  -14.1999998      -1.69648570E-14
  -14.1899996       1.95358527E-13
  -14.1800003       4.16473740E-13
  -14.1700001       5.69274771E-13
  -14.1599998       5.73834708E-13
  -14.1499996       3.75402075E-13
  -14.1400003      -2.71672469E-14
  -14.1300001      -5.62748578E-13
  -14.1199999      -1.08891748E-12
  -14.1099997      -1.41864266E-12
  -14.1000004      -1.37138261E-12
  -14.0900002      -8.38208734E-13
  -14.0799999       1.57500965E-13
  -14.0699997       1.42649391E-12
  -14.0600004       2.62693708E-12
  -14.0500002       3.33405417E-12
  -14.0400000       3.15875819E-12
  -14.0299997       1.88906486E-12
  -14.0200005      -3.87147969E-13
  -14.0100002      -3.22470284E-12
  -14.0000000      -5.86617387E-12
  -13.9899998      -7.40247186E-12
  -13.9799995      -7.02695627E-12
  -13.9700003      -4.32399342E-12
  -13.9600000       4.93012478E-13
  -13.9499998       6.48442888E-12
  -13.9399996       1.20948017E-11
  -13.9300003       1.54862546E-11
  -13.9200001       1.50432219E-11
  -13.9099998       9.92886676E-12
  -13.8999996       5.30876721E-13
  -13.8900003      -1.13682189E-11
  -13.8800001      -2.28115461E-11
  -13.8699999      -3.02952073E-11
  -13.8599997      -3.06993944E-11
  -13.8500004      -2.23029026E-11
  -13.8400002      -5.59082988E-12
  -13.8299999       1.64283448E-11
  -13.8199997       3.85879037E-11
  -13.8100004       5.46323230E-11
  -13.8000002       5.88071536E-11
  -13.7900000       4.75985432E-11
  -13.7799997       2.11411201E-11
  -13.7700005      -1.61680339E-11
  -13.7600002      -5.61609405E-11
  -13.7500000      -8.85290313E-11
  -13.7399998      -1.03314544E-10
  -13.7299995      -9.36815694E-11
  -13.7200003      -5.82354512E-11
  -13.7100000      -2.18138051E-12
  -13.6999998       6.31534408E-11
  -13.6899996       1.22509849E-10
  -13.6800003       1.60198146E-10
  -13.6700001       1.64111891E-10
  -13.6599998       1.29218261E-10
  -13.6499996       5.95292218E-11
  -13.6400003      -3.20948268E-11
  -13.6300001      -1.26436764E-10
  -13.6199999      -2.02200895E-10
  -13.6099997      -2.41042797E-10
  -13.6000004      -2.32052905E-10
  -13.5900002      -1.74496903E-10
  -13.5799999      -7.80552289E-11
  -13.5699997       3.95001254E-11
  -13.5600004       1.56507626E-10
  -13.5500002       2.52273119E-10
  -13.5400000       3.11177001E-10
  -13.5299997       3.24902494E-10
  -13.5200005       2.92348368E-10
  -13.5100002       2.17613427E-10
  -13.5000000       1.07239891E-10
  -13.4899998      -3.18148632E-11
  -13.4799995      -1.92205668E-10
  -13.4700003      -3.63849728E-10
  -13.4600000      -5.29995992E-10
  -13.4499998      -6.63658850E-10
  -13.4399996      -7.27019334E-10
  -13.4300003      -6.76078915E-10
  -13.4200001      -4.71432560E-10
  -13.4099998      -9.39483907E-11
  -13.3999996       4.38481751E-10
  -13.3900003       1.05870446E-09
  -13.3800001       1.64876379E-09
  -13.3699999       2.05359796E-09
  -13.3599997       2.11114481E-09
  -13.3500004       1.69501391E-09
  -13.3400002       7.60745911E-10
  -13.3299999      -6.16904472E-10
  -13.3199997      -2.22904983E-09
  -13.3100004      -3.75040621E-09
  -13.3000002      -4.79307971E-09
  -13.2900000      -4.99036323E-09
  -13.2799997      -4.09509182E-09
  -13.2700005      -2.06849604E-09
  -13.2600002       8.64858296E-10
  -13.2500000       4.21820268E-09
  -13.2399998       7.30965422E-09
  -13.2299995       9.39020595E-09
  -13.2200003       9.81066783E-09
  -13.2100000       8.19196977E-09
  -13.1999998       4.55641480E-09
  -13.1899996      -6.17424334E-10
  -13.1800003      -6.44085230E-09
  -13.1700001      -1.17639027E-08
  -13.1599998      -1.54029660E-08
  -13.1499996      -1.64015947E-08
  -13.1400003      -1.42662469E-08
  -13.1300001      -9.11724296E-09
  -13.1199999      -1.71361303E-09
  -13.1099997       6.66495392E-09
  -13.1000004       1.44607988E-08
  -13.0900002       2.01557384E-08
  -13.0799999       2.25934791E-08
  -13.0699997       2.12296420E-08
  -13.0600004       1.62504818E-08
  -13.0500002       8.52718340E-09
  -13.0400000      -5.83597226E-10
  -13.0299997      -9.54432533E-09
  -13.0200005      -1.69703327E-08
  -13.0100002      -2.19058389E-08
  -13.0000000      -2.39709248E-08
  -12.9899998      -2.33447466E-08
  -12.9799995      -2.05930686E-08
  -12.9700003      -1.63999871E-08
  -12.9600000      -1.12906857E-08
  -12.9499998      -5.44380052E-09
  -12.9399996       1.33275047E-09
  -12.9300003       9.43587164E-09
  -12.9200001       1.91459542E-08
  -12.9099998       3.02459391E-08
  -12.8999996       4.17086632E-08
  -12.8900003       5.15894811E-08
  -12.8800001       5.72111283E-08
  -12.8699999       5.56619639E-08
  -12.8599997       4.45283703E-08
  -12.8500004       2.27008030E-08
  -12.8400002      -8.96122909E-09
  -12.8299999      -4.73150266E-08
  -12.8199997      -8.71219470E-08
  -12.8100004      -1.21770867E-07
  -12.8000002      -1.44433244E-07
  -12.7900000      -1.49420600E-07
  -12.7799997      -1.33437936E-07
  -12.7700005      -9.64172884E-08
  -12.7600002      -4.17029007E-08
  -12.7500000       2.44912233E-08
  -12.7399998       9.42445411E-08
  -12.7299995       1.59439438E-07
  -12.7200003       2.13236106E-07
  -12.7100000       2.51121094E-07
  -12.6999998       2.71247870E-07
  -12.6899996       2.73975644E-07
  -12.6800003       2.60740421E-07
  -12.6700001       2.32610418E-07
  -12.6599998       1.88991862E-07
  -12.6499996       1.26967322E-07
  -12.6400003       4.15855546E-08
  -12.6300001      -7.27824343E-08
  -12.6199999      -2.20247060E-07
  -12.6099997      -4.00802662E-07
  -12.6000004      -6.07969412E-07
  -12.5900002      -8.27286385E-07
  -12.5799999      -1.03615002E-06
  -12.5699997      -1.20518280E-06
  -12.5600004      -1.30100045E-06
  -12.5500002      -1.28995157E-06
  -12.5400000      -1.14216994E-06
  -12.5299997      -8.35348146E-07
  -12.5200005      -3.57672320E-07
  -12.5100002       2.90217912E-07
  -12.5000000       1.09420205E-06
  -12.4899998       2.02613364E-06
  -12.4799995       3.04327841E-06
  -12.4700003       4.08722963E-06
  -12.4600000       5.08218591E-06
  -12.4499998       5.93266395E-06
  -12.4399996       6.52148537E-06
  -12.4300003       6.70882764E-06
  -12.4200001       6.33381842E-06
  -12.4099998       5.21953825E-06
  -12.3999996       3.18209527E-06
  -12.3900003       4.40107755E-08
  -12.3800001      -4.34885851E-06
  -12.3699999      -1.01088472E-05
  -12.3599997      -1.72875480E-05
  -12.3500004      -2.58596356E-05
  -12.3400002      -3.57113167E-05
  -12.3299999      -4.66349156E-05
  -12.3199997      -5.83308101E-05
  -12.3100004      -7.04168488E-05
  -12.3000002      -8.24442104E-05
  -12.2900000      -9.39181409E-05
  -12.2799997      -1.04321931E-04
  -12.2700005      -1.13141716E-04
  -12.2600002      -1.19889984E-04
  -12.2500000      -1.24126935E-04
  -12.2399998      -1.25478182E-04
  -12.2299995      -1.23647551E-04
  -12.2200003      -1.18426782E-04
  -12.2100000      -1.09699511E-04
  -12.1999998      -9.74422292E-05
  -12.1899996      -8.17201799E-05
  -12.1800003      -6.26807087E-05
  -12.1700001      -4.05419523E-05
  -12.1599998      -1.55795933E-05
  -12.1499996       1.18880944E-05
  -12.1400003       4.15162249E-05
  -12.1300001       7.29470339E-05
  -12.1199999       1.05823106E-04
  -12.1099997       1.39793148E-04
  -12.1000004       1.74514178E-04
  -12.0900002       2.09647958E-04
  -12.0799999       2.44851748E-04
  -12.0699997       2.79766886E-04
  -12.0600004       3.14004399E-04
  -12.0500002       3.47134890E-04
  -12.0400000       3.78680910E-04
  -12.0299997       4.08118009E-04
  -12.0200005       4.34880058E-04
  -12.0100002       4.58378083E-04
  -12.0000000       4.78016562E-04
  -11.9899998       4.93220927E-04
  -11.9799995       5.03460295E-04
  -11.9700003       5.08267898E-04
  -11.9600000       5.07258985E-04
  -11.9499998       5.00138733E-04
  -11.9399996       4.86705132E-04
  -11.9300003       4.66848112E-04
  -11.9200001       4.40540403E-04
  -11.9099998       4.07832937E-04
  -11.8999996       3.68843233E-04
  -11.8900003       3.23751010E-04
  -11.8800001       2.72788922E-04
  -11.8699999       2.16241460E-04
  -11.8599997       1.54435067E-04
  -11.8500004       8.77352286E-05
  -11.8400002       1.65369911E-05
  -11.8299999      -5.87364011E-05
  -11.8199997      -1.37643205E-04
  -11.8100004      -2.19718946E-04
  -11.8000002      -3.04475077E-04
  -11.7900000      -3.91390553E-04
  -11.7799997      -4.79902897E-04
  -11.7700005      -5.69399213E-04
  -11.7600002      -6.59207697E-04
  -11.7500000      -7.48600753E-04
  -11.7399998      -8.36802938E-04
  -11.7299995      -9.23005515E-04
  -11.7200003      -1.00638834E-03
  -11.7100000      -1.08614366E-03
  -11.6999998      -1.16149045E-03
  -11.6899996      -1.23168621E-03
  -11.6800003      -1.29603047E-03
  -11.6700001      -1.35385082E-03
  -11.6599998      -1.40449021E-03
  -11.6499996      -1.44728832E-03
  -11.6400003      -1.48156937E-03
  -11.6300001      -1.50663673E-03
  -11.6199999      -1.52177864E-03
  -11.6099997      -1.52628846E-03
  -11.6000004      -1.51948596E-03
  -11.5900002      -1.50074542E-03
  -11.5799999      -1.46951992E-03
  -11.5699997      -1.42535975E-03
  -11.5600004      -1.36792031E-03
  -11.5500002      -1.29696296E-03
  -11.5400000      -1.21235009E-03
  -11.5299997      -1.11403374E-03
  -11.5200005      -1.00205839E-03
  -11.5100002      -8.76555801E-04
  -11.5000000      -7.37749098E-04
  -11.4899998      -5.85962262E-04
  -11.4799995      -4.21627017E-04
  -11.4700003      -2.45287287E-04
  -11.4600000      -5.75959020E-05
  -11.4499998       1.40694770E-04
  -11.4399996       3.48746340E-04
  -11.4300003       5.65659138E-04
  -11.4200001       7.90490594E-04
  -11.4099998       1.02227821E-03
  -11.3999996       1.26005826E-03
  -11.3900003       1.50287931E-03
  -11.3800001       1.74981088E-03
  -11.3699999       1.99994980E-03
  -11.3599997       2.25242320E-03
  -11.3500004       2.50638858E-03
  -11.3400002       2.76102708E-03
  -11.3299999       3.01554520E-03
  -11.3199997       3.26916389E-03
  -11.3100004       3.52111598E-03
  -11.3000002       3.77064408E-03
  -11.2900000       4.01699776E-03
  -11.2799997       4.25944570E-03
  -11.2700005       4.49727476E-03
  -11.2600002       4.72980691E-03
  -11.2500000       4.95640468E-03
  -11.2399998       5.17648645E-03
  -11.2299995       5.38951904E-03
  -11.2200003       5.59502607E-03
  -11.2100000       5.79257542E-03
  -11.1999998       5.98177966E-03
  -11.1899996       6.16229698E-03
  -11.1800003       6.33382238E-03
  -11.1700001       6.49610581E-03
  -11.1599998       6.64894609E-03
  -11.1499996       6.79220166E-03
  -11.1400003       6.92578452E-03
  -11.1300001       7.04964763E-03
  -11.1199999       7.16377422E-03
  -11.1099997       7.26814847E-03
  -11.1000004       7.36276712E-03
  -11.0900002       7.44761480E-03
  -11.0799999       7.52269244E-03
  -11.0699997       7.58803496E-03
  -11.0600004       7.64374994E-03
  -11.0500002       7.69004226E-03
  -11.0400000       7.72723602E-03
  -11.0299997       7.75577081E-03
  -11.0200005       7.77619286E-03
  -11.0100002       7.78911263E-03
  -11.0000000       7.79515924E-03
  -10.9899998       7.79494224E-03
  -10.9799995       7.78902741E-03
  -10.9700003       7.77790463E-03
  -10.9600000       7.76200136E-03
  -10.9499998       7.74166640E-03
  -10.9399996       7.71718659E-03
  -10.9300003       7.68878078E-03
  -10.9200001       7.65657891E-03
  -10.9099998       7.62060657E-03
  -10.8999996       7.58076645E-03
  -10.8900003       7.53682712E-03
  -10.8800001       7.48843933E-03
  -10.8699999       7.43516069E-03
  -10.8599997       7.37650925E-03
  -10.8500004       7.31200632E-03
  -10.8400002       7.24122766E-03
  -10.8299999       7.16382079E-03
  -10.8199997       7.07950769E-03
  -10.8100004       6.98806951E-03
  -10.8000002       6.88929902E-03
  -10.7900000       6.78299135E-03
  -10.7799997       6.66889828E-03
  -10.7700005       6.54674834E-03
  -10.7600002       6.41625980E-03
  -10.7500000       6.27717702E-03
  -10.7399998       6.12930395E-03
  -10.7299995       5.97253209E-03
  -10.7200003       5.80685306E-03
  -10.7100000       5.63236326E-03
  -10.6999998       5.44924196E-03
  -10.6899996       5.25774015E-03
  -10.6800003       5.05817588E-03
  -10.6700001       4.85092402E-03
  -10.6599998       4.63643251E-03
  -10.6499996       4.41520754E-03
  -10.6400003       4.18784097E-03
  -10.6300001       3.95497540E-03
  -10.6199999       3.71731725E-03
  -10.6099997       3.47561110E-03
  -10.6000004       3.23064206E-03
  -10.5900002       2.98324507E-03
  -10.5799999       2.73431651E-03
  -10.5699997       2.48484686E-03
  -10.5600004       2.23592296E-03
  -10.5500002       1.98870688E-03
  -10.5400000       1.74438674E-03
  -10.5299997       1.50409527E-03
  -10.5200005       1.26879138E-03
  -10.5100002       1.03918486E-03
  -10.5000000       8.15647771E-04
  -10.4899998       5.98211016E-04
  -10.4799995       3.86611093E-04
  -10.4700003       1.80373740E-04
  -10.4600000      -2.10737271E-05
  -10.4499998      -2.18285408E-04
  -10.4399996      -4.11740039E-04
  -10.4300003      -6.01813488E-04
  -10.4200001      -7.88793026E-04
  -10.4099998      -9.72949027E-04
  -10.3999996      -1.15458248E-03
  -10.3900003      -1.33405812E-03
  -10.3800001      -1.51180779E-03
  -10.3699999      -1.68828387E-03
  -10.3599997      -1.86392886E-03
  -10.3500004      -2.03909096E-03
  -10.3400002      -2.21405597E-03
  -10.3299999      -2.38906452E-03
  -10.3199997      -2.56437017E-03
  -10.3100004      -2.74034310E-03
  -10.3000002      -2.91752303E-03
  -10.2900000      -3.09662498E-03
  -10.2799997      -3.27850715E-03
  -10.2700005      -3.46403569E-03
  -10.2600002      -3.65394214E-03
  -10.2500000      -3.84869752E-03
  -10.2399998      -4.04839637E-03
  -10.2299995      -4.25274624E-03
  -10.2200003      -4.46111290E-03
  -10.2100000      -4.67267772E-03
  -10.1999998      -4.88655688E-03
  -10.1899996      -5.10196341E-03
  -10.1800003      -5.31831989E-03
  -10.1700001      -5.53528778E-03
  -10.1599998      -5.75275905E-03
  -10.1499996      -5.97076956E-03
  -10.1400003      -6.18941290E-03
  -10.1300001      -6.40876358E-03
  -10.1199999      -6.62876898E-03
  -10.1099997      -6.84921490E-03
  -10.1000004      -7.06970040E-03
  -10.0900002      -7.28959916E-03
  -10.0799999      -7.50806415E-03
  -10.0699997      -7.72402715E-03
  -10.0600004      -7.93619361E-03
  -10.0500002      -8.14309064E-03
  -10.0400000      -8.34311731E-03
  -10.0299997      -8.53462983E-03
  -10.0200005      -8.71599838E-03
  -10.0100002      -8.88571609E-03
  -10.0000000      -9.04242508E-03
  -9.98999977      -9.18493140E-03
  -9.97999954      -9.31218173E-03
  -9.97000027      -9.42320377E-03
  -9.96000004      -9.51707922E-03
  -9.94999981      -9.59288608E-03
  -9.93999958      -9.64975171E-03
  -9.93000031      -9.68686584E-03
  -9.92000008      -9.70357377E-03
  -9.90999985      -9.69944894E-03
  -9.89999962      -9.67433769E-03
  -9.89000034      -9.62838437E-03
  -9.88000011      -9.56196245E-03
  -9.86999989      -9.47562233E-03
  -9.85999966      -9.36999172E-03
  -9.85000038      -9.24571883E-03
  -9.84000015      -9.10343044E-03
  -9.82999992      -8.94376729E-03
  -9.81999969      -8.76742695E-03
  -9.81000042      -8.57524388E-03
  -9.80000019      -8.36824626E-03
  -9.78999996      -8.14766902E-03
  -9.77999973      -7.91493338E-03
  -9.77000046      -7.67156295E-03
  -9.76000023      -7.41910702E-03
  -9.75000000      -7.15903705E-03
  -9.73999977      -6.89270673E-03
  -9.72999954      -6.62134867E-03
  -9.72000027      -6.34612888E-03
  -9.71000004      -6.06821058E-03
  -9.69999981      -5.78885619E-03
  -9.68999958      -5.50945988E-03
  -9.68000031      -5.23156114E-03
  -9.67000008      -4.95677767E-03
  -9.65999985      -4.68669692E-03
  -9.64999962      -4.42274520E-03
  -9.64000034      -4.16606432E-03
  -9.63000011      -3.91741795E-03
  -9.61999989      -3.67718097E-03
  -9.60999966      -3.44534265E-03
  -9.60000038      -3.22159240E-03
  -9.59000015      -3.00541264E-03
  -9.57999992      -2.79617705E-03
  -9.56999969      -2.59322207E-03
  -9.56000042      -2.39588483E-03
  -9.55000019      -2.20350828E-03
  -9.53999996      -2.01543933E-03
  -9.52999973      -1.83104281E-03
  -9.52000046      -1.64967426E-03
  -9.51000023      -1.47074461E-03
  -9.50000000      -1.29375362E-03
  -9.48999977      -1.11834554E-03
  -9.47999954      -9.44342057E-04
  -9.47000027      -7.71769730E-04
  -9.46000004      -6.00862899E-04
  -9.44999981      -4.32020315E-04
  -9.43999958      -2.65795185E-04
  -9.43000031      -1.02859107E-04
  -9.42000008       5.59949949E-05
  -9.40999985       2.09818914E-04
  -9.39999962       3.57485813E-04
  -9.39000034       4.97660367E-04
  -9.38000011       6.28791924E-04
  -9.36999989       7.49124330E-04
  -9.35999966       8.56787665E-04
  -9.35000038       9.49863752E-04
  -9.34000015       1.02645264E-03
  -9.32999992       1.08475017E-03
  -9.31999969       1.12302671E-03
  -9.31000042       1.13958318E-03
  -9.30000019       1.13264844E-03
  -9.28999996       1.10028021E-03
  -9.27999973       1.04026741E-03
  -9.27000046       9.50103975E-04
  -9.26000023       8.27037846E-04
  -9.25000000       6.68158522E-04
  -9.23999977       4.70554398E-04
  -9.22999954       2.31484635E-04
  -9.22000027      -5.14859930E-05
  -9.21000004      -3.80395533E-04
  -9.19999981      -7.56828405E-04
  -9.18999958      -1.18191552E-03
  -9.18000031      -1.65637129E-03
  -9.17000008      -2.18050648E-03
  -9.15999985      -2.75428267E-03
  -9.14999962      -3.37730511E-03
  -9.14000034      -4.04883595E-03
  -9.13000011      -4.76782257E-03
  -9.11999989      -5.53289242E-03
  -9.10999966      -6.34239335E-03
  -9.10000038      -7.19439937E-03
  -9.09000015      -8.08670744E-03
  -9.07999992      -9.01680719E-03
  -9.06999969      -9.98180266E-03
  -9.06000042      -1.09783271E-02
  -9.05000019      -1.20025007E-02
  -9.03999996      -1.30498717E-02
  -9.02999973      -1.41154733E-02
  -9.02000046      -1.51939411E-02
  -9.01000023      -1.62796695E-02
  -9.00000000      -1.73670091E-02
  -8.98999977      -1.84503999E-02
  -8.97999954      -1.95244905E-02
  -8.97000027      -2.05841120E-02
  -8.96000004      -2.16242056E-02
  -8.94999981      -2.26397496E-02
  -8.93999958      -2.36256141E-02
  -8.93000031      -2.45765261E-02
  -8.92000008      -2.54870765E-02
  -8.90999985      -2.63518244E-02
  -8.89999962      -2.71653831E-02
  -8.89000034      -2.79226173E-02
  -8.88000011      -2.86186747E-02
  -8.86999989      -2.92490330E-02
  -8.85999966      -2.98094973E-02
  -8.85000038      -3.02961264E-02
  -8.84000015      -3.07051726E-02
  -8.82999992      -3.10330205E-02
  -8.81999969      -3.12762260E-02
  -8.81000042      -3.14315557E-02
  -8.80000019      -3.14960442E-02
  -8.78999996      -3.14670242E-02
  -8.77999973      -3.13421711E-02
  -8.77000046      -3.11194807E-02
  -8.76000023      -3.07972413E-02
  -8.75000000      -3.03739868E-02
  -8.73999977      -2.98484880E-02
  -8.72999954      -2.92198621E-02
  -8.72000027      -2.84875855E-02
  -8.71000004      -2.76516527E-02
  -8.69999981      -2.67126057E-02
  -8.68999958      -2.56716125E-02
  -8.68000031      -2.45303754E-02
  -8.67000008      -2.32910626E-02
  -8.65999985      -2.19561569E-02
  -8.64999962      -2.05283891E-02
  -8.64000034      -1.90106444E-02
  -8.63000011      -1.74059886E-02
  -8.61999989      -1.57177448E-02
  -8.60999966      -1.39495898E-02
  -8.60000038      -1.21056177E-02
  -8.59000015      -1.01903565E-02
  -8.57999992      -8.20870791E-03
  -8.56999969      -6.16584159E-03
  -8.56000042      -4.06701257E-03
  -8.55000019      -1.91744359E-03
  -8.53999996       2.77762214E-04
  -8.52999973       2.51363241E-03
  -8.52000046       4.78530629E-03
  -8.51000023       7.08799530E-03
  -8.50000000       9.41689964E-03
  -8.48999977       1.17672412E-02
  -8.47999954       1.41343055E-02
  -8.47000027       1.65134985E-02
  -8.46000004       1.89004261E-02
  -8.44999981       2.12909374E-02
  -8.43999958       2.36810967E-02
  -8.43000031       2.60671154E-02
  -8.42000008       2.84452830E-02
  -8.40999985       3.08119003E-02
  -8.39999962       3.31632756E-02
  -8.39000034       3.54957730E-02
  -8.38000011       3.78059447E-02
  -8.36999989       4.00906540E-02
  -8.35999966       4.23471592E-02
  -8.35000038       4.45731692E-02
  -8.34000015       4.67667356E-02
  -8.32999992       4.89261635E-02
  -8.31999969       5.10497913E-02
  -8.31000042       5.31357974E-02
  -8.30000019       5.51821403E-02
  -8.28999996       5.71864769E-02
  -8.27999973       5.91461882E-02
  -8.27000046       6.10584319E-02
  -8.26000023       6.29202500E-02
  -8.25000000       6.47285730E-02
  -8.23999977       6.64801151E-02
  -8.22999954       6.81713670E-02
  -8.22000027       6.97984770E-02
  -8.21000004       7.13571161E-02
  -8.19999981       7.28425905E-02
  -8.18999958       7.42498264E-02
  -8.18000031       7.55735412E-02
  -8.17000008       7.68084377E-02
  -8.15999985       7.79493302E-02
  -8.14999962       7.89912865E-02
  -8.14000034       7.99295828E-02
  -8.13000011       8.07597563E-02
  -8.11999989       8.14774334E-02
  -8.10999966       8.20783302E-02
  -8.10000038       8.25582147E-02
  -8.09000015       8.29128698E-02
  -8.07999992       8.31382722E-02
  -8.06999969       8.32306221E-02
  -8.06000042       8.31864402E-02
  -8.05000019       8.30026343E-02
  -8.03999996       8.26764330E-02
  -8.02999973       8.22053701E-02
  -8.02000046       8.15871656E-02
  -8.01000023       8.08196887E-02
  -8.00000000       7.99008682E-02
  -7.98999977       7.88288265E-02
  -7.98000002       7.76018798E-02
  -7.96999979       7.62186944E-02
  -7.96000004       7.46783689E-02
  -7.94999981       7.29804784E-02
  -7.94000006       7.11251795E-02
  -7.92999983       6.91130757E-02
  -7.92000008       6.69452026E-02
  -7.90999985       6.46229908E-02
  -7.90000010       6.21483214E-02
  -7.88999987       5.95234893E-02
  -7.88000011       5.67513891E-02
  -7.86999989       5.38356192E-02
  -7.86000013       5.07805906E-02
  -7.84999990       4.75915857E-02
  -7.84000015       4.42748144E-02
  -7.82999992       4.08373214E-02
  -7.82000017       3.72868851E-02
  -7.80999994       3.36319208E-02
  -7.80000019       2.98814122E-02
  -7.78999996       2.60448102E-02
  -7.78000021       2.21320875E-02
  -7.76999998       1.81536730E-02
  -7.76000023       1.41204866E-02
  -7.75000000       1.00438418E-02
  -7.73999977       5.93527686E-03
  -7.73000002       1.80641736E-03
  -7.71999979      -2.33131461E-03
  -7.71000004      -6.46690186E-03
  -7.69999981      -1.05898418E-02
  -7.69000006      -1.46902567E-02
  -7.67999983      -1.87587887E-02
  -7.67000008      -2.27865558E-02
  -7.65999985      -2.67649442E-02
  -7.65000010      -3.06855906E-02
  -7.63999987      -3.45403329E-02
  -7.63000011      -3.83213088E-02
  -7.61999989      -4.20211442E-02
  -7.61000013      -4.56330813E-02
  -7.59999990      -4.91511710E-02
  -7.59000015      -5.25703393E-02
  -7.57999992      -5.58862165E-02
  -7.57000017      -5.90951517E-02
  -7.55999994      -6.21938594E-02
  -7.55000019      -6.51793852E-02
  -7.53999996      -6.80488572E-02
  -7.53000021      -7.07995296E-02
  -7.51999998      -7.34288245E-02
  -7.51000023      -7.59345442E-02
  -7.50000000      -7.83148333E-02
  -7.48999977      -8.05683434E-02
  -7.48000002      -8.26941878E-02
  -7.46999979      -8.46917778E-02
  -7.46000004      -8.65607262E-02
  -7.44999981      -8.83007422E-02
  -7.44000006      -8.99115354E-02