  -16.0000000       0.00000000    
  -15.9899998       0.00000000    
  -15.9799995       0.00000000    
  -15.9700003       0.00000000    
  -15.9600000       0.00000000    
  -15.9499998       0.00000000    
  -15.9399996       0.00000000    
  -15.9300003       0.00000000    
  -15.9200001       0.00000000    
  -15.9099998       0.00000000    
  -15.8999996       0.00000000    
  -15.8900003       0.00000000    
  -15.8800001       0.00000000    
  -15.8699999       0.00000000    
  -15.8599997       0.00000000    
  -15.8500004       0.00000000    
  -15.8400002       1.40129846E-45
  -15.8299999       2.24207754E-44
  -15.8199997       2.11596068E-43
  -15.8100004       1.55824389E-42
  -15.8000002       9.57086851E-42
  -15.7900000       5.03892915E-41
  -15.7799997       2.31749543E-40
  -15.7700005       9.43831969E-40
  -15.7600002       3.43865051E-39
  -15.7500000       1.12945441E-38
  -15.7399998       3.36423791E-38
  -15.7299995       9.12560088E-38
  -15.7200003       2.25979691E-37
  -15.7100000       5.11109153E-37
  -15.6999998       1.05344175E-36
  -15.6899996       1.96563871E-36
  -15.6800003       3.27242482E-36
  -15.6700001       4.70520851E-36
  -15.6599998       5.35678171E-36
  -15.6499996       3.24135141E-36
  -15.6400003      -5.03365206E-36
  -15.6300001      -2.40231513E-35
  -15.6199999      -5.78865822E-35
  -15.6099997      -1.06672795E-34
  -15.6000004      -1.60055104E-34
  -15.5900002      -1.89619441E-34
  -15.5799999      -1.43671858E-34
  -15.5699997       4.76800626E-35
  -15.5600004       4.46705302E-34
  -15.5500002       1.05344277E-33
  -15.5400000       1.72708956E-33
  -15.5299997       2.11449210E-33
  -15.5200005       1.65149499E-33
  -15.5100002      -2.74234613E-34
  -15.5000000      -3.93505036E-33
  -15.4899998      -8.69671055E-33
  -15.4799995      -1.25243986E-32
  -15.4700003      -1.20416275E-32
  -15.4600000      -3.70226574E-33
  -15.4499998       1.36779362E-32
  -15.4399996       3.56653185E-32
  -15.4300003       5.01752064E-32
  -15.4200001       3.96799256E-32
  -15.4099998      -9.69792170E-33
  -15.3999996      -9.26274678E-32
  -15.3900003      -1.68971553E-31
  -15.3800001      -1.61500076E-31
  -15.3699999       1.67950195E-32
  -15.3599997       3.97152051E-31
  -15.3500004       8.65433736E-31
  -15.3400002       1.09730639E-30
  -15.3299999       5.97523856E-31
  -15.3199997      -1.07931747E-30
  -15.3100004      -3.91346896E-30
  -15.3000002      -6.93388420E-30
  -15.2900000      -7.95955399E-30
  -15.2799997      -3.98531705E-30
  -15.2700005       7.44390581E-30
  -15.2600002       2.59094934E-29
  -15.2500000       4.55819199E-29
  -15.2399998       5.40119409E-29
  -15.2299995       3.42651856E-29
  -15.2200003      -2.80265448E-29
  -15.2100000      -1.32938566E-28
  -15.1999998      -2.53245632E-28
  -15.1899996      -3.27152399E-28
  -15.1800003      -2.66080727E-28
  -15.1700001       1.45680666E-29
  -15.1599998       5.40885869E-28
  -15.1499996       1.21460419E-27
  -15.1400003       1.76495976E-27
  -15.1300001       1.76073581E-27
  -15.1199999       7.25227409E-28
  -15.1099997      -1.62651467E-27
  -15.1000004      -5.06213044E-27
  -15.0900002      -8.53017638E-27
  -15.0799999      -1.00741736E-26
  -15.0699997      -7.19245240E-27
  -15.0600004       2.18775261E-27
  -15.0500002       1.81649830E-26
  -15.0400000       3.71575889E-26
  -15.0299997       5.08901504E-26
  -15.0200005       4.72437395E-26
  -15.0100002       1.40375903E-26
  -15.0000000      -5.40195185E-26
  -14.9899998      -1.46644090E-25
  -14.9799995      -2.31217103E-25
  -14.9700003      -2.53488520E-25
  -14.9600000      -1.51402524E-25
  -14.9499998       1.15477564E-25
  -14.9399996       5.25697597E-25
  -14.9300003       9.59722754E-25
  -14.9200001       1.19210382E-24
  -14.9099998       9.38530499E-25
  -14.8999996      -2.73568056E-26
  -14.8900003      -1.70183369E-24
  -14.8800001      -3.68100445E-24
  -14.8699999      -5.09164552E-24
  -14.8599997      -4.73660447E-24
  -14.8500004      -1.52839385E-24
  -14.8400002       4.82639222E-24
  -14.8299999       1.30976635E-23
  -14.8199997       2.01333743E-23
  -14.8100004       2.12443129E-23
  -14.8000002       1.16998856E-23
  -14.7900000      -1.07287584E-23
  -14.7799997      -4.28606873E-23
  -14.7700005      -7.41681470E-23
  -14.7600002      -8.74994103E-23
  -14.7500000      -6.38153068E-23
  -14.7399998       8.98597295E-24
  -14.7299995       1.25211247E-22
  -14.7200003       2.52909311E-22
  -14.7100000       3.33734030E-22
  -14.6999998       2.96378576E-22
  -14.6899996       8.49906685E-23
  -14.6800003      -3.02884748E-22
  -14.6700001      -7.82420670E-22
  -14.6599998      -1.17123039E-21
  -14.6499996      -1.22176394E-21
  -14.6400003      -7.05094025E-22
  -14.6300001       4.65768974E-22
  -14.6199999       2.11111396E-21
  -14.6099997       3.71838486E-21
  -14.6000004       4.49937543E-21
  -14.5900002       3.61124760E-21
  -14.5799999       5.25111863E-22
  -14.5699997      -4.55306422E-21
  -14.5600004      -1.03793993E-20
  -14.5500002      -1.46905451E-20
  -14.5400000      -1.47023066E-20
  -14.5299997      -8.10582313E-21
  -14.5200005       5.64117508E-21
  -14.5100002       2.41657132E-20
  -14.5000000       4.17615089E-20
  -14.4899998       5.02463464E-20
  -14.4799995       4.13315883E-20
  -14.4700003       1.01824318E-20
  -14.4600000      -4.08259127E-20
  -14.4499998      -9.96961372E-20
  -14.4399996      -1.45398642E-19
  -14.4300003      -1.52574265E-19
  -14.4200001      -1.00196459E-19
  -14.4099998       1.77090080E-20
  -14.3999996       1.82876722E-19
  -14.3900003       3.49626342E-19
  -14.3800001       4.51564876E-19
  -14.3699999       4.19561284E-19
  -14.3599997       2.08342226E-19
  -14.3500004      -1.75521587E-19
  -14.3400002      -6.54901845E-19
  -14.3299999      -1.08380078E-18
  -14.3199997      -1.27674025E-18
  -14.3100004      -1.06497550E-18
  -14.3000002      -3.67789109E-19
  -14.2900000       7.43102253E-19
  -14.2799997       2.01331791E-18
  -14.2700005       3.03367373E-18
  -14.2600002       3.33627522E-18
  -14.2500000       2.54661138E-18
  -14.2399998       5.54122037E-19
  -14.2299995      -2.35580418E-18
  -14.2200003      -5.46991047E-18
  -14.2100000      -7.75972921E-18
  -14.1999998      -8.14441700E-18
  -14.1899996      -5.85638787E-18
  -14.1800003      -8.10558677E-19
  -14.1700001       6.15318192E-18
  -14.1599998       1.32778974E-17
  -14.1499996       1.82184115E-17
  -14.1400003       1.86683216E-17
  -14.1300001       1.31515249E-17
  -14.1199999       1.75090499E-18
  -14.1099997      -1.34919147E-17
  -14.1000004      -2.87278933E-17
  -14.0900002      -3.90926749E-17
  -14.0799999      -4.00334340E-17
  -14.0699997      -2.88574100E-17
  -14.0600004      -6.04113659E-18
  -14.0500002       2.41863955E-17
  -14.0400000       5.43389701E-17
  -14.0299997       7.53170712E-17
  -14.0200005       7.89054270E-17
  -14.0100002       6.04875095E-17
  -14.0000000       2.11448408E-17
  -13.9899998      -3.16463685E-17
  -13.9799995      -8.51922776E-17
  -13.9700003      -1.24570634E-16
  -13.9600000      -1.36766903E-16
  -13.9499998      -1.14807044E-16
  -13.9399996      -6.05602882E-17
  -13.9300003       1.48698834E-17
  -13.9200001       9.35966576E-17
  -13.9099998       1.55769650E-16
  -13.8999996       1.85417484E-16
  -13.8900003       1.75432249E-16
  -13.8800001       1.29872955E-16
  -13.8699999       6.24933828E-17
  -13.8599997      -8.34678839E-18
  -13.8500004      -6.68218667E-17
  -13.8400002      -1.06198589E-16
  -13.8299999      -1.31931734E-16
  -13.8199997      -1.59248772E-16
  -13.8100004      -2.05014730E-16
  -13.8000002      -2.76043326E-16
  -13.7900000      -3.58146812E-16
  -13.7799997      -4.11218561E-16
  -13.7700005      -3.74837014E-16
  -13.7600002      -1.86081082E-16
  -13.7500000       1.93059865E-16
  -13.7399998       7.45947135E-16
  -13.7299995       1.37990063E-15
  -13.7200003       1.92441650E-15
  -13.7100000       2.15702573E-15
  -13.6999998       1.85778063E-15
  -13.6899996       8.83851722E-16
  -13.6800003      -7.53783355E-16
  -13.6700001      -2.83592158E-15
  -13.6599998      -4.92764424E-15
  -13.6499996      -6.43493132E-15
  -13.6400003      -6.72765575E-15
  -13.6300001      -5.31157759E-15
  -13.6199999      -2.01243466E-15
  -13.6099997       2.87827852E-15
  -13.6000004       8.54828446E-15
  -13.5900002       1.37398637E-14
  -13.5799999       1.69679436E-14
  -13.5699997       1.68561827E-14
  -13.5600004       1.25278214E-14
  -13.5500002       3.95865464E-15
  -13.5400000      -7.81067207E-15
  -13.5299997      -2.06899961E-14
  -13.5200005      -3.18271749E-14
  -13.5100002      -3.81498049E-14
  -13.5000000      -3.70734801E-14
  -13.4899998      -2.72297664E-14
  -13.4799995      -9.03562740E-15
  -13.4700003       1.50647808E-14
  -13.4600000       4.08010587E-14
  -13.4499998       6.27439385E-14
  -13.4399996       7.53521865E-14
  -13.4300003       7.42073436E-14
  -13.4200001       5.71738634E-14
  -13.4099998       2.52065011E-14
  -13.3999996      -1.74228884E-14
  -13.3900003      -6.35969887E-14
  -13.3800001      -1.04492187E-13
  -13.3699999      -1.31200159E-13
  -13.3599997      -1.36524974E-13
  -13.3500004      -1.16589477E-13
  -13.3400002      -7.19068021E-14
  -13.3299999      -7.67259300E-15
  -13.3199997       6.68104081E-14
  -13.3100004       1.39489535E-13
  -13.3000002       1.97462286E-13
  -13.2900000       2.29086742E-13
  -13.2799997       2.25949454E-13
  -13.2700005       1.84391361E-13
  -13.2600002       1.06392454E-13
  -13.2500000      -2.69270424E-16
  -13.2399998      -1.22575208E-13
  -13.2299995      -2.43478604E-13
  -13.2200003      -3.43696263E-13
  -13.2100000      -4.04005822E-13
  -13.1999998      -4.07956384E-13
  -13.1899996      -3.44828143E-13
  -13.1800003      -2.12539865E-13
  -13.1700001      -2.00240351E-14
  -13.1599998       2.11564815E-13
  -13.1499996       4.49501764E-13
  -13.1400003       6.52557706E-13
  -13.1300001       7.76672726E-13
  -13.1199999       7.82843679E-13
  -13.1099997       6.46140476E-13
  -13.1000004       3.64122008E-13
  -13.0900002      -3.74499660E-14
  -13.0799999      -5.03628714E-13
  -13.0699997      -9.55427686E-13
  -13.0600004      -1.30133805E-12
  -13.0500002      -1.45398190E-12
  -13.0400000      -1.34917067E-12
  -13.0299997      -9.63528194E-13
  -13.0200005      -3.26481978E-13
  -13.0100002       4.76982603E-13
  -13.0000000       1.31484298E-12
  -12.9899998       2.02761527E-12
  -12.9799995       2.45626458E-12
  -12.9700003       2.47360162E-12
  -12.9600000       2.01307742E-12
  -12.9499998       1.08895391E-12
  -12.9399996      -1.96799770E-13
  -12.9300003      -1.66306194E-12
  -12.9200001      -3.07279397E-12
  -12.9099998      -4.16738692E-12
  -12.8999996      -4.70660533E-12
  -12.8900003      -4.50786804E-12
  -12.8800001      -3.47918092E-12
  -12.8699999      -1.64155365E-12
  -12.8599997       8.61316877E-13
  -12.8500004       3.76663197E-12
  -12.8400002       6.70882664E-12
  -12.8299999       9.24794703E-12
  -12.8199997       1.09097228E-11
  -12.8100004       1.12371345E-11
  -12.8000002       9.85277398E-12
  -12.7900000       6.52929056E-12
  -12.7799997       1.26181205E-12
  -12.7700005      -5.66788023E-12
  -12.7600002      -1.36495260E-11
  -12.7500000      -2.17410551E-11
  -12.7399998      -2.87183107E-11
  -12.7299995      -3.31869324E-11
  -12.7200003      -3.37555782E-11
  -12.7100000      -2.92572980E-11
  -12.6999998      -1.89926165E-11
  -12.6899996      -2.95731321E-12
  -12.6800003       1.79870788E-11
  -12.6700001       4.20405655E-11
  -12.6599998       6.65197480E-11
  -12.6499996       8.80543624E-11
  -12.6400003       1.02917681E-10
  -12.6300001       1.07462317E-10
  -12.6199999       9.86151438E-11
  -12.6099997       7.43736878E-11
  -12.6000004       3.42442671E-11
  -12.5900002      -2.04326139E-11
  -12.5799999      -8.63127972E-11
  -12.5699997      -1.58061203E-10
  -12.5600004      -2.28558714E-10
  -12.5500002      -2.89300139E-10
  -12.5400000      -3.30970973E-10
  -12.5299997      -3.44182960E-10
  -12.5200005      -3.20343335E-10
  -12.5100002      -2.52625115E-10
  -12.5000000      -1.36998163E-10
  -12.4899998       2.67332927E-11
  -12.4799995       2.33958408E-10
  -12.4700003       4.74438100E-10
  -12.4600000       7.31734340E-10
  -12.4499998       9.82998016E-10
  -12.4399996       1.19921362E-09
  -12.4300003       1.34597555E-09
  -12.4200001       1.38484280E-09
  -12.4099998       1.27525546E-09
  -12.3999996       9.76955961E-10
  -12.3900003       4.52786753E-10
  -12.3800001      -3.28321093E-10
  -12.3699999      -1.38837475E-09
  -12.3599997      -2.73759193E-09
  -12.3500004      -4.37216485E-09
  -12.3400002      -6.27269880E-09
  -12.3299999      -8.40348413E-09
  -12.3199997      -1.07126894E-08
  -12.3100004      -1.31334774E-08
  -12.3000002      -1.55859556E-08
  -12.2900000      -1.79799144E-08
  -12.2799997      -2.02181045E-08
  -12.2700005      -2.21999343E-08
  -12.2600002      -2.38253399E-08
  -12.2500000      -2.49986609E-08
  -12.2399998      -2.56323744E-08
  -12.2299995      -2.56505057E-08
  -12.2200003      -2.49916194E-08
  -12.2100000      -2.36112214E-08
  -12.1999998      -2.14834870E-08
  -12.1899996      -1.86022788E-08
  -12.1800003      -1.49812074E-08
  -12.1700001      -1.06529701E-08
  -12.1599998      -5.66777070E-09
  -12.1499996      -9.10115594E-11
  -12.1400003       5.99950223E-09
  -12.1300001       1.25167281E-08
  -12.1199999       1.93675689E-08
  -12.1099997       2.64557922E-08
  -12.1000004       3.36844970E-08
  -12.0900002       4.09579535E-08
  -12.0799999       4.81827769E-08
  -12.0699997       5.52683872E-08
  -12.0600004       6.21270786E-08
  -12.0500002       6.86736072E-08
  -12.0400000       7.48247828E-08
  -12.0299997       8.04989853E-08
  -12.0200005       8.56158380E-08
  -12.0100002       9.00960870E-08
  -12.0000000       9.38616864E-08
  -11.9899998       9.68359259E-08
  -11.9799995       9.89439215E-08
  -11.9700003       1.00113205E-07
  -11.9600000       1.00274413E-07
  -11.9499998       9.93624667E-08
  -11.9399996       9.73180789E-08
  -11.9300003       9.40895006E-08
  -11.9200001       8.96348382E-08
  -11.9099998       8.39243697E-08
  -11.8999996       7.69430173E-08
  -11.8900003       6.86923940E-08
  -11.8800001       5.91923701E-08
  -11.8699999       4.84818976E-08
  -11.8599997       3.66187649E-08
  -11.8500004       2.36784015E-08
  -11.8400002       9.75178960E-09
  -11.8299999      -5.05709119E-09
  -11.8199997      -2.06345128E-08
  -11.8100004      -3.68600119E-08
  -11.8000002      -5.36092877E-08
  -11.7900000      -7.07566485E-08
  -11.7799997      -8.81767619E-08
  -11.7700005      -1.05745606E-07
  -11.7600002      -1.23340513E-07
  -11.7500000      -1.40839916E-07
  -11.7399998      -1.58121821E-07
  -11.7299995      -1.75062453E-07
  -11.7200003      -1.91534085E-07
  -11.7100000      -2.07403517E-07
  -11.6999998      -2.22530360E-07
  -11.6899996      -2.36766439E-07
  -11.6800003      -2.49955889E-07
  -11.6700001      -2.61936549E-07
  -11.6599998      -2.72542337E-07
  -11.6499996      -2.81606873E-07
  -11.6400003      -2.88967726E-07
  -11.6300001      -2.94470851E-07
  -11.6199999      -2.97975021E-07
  -11.6099997      -2.99355406E-07
  -11.6000004      -2.98506137E-07
  -11.5900002      -2.95341749E-07
  -11.5799999      -2.89796759E-07
  -11.5699997      -2.81824498E-07
  -11.5600004      -2.71395606E-07
  -11.5500002      -2.58494737E-07
  -11.5400000      -2.43118791E-07
  -11.5299997      -2.25275173E-07
  -11.5200005      -2.04980040E-07
  -11.5100002      -1.82258432E-07
  -11.5000000      -1.57144498E-07
  -11.4899998      -1.29682306E-07
  -11.4799995      -9.99272345E-08
  -11.4700003      -6.79467647E-08
  -11.4600000      -3.38213866E-08
  -11.4499998       2.35532460E-09
  -11.4399996       4.04772997E-08
  -11.4300003       8.04270996E-08
  -11.4200001       1.22077694E-07
  -11.4099998       1.65293898E-07
  -11.3999996       2.09934470E-07
  -11.3900003       2.55853820E-07
  -11.3800001       3.02902919E-07
  -11.3699999       3.50931145E-07
  -11.3599997       3.99785904E-07
  -11.3500004       4.49313546E-07
  -11.3400002       4.99359999E-07
  -11.3299999       5.49770789E-07
  -11.3199997       6.00392354E-07
  -11.3100004       6.51072753E-07
  -11.3000002       7.01663680E-07
  -11.2900000       7.52021549E-07
  -11.2799997       8.02009652E-07
  -11.2700005       8.51499010E-07
  -11.2600002       9.00370026E-07
  -11.2500000       9.48512707E-07
  -11.2399998       9.95826440E-07
  -11.2299995       1.04221999E-06
  -11.2200003       1.08761060E-06
  -11.2100000       1.13192243E-06
  -11.1999998       1.17508671E-06
  -11.1899996       1.21703829E-06
  -11.1800003       1.25771533E-06
  -11.1700001       1.29705870E-06
  -11.1599998       1.33501044E-06
  -11.1499996       1.37151130E-06
  -11.1400003       1.40650309E-06
  -11.1300001       1.43992588E-06
  -11.1199999       1.47172079E-06
  -11.1099997       1.50183189E-06
  -11.1000004       1.53020630E-06
  -11.0900002       1.55680186E-06
  -11.0799999       1.58158741E-06
  -11.0699997       1.60454840E-06
  -11.0600004       1.62568790E-06
  -11.0500002       1.64502660E-06
  -11.0400000       1.66260509E-06
  -11.0299997       1.67847895E-06
  -11.0200005       1.69271345E-06
  -11.0100002       1.70537839E-06
  -11.0000000       1.71654028E-06
  -10.9899998       1.72625755E-06
  -10.9799995       1.73457568E-06
  -10.9700003       1.74152547E-06
  -10.9600000       1.74711749E-06
  -10.9499998       1.75135153E-06
  -10.9399996       1.75421394E-06
  -10.9300003       1.75568141E-06
  -10.9200001       1.75573200E-06
  -10.9099998       1.75434127E-06
  -10.8999996       1.75149194E-06
  -10.8900003       1.74717240E-06
  -10.8800001       1.74138142E-06
  -10.8699999       1.73412184E-06
  -10.8599997       1.72540251E-06
  -10.8500004       1.71523652E-06
  -10.8400002       1.70363080E-06
  -10.8299999       1.69058660E-06
  -10.8199997       1.67609176E-06
  -10.8100004       1.66012569E-06
  -10.8000002       1.64264395E-06
  -10.7900000       1.62359038E-06
  -10.7799997       1.60289665E-06
  -10.7700005       1.58048078E-06
  -10.7600002       1.55626560E-06
  -10.7500000       1.53017595E-06
  -10.7399998       1.50215283E-06
  -10.7299995       1.47215974E-06
  -10.7200003       1.44017451E-06
  -10.7100000       1.40620148E-06
  -10.6999998       1.37025950E-06
  -10.6899996       1.33238450E-06
  -10.6800003       1.29261343E-06
  -10.6700001       1.25099120E-06
  -10.6599998       1.20755612E-06
  -10.6499996       1.16233855E-06
  -10.6400003       1.11536383E-06
  -10.6300001       1.06665357E-06
  -10.6199999       1.01622595E-06
  -10.6099997       9.64109518E-07
  -10.6000004       9.10342237E-07
  -10.5900002       8.54971404E-07
  -10.5799999       7.98065628E-07
  -10.5699997       7.39707048E-07
  -10.5600004       6.80000312E-07
  -10.5500002       6.19064167E-07
  -10.5400000       5.57036344E-07
  -10.5299997       4.94057815E-07
  -10.5200005       4.30277737E-07
  -10.5100002       3.65847825E-07
  -10.5000000       3.00919226E-07
  -10.4899998       2.35636804E-07
  -10.4799995       1.70142613E-07
  -10.4700003       1.04580259E-07
  -10.4600000       3.90890591E-08
  -10.4499998      -2.61836703E-08
  -10.4399996      -9.10789382E-08
  -10.4300003      -1.55421517E-07
  -10.4200001      -2.19022809E-07
  -10.4099998      -2.81678325E-07
  -10.3999996      -3.43166874E-07
  -10.3900003      -4.03268018E-07
  -10.3800001      -4.61754269E-07
  -10.3699999      -5.18405045E-07
  -10.3599997      -5.73014063E-07
  -10.3500004      -6.25385667E-07
  -10.3400002      -6.75344438E-07
  -10.3299999      -7.22732693E-07
  -10.3199997      -7.67413212E-07
  -10.3100004      -8.09273672E-07
  -10.3000002      -8.48223465E-07
  -10.2900000      -8.84194094E-07
  -10.2799997      -9.17145371E-07
  -10.2700005      -9.47062915E-07
  -10.2600002      -9.73955707E-07
  -10.2500000      -9.97855068E-07
  -10.2399998      -1.01881255E-06
  -10.2299995      -1.03690320E-06
  -10.2200003      -1.05221488E-06
  -10.2100000      -1.06485436E-06
  -10.1999998      -1.07494350E-06
  -10.1899996      -1.08262566E-06
  -10.1800003      -1.08805375E-06
  -10.1700001      -1.09140126E-06
  -10.1599998      -1.09285259E-06
  -10.1499996      -1.09259724E-06
  -10.1400003      -1.09082919E-06
  -10.1300001      -1.08773838E-06
  -10.1199999      -1.08350730E-06
  -10.1099997      -1.07831147E-06
  -10.1000004      -1.07231335E-06
  -10.0900002      -1.06566995E-06
  -10.0799999      -1.05853155E-06
  -10.0699997      -1.05104527E-06
  -10.0600004      -1.04335493E-06
  -10.0500002      -1.03560365E-06
  -10.0400000      -1.02792990E-06
  -10.0299997      -1.02046943E-06
  -10.0200005      -1.01334967E-06
  -10.0100002      -1.00669308E-06
  -10.0000000      -1.00061789E-06
  -9.98999977      -9.95237656E-07
  -9.97999954      -9.90665171E-07
  -9.97000027      -9.87013436E-07
  -9.96000004      -9.84397275E-07
  -9.94999981      -9.82930260E-07
  -9.93999958      -9.82724032E-07
  -9.93000031      -9.83882956E-07
  -9.92000008      -9.86501846E-07
  -9.90999985      -9.90661420E-07
  -9.89999962      -9.96427730E-07
  -9.89000034      -1.00385171E-06
  -9.88000011      -1.01296882E-06
  -9.86999989      -1.02380216E-06
  -9.85999966      -1.03636216E-06
  -9.85000038      -1.05064851E-06
  -9.84000015      -1.06665391E-06
  -9.82999992      -1.08436313E-06
  -9.81999969      -1.10375811E-06
  -9.81000042      -1.12482087E-06
  -9.80000019      -1.14753902E-06
  -9.78999996      -1.17191121E-06
  -9.77999973      -1.19795175E-06
  -9.77000046      -1.22569361E-06
  -9.76000023      -1.25519034E-06
  -9.75000000      -1.28651470E-06
  -9.73999977      -1.31975605E-06
  -9.72999954      -1.35501568E-06
  -9.72000027      -1.39240137E-06
  -9.71000004      -1.43202271E-06
  -9.69999981      -1.47398464E-06
  -9.68999958      -1.51838253E-06
  -9.68000031      -1.56529484E-06
  -9.67000008      -1.61477726E-06
  -9.65999985      -1.66685186E-06
  -9.64999962      -1.72149464E-06
  -9.64000034      -1.77863024E-06
  -9.63000011      -1.83811710E-06
  -9.61999989      -1.89973866E-06
  -9.60999966      -1.96319797E-06
  -9.60000038      -2.02811952E-06
  -9.59000015      -2.09403834E-06
  -9.57999992      -2.16041144E-06
  -9.56999969      -2.22662084E-06
  -9.56000042      -2.29197576E-06
  -9.55000019      -2.35572475E-06
  -9.53999996      -2.41705925E-06
  -9.52999973      -2.47512821E-06
  -9.52000046      -2.52904692E-06
  -9.51000023      -2.57791180E-06
  -9.50000000      -2.62082131E-06
  -9.48999977      -2.65688800E-06
  -9.47999954      -2.68526333E-06
  -9.47000027      -2.70516239E-06
  -9.46000004      -2.71587760E-06
  -9.44999981      -2.71680665E-06
  -9.43999958      -2.70746978E-06
  -9.43000031      -2.68753161E-06
  -9.42000008      -2.65681706E-06
  -9.40999985      -2.61533114E-06
  -9.39999962      -2.56326553E-06
  -9.39000034      -2.50101107E-06
  -9.38000011      -2.42916099E-06
  -9.36999989      -2.34851268E-06
  -9.35999966      -2.26006136E-06
  -9.35000038      -2.16498870E-06
  -9.34000015      -2.06465143E-06
  -9.32999992      -1.96056385E-06
  -9.31999969      -1.85437273E-06
  -9.31000042      -1.74784122E-06
  -9.30000019      -1.64281710E-06
  -9.28999996      -1.54121824E-06
  -9.27999973      -1.44499768E-06
  -9.27000046      -1.35611947E-06
  -9.26000023      -1.27652697E-06
  -9.25000000      -1.20810955E-06
  -9.23999977      -1.15268119E-06
  -9.22999954      -1.11194788E-06
  -9.22000027      -1.08747406E-06
  -9.21000004      -1.08066820E-06
  -9.19999981      -1.09275800E-06
  -9.18999958      -1.12477665E-06
  -9.18000031      -1.17754382E-06
  -9.17000008      -1.25167480E-06
  -9.15999985      -1.34755476E-06
  -9.14999962      -1.46535251E-06
  -9.14000034      -1.60501850E-06
  -9.13000011      -1.76628521E-06
  -9.11999989      -1.94865947E-06
  -9.10999966      -2.15143291E-06
  -9.10000038      -2.37368477E-06
  -9.09000015      -2.61428954E-06
  -9.07999992      -2.87192438E-06
  -9.06999969      -3.14509066E-06
  -9.06000042      -3.43212082E-06
  -9.05000019      -3.73119974E-06
  -9.03999996      -4.04038883E-06
  -9.02999973      -4.35763923E-06
  -9.02000046      -4.68080907E-06
  -9.01000023      -5.00766964E-06
  -9.00000000      -5.33593948E-06
  -8.98999977      -5.66328526E-06
  -8.97999954      -5.98734186E-06
  -8.97000027      -6.30573049E-06
  -8.96000004      -6.61607510E-06
  -8.94999981      -6.91601508E-06
  -8.93999958      -7.20324351E-06
  -8.93000031      -7.47550484E-06
  -8.92000008      -7.73060492E-06
  -8.90999985      -7.96645782E-06
  -8.89999962      -8.18104854E-06
  -8.89000034      -8.37248626E-06
  -8.88000011      -8.53900474E-06
  -8.86999989      -8.67897052E-06
  -8.85999966      -8.79089657E-06
  -8.85000038      -8.87348051E-06
  -8.84000015      -8.92557455E-06
  -8.82999992      -8.94620098E-06
  -8.81999969      -8.93457036E-06
  -8.81000042      -8.89005878E-06
  -8.80000019      -8.81220512E-06
  -8.78999996      -8.70071108E-06
  -8.77999973      -8.55545932E-06
  -8.77000046      -8.37648440E-06
  -8.76000023      -8.16398733E-06
  -8.75000000      -7.91833736E-06
  -8.73999977      -7.64008200E-06
  -8.72999954      -7.32990839E-06
  -8.72000027      -6.98866279E-06
  -8.71000004      -6.61730974E-06
  -8.69999981      -6.21695563E-06
  -8.68999958      -5.78877689E-06
  -8.68000031      -5.33408092E-06
  -8.67000008      -4.85422879E-06
  -8.65999985      -4.35069614E-06
  -8.64999962      -3.82500457E-06
  -8.64000034      -3.27875705E-06
  -8.63000011      -2.71360773E-06
  -8.61999989      -2.13123758E-06
  -8.60999966      -1.53333872E-06
  -8.60000038      -9.21575236E-07
  -8.59000015      -2.97591072E-07
  -8.57999992       3.37031537E-07
  -8.56999969       9.80768164E-07
  -8.56000042       1.63216771E-06
  -8.55000019       2.28986596E-06
  -8.53999996       2.95257769E-06
  -8.52999973       3.61913294E-06
  -8.52000046       4.28844396E-06
  -8.51000023       4.95954191E-06
  -8.50000000       5.63157027E-06
  -8.48999977       6.30379964E-06
  -8.47999954       6.97556152E-06
  -8.47000027       7.64631022E-06
  -8.46000004       8.31554371E-06
  -8.44999981       8.98281996E-06
  -8.43999958       9.64772607E-06
  -8.43000031       1.03098655E-05
  -8.42000008       1.09688635E-05
  -8.40999985       1.16243236E-05
  -8.39999962       1.22758374E-05
  -8.39000034       1.29229957E-05
  -8.38000011       1.35653345E-05
  -8.36999989       1.42023728E-05
  -8.35999966       1.48335366E-05
  -8.35000038       1.54582340E-05
  -8.34000015       1.60758136E-05
  -8.32999992       1.66855443E-05
  -8.31999969       1.72866712E-05
  -8.31000042       1.78784157E-05
  -8.30000019       1.84599612E-05
  -8.28999996       1.90304727E-05
  -8.27999973       1.95891334E-05
  -8.27000046       2.01350904E-05
  -8.26000023       2.06675104E-05
  -8.25000000       2.11855458E-05
  -8.23999977       2.16883491E-05
  -8.22999954       2.21750634E-05
  -8.22000027       2.26448392E-05
  -8.21000004       2.30968271E-05
  -8.19999981       2.35301650E-05
  -8.18999958       2.39439942E-05
  -8.18000031       2.43374416E-05
  -8.17000008       2.47096177E-05
  -8.15999985       2.50596204E-05
  -8.14999962       2.53865383E-05
  -8.14000034       2.56894327E-05
  -8.13000011       2.59673743E-05
  -8.11999989       2.62194280E-05
  -8.10999966       2.64446608E-05
  -8.10000038       2.66421466E-05
  -8.09000015       2.68109943E-05
  -8.07999992       2.69503544E-05
  -8.06999969       2.70593846E-05
  -8.06000042       2.71373247E-05
  -8.05000019       2.71834688E-05
  -8.03999996       2.71971894E-05
  -8.02999973       2.71779718E-05
  -8.02000046       2.71254303E-05
  -8.01000023       2.70392975E-05
  -8.00000000       2.69194861E-05
  -7.98999977       2.67660580E-05
  -7.98000002       2.65792660E-05
  -7.96999979       2.63595430E-05
  -7.96000004       2.61075038E-05
  -7.94999981       2.58239597E-05
  -7.94000006       2.55098967E-05
  -7.92999983       2.51664896E-05
  -7.92000008       2.47950775E-05
  -7.90999985       2.43971626E-05
  -7.90000010       2.39743840E-05
  -7.88999987       2.35285115E-05
  -7.88000011       2.30614260E-05
  -7.86999989       2.25750828E-05
  -7.86000013       2.20715156E-05
  -7.84999990       2.15527889E-05
  -7.84000015       2.10210201E-05
  -7.82999992       2.04783119E-05
  -7.82000017       1.99267633E-05
  -7.80999994       1.93684900E-05
  -7.80000019       1.88055164E-05
  -7.78999996       1.82398580E-05
  -7.78000021       1.76734520E-05
  -7.76999998       1.71081701E-05
  -7.76000023       1.65458059E-05
  -7.75000000       1.59880565E-05
  -7.73999977       1.54365462E-05
  -7.73000002       1.48928029E-05
  -7.71999979       1.43582811E-05
  -7.71000004       1.38343385E-05
  -7.69999981       1.33222429E-05
  -7.69000006       1.28231995E-05
  -7.67999983       1.23383243E-05
  -7.67000008       1.18686321E-05
  -7.65999985       1.14150716E-05
  -7.65000010       1.09784687E-05
  -7.63999987       1.05595700E-05
  -7.63000011       1.01590085E-05
  -7.61999989       9.77732361E-06
  -7.61000013       9.41494727E-06
  -7.59999990       9.07222602E-06
  -7.59000015       8.74938360E-06
  -7.57999992       8.44656006E-06
  -7.57000017       8.16379361E-06
  -7.55999994       7.90100057E-06
  -7.55000019       7.65800269E-06
  -7.53999996       7.43450391E-06
  -7.53000021       7.23010407E-06
  -7.51999998       7.04430249E-06
  -7.51000023       6.87650572E-06
  -7.50000000       6.72602164E-06
  -7.48999977       6.59208627E-06
  -7.48000002       6.47385605E-06
  -7.46999979       6.37040830E-06
  -7.46000004       6.28077169E-06
  -7.44999981       6.20391074E-06
  -7.44000006       6.13874636E-06