  -16.0000000       0.00000000    
  -15.9899998       0.00000000    
  -15.9799995       0.00000000    
  -15.9700003       0.00000000    
  -15.9600000       0.00000000    
  -15.9499998       0.00000000    
  -15.9399996       0.00000000    
  -15.9300003       0.00000000    
  -15.9200001       0.00000000    
  -15.9099998       0.00000000    
  -15.8999996       0.00000000    
  -15.8900003       0.00000000    
  -15.8800001       0.00000000    
  -15.8699999       1.26116862E-44
  -15.8599997      -2.49431127E-43
  -15.8500004      -1.81706372E-41
  -15.8400002      -3.79634175E-40
  -15.8299999      -4.55853881E-39
  -15.8199997      -3.90450097E-38
  -15.8100004      -2.62161486E-37
  -15.8000002      -1.45588041E-36
  -15.7900000      -6.90109889E-36
  -15.7799997      -2.85332973E-35
  -15.7700005      -1.04338336E-34
  -15.7600002      -3.40730905E-34
  -15.7500000      -1.00008975E-33
  -15.7399998      -2.64823945E-33
  -15.7299995      -6.33386037E-33
  -15.7200003      -1.36566142E-32
  -15.7100000      -2.63768825E-32
  -15.6999998      -4.49945089E-32
  -15.6899996      -6.57052500E-32
  -15.6800003      -7.57453412E-32
  -15.6700001      -4.87733265E-32
  -15.6599998       5.54038935E-32
  -15.6499996       2.79860049E-31
  -15.6400003       6.41377554E-31
  -15.6300001       1.08174839E-30
  -15.6199999       1.41134178E-30
  -15.6099997       1.27493073E-30
  -15.6000004       1.85532529E-31
  -15.5900002      -2.32515698E-30
  -15.5799999      -6.40698061E-30
  -15.5699997      -1.14433514E-29
  -15.5600004      -1.55083402E-29
  -15.5500002      -1.48787086E-29
  -15.5400000      -3.96499247E-30
  -15.5299997       2.35728559E-29
  -15.5200005       7.12650172E-29
  -15.5100002       1.32503511E-28
  -15.5000000       1.79615140E-28
  -15.4899998       1.53876879E-28
  -15.4799995      -3.15595971E-29
  -15.4700003      -4.56623545E-28
  -15.4600000      -1.10945101E-27
  -15.4499998      -1.75678072E-27
  -15.4399996      -1.82785350E-27
  -15.4300003      -4.43918571E-28
  -15.4200001       3.22394953E-27
  -15.4099998       9.14161368E-27
  -15.3999996       1.52675816E-26
  -15.3900003       1.66715399E-26
  -15.3800001       6.04354159E-27
  -15.3699999      -2.30845861E-26
  -15.3599997      -6.98194410E-26
  -15.3500004      -1.17633471E-25
  -15.3400002      -1.29210301E-25
  -15.3299999      -5.23410135E-26
  -15.3199997       1.55272047E-25
  -15.3100004       4.81061086E-25
  -15.3000002       8.06114378E-25
  -15.2900000       8.80763792E-25
  -15.2799997       3.75321801E-25
  -15.2700005      -9.53988425E-25
  -15.2600002      -2.99110102E-24
  -15.2500000      -4.97488385E-24
  -15.2399998      -5.40472114E-24
  -15.2299995      -2.39639831E-24
  -15.2200003       5.33169077E-24
  -15.2100000       1.69493502E-23
  -15.1999998       2.80700407E-23
  -15.1899996       3.04617471E-23
  -15.1800003       1.41907936E-23
  -15.1700001      -2.70705098E-23
  -15.1599998      -8.83892580E-23
  -15.1499996      -1.46737468E-22
  -15.1400003      -1.60364100E-22
  -15.1300001      -8.02276716E-23
  -15.1199999       1.23767164E-22
  -15.1099997       4.26533734E-22
  -15.1000004       7.17046240E-22
  -15.0900002       7.97760872E-22
  -15.0799999       4.39534212E-22
  -15.0699997      -4.98055978E-22
  -15.0600004      -1.90505592E-21
  -15.0500002      -3.28767377E-21
  -15.0400000      -3.76928313E-21
  -15.0299997      -2.33045576E-21
  -15.0200005       1.67595658E-21
  -15.0100002       7.84092257E-21
  -15.0000000       1.41364391E-20
  -14.9899998       1.69054343E-20
  -14.9799995       1.18205434E-20
  -14.9700003      -4.05017799E-21
  -14.9600000      -2.94911020E-20
  -14.9499998      -5.68272628E-20
  -14.9399996      -7.17157190E-20
  -14.9300003      -5.66426852E-20
  -14.9200001       1.30803730E-21
  -14.9099998       9.99114110E-20
  -14.8999996       2.12573617E-19
  -14.8900003       2.86512462E-19
  -14.8800001       2.54312233E-19
  -14.8699999       6.12838535E-20
  -14.8599997      -2.96121534E-19
  -14.8500004      -7.34732736E-19
  -14.8400002      -1.07307918E-18
  -14.8299999      -1.06531671E-18
  -14.8199997      -4.91043725E-19
  -14.8100004       7.12058164E-19
  -14.8000002       2.31657990E-18
  -14.7900000       3.74446134E-18
  -14.7799997       4.15120839E-18
  -14.7700005       2.69825530E-18
  -14.7600002      -1.01544992E-18
  -14.7500000      -6.48996189E-18
  -14.7399998      -1.20452022E-17
  -14.7299995      -1.49724389E-17
  -14.7200003      -1.22838662E-17
  -14.7100000      -2.02408635E-18
  -14.6999998       1.51914201E-17
  -14.6899996       3.50375377E-17
  -14.6800003       4.95096482E-17
  -14.6700001       4.87345105E-17
  -14.6599998       2.46390453E-17
  -14.6499996      -2.42870485E-17
  -14.6400003      -8.88113847E-17
  -14.6300001      -1.47609480E-16
  -14.6199999      -1.70804207E-16
  -14.6099997      -1.29208775E-16
  -14.6000004      -7.87927087E-18
  -14.5900002       1.80053820E-16
  -14.5799999       3.85344749E-16
  -14.5699997       5.26722091E-16
  -14.5600004       5.11002536E-16
  -14.5500002       2.67864826E-16
  -14.5400000      -2.09087092E-16
  -14.5299997      -8.29824202E-16
  -14.5200005      -1.40163042E-15
  -14.5100002      -1.66333067E-15
  -14.5000000      -1.36319746E-15
  -14.4899998      -3.67000662E-16
  -14.4799995       1.23573880E-15
  -14.4700003       3.07127180E-15
  -14.4600000       4.51038099E-15
  -14.4499998       4.81109039E-15
  -14.4399996       3.36424525E-15
  -14.4300003      -1.39096690E-17
  -14.4200001      -4.83792566E-15
  -14.4099998      -9.87111360E-15
  -14.3999996      -1.32975973E-14
  -14.3900003      -1.31790542E-14
  -14.3800001      -8.12959099E-15
  -14.3699999       1.96160273E-15
  -14.3599997       1.54078224E-14
  -14.3500004       2.86636661E-14
  -14.3400002       3.69090134E-14
  -14.3299999       3.52946364E-14
  -14.3199997       2.06380611E-14
  -14.3100004      -6.86749877E-15
  -14.3000002      -4.25150637E-14
  -14.2900000      -7.70975419E-14
  -14.2799997      -9.84486608E-14
  -14.2700005      -9.45031136E-14
  -14.2600002      -5.73606917E-14
  -14.2500000       1.26538591E-14
  -14.2399998       1.04250782E-13
  -14.2299995       1.95087165E-13
  -14.2200003       2.55217288E-13
  -14.2100000       2.54144687E-13
  -14.1999998       1.70439346E-13
  -14.1899996       1.70404468E-15
  -14.1800003      -2.28116381E-13
  -14.1700001      -4.67283710E-13
  -14.1599998      -6.43089911E-13
  -14.1499996      -6.77629773E-13
  -14.1400003      -5.10588425E-13
  -14.1300001      -1.24294170E-13
  -14.1199999       4.36086687E-13
  -14.1099997       1.05521755E-12
  -14.1000004       1.55985403E-12
  -14.0900002       1.75352571E-12
  -14.0799999       1.47027681E-12
  -14.0699997       6.36976257E-13
  -14.0600004      -6.72738829E-13
  -14.0500002      -2.21272718E-12
  -14.0400000      -3.58449945E-12
  -14.0299997      -4.31178227E-12
  -14.0200005      -3.96379544E-12
  -14.0100002      -2.30360913E-12
  -14.0000000       5.77293584E-13
  -13.9899998       4.18519819E-12
  -13.9799995       7.65305007E-12
  -13.9700003       9.89431193E-12
  -13.9600000       9.87060086E-12
  -13.9499998       6.92292708E-12
  -13.9399996       1.08112759E-12
  -13.9300003      -6.75027655E-12
  -13.9200001      -1.48224124E-11
  -13.9099998      -2.08371445E-11
  -13.8999996      -2.24872898E-11
  -13.8900003      -1.81400502E-11
  -13.8800001      -7.49232360E-12
  -13.8699999       8.00686687E-12
  -13.8599997       2.51523195E-11
  -13.8500004       3.94945916E-11
  -13.8400002       4.63365769E-11
  -13.8299999       4.20275550E-11
  -13.8199997       2.52373122E-11
  -13.8100004      -2.16543081E-12
  -13.8000002      -3.49702142E-11
  -13.7900000      -6.54038490E-11
  -13.7799997      -8.47892936E-11
  -13.7700005      -8.57717439E-11
  -13.7600002      -6.45838244E-11
  -13.7500000      -2.27131803E-11
  -13.7399998       3.25973276E-11
  -13.7299995       8.93479388E-11
  -13.7200003       1.33235492E-10
  -13.7100000       1.51101756E-10
  -13.6999998       1.34565081E-10
  -13.6899996       8.28657282E-11
  -13.6800003       4.04051705E-12
  -13.6700001      -8.60949020E-11
  -13.6599998      -1.67139011E-10
  -13.6499996      -2.18833660E-10
  -13.6400003      -2.26207594E-10
  -13.6300001      -1.83774829E-10
  -13.6199999      -9.75695219E-11
  -13.6099997       1.56996846E-11
  -13.6000004       1.32333630E-10
  -13.5900002       2.27313723E-10
  -13.5799999       2.80468648E-10
  -13.5699997       2.81417029E-10
  -13.5600004       2.31820854E-10
  -13.5500002       1.44233708E-10
  -13.5400000       3.78489219E-11
  -13.5299997      -6.75142234E-11
  -13.5200005      -1.57193716E-10
  -13.5100002      -2.25165372E-10
  -13.5000000      -2.73810391E-10
  -13.4899998      -3.09808124E-10
  -13.4799995      -3.37474854E-10
  -13.4700003      -3.52130686E-10
  -13.4600000      -3.36595501E-10
  -13.4499998      -2.63365857E-10
  -13.4399996      -1.03412771E-10
  -13.4300003       1.59858557E-10
  -13.4200001       5.15367859E-10
  -13.4099998       9.13388254E-10
  -13.3999996       1.26451849E-09
  -13.3900003       1.45241141E-09
  -13.3800001       1.36047373E-09
  -13.3699999       9.08040643E-10
  -13.3599997       8.72032030E-11
  -13.3500004      -1.01112518E-09
  -13.3400002      -2.19296581E-09
  -13.3299999      -3.18589377E-09
  -13.3199997      -3.69252784E-09
  -13.3100004      -3.46438700E-09
  -13.3000002      -2.37964826E-09
  -13.2900000      -5.03832476E-10
  -13.2799997       1.88694638E-09
  -13.2700005       4.33393366E-09
  -13.2600002       6.27687591E-09
  -13.2500000       7.17599180E-09
  -13.2399998       6.64933175E-09
  -13.2299995       4.59170835E-09
  -13.2200003       1.24145594E-09
  -13.2100000      -2.82973134E-09
  -13.1999998      -6.81142120E-09
  -13.1899996      -9.81995463E-09
  -13.1800003      -1.11007905E-08
  -13.1700001      -1.02203686E-08
  -13.1599998      -7.19753990E-09
  -13.1499996      -2.53558108E-09
  -13.1400003       2.86231328E-09
  -13.1300001       7.88246712E-09
  -13.1199999       1.14550618E-08
  -13.1099997       1.28130413E-08
  -13.1000004       1.16894565E-08
  -13.0900002       8.39768077E-09
  -13.0799999       3.76588405E-09
  -13.0699997      -1.06658349E-09
  -13.0600004      -4.94554753E-09
  -13.0500002      -7.01740710E-09
  -13.0400000      -6.97855951E-09
  -13.0299997      -5.18425702E-09
  -13.0200005      -2.57501798E-09
  -13.0100002      -4.23755003E-10
  -13.0000000       4.17827266E-11
  -12.9899998      -1.95216132E-09
  -12.9799995      -6.39886322E-09
  -12.9700003      -1.23695800E-08
  -12.9600000      -1.81209554E-08
  -12.9499998      -2.14546816E-08
  -12.9399996      -2.02638599E-08
  -12.9300003      -1.31419586E-08
  -12.9200001       1.00395983E-10
  -12.9099998       1.81589517E-08
  -12.8999996       3.83000618E-08
  -12.8900003       5.67855061E-08
  -12.8800001       6.95857736E-08
  -12.8699999       7.32277456E-08
  -12.8599997       6.55746248E-08
  -12.8500004       4.63426701E-08
  -12.8400002       1.72147239E-08
  -12.8299999      -1.84836697E-08
  -12.8199997      -5.64643550E-08
  -12.8100004      -9.23274115E-08
  -12.8000002      -1.22341120E-07
  -12.7900000      -1.43926272E-07
  -12.7799997      -1.55700604E-07
  -12.7700005      -1.57080720E-07
  -12.7600002      -1.47586832E-07
  -12.7500000      -1.26121122E-07
  -12.7399998      -9.05381867E-08
  -12.7299995      -3.77846270E-08
  -12.7200003       3.52642893E-08
  -12.7100000       1.30343281E-07
  -12.6999998       2.46000326E-07
  -12.6899996       3.75933951E-07
  -12.6800003       5.07976893E-07
  -12.6700001       6.24185418E-07
  -12.6599998       7.02275429E-07
  -12.6499996       7.18365754E-07
  -12.6400003       6.50657512E-07
  -12.6300001       4.83468170E-07
  -12.6199999       2.10855731E-07
  -12.6099997      -1.60796333E-07
  -12.6000004      -6.11755752E-07
  -12.5900002      -1.10961173E-06
  -12.5799999      -1.61143805E-06
  -12.5699997      -2.06703658E-06
  -12.5600004      -2.42264446E-06
  -12.5500002      -2.62454932E-06
  -12.5400000      -2.62232470E-06
  -12.5299997      -2.37163476E-06
  -12.5200005      -1.83691088E-06
  -12.5100002      -9.94424340E-07
  -12.5000000       1.63748027E-07
  -12.4899998       1.62458616E-06
  -12.4799995       3.34779907E-06
  -12.4700003       5.25906034E-06
  -12.4600000       7.24373331E-06
  -12.4499998       9.14270277E-06
  -12.4399996       1.07516480E-05
  -12.4300003       1.18250664E-05
  -12.4200001       1.20858422E-05
  -12.4099998       1.12399621E-05
  -12.3999996       8.99590941E-06
  -12.3900003       5.08662788E-06
  -12.3800001      -7.07913614E-07
  -12.3699999      -8.53969323E-06
  -12.3599997      -1.84754681E-05
  -12.3500004      -3.04848236E-05
  -12.3400002      -4.44338621E-05
  -12.3299999      -6.00850144E-05
  -12.3199997      -7.71019477E-05
  -12.3100004      -9.50574467E-05
  -12.3000002      -1.13445029E-04
  -12.2900000      -1.31691835E-04
  -12.2799997      -1.49171305E-04
  -12.2700005      -1.65218749E-04
  -12.2600002      -1.79146446E-04
  -12.2500000      -1.90260063E-04
  -12.2399998      -1.97880188E-04
  -12.2299995      -2.01363189E-04
  -12.2200003      -2.00125927E-04
  -12.2100000      -1.93670727E-04
  -12.1999998      -1.81610725E-04
  -12.1899996      -1.63690391E-04
  -12.1800003      -1.39801807E-04
  -12.1700001      -1.09995948E-04
  -12.1599998      -7.44803474E-05
  -12.1499996      -3.36144949E-05
  -12.1400003       1.21077710E-05
  -12.1300001       6.20780629E-05
  -12.1199999       1.15600124E-04
  -12.1099997       1.71911743E-04
  -12.1000004       2.30209887E-04
  -12.0900002       2.89667718E-04
  -12.0799999       3.49451759E-04
  -12.0699997       4.08726628E-04
  -12.0600004       4.66666184E-04
  -12.0500002       5.22454910E-04
  -12.0400000       5.75294835E-04
  -12.0299997       6.24410401E-04
  -12.0200005       6.69058471E-04
  -12.0100002       7.08533800E-04
  -12.0000000       7.42179749E-04
  -11.9899998       7.69391889E-04
  -11.9799995       7.89619342E-04
  -11.9700003       8.02365481E-04
  -11.9600000       8.07178614E-04
  -11.9499998       8.03650240E-04
  -11.9399996       7.91408005E-04
  -11.9300003       7.70115352E-04
  -11.9200001       7.39478914E-04
  -11.9099998       6.99260039E-04
  -11.8999996       6.49290567E-04
  -11.8900003       5.89495350E-04
  -11.8800001       5.19907044E-04
  -11.8699999       4.40679607E-04
  -11.8599997       3.52092844E-04
  -11.8500004       2.54550192E-04
  -11.8400002       1.48568099E-04
  -11.8299999       3.47592140E-05
  -11.8199997      -8.61788430E-05
  -11.8100004      -2.13478241E-04
  -11.8000002      -3.46308836E-04
  -11.7900000      -4.83776297E-04
  -11.7799997      -6.24924840E-04
  -11.7700005      -7.68729544E-04
  -11.7600002      -9.14095319E-04
  -11.7500000      -1.05985778E-03
  -11.7399998      -1.20479276E-03
  -11.7299995      -1.34762540E-03
  -11.7200003      -1.48704916E-03
  -11.7100000      -1.62173877E-03
  -11.6999998      -1.75037398E-03
  -11.6899996      -1.87164685E-03
  -11.6800003      -1.98427495E-03
  -11.6700001      -2.08701263E-03
  -11.6599998      -2.17865687E-03
  -11.6499996      -2.25805421E-03
  -11.6400003      -2.32411246E-03
  -11.6300001      -2.37580366E-03
  -11.6199999      -2.41216994E-03
  -11.6099997      -2.43232842E-03
  -11.6000004      -2.43546581E-03
  -11.5900002      -2.42083450E-03
  -11.5799999      -2.38774111E-03
  -11.5699997      -2.33554351E-03
  -11.5600004      -2.26365007E-03
  -11.5500002      -2.17152177E-03
  -11.5400000      -2.05869810E-03
  -11.5299997      -1.92481477E-03
  -11.5200005      -1.76964083E-03
  -11.5100002      -1.59310759E-03
  -11.5000000      -1.39533321E-03
  -11.4899998      -1.17663678E-03
  -11.4799995      -9.37547011E-04
  -11.4700003      -6.78776647E-04
  -11.4600000      -4.01209254E-04
  -11.4499998      -1.05863044E-04
  -11.4399996       2.06128549E-04
  -11.4300003       5.33557963E-04
  -11.4200001       8.75152764E-04
  -11.4099998       1.22959353E-03
  -11.3999996       1.59551995E-03
  -11.3900003       1.97154284E-03
  -11.3800001       2.35624239E-03
  -11.3699999       2.74818344E-03
  -11.3599997       3.14592803E-03
  -11.3500004       3.54804564E-03
  -11.3400002       3.95313883E-03
  -11.3299999       4.35984693E-03
  -11.3199997       4.76686610E-03
  -11.3100004       5.17295953E-03
  -11.3000002       5.57694910E-03
  -11.2900000       5.97773073E-03
  -11.2799997       6.37425389E-03
  -11.2700005       6.76552299E-03
  -11.2600002       7.15058902E-03
  -11.2500000       7.52852764E-03
  -11.2399998       7.89844710E-03
  -11.2299995       8.25946312E-03
  -11.2200003       8.61071609E-03
  -11.2100000       8.95136688E-03
  -11.1999998       9.28060245E-03
  -11.1899996       9.59766656E-03
  -11.1800003       9.90186259E-03
  -11.1700001       1.01925898E-02
  -11.1599998       1.04693286E-02
  -11.1499996       1.07316608E-02
  -11.1400003       1.09792557E-02
  -11.1300001       1.12118535E-02
  -11.1199999       1.14292558E-02
  -11.1099997       1.16313100E-02
  -11.1000004       1.18179061E-02
  -11.0900002       1.19889956E-02
  -11.0799999       1.21446019E-02
  -11.0699997       1.22848460E-02
  -11.0600004       1.24099692E-02
  -11.0500002       1.25203421E-02
  -11.0400000       1.26164658E-02
  -11.0299997       1.26989195E-02
  -11.0200005       1.27683524E-02
  -11.0100002       1.28254201E-02
  -11.0000000       1.28707560E-02
  -10.9899998       1.29049346E-02
  -10.9799995       1.29284896E-02
  -10.9700003       1.29419025E-02
  -10.9600000       1.29456585E-02
  -10.9499998       1.29402354E-02
  -10.9399996       1.29261455E-02
  -10.9300003       1.29039157E-02
  -10.9200001       1.28740612E-02
  -10.9099998       1.28370197E-02
  -10.8999996       1.27931116E-02
  -10.8900003       1.27424523E-02
  -10.8800001       1.26849301E-02
  -10.8699999       1.26201613E-02
  -10.8599997       1.25475172E-02
  -10.8500004       1.24661382E-02
  -10.8400002       1.23750018E-02
  -10.8299999       1.22730015E-02
  -10.8199997       1.21590067E-02
  -10.8100004       1.20319640E-02
  -10.8000002       1.18909553E-02
  -10.7900000       1.17352549E-02
  -10.7799997       1.15643758E-02
  -10.7700005       1.13780843E-02
  -10.7600002       1.11763868E-02
  -10.7500000       1.09595330E-02
  -10.7399998       1.07279522E-02
  -10.7299995       1.04822088E-02
  -10.7200003       1.02229780E-02
  -10.7100000       9.95095912E-03
  -10.6999998       9.66687687E-03
  -10.6899996       9.37142316E-03
  -10.6800003       9.06528160E-03
  -10.6700001       8.74907337E-03
  -10.6599998       8.42338987E-03
  -10.6499996       8.08874331E-03
  -10.6400003       7.74558401E-03
  -10.6300001       7.39427656E-03
  -10.6199999       7.03513576E-03
  -10.6099997       6.66844333E-03
  -10.6000004       6.29454060E-03
  -10.5900002       5.91389649E-03
  -10.5799999       5.52723184E-03
  -10.5699997       5.13557391E-03
  -10.5600004       4.74031828E-03
  -10.5500002       4.34319256E-03
  -10.5400000       3.94616602E-03
  -10.5299997       3.55135254E-03
  -10.5200005       3.16079846E-03
  -10.5100002       2.77636037E-03
  -10.5000000       2.39954935E-03
  -10.4899998       2.03150301E-03
  -10.4799995       1.67295674E-03
  -10.4700003       1.32435316E-03
  -10.4600000       9.85892140E-04
  -10.4499998       6.57688710E-04
  -10.4399996       3.39828548E-04
  -10.4300003       3.24405082E-05
  -10.4200001      -2.64319038E-04
  -10.4099998      -5.50285098E-04
  -10.3999996      -8.25350347E-04
  -10.3900003      -1.08951167E-03
  -10.3800001      -1.34291872E-03
  -10.3699999      -1.58588681E-03
  -10.3599997      -1.81890477E-03
  -10.3500004      -2.04262463E-03
  -10.3400002      -2.25785119E-03
  -10.3299999      -2.46553635E-03
  -10.3199997      -2.66677490E-03
  -10.3100004      -2.86277360E-03
  -10.3000002      -3.05485632E-03
  -10.2900000      -3.24438908E-03
  -10.2799997      -3.43273091E-03
  -10.2700005      -3.62115563E-03
  -10.2600002      -3.81075172E-03
  -10.2500000      -4.00238577E-03
  -10.2399998      -4.19664523E-03
  -10.2299995      -4.39380854E-03
  -10.2200003      -4.59388038E-03
  -10.2100000      -4.79662046E-03
  -10.1999998      -5.00155892E-03
  -10.1899996      -5.20806760E-03
  -10.1800003      -5.41538326E-03
  -10.1700001      -5.62265934E-03
  -10.1599998      -5.82898362E-03
  -10.1499996      -6.03344105E-03
  -10.1400003      -6.23516552E-03
  -10.1300001      -6.43338729E-03
  -10.1199999      -6.62745908E-03
  -10.1099997      -6.81687100E-03
  -10.1000004      -7.00119883E-03
  -10.0900002      -7.18010310E-03
  -10.0799999      -7.35321967E-03
  -10.0699997      -7.52011826E-03
  -10.0600004      -7.68025871E-03
  -10.0500002      -7.83302635E-03
  -10.0400000      -7.97773432E-03
  -10.0299997      -8.11375584E-03
  -10.0200005      -8.24055634E-03
  -10.0100002      -8.35779309E-03
  -10.0000000      -8.46531056E-03
  -9.98999977      -8.56309291E-03
  -9.97999954      -8.65118392E-03
  -9.97000027      -8.72953702E-03
  -9.96000004      -8.79794359E-03
  -9.94999981      -8.85589793E-03
  -9.93999958      -8.90261494E-03
  -9.93000031      -8.93705152E-03
  -9.92000008      -8.95799510E-03
  -9.90999985      -8.96418840E-03
  -9.89999962      -8.95447005E-03
  -9.89000034      -8.92783608E-03
  -9.88000011      -8.88348278E-03
  -9.86999989      -8.82084668E-03
  -9.85999966      -8.73954222E-03
  -9.85000038      -8.63933284E-03
  -9.84000015      -8.52010865E-03
  -9.82999992      -8.38188268E-03
  -9.81999969      -8.22478067E-03
  -9.81000042      -8.04912671E-03
  -9.80000019      -7.85541348E-03
  -9.78999996      -7.64436461E-03
  -9.77999973      -7.41688954E-03
  -9.77000046      -7.17407092E-03
  -9.76000023      -6.91706082E-03
  -9.75000000      -6.64705178E-03
  -9.73999977      -6.36523683E-03
  -9.72999954      -6.07278058E-03
  -9.72000027      -5.77082159E-03
  -9.71000004      -5.46056731E-03
  -9.69999981      -5.14327362E-03
  -9.68999958      -4.82034171E-03
  -9.68000031      -4.49328218E-03
  -9.67000008      -4.16369271E-03
  -9.65999985      -3.83319613E-03
  -9.64999962      -3.50332796E-03
  -9.64000034      -3.17544094E-03
  -9.63000011      -2.85065616E-03
  -9.61999989      -2.52979528E-03
  -9.60999966      -2.21344293E-03
  -9.60000038      -1.90194871E-03
  -9.59000015      -1.59552577E-03
  -9.57999992      -1.29434851E-03
  -9.56999969      -9.98553238E-04
  -9.56000042      -7.08253297E-04
  -9.55000019      -4.23568301E-04
  -9.53999996      -1.44500853E-04
  -9.52999973       1.29053544E-04
  -9.52000046       3.97412223E-04
  -9.51000023       6.61104161E-04
  -9.50000000       9.20844206E-04
  -9.48999977       1.17757102E-03
  -9.47999954       1.43232488E-03
  -9.47000027       1.68621121E-03
  -9.46000004       1.94035447E-03
  -9.44999981       2.19580508E-03
  -9.43999958       2.45353021E-03
  -9.43000031       2.71430332E-03
  -9.42000008       2.97867716E-03
  -9.40999985       3.24685266E-03
  -9.39999962       3.51862982E-03
  -9.39000034       3.79335438E-03
  -9.38000011       4.06988384E-03
  -9.36999989       4.34660818E-03
  -9.35999966       4.62147966E-03
  -9.35000038       4.89212526E-03
  -9.34000015       5.15585160E-03
  -9.32999992       5.40979626E-03
  -9.31999969       5.65085374E-03
  -9.31000042       5.87572949E-03
  -9.30000019       6.08088821E-03
  -9.28999996       6.26254594E-03
  -9.27999973       6.41668215E-03
  -9.27000046       6.53913151E-03
  -9.26000023       6.62567327E-03
  -9.25000000       6.67219516E-03
  -9.23999977       6.67488622E-03
  -9.22999954       6.63029449E-03
  -9.22000027       6.53544720E-03
  -9.21000004       6.38781954E-03
  -9.19999981       6.18532021E-03
  -9.18999958       5.92620717E-03
  -9.18000031       5.60901547E-03
  -9.17000008       5.23254601E-03
  -9.15999985       4.79592336E-03
  -9.14999962       4.29860922E-03
  -9.14000034       3.74054443E-03
  -9.13000011       3.12217674E-03
  -9.11999989       2.44456134E-03
  -9.10999966       1.70925888E-03
  -9.10000038       9.18367587E-04
  -9.09000015       7.44352437E-05
  -9.07999992      -8.19613342E-04
  -9.06999969      -1.76046614E-03
  -9.06000042      -2.74441834E-03
  -9.05000019      -3.76732601E-03
  -9.03999996      -4.82457690E-03
  -9.02999973      -5.91103779E-03
  -9.02000046      -7.02114217E-03
  -9.01000023      -8.14893004E-03
  -9.00000000      -9.28820763E-03
  -8.98999977      -1.04326140E-02
  -8.97999954      -1.15757966E-02
  -8.97000027      -1.27114421E-02
  -8.96000004      -1.38333105E-02
  -8.94999981      -1.49352122E-02
  -8.93999958      -1.60109121E-02
  -8.93000031      -1.70541424E-02
  -8.92000008      -1.80585068E-02
  -8.90999985      -1.90174896E-02
  -8.89999962      -1.99244693E-02
  -8.89000034      -2.07727011E-02
  -8.88000011      -2.15553716E-02
  -8.86999989      -2.22656466E-02
  -8.85999966      -2.28967015E-02
  -8.85000038      -2.34417729E-02
  -8.84000015      -2.38943156E-02
  -8.82999992      -2.42480971E-02
  -8.81999969      -2.44973172E-02
  -8.81000042      -2.46367864E-02
  -8.80000019      -2.46619601E-02
  -8.78999996      -2.45689880E-02
  -8.77999973      -2.43547410E-02
  -8.77000046      -2.40167361E-02
  -8.76000023      -2.35530473E-02
  -8.75000000      -2.29623001E-02
  -8.73999977      -2.22436376E-02
  -8.72999954      -2.13967245E-02
  -8.72000027      -2.04218291E-02
  -8.71000004      -1.93197895E-02
  -8.69999981      -1.80920810E-02
  -8.68999958      -1.67407002E-02
  -8.68000031      -1.52681051E-02
  -8.67000008      -1.36770755E-02
  -8.65999985      -1.19706439E-02
  -8.64999962      -1.01520168E-02
  -8.64000034      -8.22459906E-03
  -8.63000011      -6.19200896E-03
  -8.61999989      -4.05821670E-03
  -8.60999966      -1.82755385E-03
  -8.60000038       4.95170534E-04
  -8.59000015       2.90480861E-03
  -8.57999992       5.39591676E-03
  -8.56999969       7.96285179E-03
  -8.56000042       1.05999606E-02
  -8.55000019       1.33016286E-02
  -8.53999996       1.60623100E-02
  -8.52999973       1.88764669E-02
  -8.52000046       2.17385627E-02
  -8.51000023       2.46429760E-02
  -8.50000000       2.75839623E-02
  -8.48999977       3.05557791E-02
  -8.47999954       3.35527509E-02
  -8.47000027       3.65693606E-02
  -8.46000004       3.96003723E-02
  -8.44999981       4.26409319E-02
  -8.43999958       4.56864797E-02
  -8.43000031       4.87326905E-02
  -8.42000008       5.17754182E-02
  -8.40999985       5.48104718E-02
  -8.39999962       5.78338169E-02
  -8.39000034       6.08413331E-02
  -8.38000011       6.38291240E-02
  -8.36999989       6.67935088E-02
  -8.35999966       6.97311535E-02
  -8.35000038       7.26391524E-02
  -8.34000015       7.55149722E-02
  -8.32999992       7.83562511E-02
  -8.31999969       8.11606944E-02
  -8.31000042       8.39259699E-02
  -8.30000019       8.66493210E-02
  -8.28999996       8.93276930E-02
  -8.27999973       9.19575915E-02
  -8.27000046       9.45352241E-02
  -8.26000023       9.70564783E-02
  -8.25000000       9.95170921E-02
  -8.23999977      0.101912722    
  -8.22999954      0.104238831    
  -8.22000027      0.106490731    
  -8.21000004      0.108663723    
  -8.19999981      0.110752687    
  -8.18999958      0.112752698    
  -8.18000031      0.114658445    
  -8.17000008      0.116464831    
  -8.15999985      0.118166707    
  -8.14999962      0.119759150    
  -8.14000034      0.121237427    
  -8.13000011      0.122596905    
  -8.11999989      0.123833001    
  -8.10999966      0.124941319    
  -8.10000038      0.125917375    
  -8.09000015      0.126756549    
  -8.07999992      0.127454489    
  -8.06999969      0.128006712    
  -8.06000042      0.128409058    
  -8.05000019      0.128657594    
  -8.03999996      0.128748551    
  -8.02999973      0.128678620    
  -8.02000046      0.128444538    
  -8.01000023      0.128043428    
  -8.00000000      0.127472520    
  -7.98999977      0.126729250    
  -7.98000002      0.125811383    
  -7.96999979      0.124717034    
  -7.96000004      0.123444885    
  -7.94999981      0.121994138    
  -7.94000006      0.120364614    
  -7.92999983      0.118556783    
  -7.92000008      0.116571568    
  -7.90999985      0.114410266    
  -7.90000010      0.112074703    
  -7.88999987      0.109566927    
  -7.88000011      0.106889598    
  -7.86999989      0.104045860    
  -7.86000013      0.101039909    
  -7.84999990       9.78767872E-02
  -7.84000015       9.45627764E-02
  -7.82999992       9.11051929E-02
  -7.82000017       8.75124484E-02
  -7.80999994       8.37937891E-02
  -7.80000019       7.99590424E-02
  -7.78999996       7.60187805E-02
  -7.78000021       7.19837397E-02
  -7.76999998       6.78652450E-02
  -7.76000023       6.36751056E-02
  -7.75000000       5.94254844E-02
  -7.73999977       5.51292375E-02
  -7.73000002       5.07994890E-02
  -7.71999979       4.64495607E-02
  -7.71000004       4.20927517E-02
  -7.69999981       3.77418883E-02
  -7.69000006       3.34093086E-02
  -7.67999983       2.91066598E-02
  -7.67000008       2.48448271E-02
  -7.65999985       2.06340738E-02
  -7.65000010       1.64842494E-02
  -7.63999987       1.24049177E-02
  -7.63000011       8.40518530E-03
  -7.61999989       4.49401001E-03
  -7.61000013       6.79788121E-04
  -7.59999990      -3.02971271E-03
  -7.59000015      -6.62743673E-03
  -7.57999992      -1.01072956E-02
  -7.57000017      -1.34640094E-02
  -7.55999994      -1.66931320E-02
  -7.55000019      -1.97907258E-02
  -7.53999996      -2.27534212E-02
  -7.53000021      -2.55780630E-02
  -7.51999998      -2.82618459E-02
  -7.51000023      -3.08023207E-02
  -7.50000000      -3.31974961E-02
  -7.48999977      -3.54458727E-02
  -7.48000002      -3.75466608E-02
  -7.46999979      -3.94995026E-02
  -7.46000004      -4.13045958E-02
  -7.44999981      -4.29624133E-02
  -7.44000006      -4.44738194E-02