  -16.0000000       0.00000000    
  -15.9899998       0.00000000    
  -15.9799995       0.00000000    
  -15.9700003       0.00000000    
  -15.9600000       0.00000000    
  -15.9499998       0.00000000    
  -15.9399996       0.00000000    
  -15.9300003       0.00000000    
  -15.9200001       0.00000000    
  -15.9099998       0.00000000    
  -15.8999996       0.00000000    
  -15.8900003       0.00000000    
  -15.8800001       1.40129846E-45
  -15.8699999      -2.42284504E-42
  -15.8599997      -6.22134479E-41
  -15.8500004      -9.18335343E-40
  -15.8400002      -9.10247329E-39
  -15.8299999      -6.98511804E-38
  -15.8199997      -4.41951151E-37
  -15.8100004      -2.37083324E-36
  -15.8000002      -1.09336522E-35
  -15.7900000      -4.37103470E-35
  -15.7799997      -1.52453077E-34
  -15.7700005      -4.66066015E-34
  -15.7600002      -1.25222787E-33
  -15.7500000      -2.95595081E-33
  -15.7399998      -6.09906236E-33
  -15.7299995      -1.08487681E-32
  -15.7200003      -1.60925632E-32
  -15.7100000      -1.81416526E-32
  -15.6999998      -9.75871019E-33
  -15.6899996       1.92677204E-32
  -15.6800003       7.90952298E-32
  -15.6700001       1.75290587E-31
  -15.6599998       3.06292450E-31
  -15.6499996       4.66090375E-31
  -15.6400003       6.46990069E-31
  -15.6300001       8.20795137E-31
  -15.6199999       8.67188984E-31
  -15.6099997       4.50874353E-31
  -15.6000004      -1.04185118E-30
  -15.5900002      -4.23318461E-30
  -15.5799999      -8.81882870E-30
  -15.5699997      -1.19817797E-29
  -15.5600004      -7.20814264E-30
  -15.5500002       1.39060177E-29
  -15.5400000       5.34092934E-29
  -15.5299997       9.10870132E-29
  -15.5200005       6.75380358E-29
  -15.5100002      -1.13648380E-28
  -15.5000000      -5.32213262E-28
  -15.4899998      -1.11899245E-27
  -15.4799995      -1.46340391E-27
  -15.4700003      -6.78107270E-28
  -15.4600000       2.43201156E-27
  -15.4499998       8.57938697E-27
  -15.4399996       1.64181969E-26
  -15.4300003       2.05773551E-26
  -15.4200001       1.06962837E-26
  -15.4099998      -2.60399287E-26
  -15.3999996      -9.60934765E-26
  -15.3900003      -1.83733409E-25
  -15.3800001      -2.33015411E-25
  -15.3699999      -1.41396969E-25
  -15.3599997       2.12627029E-25
  -15.3500004       8.85825025E-25
  -15.3400002       1.72933358E-24
  -15.3299999       2.23939408E-24
  -15.3199997       1.52071034E-24
  -15.3100004      -1.45757987E-24
  -15.3000002      -7.15644674E-24
  -15.2900000      -1.43432646E-23
  -15.2799997      -1.89765618E-23
  -15.2700005      -1.40441601E-23
  -15.2600002       8.34846132E-24
  -15.2500000       5.16504437E-23
  -15.2399998       1.06785804E-22
  -15.2299995       1.44598002E-22
  -15.2200003       1.15419236E-22
  -15.2100000      -3.58348018E-23
  -15.1999998      -3.33449788E-22
  -15.1899996      -7.18198456E-22
  -15.1800003      -1.00033581E-21
  -15.1700001      -8.59793763E-22
  -15.1599998       5.69239694E-23
  -15.1499996       1.91407554E-21
  -15.1400003       4.37199487E-21
  -15.1300001       6.31448717E-21
  -15.1199999       5.85497017E-21
  -15.1099997       8.90753966E-22
  -15.1000004      -9.65193274E-21
  -15.0900002      -2.40843959E-20
  -15.0799999      -3.64629583E-20
  -15.0699997      -3.65734418E-20
  -15.0600004      -1.27623669E-20
  -15.0500002       4.16976480E-20
  -15.0400000       1.19740934E-19
  -15.0299997       1.92730071E-19
  -15.0200005       2.09746223E-19
  -15.0100002       1.10483387E-19
  -15.0000000      -1.44888362E-19
  -14.9899998      -5.33443400E-19
  -14.9799995      -9.30884763E-19
  -14.9700003      -1.10344839E-18
  -14.9600000      -7.59931294E-19
  -14.9499998       3.19713036E-19
  -14.9399996       2.09619954E-18
  -14.9300003       4.08889273E-18
  -14.9200001       5.31225274E-18
  -14.9099998       4.45805682E-18
  -14.8999996       4.02122171E-19
  -14.8900003      -7.01509709E-18
  -14.8800001      -1.61789034E-17
  -14.8699999      -2.32989697E-17
  -14.8599997      -2.29339249E-17
  -14.8500004      -9.80506149E-18
  -14.8400002       1.81984615E-17
  -14.8299999       5.66464930E-17
  -14.8199997       9.24050411E-17
  -14.8100004       1.04666194E-16
  -14.8000002       7.07564539E-17
  -14.7900000      -2.32068780E-17
  -14.7799997      -1.69244687E-16
  -14.7700005      -3.27294166E-16
  -14.7600002      -4.24942215E-16
  -14.7500000      -3.73525621E-16
  -14.7399998      -1.02583148E-16
  -14.7299995       3.93444104E-16
  -14.7200003       1.01223730E-15
  -14.7100000       1.52800223E-15
  -14.6999998       1.62716744E-15
  -14.6899996       1.00814571E-15
  -14.6800003      -4.66284173E-16
  -14.6700001      -2.60725466E-15
  -14.6599998      -4.80093489E-15
  -14.6499996      -6.05486340E-15
  -14.6400003      -5.24789893E-15
  -14.6300001      -1.57860207E-15
  -14.6199999       4.88951971E-15
  -14.6099997       1.27854660E-14
  -14.6000004       1.93481621E-14
  -14.5900002       2.09293405E-14
  -14.5799999       1.41573773E-14
  -14.5699997      -2.42373671E-15
  -14.5600004      -2.67287887E-14
  -14.5500002      -5.22458087E-14
  -14.5400000      -6.86420389E-14
  -14.5299997      -6.43216220E-14
  -14.5200005      -3.07668015E-14
  -14.5100002       3.23589354E-14
  -14.5000000       1.13163588E-13
  -14.4899998       1.86736138E-13
  -14.4799995       2.19432301E-13
  -14.4700003       1.78733005E-13
  -14.4600000       4.70675982E-14
  -14.4499998      -1.64342064E-13
  -14.4399996      -4.07274962E-13
  -14.4300003      -5.99670758E-13
  -14.4200001      -6.43685951E-13
  -14.4099998      -4.57622276E-13
  -14.3999996      -1.47379769E-14
  -14.3900003       6.23587174E-13
  -14.3800001       1.29556804E-12
  -14.3699999       1.76065813E-12
  -14.3599997       1.75988705E-12
  -14.3500004       1.10662022E-12
  -14.3400002      -2.15418693E-13
  -14.3299999      -1.98116371E-12
  -14.3199997      -3.71696901E-12
  -14.3100004      -4.78276186E-12
  -14.3000002      -4.54493778E-12
  -14.2900000      -2.60833607E-12
  -14.2799997       9.57405162E-13
  -14.2700005       5.48084928E-12
  -14.2600002       9.72058458E-12
  -14.2500000       1.21099684E-11
  -14.2399998       1.11965975E-11
  -14.2299995       6.18345999E-12
  -14.2200003      -2.58611839E-12
  -14.2100000      -1.33859529E-11
  -14.1999998      -2.32637416E-11
  -14.1899996      -2.86619218E-11
  -14.1800003      -2.64260332E-11
  -14.1700001      -1.49703895E-11
  -14.1599998       4.74695066E-12
  -14.1499996       2.88173443E-11
  -14.1400003       5.08310442E-11
  -14.1300001       6.32615280E-11
  -14.1199999       5.95735059E-11
  -14.1099997       3.65563205E-11
  -14.1000004      -3.81648012E-12
  -14.0900002      -5.37074621E-11
  -14.0799999      -1.00412310E-10
  -14.0699997      -1.29106656E-10
  -14.0600004      -1.26877397E-10
  -14.0500002      -8.70676795E-11
  -14.0400000      -1.26635178E-11
  -14.0299997       8.25161328E-11
  -14.0200005       1.75632980E-10
  -14.0100002       2.39689241E-10
  -14.0000000       2.50557630E-10
  -13.9899998       1.94493796E-10
  -13.9799995       7.39974401E-11
  -13.9700003      -8.99878158E-11
  -13.9600000      -2.60774957E-10
  -13.9499998      -3.93546529E-10
  -13.9399996      -4.46448351E-10
  -13.9300003      -3.92514354E-10
  -13.9200001      -2.29162786E-10
  -13.9099998       1.77191439E-11
  -13.8999996       2.96931230E-10
  -13.8900003       5.42347223E-10
  -13.8800001       6.88479829E-10
  -13.8699999       6.87523205E-10
  -13.8599997       5.23371235E-10
  -13.8500004       2.18598917E-10
  -13.8400002      -1.68043898E-10
  -13.8299999      -5.53618762E-10
  -13.8199997      -8.49872728E-10
  -13.8100004      -9.84392901E-10
  -13.8000002      -9.18588428E-10
  -13.7900000      -6.57731147E-10
  -13.7799997      -2.50316046E-10
  -13.7700005       2.23158908E-10
  -13.7600002       6.68979816E-10
  -13.7500000       1.00152497E-09
  -13.7399998       1.16145771E-09
  -13.7299995       1.12624465E-09
  -13.7200003       9.10801046E-10
  -13.7100000       5.59152002E-10
  -13.6999998       1.30545907E-10
  -13.6899996      -3.15034665E-10
  -13.6800003      -7.27346183E-10
  -13.6700001      -1.06956821E-09
  -13.6599998      -1.31531319E-09
  -13.6499996      -1.44187218E-09
  -13.6400003      -1.42431134E-09
  -13.6300001      -1.23494670E-09
  -13.6199999      -8.50609416E-10
  -13.6099997      -2.66782013E-10
  -13.6000004       4.85933183E-10
  -13.5900002       1.32993250E-09
  -13.5799999       2.14023421E-09
  -13.5699997       2.75992518E-09
  -13.5600004       3.03080405E-09
  -13.5500002       2.83318280E-09
  -13.5400000       2.12396878E-09
  -13.5299997       9.60982405E-10
  -13.5200005      -4.96439834E-10
  -13.5100002      -2.01431827E-09
  -13.5000000      -3.33364292E-09
  -13.4899998      -4.23031077E-09
  -13.4799995      -4.56775107E-09
  -13.4700003      -4.32551239E-09
  -13.4600000      -3.59298591E-09
  -13.4499998      -2.52855581E-09
  -13.4399996      -1.29659927E-09
  -13.4300003      -4.48611114E-12
  -13.4200001       1.33541700E-09
  -13.4099998       2.79915624E-09
  -13.3999996       4.49417570E-09
  -13.3900003       6.46446097E-09
  -13.3800001       8.58787086E-09
  -13.3699999       1.05060511E-08
  -13.3599997       1.16254455E-08
  -13.3500004       1.12120899E-08
  -13.3400002       8.57622595E-09
  -13.3299999       3.31105476E-09
  -13.3199997      -4.47581572E-09
  -13.3100004      -1.40122642E-08
  -13.3000002      -2.38576199E-08
  -13.2900000      -3.20792317E-08
  -13.2799997      -3.65986388E-08
  -13.2700005      -3.56453604E-08
  -13.2600002      -2.82172081E-08
  -13.2500000      -1.44299017E-08
  -13.2399998       4.34699210E-09
  -13.2299995       2.56237485E-08
  -13.2200003       4.61830858E-08
  -13.2100000       6.26541521E-08
  -13.1999998       7.21337088E-08
  -13.1899996       7.27065697E-08
  -13.1800003       6.37403943E-08
  -13.1700001       4.58916745E-08
  -13.1599998       2.08484021E-08
  -13.1499996      -9.08832298E-09
  -13.1400003      -4.14283683E-08
  -13.1300001      -7.37657828E-08
  -13.1199999      -1.03805711E-07
  -13.1099997      -1.29141483E-07
  -13.1000004      -1.46903872E-07
  -13.0900002      -1.53486553E-07
  -13.0799999      -1.44590956E-07
  -13.0699997      -1.15779109E-07
  -13.0600004      -6.35836770E-08
  -13.0500002       1.29577984E-08
  -13.0400000       1.10691879E-07
  -13.0299997       2.21136119E-07
  -13.0200005       3.30182615E-07
  -13.0100002       4.19114883E-07
  -13.0000000       4.67076461E-07
  -12.9899998       4.54778871E-07
  -12.9799995       3.68853250E-07
  -12.9700003       2.05982047E-07
  -12.9600000      -2.42072087E-08
  -12.9499998      -2.98337341E-07
  -12.9399996      -5.81119139E-07
  -12.9300003      -8.29810745E-07
  -12.9200001      -1.00072884E-06
  -12.9099998      -1.05667971E-06
  -12.8999996      -9.73917508E-07
  -12.8900003      -7.47223112E-07
  -12.8800001      -3.92002335E-07
  -12.8699999       5.70494869E-08
  -12.8599997       5.50507480E-07
  -12.8500004       1.03106254E-06
  -12.8400002       1.44128978E-06
  -12.8299999       1.73086414E-06
  -12.8199997       1.86197872E-06
  -12.8100004       1.81230530E-06
  -12.8000002       1.57553654E-06
  -12.7900000       1.16018566E-06
  -12.7799997       5.87672503E-07
  -12.7700005      -1.09254366E-07
  -12.7600002      -8.87137958E-07
  -12.7500000      -1.69154282E-06
  -12.7399998      -2.45670185E-06
  -12.7299995      -3.10641440E-06
  -12.7200003      -3.55767861E-06
  -12.7100000      -3.72803834E-06
  -12.6999998      -3.54671124E-06
  -12.6899996      -2.96830103E-06
  -12.6800003      -1.98665271E-06
  -12.6700001      -6.45676778E-07
  -12.6599998       9.56209760E-07
  -12.6499996       2.67047267E-06
  -12.6400003       4.31262879E-06
  -12.6300001       5.68498990E-06
  -12.6199999       6.60474279E-06
  -12.6099997       6.93245056E-06
  -12.6000004       6.59561920E-06
  -12.5900002       5.60232911E-06
  -12.5799999       4.04185766E-06
  -12.5699997       2.07168068E-06
  -12.5600004      -1.07021734E-07
  -12.5500002      -2.28073691E-06
  -12.5400000      -4.25586722E-06
  -12.5299997      -5.88575858E-06
  -12.5200005      -7.08752123E-06
  -12.5100002      -7.84604345E-06
  -12.5000000      -8.20496189E-06
  -12.4899998      -8.24744620E-06
  -12.4799995      -8.07068409E-06
  -12.4700003      -7.75910303E-06
  -12.4600000      -7.36079301E-06
  -12.4499998      -6.86980911E-06
  -12.4399996      -6.21521986E-06
  -12.4300003      -5.25697442E-06
  -12.4200001      -3.78620507E-06
  -12.4099998      -1.52909774E-06
  -12.3999996       1.84649093E-06
  -12.3900003       6.72044916E-06
  -12.3800001       1.35036607E-05
  -12.3699999       2.26117299E-05
  -12.3599997       3.44265536E-05
  -12.3500004       4.92449835E-05
  -12.3400002       6.72169190E-05
  -12.3299999       8.82788518E-05
  -12.3199997       1.12092319E-04
  -12.3100004       1.37999057E-04
  -12.3000002       1.65004472E-04
  -12.2900000       1.91798477E-04
  -12.2799997       2.16819331E-04
  -12.2700005       2.38355875E-04
  -12.2600002       2.54682411E-04
  -12.2500000       2.64206843E-04
  -12.2399998       2.65617564E-04
  -12.2299995       2.57999840E-04
  -12.2200003       2.40917987E-04
  -12.2100000       2.14437008E-04
  -12.1999998       1.79094990E-04
  -12.1899996       1.35819326E-04
  -12.1800003       8.58138519E-05
  -12.1700001       3.04269142E-05
  -12.1599998      -2.89763375E-05
  -12.1499996      -9.11183015E-05
  -12.1400003      -1.54879599E-04
  -12.1300001      -2.19337104E-04
  -12.1199999      -2.83760281E-04
  -12.1099997      -3.47592984E-04
  -12.1000004      -4.10417939E-04
  -12.0900002      -4.71918785E-04
  -12.0799999      -5.31852886E-04
  -12.0699997      -5.90021024E-04
  -12.0600004      -6.46246714E-04
  -12.0500002      -7.00343924E-04
  -12.0400000      -7.52075401E-04
  -12.0299997      -8.01094109E-04
  -12.0200005      -8.46877869E-04
  -12.0100002      -8.88661307E-04
  -12.0000000      -9.25382716E-04
  -11.9899998      -9.55671305E-04
  -11.9799995      -9.77876363E-04
  -11.9700003      -9.90154222E-04
  -11.9600000      -9.90600907E-04
  -11.9499998      -9.77429678E-04
  -11.9399996      -9.49140114E-04
  -11.9300003      -9.04683257E-04
  -11.9200001      -8.43569404E-04
  -11.9099998      -7.65912933E-04
  -11.8999996      -6.72402384E-04
  -11.8900003      -5.64206741E-04
  -11.8800001      -4.42831544E-04
  -11.8699999      -3.09957424E-04
  -11.8599997      -1.67288366E-04
  -11.8500004      -1.64311332E-05
  -11.8400002       1.41174532E-04
  -11.8299999       3.04274814E-04
  -11.8199997       4.71771695E-04
  -11.8100004       6.42672298E-04
  -11.8000002       8.16015992E-04
  -11.7900000       9.90818022E-04
  -11.7799997       1.16602133E-03
  -11.7700005       1.34048087E-03
  -11.7600002       1.51296007E-03
  -11.7500000       1.68214389E-03
  -11.7399998       1.84665876E-03
  -11.7299995       2.00508209E-03
  -11.7200003       2.15595122E-03
  -11.7100000       2.29776418E-03
  -11.6999998       2.42897496E-03
  -11.6899996       2.54799938E-03
  -11.6800003       2.65322393E-03
  -11.6700001       2.74302880E-03
  -11.6599998       2.81583238E-03
  -11.6499996       2.87012989E-03
  -11.6400003       2.90454295E-03
  -11.6300001       2.91786715E-03
  -11.6199999       2.90909782E-03
  -11.6099997       2.87745055E-03
  -11.6000004       2.82235257E-03
  -11.5900002       2.74342927E-03
  -11.5799999       2.64047249E-03
  -11.5699997       2.51340959E-03
  -11.5600004       2.36226525E-03
  -11.5500002       2.18714424E-03
  -11.5400000       1.98820932E-03
  -11.5299997       1.76568946E-03
  -11.5200005       1.51987956E-03
  -11.5100002       1.25116273E-03
  -11.5000000       9.60029254E-04
  -11.4899998       6.47100038E-04
  -11.4799995       3.13132419E-04
  -11.4700003      -4.09685708E-05
  -11.4600000      -4.14147828E-04
  -11.4499998      -8.05208634E-04
  -11.4399996      -1.21280912E-03
  -11.4300003      -1.63546263E-03
  -11.4200001      -2.07153568E-03
  -11.4099998      -2.51922500E-03
  -11.3999996      -2.97654606E-03
  -11.3900003      -3.44133214E-03
  -11.3800001      -3.91123397E-03
  -11.3699999      -4.38375631E-03
  -11.3599997      -4.85632150E-03
  -11.3500004      -5.32635255E-03
  -11.3400002      -5.79138938E-03
  -11.3299999      -6.24921033E-03
  -11.3199997      -6.69794623E-03
  -11.3100004      -7.13617355E-03
  -11.3000002      -7.56297261E-03
  -11.2900000      -7.97794946E-03
  -11.2799997      -8.38119071E-03
  -11.2700005      -8.77318718E-03
  -11.2600002      -9.15472396E-03
  -11.2500000      -9.52672679E-03
  -11.2399998      -9.89011582E-03
  -11.2299995      -1.02456538E-02
  -11.2200003      -1.05938036E-02
  -11.2100000      -1.09346258E-02
  -11.1999998      -1.12676844E-02
  -11.1899996      -1.15920473E-02
  -11.1800003      -1.19062662E-02
  -11.1700001      -1.22084599E-02
  -11.1599998      -1.24964295E-02
  -11.1499996      -1.27677694E-02
  -11.1400003      -1.30200498E-02
  -11.1300001      -1.32509694E-02
  -11.1199999      -1.34585081E-02
  -11.1099997      -1.36410231E-02
  -11.1000004      -1.37973540E-02
  -11.0900002      -1.39268450E-02
  -11.0799999      -1.40293399E-02
  -11.0699997      -1.41051728E-02
  -11.0600004      -1.41551029E-02
  -11.0500002      -1.41802952E-02
  -11.0400000      -1.41822621E-02
  -11.0299997      -1.41628291E-02
  -11.0200005      -1.41240908E-02
  -11.0100002      -1.40683763E-02
  -11.0000000      -1.39981806E-02
  -10.9899998      -1.39160790E-02
  -10.9799995      -1.38246370E-02
  -10.9700003      -1.37262559E-02
  -10.9600000      -1.36230653E-02
  -10.9499998      -1.35167632E-02
  -10.9399996      -1.34084951E-02
  -10.9300003      -1.32987704E-02
  -10.9200001      -1.31873935E-02
  -10.9099998      -1.30734490E-02
  -10.8999996      -1.29553424E-02
  -10.8900003      -1.28308553E-02
  -10.8800001      -1.26972720E-02
  -10.8699999      -1.25514930E-02
  -10.8599997      -1.23901926E-02
  -10.8500004      -1.22099705E-02
  -10.8400002      -1.20075168E-02
  -10.8299999      -1.17797339E-02
  -10.8199997      -1.15238884E-02
  -10.8100004      -1.12377116E-02
  -10.8000002      -1.09194927E-02
  -10.7900000      -1.05681587E-02
  -10.7799997      -1.01833204E-02
  -10.7700005      -9.76532046E-03
  -10.7600002      -9.31522157E-03
  -10.7500000      -8.83479789E-03
  -10.7399998      -8.32645968E-03
  -10.7299995      -7.79313035E-03
  -10.7200003      -7.23808538E-03
  -10.7100000      -6.66474504E-03
  -10.6999998      -6.07643230E-03
  -10.6899996      -5.47613157E-03
  -10.6800003      -4.86627826E-03
  -10.6700001      -4.24860558E-03
  -10.6599998      -3.62407672E-03
  -10.6499996      -2.99290824E-03
  -10.6400003      -2.35468592E-03
  -10.6300001      -1.70853012E-03
  -10.6199999      -1.05330441E-03
  -10.6099997      -3.87815380E-04
  -10.6000004       2.89043179E-04
  -10.5900002       9.78206284E-04
  -10.5799999       1.68041990E-03
  -10.5699997       2.39626202E-03
  -10.5600004       3.12621798E-03
  -10.5500002       3.87071772E-03
  -10.5400000       4.63015633E-03
  -10.5299997       5.40486723E-03
  -10.5200005       6.19502086E-03
  -10.5100002       7.00052502E-03
  -10.5000000       7.82087632E-03
  -10.4899998       8.65507685E-03
  -10.4799995       9.50153172E-03
  -10.4700003       1.03580439E-02
  -10.4600000       1.12218196E-02
  -10.4499998       1.20894993E-02
  -10.4399996       1.29572414E-02
  -10.4300003       1.38207469E-02
  -10.4200001       1.46753592E-02
  -10.4099998       1.55160995E-02
  -10.3999996       1.63377449E-02
  -10.3900003       1.71349049E-02
  -10.3800001       1.79021377E-02
  -10.3699999       1.86340753E-02
  -10.3599997       1.93255581E-02
  -10.3500004       1.99718010E-02
  -10.3400002       2.05685068E-02
  -10.3299999       2.11120229E-02
  -10.3199997       2.15994511E-02
  -10.3100004       2.20287498E-02
  -10.3000002       2.23988332E-02
  -10.2900000       2.27096714E-02
  -10.2799997       2.29623225E-02
  -10.2700005       2.31589805E-02
  -10.2600002       2.33029034E-02
  -10.2500000       2.33982988E-02
  -10.2399998       2.34500710E-02
  -10.2299995       2.34635640E-02
  -10.2200003       2.34441794E-02
  -10.2100000       2.33970750E-02
  -10.1999998       2.33268663E-02
  -10.1899996       2.32374519E-02
  -10.1800003       2.31319517E-02
  -10.1700001       2.30127480E-02
  -10.1599998       2.28816438E-02
  -10.1499996       2.27400512E-02
  -10.1400003       2.25891545E-02
  -10.1300001       2.24301089E-02
  -10.1199999       2.22640764E-02
  -10.1099997       2.20922921E-02
  -10.1000004       2.19159815E-02
  -10.0900002       2.17363387E-02
  -10.0799999       2.15544347E-02
  -10.0699997       2.13711876E-02
  -10.0600004       2.11873353E-02
  -10.0500002       2.10034009E-02
  -10.0400000       2.08197590E-02
  -10.0299997       2.06365772E-02
  -10.0200005       2.04538628E-02
  -10.0100002       2.02714428E-02
  -10.0000000       2.00889539E-02
  -9.98999977       1.99058987E-02
  -9.97999954       1.97216310E-02
  -9.97000027       1.95354559E-02
  -9.96000004       1.93466879E-02
  -9.94999981       1.91547647E-02
  -9.93999958       1.89593304E-02
  -9.93000031       1.87603589E-02
  -9.92000008       1.85582284E-02
  -9.90999985       1.83538161E-02
  -9.89999962       1.81485917E-02
  -9.89000034       1.79446880E-02
  -9.88000011       1.77449062E-02
  -9.86999989       1.75527148E-02
  -9.85999966       1.73721220E-02
  -9.85000038       1.72075108E-02
  -9.84000015       1.70633476E-02
  -9.82999992       1.69438962E-02
  -9.81999969       1.68529321E-02
  -9.81000042       1.67934783E-02
  -9.80000019       1.67677347E-02
  -9.78999996       1.67771354E-02
  -9.77999973       1.68225057E-02
  -9.77000046       1.69043504E-02
  -9.76000023       1.70231704E-02
  -9.75000000       1.71796698E-02
  -9.73999977       1.73748992E-02
  -9.72999954       1.76101644E-02
  -9.72000027       1.78868193E-02
  -9.71000004       1.82059109E-02
  -9.69999981       1.85678303E-02
  -9.68999958       1.89719629E-02
  -9.68000031       1.94165036E-02
  -9.67000008       1.98984127E-02
  -9.65999985       2.04135440E-02
  -9.64999962       2.09568441E-02
  -9.64000034       2.15226486E-02
  -9.63000011       2.21049525E-02
  -9.61999989       2.26976071E-02
  -9.60999966       2.32944749E-02
  -9.60000038       2.38894373E-02
  -9.59000015       2.44764630E-02
  -9.57999992       2.50495803E-02
  -9.56999969       2.56029554E-02
  -9.56000042       2.61308998E-02
  -9.55000019       2.66279411E-02
  -9.53999996       2.70889010E-02
  -9.52999973       2.75089983E-02
  -9.52000046       2.78837811E-02
  -9.51000023       2.82092411E-02
  -9.50000000       2.84817703E-02
  -9.48999977       2.86982246E-02
  -9.47999954       2.88560335E-02
  -9.47000027       2.89532635E-02
  -9.46000004       2.89887898E-02
  -9.44999981       2.89624184E-02
  -9.43999958       2.88748480E-02
  -9.43000031       2.87277885E-02
  -9.42000008       2.85238028E-02
  -9.40999985       2.82662697E-02
  -9.39999962       2.79592481E-02
  -9.39000034       2.76075155E-02
  -9.38000011       2.72165313E-02
  -9.36999989       2.67926604E-02
  -9.35999966       2.63431612E-02
  -9.35000038       2.58764625E-02
  -9.34000015       2.54020225E-02
  -9.32999992       2.49302965E-02
  -9.31999969       2.44724974E-02
  -9.31000042       2.40402091E-02
  -9.30000019       2.36451011E-02
  -9.28999996       2.32986026E-02
  -9.27999973       2.30117030E-02
  -9.27000046       2.27949731E-02
  -9.26000023       2.26585977E-02
  -9.25000000       2.26124283E-02
  -9.23999977       2.26662811E-02
  -9.22999954       2.28297263E-02
  -9.22000027       2.31120028E-02
  -9.21000004       2.35218257E-02
  -9.19999981       2.40669008E-02
  -9.18999958       2.47535091E-02
  -9.18000031       2.55863499E-02
  -9.17000008       2.65681315E-02
  -9.15999985       2.76995730E-02
  -9.14999962       2.89793592E-02
  -9.14000034       3.04043628E-02
  -9.13000011       3.19696739E-02
  -9.11999989       3.36687118E-02
  -9.10999966       3.54933925E-02
  -9.10000038       3.74341346E-02
  -9.09000015       3.94800231E-02
  -9.07999992       4.16188538E-02
  -9.06999969       4.38374057E-02
  -9.06000042       4.61216681E-02
  -9.05000019       4.84570749E-02
  -9.03999996       5.08287027E-02
  -9.02999973       5.32214306E-02
  -9.02000046       5.56200594E-02
  -9.01000023       5.80092780E-02
  -9.00000000       6.03735931E-02
  -8.98999977       6.26974627E-02
  -8.97999954       6.49652481E-02
  -8.97000027       6.71615005E-02
  -8.96000004       6.92711994E-02
  -8.94999981       7.12799206E-02
  -8.93999958       7.31742606E-02
  -8.93000031       7.49418661E-02
  -8.92000008       7.65714496E-02
  -8.90999985       7.80528262E-02
  -8.89999962       7.93766007E-02
  -8.89000034       8.05340409E-02
  -8.88000011       8.15170854E-02
  -8.86999989       8.23182538E-02
  -8.85999966       8.29307139E-02
  -8.85000038       8.33486766E-02
  -8.84000015       8.35675299E-02
  -8.82999992       8.35838616E-02
  -8.81999969       8.33957940E-02
  -8.81000042       8.30027238E-02
  -8.80000019       8.24051797E-02
  -8.78999996       8.16046298E-02
  -8.77999973       8.06034878E-02
  -8.77000046       7.94047117E-02
  -8.76000023       7.80122206E-02
  -8.75000000       7.64305890E-02
  -8.73999977       7.46657029E-02
  -8.72999954       7.27244169E-02
  -8.72000027       7.06150085E-02
  -8.71000004       6.83466643E-02
  -8.69999981       6.59295768E-02
  -8.68999958       6.33742735E-02
  -8.68000031       6.06916472E-02
  -8.67000008       5.78921847E-02
  -8.65999985       5.49861006E-02
  -8.64999962       5.19830920E-02
  -8.64000034       4.88923080E-02
  -8.63000011       4.57227193E-02
  -8.61999989       4.24830951E-02
  -8.60999966       3.91821414E-02
  -8.60000038       3.58285308E-02
  -8.59000015       3.24309878E-02
  -8.57999992       2.89979037E-02
  -8.56999969       2.55377050E-02
  -8.56000042       2.20583007E-02
  -8.55000019       1.85672790E-02
  -8.53999996       1.50718484E-02
  -8.52999973       1.15788588E-02
  -8.52000046       8.09490401E-03
  -8.51000023       4.62611951E-03
  -8.50000000       1.17830397E-03
  -8.48999977      -2.24321638E-03
  -8.47999954      -5.63374953E-03
  -8.47000027      -8.98922887E-03
  -8.46000004      -1.23062199E-02
  -8.44999981      -1.55820400E-02
  -8.43999958      -1.88144315E-02
  -8.43000031      -2.20014434E-02
  -8.42000008      -2.51410808E-02
  -8.40999985      -2.82314084E-02
  -8.39999962      -3.12700197E-02
  -8.39000034      -3.42543088E-02
  -8.38000011      -3.71811129E-02
  -8.36999989      -4.00470458E-02
  -8.35999966      -4.28481735E-02
  -8.35000038      -4.55804206E-02
  -8.34000015      -4.82390746E-02
  -8.32999992      -5.08191288E-02
  -8.31999969      -5.33151664E-02
  -8.31000042      -5.57213388E-02
  -8.30000019      -5.80315925E-02
  -8.28999996      -6.02398887E-02
  -8.27999973      -6.23403825E-02
  -8.27000046      -6.43272176E-02
  -8.26000023      -6.61953166E-02
  -8.25000000      -6.79395497E-02
  -8.23999977      -6.95551261E-02
  -8.22999954      -7.10372105E-02
  -8.22000027      -7.23808110E-02
  -8.21000004      -7.35805780E-02
  -8.19999981      -7.46309683E-02
  -8.18999958      -7.55261034E-02
  -8.18000031      -7.62600377E-02
  -8.17000008      -7.68269673E-02
  -8.15999985      -7.72210881E-02
  -8.14999962      -7.74369314E-02
  -8.14000034      -7.74692297E-02
  -8.13000011      -7.73127452E-02
  -8.11999989      -7.69624859E-02
  -8.10999966      -7.64135271E-02
  -8.10000038      -7.56613463E-02
  -8.09000015      -7.47019574E-02
  -8.07999992      -7.35320374E-02
  -8.06999969      -7.21494853E-02
  -8.06000042      -7.05529898E-02
  -8.05000019      -6.87422976E-02
  -8.03999996      -6.67180270E-02
  -8.02999973      -6.44813329E-02
  -8.02000046      -6.20334558E-02
  -8.01000023      -5.93761690E-02
  -8.00000000      -5.65111563E-02
  -7.98999977      -5.34403808E-02
  -7.98000002      -5.01664951E-02
  -7.96999979      -4.66925800E-02
  -7.96000004      -4.30225842E-02
  -7.94999981      -3.91613059E-02
  -7.94000006      -3.51143144E-02
  -7.92999983      -3.08877435E-02
  -7.92000008      -2.64885630E-02
  -7.90999985      -2.19242983E-02
  -7.90000010      -1.72036216E-02
  -7.88999987      -1.23360492E-02
  -7.88000011      -7.33264163E-03
  -7.86999989      -2.20599165E-03
  -7.86000013       3.03001981E-03
  -7.84999990       8.35996494E-03
  -7.84000015       1.37678310E-02
  -7.82999992       1.92372892E-02
  -7.82000017       2.47520749E-02
  -7.80999994       3.02966759E-02
  -7.80000019       3.58561762E-02
  -7.78999996       4.14165445E-02
  -7.78000021       4.69644405E-02
  -7.76999998       5.24869971E-02
  -7.76000023       5.79717420E-02
  -7.75000000       6.34065494E-02
  -7.73999977       6.87797070E-02
  -7.73000002       7.40798265E-02
  -7.71999979       7.92964473E-02
  -7.71000004       8.44198614E-02
  -7.69999981       8.94413665E-02
  -7.69000006       9.43533182E-02
  -7.67999983       9.91490409E-02
  -7.67000008      0.103822775    
  -7.65999985      0.108369835    
  -7.65000010      0.112786449    
  -7.63999987      0.117069907    
  -7.63000011      0.121218599    
  -7.61999989      0.125231788    
  -7.61000013      0.129110217    
  -7.59999990      0.132855475    
  -7.59000015      0.136470348    
  -7.57999992      0.139958546    
  -7.57000017      0.143324465    
  -7.55999994      0.146573946    
  -7.55000019      0.149713278    
  -7.53999996      0.152749687    
  -7.53000021      0.155691221    
  -7.51999998      0.158546701    
  -7.51000023      0.161325440    
  -7.50000000      0.164036840    
  -7.48999977      0.166690081    
  -7.48000002      0.169294268    
  -7.46999979      0.171857178    
  -7.46000004      0.174386427    
  -7.44999981      0.176888376    
  -7.44000006      0.179368913    