  -16.0000000       0.00000000    
  -15.9899998       0.00000000    
  -15.9799995       0.00000000    
  -15.9700003       0.00000000    
  -15.9600000       0.00000000    
  -15.9499998       0.00000000    
  -15.9399996       0.00000000    
  -15.9300003       0.00000000    
  -15.9200001       0.00000000    
  -15.9099998       0.00000000    
  -15.8999996       0.00000000    
  -15.8900003       0.00000000    
  -15.8800001       1.19110369E-43
  -15.8699999       5.38799260E-42
  -15.8599997       8.21104848E-41
  -15.8500004       6.81372970E-40
  -15.8400002       3.30693966E-39
  -15.8299999       5.33972207E-39
  -15.8199997      -6.39319275E-38
  -15.8100004      -7.46875266E-37
  -15.8000002      -4.92410666E-36
  -15.7900000      -2.47356211E-35
  -15.7799997      -1.02864664E-34
  -15.7700005      -3.67382002E-34
  -15.7600002      -1.14904784E-33
  -15.7500000      -3.18064306E-33
  -15.7399998      -7.82600205E-33
  -15.7299995      -1.70870461E-32
  -15.7200003      -3.27697350E-32
  -15.7100000      -5.37571317E-32
  -15.6999998      -7.02721455E-32
  -15.6899996      -5.52265760E-32
  -15.6800003       4.35159310E-32
  -15.6700001       2.99206053E-31
  -15.6599998       7.71561578E-31
  -15.6499996       1.41991442E-30
  -15.6400003       1.96044283E-30
  -15.6300001       1.72002189E-30
  -15.6199999      -3.59116675E-31
  -15.6099997      -5.29762578E-30
  -15.6000004      -1.29661353E-29
  -15.5900002      -2.03068534E-29
  -15.5799999      -1.97259463E-29
  -15.5699997       2.36362621E-31
  -15.5600004       4.88242109E-29
  -15.5500002       1.19310830E-28
  -15.5400000       1.70315317E-28
  -15.5299997       1.15195226E-28
  -15.5200005      -1.55201402E-28
  -15.5100002      -6.87710342E-28
  -15.5000000      -1.31477450E-27
  -15.4899998      -1.49639422E-27
  -15.4799995      -3.19187210E-28
  -15.4700003       3.10527854E-27
  -15.4600000       8.66358092E-27
  -15.4499998       1.38506441E-26
  -15.4399996       1.28010524E-26
  -15.4300003      -2.67005188E-27
  -15.4200001      -3.82382390E-26
  -15.4099998      -8.80036894E-26
  -15.3999996      -1.24284764E-25
  -15.3900003      -9.45608923E-26
  -15.3800001       6.21983913E-26
  -15.3699999       3.70196991E-25
  -15.3599997       7.47684387E-25
  -15.3500004       9.47465039E-25
  -15.3400002       5.72303253E-25
  -15.3299999      -7.58489070E-25
  -15.3199997      -3.05867050E-24
  -15.3100004      -5.53070105E-24
  -15.3000002      -6.30049676E-24
  -15.2900000      -2.75870003E-24
  -15.2799997       7.10136610E-24
  -15.2700005       2.23624585E-23
  -15.2600002       3.67161677E-23
  -15.2500000       3.76952734E-23
  -15.2399998       1.00171262E-23
  -15.2299995      -5.53322311E-23
  -15.2200003      -1.47505781E-22
  -15.2100000      -2.23689171E-22
  -15.1999998      -2.09295905E-22
  -15.1899996      -2.25134134E-23
  -15.1800003       3.71467532E-22
  -15.1700001       8.88321700E-22
  -15.1599998       1.27077782E-21
  -15.1499996       1.10983465E-21
  -15.1400003      -4.31076710E-24
  -15.1300001      -2.19023189E-21
  -15.1199999      -4.92094957E-21
  -15.1099997      -6.80045942E-21
  -15.1000004      -5.74339772E-21
  -15.0900002       2.11083338E-22
  -15.0799999       1.14552131E-20
  -15.0699997       2.51731401E-20
  -15.0600004       3.44386276E-20
  -15.0500002       2.92687326E-20
  -15.0400000       5.66229918E-22
  -15.0299997      -5.32430537E-20
  -15.0200005      -1.18971824E-19
  -15.0100002      -1.64975460E-19
  -15.0000000      -1.46151492E-19
  -14.9899998      -2.13209664E-20
  -14.9799995       2.18209522E-19
  -14.9700003       5.17926888E-19
  -14.9600000       7.44352019E-19
  -14.9499998       7.04993835E-19
  -14.9399996       2.18514183E-19
  -14.9300003      -7.69816464E-19
  -14.9200001      -2.06260422E-18
  -14.9099998      -3.14087634E-18
  -14.8999996      -3.23059834E-18
  -14.8900003      -1.56215220E-18
  -14.8800001       2.19142065E-18
  -14.8699999       7.42249760E-18
  -14.8599997       1.22823582E-17
  -14.8500004       1.38542355E-17
  -14.8400002       9.02774746E-18
  -14.8299999      -3.94432721E-18
  -14.8199997      -2.36092385E-17
  -14.8100004      -4.40054196E-17
  -14.8000002      -5.49127688E-17
  -14.7900000      -4.45034320E-17
  -14.7799997      -4.48457169E-18
  -14.7700005       6.34228228E-17
  -14.7600002       1.42208626E-16
  -14.7500000       1.98923544E-16
  -14.7399998       1.91712077E-16
  -14.7299995       8.54586231E-17
  -14.7200003      -1.26825992E-16
  -14.7100000      -4.04237607E-16
  -14.6999998      -6.50495628E-16
  -14.6899996      -7.29243857E-16
  -14.6800003      -5.07235781E-16
  -14.6700001       8.02720485E-17
  -14.6599998       9.61298539E-16
  -14.6499996       1.88702424E-15
  -14.6400003       2.45347477E-15
  -14.6300001       2.20690093E-15
  -14.6199999       8.26736026E-16
  -14.6099997      -1.65908407E-15
  -14.6000004      -4.70899624E-15
  -14.5900002      -7.25291273E-15
  -14.5799999      -7.90771579E-15
  -14.5699997      -5.43760720E-15
  -14.5600004       6.29177132E-16
  -14.5500002       9.42668812E-15
  -14.5400000       1.84929993E-14
  -14.5299997       2.40851599E-14
  -14.5200005       2.21910452E-14
  -14.5100002       1.01147880E-14
  -14.5000000      -1.17885285E-14
  -14.4899998      -3.89008656E-14
  -14.4799995      -6.23892011E-14
  -14.4700003      -7.10305702E-14
  -14.4600000      -5.48024117E-14
  -14.4499998      -9.48646831E-15
  -14.4399996       5.91893613E-14
  -14.4300003       1.33748766E-13
  -14.4200001       1.87169805E-13
  -14.4099998       1.89784549E-13
  -14.3999996       1.19943226E-13
  -14.3900003      -2.43503084E-14
  -14.3800001      -2.17056530E-13
  -14.3699999      -4.03473750E-13
  -14.3599997      -5.10468512E-13
  -14.3500004      -4.67548472E-13
  -14.3400002      -2.34561394E-13
  -14.3299999       1.72216421E-13
  -14.3199997       6.66059439E-13
  -14.3100004       1.09726659E-12
  -14.3000002       1.28660613E-12
  -14.2900000       1.08094892E-12
  -14.2799997       4.17835336E-13
  -14.2700005      -6.21838193E-13
  -14.2600002      -1.79600464E-12
  -14.2500000      -2.73589615E-12
  -14.2399998      -3.03657707E-12
  -14.2299995      -2.38826840E-12
  -14.2200003      -7.14075446E-13
  -14.2100000       1.73257025E-12
  -14.1999998       4.35661923E-12
  -14.1899996       6.32486728E-12
  -14.1800003       6.78075868E-12
  -14.1700001       5.12762185E-12
  -14.1599998       1.30239157E-12
  -14.1499996      -4.05555017E-12
  -14.1400003      -9.62501346E-12
  -14.1300001      -1.36555168E-11
  -14.1199999      -1.44271687E-11
  -14.1099997      -1.08182621E-11
  -14.1000004      -2.82109514E-12
  -14.0900002       8.17474647E-12
  -14.0799999       1.94792446E-11
  -14.0699997       2.76375763E-11
  -14.0600004       2.93352079E-11
  -14.0500002       2.24694638E-11
  -14.0400000       7.08650933E-12
  -14.0299997      -1.41400745E-11
  -14.0200005      -3.61386442E-11
  -14.0100002      -5.24576979E-11
  -14.0000000      -5.69259848E-11
  -13.9899998      -4.55792661E-11
  -13.9799995      -1.83209090E-11
  -13.9700003       2.02412965E-11
  -13.9600000       6.11989279E-11
  -13.9499998       9.31101515E-11
  -13.9399996       1.04866345E-10
  -13.9300003       8.90159127E-11
  -13.9200001       4.46467550E-11
  -13.9099998      -2.11047846E-11
  -13.8999996      -9.36133393E-11
  -13.8900003      -1.53602783E-10
  -13.8800001      -1.81841334E-10
  -13.8699999      -1.64654568E-10
  -13.8599997      -9.87991008E-11
  -13.8500004       5.82147958E-12
  -13.8400002       1.26745295E-10
  -13.8299999       2.33222913E-10
  -13.8199997       2.93542857E-10
  -13.8100004       2.83799262E-10
  -13.8000002       1.95816349E-10
  -13.7900000       4.18304072E-11
  -13.7799997      -1.45901069E-10
  -13.7700005      -3.21206534E-10
  -13.7600002      -4.34910608E-10
  -13.7500000      -4.48114296E-10
  -13.7399998      -3.44379886E-10
  -13.7299995      -1.37187955E-10
  -13.7200003       1.30091535E-10
  -13.7100000       3.92669314E-10
  -13.6999998       5.79874981E-10
  -13.6899996       6.34157615E-10
  -13.6800003       5.28489030E-10
  -13.6700001       2.76963313E-10
  -13.6599998      -6.52206414E-11
  -13.6499996      -4.13524465E-10
  -13.6400003      -6.75361322E-10
  -13.6300001      -7.75626730E-10
  -13.6199999      -6.79361845E-10
  -13.6099997      -4.04564660E-10
  -13.6000004      -2.04326365E-11
  -13.5900002       3.69733383E-10
  -13.5799999       6.57125798E-10
  -13.5699997       7.59779406E-10
  -13.5600004       6.49004905E-10
  -13.5500002       3.61138008E-10
  -13.5400000      -1.04242361E-11
  -13.5299997      -3.42188222E-10
  -13.5200005      -5.19681298E-10
  -13.5100002      -4.77219597E-10
  -13.5000000      -2.25315558E-10
  -13.4899998       1.44808721E-10
  -13.4799995       4.83968032E-10
  -13.4700003       6.31043606E-10
  -13.4600000       4.70162798E-10
  -13.4499998      -1.84591006E-11
  -13.4399996      -7.32005012E-10
  -13.4300003      -1.45570345E-09
  -13.4200001      -1.91350114E-09
  -13.4099998      -1.84926829E-09
  -13.3999996      -1.11781573E-09
  -13.3900003       2.41539261E-10
  -13.3800001       1.97525152E-09
  -13.3699999       3.64702601E-09
  -13.3599997       4.73212936E-09
  -13.3500004       4.75747619E-09
  -13.3400002       3.45387474E-09
  -13.3299999       8.77534323E-10
  -13.3199997      -2.54026888E-09
  -13.3100004      -6.04242922E-09
  -13.3000002      -8.69722250E-09
  -13.2900000      -9.62588942E-09
  -13.2799997      -8.25519830E-09
  -13.2700005      -4.52825555E-09
  -13.2600002       9.91941751E-10
  -13.2500000       7.17208337E-09
  -13.2399998       1.25216353E-08
  -13.2299995       1.55361715E-08
  -13.2200003       1.50967630E-08
  -13.2100000       1.08249063E-08
  -13.1999998       3.28998784E-09
  -13.1899996      -6.00808203E-09
  -13.1800003      -1.49079167E-08
  -13.1700001      -2.10693880E-08
  -13.1599998      -2.25686829E-08
  -13.1499996      -1.84602662E-08
  -13.1400003      -9.15029119E-09
  -13.1300001       3.54284513E-09
  -13.1199999       1.66959975E-08
  -13.1099997       2.69193272E-08
  -13.1000004       3.11936788E-08
  -13.0900002       2.77070242E-08
  -13.0799999       1.64669860E-08
  -13.0699997      -4.97967112E-10
  -13.0600004      -1.94462420E-08
  -13.0500002      -3.57114409E-08
  -13.0400000      -4.48119479E-08
  -13.0299997      -4.36214904E-08
  -13.0200005      -3.12996207E-08
  -13.0100002      -9.71756009E-09
  -13.0000000       1.67748730E-08
  -12.9899998       4.22349906E-08
  -12.9799995       6.04870607E-08
  -12.9700003       6.66404105E-08
  -12.9600000       5.83854813E-08
  -12.9499998       3.67204436E-08
  -12.9399996       5.88653126E-09
  -12.9300003      -2.75164478E-08
  -12.9200001      -5.60515865E-08
  -12.9099998      -7.32448981E-08
  -12.8999996      -7.52145155E-08
  -12.8900003      -6.17030622E-08
  -12.8800001      -3.62225343E-08
  -12.8699999      -5.24001598E-09
  -12.8599997       2.34206574E-08
  -12.8500004       4.25749462E-08
  -12.8400002       4.75668394E-08
  -12.8299999       3.75566067E-08
  -12.8199997       1.58529634E-08
  -12.8100004      -1.08265139E-08
  -12.8000002      -3.40059003E-08
  -12.7900000      -4.56095215E-08
  -12.7799997      -4.00826430E-08
  -12.7700005      -1.59263571E-08
  -12.7600002       2.37573783E-08
  -12.7500000       7.18599225E-08
  -12.7399998       1.18848831E-07
  -12.7299995       1.54924194E-07
  -12.7200003       1.72178659E-07
  -12.7100000       1.66190887E-07
  -12.6999998       1.36644488E-07
  -12.6899996       8.68440040E-08
  -12.6800003       2.23256826E-08
  -12.6700001      -5.09629992E-08
  -12.6599998      -1.28296932E-07
  -12.6499996      -2.07038795E-07
  -12.6400003      -2.86377002E-07
  -12.6300001      -3.65926326E-07
  -12.6199999      -4.43570059E-07
  -12.6099997      -5.13232237E-07
  -12.6000004      -5.63406729E-07
  -12.5900002      -5.77170340E-07
  -12.5799999      -5.34089509E-07
  -12.5699997      -4.13939659E-07
  -12.5600004      -2.01644639E-07
  -12.5500002       1.07586942E-07
  -12.5400000       5.04140473E-07
  -12.5299997       9.62006766E-07
  -12.5200005       1.43964917E-06
  -12.5100002       1.88384081E-06
  -12.5000000       2.23591337E-06
  -12.4899998       2.43927116E-06
  -12.4799995       2.44670491E-06
  -12.4700003       2.22603489E-06
  -12.4600000       1.76300227E-06
  -12.4499998       1.06095661E-06
  -12.4399996       1.37646069E-07
  -12.4300003      -9.79879133E-07
  -12.4200001      -2.26081056E-06
  -12.4099998      -3.67505663E-06
  -12.3999996      -5.19546074E-06
  -12.3900003      -6.79721552E-06
  -12.3800001      -8.45475097E-06
  -12.3699999      -1.01371243E-05
  -12.3599997      -1.18034559E-05
  -12.3500004      -1.34000647E-05
  -12.3400002      -1.48606077E-05
  -12.3299999      -1.61098105E-05
  -12.3199997      -1.70704079E-05
  -12.3100004      -1.76720550E-05
  -12.3000002      -1.78602477E-05
  -12.2900000      -1.76031845E-05
  -12.2799997      -1.68948027E-05
  -12.2700005      -1.57530994E-05
  -12.2600002      -1.42139515E-05
  -12.2500000      -1.23218515E-05
  -12.2399998      -1.01197447E-05
  -12.2299995      -7.64061315E-06
  -12.2200003      -4.90303137E-06
  -12.2100000      -1.91206391E-06
  -12.1999998       1.33450089E-06
  -12.1899996       4.83591430E-06
  -12.1800003       8.57674877E-06
  -12.1700001       1.25166871E-05
  -12.1599998       1.65846341E-05
  -12.1499996       2.06790046E-05
  -12.1400003       2.46746386E-05
  -12.1300001       2.84351900E-05
  -12.1199999       3.18285347E-05
  -12.1099997       3.47420573E-05
  -12.1000004       3.70946436E-05
  -12.0900002       3.88431254E-05
  -12.0799999       3.99822275E-05
  -12.0699997       4.05384853E-05
  -12.0600004       4.05601313E-05
  -12.0500002       4.01054494E-05
  -12.0400000       3.92323163E-05
  -12.0299997       3.79908488E-05
  -12.0200005       3.64201660E-05
  -12.0100002       3.45488479E-05
  -12.0000000       3.23979693E-05
  -11.9899998       2.99848125E-05
  -11.9799995       2.73257829E-05
  -11.9700003       2.44374150E-05
  -11.9600000       2.13354560E-05
  -11.9499998       1.80327224E-05
  -11.9399996       1.45370659E-05
  -11.9300003       1.08507311E-05
  -11.9200001       6.97201904E-06
  -11.9099998       2.89936588E-06
  -11.8999996      -1.36294568E-06
  -11.8900003      -5.79886364E-06
  -11.8800001      -1.03760740E-05
  -11.8699999      -1.50443757E-05
  -11.8599997      -1.97376212E-05
  -11.8500004      -2.43790419E-05
  -11.8400002      -2.88888350E-05
  -11.8299999      -3.31923802E-05
  -11.8199997      -3.72271716E-05
  -11.8100004      -4.09470522E-05
  -11.8000002      -4.43228819E-05
  -11.7900000      -4.73397558E-05
  -11.7799997      -4.99916605E-05
  -11.7700005      -5.22750997E-05
  -11.7600002      -5.41831578E-05
  -11.7500000      -5.57015155E-05
  -11.7399998      -5.68071082E-05
  -11.7299995      -5.74696351E-05
  -11.7200003      -5.76552593E-05
  -11.7100000      -5.73315338E-05
  -11.6999998      -5.64723741E-05
  -11.6899996      -5.50619734E-05
  -11.6800003      -5.30969046E-05
  -11.6700001      -5.05862736E-05
  -11.6599998      -4.75501183E-05
  -11.6499996      -4.40167569E-05
  -11.6400003      -4.00199424E-05
  -11.6300001      -3.55967059E-05
  -11.6199999      -3.07864575E-05
  -11.6099997      -2.56315598E-05
  -11.6000004      -2.01791554E-05
  -11.5900002      -1.44834958E-05
  -11.5799999      -8.60782711E-06
  -11.5699997      -2.62477329E-06
  -11.5600004       3.38552218E-06
  -11.5500002       9.33976025E-06
  -11.5400000       1.51579325E-05
  -11.5299997       2.07707417E-05
  -11.5200005       2.61263740E-05
  -11.5100002       3.11948243E-05
  -11.5000000       3.59684273E-05
  -11.4899998       4.04578459E-05
  -11.4799995       4.46839804E-05
  -11.4700003       4.86672870E-05
  -11.4600000       5.24168645E-05
  -11.4499998       5.59220243E-05
  -11.4399996       5.91485805E-05
  -11.4300003       6.20412538E-05
  -11.4200001       6.45320106E-05
  -11.4099998       6.65527186E-05
  -11.3999996       6.80493977E-05
  -11.3900003       6.89947192E-05
  -11.3800001       6.93957700E-05
  -11.3699999       6.92952599E-05
  -11.3599997       6.87657521E-05
  -11.3500004       6.78981523E-05
  -11.3400002       6.67870772E-05
  -11.3299999       6.55160475E-05
  -11.3199997       6.41454972E-05
  -11.3100004       6.27057670E-05
  -11.3000002       6.11956493E-05
  -11.2900000       5.95862366E-05
  -11.2799997       5.78285908E-05
  -11.2700005       5.58633474E-05
  -11.2600002       5.36306616E-05
  -11.2500000       5.10791033E-05
  -11.2399998       4.81729185E-05
  -11.2299995       4.48974170E-05
  -11.2200003       4.12626287E-05
  -11.2100000       3.73052244E-05
  -11.1999998       3.30885887E-05
  -11.1899996       2.87007970E-05
  -11.1800003       2.42503320E-05
  -11.1700001       1.98595171E-05
  -11.1599998       1.56562564E-05
  -11.1499996       1.17650952E-05
  -11.1400003       8.29874534E-06
  -11.1300001       5.35142817E-06
  -11.1199999       2.99460180E-06
  -11.1099997       1.27534156E-06
  -11.1000004       2.16628877E-07
  -11.0900002      -1.81330634E-07
  -11.0799999       5.99799392E-08
  -11.0699997       8.97638984E-07
  -11.0600004       2.26670818E-06
  -11.0500002       4.07948892E-06
  -11.0400000       6.22599737E-06
  -11.0299997       8.57704799E-06
  -11.0200005       1.09908478E-05
  -11.0100002       1.33232688E-05
  -11.0000000       1.54408390E-05
  -10.9899998       1.72345117E-05
  -10.9799995       1.86319448E-05
  -10.9700003       1.96058318E-05
  -10.9600000       2.01765706E-05
  -10.9499998       2.04084572E-05
  -10.9399996       2.03998807E-05
  -10.9300003       2.02689753E-05
  -10.9200001       2.01369876E-05
  -10.9099998       2.01119583E-05
  -10.8999996       2.02751835E-05
  -10.8900003       2.06724053E-05
  -10.8800001       2.13108196E-05
  -10.8699999       2.21619794E-05
  -10.8599997       2.31695576E-05
  -10.8500004       2.42601436E-05
  -10.8400002       2.53544786E-05
  -10.8299999       2.63765287E-05
  -10.8199997       2.72581765E-05
  -10.8100004       2.79384622E-05
  -10.8000002       2.83577301E-05
  -10.7900000       2.84487342E-05
  -10.7799997       2.81278426E-05
  -10.7700005       2.72904381E-05
  -10.7600002       2.58135951E-05
  -10.7500000       2.35679436E-05
  -10.7399998       2.04379921E-05
  -10.7299995       1.63476379E-05
  -10.7200003       1.12855078E-05
  -10.7100000       5.32381955E-06
  -10.6999998      -1.37495044E-06
  -10.6899996      -8.56692805E-06
  -10.6800003      -1.59513511E-05
  -10.6700001      -2.32070288E-05
  -10.6599998      -3.00341380E-05
  -10.6499996      -3.61930252E-05
  -10.6400003      -4.15320246E-05
  -10.6300001      -4.59984913E-05
  -10.6199999      -4.96307257E-05
  -10.6099997      -5.25326286E-05
  -10.6000004      -5.48363605E-05
  -10.5900002      -5.66609488E-05
  -10.5799999      -5.80753040E-05
  -10.5699997      -5.90732780E-05
  -10.5600004      -5.95659367E-05
  -10.5500002      -5.93928889E-05
  -10.5400000      -5.83509172E-05
  -10.5299997      -5.62351088E-05
  -10.5200005      -5.28851851E-05
  -10.5100002      -4.82284449E-05
  -10.5000000      -4.23111669E-05
  -10.4899998      -3.53114592E-05
  -10.4799995      -2.75298444E-05
  -10.4700003      -1.93572851E-05
  -10.4600000      -1.12251591E-05
  -10.4499998      -3.54525855E-06
  -10.4399996       3.34891092E-06
  -10.4300003       9.24774668E-06
  -10.4200001       1.40879920E-05
  -10.4099998       1.79461349E-05
  -10.3999996       2.10032886E-05
  -10.3900003       2.34886174E-05
  -10.3800001       2.56139210E-05
  -10.3699999       2.75150032E-05
  -10.3599997       2.92144541E-05
  -10.3500004       3.06158508E-05
  -10.3400002       3.15317775E-05
  -10.3299999       3.17392223E-05
  -10.3199997       3.10487740E-05
  -10.3100004       2.93695648E-05
  -10.3000002       2.67527084E-05
  -10.2900000       2.34008985E-05
  -10.2799997       1.96406672E-05
  -10.2700005       1.58632993E-05
  -10.2600002       1.24488479E-05
  -10.2500000       9.69200846E-06
  -10.2399998       7.74802993E-06
  -10.2299995       6.61141303E-06
  -10.2200003       6.13135171E-06
  -10.2100000       6.05835157E-06
  -10.1999998       6.10871848E-06
  -10.1899996       6.02978889E-06
  -10.1800003       5.64991933E-06
  -10.1700001       4.90252523E-06
  -10.1599998       3.82128883E-06
  -10.1499996       2.51161759E-06
  -10.1400003       1.10929602E-06
  -10.1300001      -2.60678632E-07
  -10.1199999      -1.51386257E-06
  -10.1099997      -2.61835521E-06
  -10.1000004      -3.58863326E-06
  -10.0900002      -4.46614013E-06
  -10.0799999      -5.29466115E-06
  -10.0699997      -6.09854987E-06
  -10.0600004      -6.86947851E-06
  -10.0500002      -7.56378222E-06
  -10.0400000      -8.10899110E-06
  -10.0299997      -8.41597284E-06
  -10.0200005      -8.39293079E-06
  -10.0100002      -7.95862616E-06
  -10.0000000      -7.05408320E-06
  -9.98999977      -5.65311757E-06
  -9.97999954      -3.77198285E-06
  -9.97000027      -1.47702872E-06
  -9.96000004       1.11255588E-06
  -9.94999981       3.83124097E-06
  -9.93999958       6.48637342E-06
  -9.93000031       8.89072999E-06
  -9.92000008       1.09042394E-05
  -9.90999985       1.24756561E-05
  -9.89999962       1.36718463E-05
  -9.89000034       1.46826087E-05
  -9.88000011       1.57936047E-05
  -9.86999989       1.73284716E-05
  -9.85999966       1.95708199E-05
  -9.85000038       2.26849170E-05
  -9.84000015       2.66574098E-05
  -9.82999992       3.12790435E-05
  -9.81999969       3.61760503E-05
  -9.81000042       4.08870219E-05
  -9.80000019       4.49674881E-05
  -9.78999996       4.80948038E-05
  -9.77999973       5.01439608E-05
  -9.77000046       5.12117913E-05
  -9.76000023       5.15811444E-05
  -9.75000000       5.16338187E-05
  -9.73999977       5.17362860E-05
  -9.72999954       5.21308502E-05
  -9.72000027       5.28634846E-05
  -9.71000004       5.37690357E-05
  -9.69999981       5.45175135E-05
  -9.68999958       5.47069212E-05
  -9.68000031       5.39747380E-05
  -9.67000008       5.20954818E-05
  -9.65999985       4.90369857E-05
  -9.64999962       4.49616891E-05
  -9.64000034       4.01765537E-05
  -9.63000011       3.50502960E-05
  -9.61999989       2.99252024E-05
  -9.60999966       2.50500761E-05
  -9.60000038       2.05516026E-05
  -9.59000015       1.64473695E-05
  -9.57999992       1.26900213E-05
  -9.56999969       9.22282379E-06
  -9.56000042       6.02579757E-06
  -9.55000019       3.13777241E-06
  -9.53999996       6.50684399E-07
  -9.52999973      -1.31627451E-06
  -9.52000046      -2.64798814E-06
  -9.51000023      -3.25502447E-06
  -9.50000000      -3.07621008E-06
  -9.48999977      -2.06289951E-06
  -9.47999954      -1.54846617E-07
  -9.47000027       2.73733804E-06
  -9.46000004       6.72970009E-06
  -9.44999981       1.19375436E-05
  -9.43999958       1.84283927E-05
  -9.43000031       2.61714486E-05
  -9.42000008       3.50030823E-05
  -9.40999985       4.46250306E-05
  -9.39999962       5.46412339E-05
  -9.39000034       6.46257031E-05
  -9.38000011       7.42015982E-05
  -9.36999989       8.31058787E-05
  -9.35999966       9.12178002E-05
  -9.35000038       9.85404622E-05
  -9.34000015       1.05141466E-04
  -9.32999992       1.11073176E-04
  -9.31999969       1.16301424E-04
  -9.31000042       1.20669582E-04
  -9.30000019       1.23913327E-04
  -9.28999996       1.25724036E-04
  -9.27999973       1.25840874E-04
  -9.27000046       1.24141050E-04
  -9.26000023       1.20696277E-04
  -9.25000000       1.15774659E-04
  -9.23999977       1.09783556E-04
  -9.22999954       1.03169899E-04
  -9.22000027       9.63072089E-05
  -9.21000004       8.94040131E-05
  -9.19999981       8.24608360E-05
  -9.18999958       7.52872293E-05
  -9.18000031       6.75715055E-05
  -9.17000008       5.89791525E-05
  -9.15999985       4.92490071E-05
  -9.14999962       3.82590842E-05
  -9.14000034       2.60453980E-05
  -9.13000011       1.27751573E-05
  -9.11999989      -1.31104241E-06
  -9.10999966      -1.59631891E-05
  -9.10000038      -3.09688548E-05
  -9.09000015      -4.61685850E-05
  -9.07999992      -6.14384189E-05
  -9.06999969      -7.66514422E-05
  -9.06000042      -9.16376157E-05
  -9.05000019      -1.06160936E-04
  -9.03999996      -1.19925513E-04
  -9.02999973      -1.32610759E-04
  -9.02000046      -1.43924000E-04
  -9.01000023      -1.53652349E-04
  -9.00000000      -1.61696284E-04
  -8.98999977      -1.68072875E-04
  -8.97999954      -1.72888787E-04
  -8.97000027      -1.76292364E-04
  -8.96000004      -1.78421440E-04
  -8.94999981      -1.79363982E-04
  -8.93999958      -1.79142153E-04
  -8.93000031      -1.77722904E-04
  -8.92000008      -1.75046647E-04
  -8.90999985      -1.71061372E-04
  -8.89999962      -1.65748075E-04
  -8.89000034      -1.59128569E-04
  -8.88000011      -1.51254528E-04
  -8.86999989      -1.42185352E-04
  -8.85999966      -1.31966764E-04
  -8.85000038      -1.20622310E-04
  -8.84000015      -1.08163440E-04
  -8.82999992      -9.46171349E-05
  -8.81999969      -8.00596608E-05
  -8.81000042      -6.46420303E-05
  -8.80000019      -4.85926867E-05
  -8.78999996      -3.21908446E-05
  -8.77999973      -1.57130653E-05
  -8.77000046       6.31802322E-07
  -8.76000023       1.67596045E-05
  -8.75000000       3.27380985E-05
  -8.73999977       4.87713914E-05
  -8.72999954       6.51404553E-05
  -8.72000027       8.21132926E-05
  -8.71000004       9.98493852E-05
  -8.69999981       1.18326330E-04
  -8.68999958       1.37312454E-04
  -8.68000031       1.56394861E-04
  -8.67000008       1.75057343E-04
  -8.65999985       1.92785068E-04
  -8.64999962       2.09165795E-04
  -8.64000034       2.23956667E-04
  -8.63000011       2.37097978E-04
  -8.61999989       2.48670054E-04
  -8.60999966       2.58810935E-04
  -8.60000038       2.67622090E-04
  -8.59000015       2.75096070E-04
  -8.57999992       2.81090091E-04
  -8.56999969       2.85356393E-04
  -8.56000042       2.87618255E-04
  -8.55000019       2.87666509E-04
  -8.53999996       2.85444548E-04
  -8.52999973       2.81091547E-04
  -8.52000046       2.74931779E-04
  -8.51000023       2.67411873E-04
  -8.50000000       2.59009306E-04
  -8.48999977       2.50142213E-04
  -8.47999954       2.41109825E-04
  -8.47000027       2.32081948E-04
  -8.46000004       2.23135285E-04
  -8.44999981       2.14321961E-04
  -8.43999958       2.05739416E-04
  -8.43000031       1.97576606E-04
  -8.42000008       1.90117382E-04
  -8.40999985       1.83700773E-04
  -8.39999962       1.78653747E-04
  -8.39000034       1.75222129E-04
  -8.38000011       1.73526860E-04
  -8.36999989       1.73559602E-04
  -8.35999966       1.75222522E-04
  -8.35000038       1.78393107E-04
  -8.34000015       1.82990872E-04
  -8.32999992       1.89018931E-04
  -8.31999969       1.96564128E-04
  -8.31000042       2.05753095E-04
  -8.30000019       2.16680841E-04
  -8.28999996       2.29335055E-04
  -8.27999973       2.43544157E-04
  -8.27000046       2.58967979E-04
  -8.26000023       2.75135535E-04
  -8.25000000       2.91518227E-04
  -8.23999977       3.07617593E-04
  -8.22999954       3.23040731E-04
  -8.22000027       3.37542180E-04
  -8.21000004       3.51024471E-04
  -8.19999981       3.63500614E-04
  -8.18999958       3.75032920E-04
  -8.18000031       3.85670050E-04
  -8.17000008       3.95397947E-04
  -8.15999985       4.04117280E-04
  -8.14999962       4.11648769E-04
  -8.14000034       4.17759467E-04
  -8.13000011       4.22199722E-04
  -8.11999989       4.24739817E-04
  -8.10999966       4.25196748E-04
  -8.10000038       4.23449324E-04
  -8.09000015       4.19440708E-04
  -8.07999992       4.13171452E-04
  -8.06999969       4.04687278E-04
  -8.06000042       3.94062954E-04
  -8.05000019       3.81387101E-04
  -8.03999996       3.66748514E-04
  -8.02999973       3.50227201E-04
  -8.02000046       3.31892254E-04
  -8.01000023       3.11808486E-04
  -8.00000000       2.90050550E-04
  -7.98999977       2.66721443E-04
  -7.98000002       2.41970338E-04
  -7.96999979       2.16002387E-04
  -7.96000004       1.89076629E-04
  -7.94999981       1.61490098E-04
  -7.94000006       1.33550857E-04
  -7.92999983       1.05547333E-04
  -7.92000008       7.77210807E-05
  -7.90999985       5.02503317E-05
  -7.90000010       2.32474158E-05
  -7.88999987      -3.23206700E-06
  -7.88000011      -2.91726701E-05
  -7.86999989      -5.45811490E-05
  -7.86000013      -7.94712396E-05
  -7.84999990      -1.03851875E-04
  -7.84000015      -1.27716979E-04
  -7.82999992      -1.51032393E-04
  -7.82000017      -1.73718683E-04
  -7.80999994      -1.95631539E-04
  -7.80000019      -2.16546294E-04
  -7.78999996      -2.36155116E-04
  -7.78000021      -2.54085055E-04
  -7.76999998      -2.69937969E-04
  -7.76000023      -2.83347443E-04
  -7.75000000      -2.94038124E-04
  -7.73999977      -3.01869906E-04
  -7.73000002      -3.06851609E-04
  -7.71999979      -3.09116876E-04
  -7.71000004      -3.08867020E-04
  -7.69999981      -3.06297909E-04
  -7.69000006      -3.01534252E-04
  -7.67999983      -2.94594443E-04
  -7.67000008      -2.85399234E-04
  -7.65999985      -2.73823476E-04
  -7.65000010      -2.59774504E-04
  -7.63999987      -2.43270406E-04
  -7.63000011      -2.24490490E-04
  -7.61999989      -2.03778458E-04
  -7.61000013      -1.81594587E-04
  -7.59999990      -1.58430674E-04
  -7.59000015      -1.34714952E-04
  -7.57999992      -1.10737419E-04
  -7.57000017      -8.66201735E-05
  -7.55999994      -6.23419328E-05
  -7.55000019      -3.78065524E-05
  -7.53999996      -1.29319587E-05
  -7.53000021       1.22724286E-05
  -7.51999998       3.76656717E-05
  -7.51000023       6.29854621E-05
  -7.50000000       8.79026265E-05
  -7.48999977       1.12099537E-04
  -7.48000002       1.35341863E-04
  -7.46999979       1.57518109E-04
  -7.46000004       1.78633185E-04
  -7.44999981       1.98759488E-04
  -7.44000006       2.17965251E-04