  -16.0000000       0.00000000    
  -15.9899998       0.00000000    
  -15.9799995       0.00000000    
  -15.9700003       0.00000000    
  -15.9600000       0.00000000    
  -15.9499998       0.00000000    
  -15.9399996       0.00000000    
  -15.9300003       0.00000000    
  -15.9200001       0.00000000    
  -15.9099998       0.00000000    
  -15.8999996       0.00000000    
  -15.8900003       0.00000000    
  -15.8800001       0.00000000    
  -15.8699999      -3.90205570E-41
  -15.8599997      -4.70515387E-40
  -15.8500004      -1.83568838E-39
  -15.8400002       5.03605508E-39
  -15.8299999       9.85586571E-38
  -15.8199997       6.04504149E-37
  -15.8100004       2.26815506E-36
  -15.8000002       5.17974978E-36
  -15.7900000       1.92407310E-36
  -15.7799997      -4.56184160E-35
  -15.7700005      -2.61319580E-34
  -15.7600002      -9.44674739E-34
  -15.7500000      -2.63319900E-33
  -15.7399998      -5.91703816E-33
  -15.7299995      -1.05710921E-32
  -15.7200003      -1.35990355E-32
  -15.7100000      -6.81211246E-33
  -15.6999998       2.24777560E-32
  -15.6899996       7.97420632E-32
  -15.6800003       1.32450965E-31
  -15.6700001       6.97931139E-32
  -15.6599998      -2.86247309E-31
  -15.6499996      -9.81329297E-31
  -15.6400003      -1.38614350E-30
  -15.6300001       6.04612087E-31
  -15.6199999       8.81526799E-30
  -15.6099997       2.64838418E-29
  -15.6000004       4.87293920E-29
  -15.5900002       4.91845855E-29
  -15.5799999      -3.19929223E-29
  -15.5699997      -2.77272427E-28
  -15.5600004      -7.23229257E-28
  -15.5500002      -1.20758157E-27
  -15.5400000      -1.16538984E-27
  -15.5299997       4.59963108E-28
  -15.5200005       4.85913049E-27
  -15.5100002       1.21650055E-26
  -15.5000000       1.93505870E-26
  -15.4899998       1.80661766E-26
  -15.4799995      -5.25474925E-27
  -15.4700003      -6.34228391E-26
  -15.4600000      -1.53697382E-25
  -15.4499998      -2.35928945E-25
  -15.4399996      -2.15259236E-25
  -15.4300003       4.66767611E-26
  -15.4200001       6.62019467E-25
  -15.4099998       1.57291380E-24
  -15.3999996       2.36677027E-24
  -15.3900003       2.16494928E-24
  -15.3800001      -2.18696402E-25
  -15.3699999      -5.64389233E-24
  -15.3599997      -1.34869608E-23
  -15.3500004      -2.03028137E-23
  -15.3400002      -1.92045679E-23
  -15.3299999      -1.31703089E-24
  -15.3199997       3.94771020E-23
  -15.3100004       9.85296232E-23
  -15.3000002       1.51789043E-22
  -15.2900000       1.52467943E-22
  -15.2799997       4.12075378E-23
  -15.2700005      -2.23680311E-22
  -15.2600002      -6.17345480E-22
  -15.2500000      -9.97309612E-22
  -15.2399998      -1.08420073E-21
  -15.2299995      -5.18754174E-22
  -15.2200003       9.71268367E-22
  -15.2100000       3.30410571E-21
  -15.1999998       5.76324561E-21
  -15.1899996       6.87521425E-21
  -15.1800003       4.66640170E-21
  -15.1700001      -2.53394058E-21
  -15.1599998      -1.47810018E-20
  -15.1499996      -2.90783777E-20
  -15.1400003      -3.85939953E-20
  -15.1300001      -3.35368812E-20
  -15.1199999      -4.49587607E-21
  -15.1099997       5.17695058E-20
  -15.1000004       1.25550081E-19
  -15.0900002       1.89513838E-19
  -15.0799999       2.00344902E-19
  -15.0699997       1.10410478E-19
  -15.0600004      -1.09676847E-19
  -15.0500002      -4.41989536E-19
  -15.0400000      -7.96486163E-19
  -15.0299997      -1.00634959E-18
  -15.0200005      -8.59252214E-19
  -15.0100002      -1.72550457E-19
  -15.0000000       1.09625616E-18
  -14.9899998       2.73510413E-18
  -14.9799995       4.21103298E-18
  -14.9700003       4.71240742E-18
  -14.9600000       3.34677855E-18
  -14.9499998      -5.03032519E-19
  -14.9399996      -6.72822465E-18
  -14.9300003      -1.40899332E-17
  -14.9200001      -2.00613897E-17
  -14.9099998      -2.11235955E-17
  -14.8999996      -1.36529609E-17
  -14.8900003       4.62257808E-18
  -14.8800001       3.28541912E-17
  -14.8699999       6.55088399E-17
  -14.8599997       9.17454472E-17
  -14.8500004       9.65369340E-17
  -14.8400002       6.41380958E-17
  -14.8299999      -1.59977839E-17
  -14.8199997      -1.41654812E-16
  -14.8100004      -2.90594425E-16
  -14.8000002      -4.16684200E-16
  -14.7900000      -4.53250295E-16
  -14.7799997      -3.27002099E-16
  -14.7700005       1.60175403E-17
  -14.7600002       5.75423151E-16
  -14.7500000       1.26086953E-15
  -14.7399998       1.87088360E-15
  -14.7299995       2.10468142E-15
  -14.7200003       1.62400960E-15
  -14.7100000       1.71380547E-16
  -14.6999998      -2.26969932E-15
  -14.6899996      -5.31448249E-15
  -14.6800003      -8.08624831E-15
  -14.6700001      -9.27835401E-15
  -14.6599998      -7.43703737E-15
  -14.6499996      -1.47932303E-15
  -14.6400003       8.63398301E-15
  -14.6300001       2.12633273E-14
  -14.6199999       3.27870767E-14
  -14.6099997       3.79462358E-14
  -14.6000004       3.10643540E-14
  -14.5900002       8.11668136E-15
  -14.5799999      -3.07321917E-14
  -14.5699997      -7.89230470E-14
  -14.5600004      -1.22698157E-13
  -14.5500002      -1.42763500E-13
  -14.5400000      -1.19010853E-13
  -14.5299997      -3.79671168E-14
  -14.5200005       9.86677984E-14
  -14.5100002       2.67156414E-13
  -14.5000000       4.20116605E-13
  -14.4899998       4.93211158E-13
  -14.4799995       4.21417756E-13
  -14.4700003       1.63061771E-13
  -14.4600000      -2.74131168E-13
  -14.4499998      -8.13763607E-13
  -14.4399996      -1.30857521E-12
  -14.4300003      -1.56325506E-12
  -14.4200001      -1.38439141E-12
  -14.4099998      -6.50384423E-13
  -14.3999996       6.16114202E-13
  -14.3900003       2.19812688E-12
  -14.3800001       3.68339907E-12
  -14.3699999       4.53147068E-12
  -14.3599997       4.21049437E-12
  -14.3500004       2.38140540E-12
  -14.3400002      -9.16860229E-13
  -14.3299999      -5.14532904E-12
  -14.3199997      -9.26840549E-12
  -14.3100004      -1.19244857E-11
  -14.3000002      -1.17610444E-11
  -14.2900000      -7.87572264E-12
  -14.2799997      -2.51129656E-13
  -14.2700005       9.96133384E-12
  -14.2600002       2.04457996E-11
  -14.2500000       2.80976509E-11
  -14.2399998       2.97549832E-11
  -14.2299995       2.31557187E-11
  -14.2200003       7.87573305E-12
  -14.2100000      -1.40471974E-11
  -14.1999998      -3.80755288E-11
  -14.1899996      -5.78810715E-11
  -14.1800003      -6.67598685E-11
  -14.1700001      -5.94924665E-11
  -14.1599998      -3.41898940E-11
  -14.1499996       6.42619898E-12
  -14.1400003       5.48029365E-11
  -14.1300001       9.96704733E-11
  -14.1199999       1.28425284E-10
  -14.1099997       1.30326944E-10
  -14.1000004       9.97349703E-11
  -14.0900002       3.84841811E-11
  -14.0799999      -4.34097792E-11
  -14.0699997      -1.29144639E-10
  -14.0600004      -1.98527500E-10
  -14.0500002      -2.32683539E-10
  -14.0400000      -2.18951024E-10
  -14.0299997      -1.54648933E-10
  -14.0200005      -4.86153132E-11
  -14.0100002       8.00626093E-11
  -14.0000000       2.05962608E-10
  -13.9899998       3.02953301E-10
  -13.9799995       3.50104362E-10
  -13.9700003       3.36304984E-10
  -13.9600000       2.62377065E-10
  -13.9499998       1.40199324E-10
  -13.9399996      -1.07466336E-11
  -13.9300003      -1.68194486E-10
  -13.9200001      -3.11671494E-10
  -13.9099998      -4.25382285E-10
  -13.8999996      -4.98622921E-10
  -13.8900003      -5.23966204E-10
  -13.8800001      -4.94464636E-10
  -13.8699999      -4.01706918E-10
  -13.8599997      -2.36490189E-10
  -13.8500004       6.97573943E-12
  -13.8400002       3.23896188E-10
  -13.8299999       6.90814905E-10
  -13.8199997       1.05995257E-09
  -13.8100004       1.35944145E-09
  -13.8000002       1.50195734E-09
  -13.7900000       1.40212264E-09
  -13.7799997       1.00010156E-09
  -13.7700005       2.86160901E-10
  -13.7600002      -6.80799639E-10
  -13.7500000      -1.76772297E-09
  -13.7399998      -2.77969248E-09
  -13.7299995      -3.49081497E-09
  -13.7200003      -3.68956665E-09
  -13.7100000      -3.22969540E-09
  -13.6999998      -2.07475681E-09
  -13.6899996      -3.24353155E-10
  -13.6800003       1.78702397E-09
  -13.6700001       3.92157240E-09
  -13.6599998       5.69597258E-09
  -13.6499996       6.75413636E-09
  -13.6400003       6.83903334E-09
  -13.6300001       5.84687010E-09
  -13.6199999       3.85088672E-09
  -13.6099997       1.08899534E-09
  -13.6000004      -2.08133288E-09
  -13.5900002      -5.24843191E-09
  -13.5799999      -8.01511923E-09
  -13.5699997      -1.00530144E-08
  -13.5600004      -1.11302683E-08
  -13.5500002      -1.11097451E-08
  -13.5400000      -9.92582994E-09
  -13.5299997      -7.55560592E-09
  -13.5200005      -4.00499012E-09
  -13.5100002       6.75248635E-10
  -13.5000000       6.33825703E-09
  -13.4899998       1.26652857E-08
  -13.4799995       1.90908569E-08
  -13.4700003       2.47640486E-08
  -13.4600000       2.85810771E-08
  -13.4499998       2.93125577E-08
  -13.4399996       2.58259334E-08
  -13.4300003       1.73747114E-08
  -13.4200001       3.89813204E-09
  -13.4099998      -1.37399745E-08
  -13.3999996      -3.36544552E-08
  -13.3900003      -5.30376099E-08
  -13.3800001      -6.84795438E-08
  -13.3699999      -7.64852928E-08
  -13.3599997      -7.41128332E-08
  -13.3500004      -5.96244902E-08
  -13.3400002      -3.30166614E-08
  -13.3299999       3.69348507E-09
  -13.3199997       4.65014267E-08
  -13.3100004       8.98099941E-08
  -13.3000002       1.27135422E-07
  -13.2900000       1.52031376E-07
  -13.2799997       1.59086056E-07
  -13.2700005       1.44832214E-07
  -13.2600002       1.08425155E-07
  -13.2500000       5.19823082E-08
  -13.2399998      -1.94640126E-08
  -13.2299995      -9.83949633E-08
  -13.2200003      -1.75552401E-07
  -13.2100000      -2.40915995E-07
  -13.1999998      -2.84804401E-07
  -13.1899996      -2.98998884E-07
  -13.1800003      -2.77802314E-07
  -13.1700001      -2.18944479E-07
  -13.1599998      -1.24269363E-07
  -13.1499996      -1.13330359E-10
  -13.1400003       1.42726137E-07
  -13.1300001       2.89505607E-07
  -13.1199999       4.22621241E-07
  -13.1099997       5.23279766E-07
  -13.1000004       5.73681689E-07
  -13.0900002       5.59544048E-07
  -13.0799999       4.72650214E-07
  -13.0699997       3.13056546E-07
  -13.0600004       9.05069797E-08
  -13.0500002      -1.75331834E-07
  -13.0400000      -4.56065749E-07
  -13.0299997      -7.17281239E-07
  -13.0200005      -9.22534468E-07
  -13.0100002      -1.03819889E-06
  -13.0000000      -1.03849106E-06
  -12.9899998      -9.09914831E-07
  -12.9799995      -6.54395421E-07
  -12.9700003      -2.90471775E-07
  -12.9600000       1.47690272E-07
  -12.9499998       6.13518864E-07
  -12.9399996       1.05307799E-06
  -12.9300003       1.41131648E-06
  -12.9200001       1.63872789E-06
  -12.9099998       1.69754901E-06
  -12.8999996       1.56678482E-06
  -12.8900003       1.24549808E-06
  -12.8800001       7.54007885E-07
  -12.8699999       1.32946667E-07
  -12.8599997      -5.59722821E-07
  -12.8500004      -1.25350687E-06
  -12.8400002      -1.87162721E-06
  -12.8299999      -2.33834453E-06
  -12.8199997      -2.58686850E-06
  -12.8100004      -2.56731505E-06
  -12.8000002      -2.25399822E-06
  -12.7900000      -1.65125209E-06
  -12.7799997      -7.96899940E-07
  -12.7700005       2.37561608E-07
  -12.7600002       1.35070536E-06
  -12.7500000       2.41913358E-06
  -12.7399998       3.30947728E-06
  -12.7299995       3.89351499E-06
  -12.7200003       4.06485151E-06
  -12.7100000       3.75503828E-06
  -12.6999998       2.94700544E-06
  -12.6899996       1.68326869E-06
  -12.6800003       6.75130494E-08
  -12.6700001      -1.74166917E-06
  -12.6599998      -3.54463509E-06
  -12.6499996      -5.12089082E-06
  -12.6400003      -6.25359826E-06
  -12.6300001      -6.75545334E-06
  -12.6199999      -6.49287631E-06
  -12.6099997      -5.40557949E-06
  -12.6000004      -3.51903168E-06
  -12.5900002      -9.48624290E-07
  -12.5799999       2.10538815E-06
  -12.5699997       5.37156257E-06
  -12.5600004       8.52819176E-06
  -12.5500002       1.12300731E-05
  -12.5400000       1.31386587E-05
  -12.5299997       1.39534495E-05
  -12.5200005       1.34425891E-05
  -12.5100002       1.14700397E-05
  -12.5000000       8.01750593E-06
  -12.4899998       3.19939136E-06
  -12.4799995      -2.73162073E-06
  -12.4700003      -9.38908670E-06
  -12.4600000      -1.62686101E-05
  -12.4499998      -2.27745659E-05
  -12.4399996      -2.82571164E-05
  -12.4300003      -3.20565996E-05
  -12.4200001      -3.35528930E-05
  -12.4099998      -3.22143751E-05
  -12.3999996      -2.76435512E-05
  -12.3900003      -1.96131114E-05
  -12.3800001      -8.09062476E-06
  -12.3699999       6.75162346E-06
  -12.3599997       2.45422780E-05
  -12.3500004       4.47305611E-05
  -12.3400002       6.66180276E-05
  -12.3299999       8.93989854E-05
  -12.3199997       1.12204812E-04
  -12.3100004       1.34149450E-04
  -12.3000002       1.54371082E-04
  -12.2900000       1.72068176E-04
  -12.2799997       1.86528094E-04
  -12.2700005       1.97148678E-04
  -12.2600002       2.03449934E-04
  -12.2500000       2.05078060E-04
  -12.2399998       2.01805073E-04
  -12.2299995       1.93517873E-04
  -12.2200003       1.80206291E-04
  -12.2100000       1.61945471E-04
  -12.1999998       1.38874428E-04
  -12.1899996       1.11175323E-04
  -12.1800003       7.90555132E-05
  -12.1700001       4.27301165E-05
  -12.1599998       2.41402631E-06
  -12.1499996      -4.16785915E-05
  -12.1400003      -8.93283650E-05
  -12.1300001      -1.40292948E-04
  -12.1199999      -1.94286287E-04
  -12.1099997      -2.50951562E-04
  -12.1000004      -3.09835246E-04
  -12.0900002      -3.70364927E-04
  -12.0799999      -4.31833323E-04
  -12.0699997      -4.93391126E-04
  -12.0600004      -5.54052414E-04
  -12.0500002      -6.12704316E-04
  -12.0400000      -6.68131397E-04
  -12.0299997      -7.19041564E-04
  -12.0200005      -7.64096680E-04
  -12.0100002      -8.01949587E-04
  -12.0000000      -8.31275771E-04
  -11.9899998      -8.50813172E-04
  -11.9799995      -8.59397464E-04
  -11.9700003      -8.56003375E-04
  -11.9600000      -8.39781424E-04
  -11.9499998      -8.10101046E-04
  -11.9399996      -7.66582030E-04
  -11.9300003      -7.09127402E-04
  -11.9200001      -6.37943565E-04
  -11.9099998      -5.53546939E-04
  -11.8999996      -4.56755195E-04
  -11.8900003      -3.48661386E-04
  -11.8800001      -2.30593389E-04
  -11.8699999      -1.04061219E-04
  -11.8599997       2.93091416E-05
  -11.8500004       1.67836944E-04
  -11.8400002       3.09854368E-04
  -11.8299999       4.53758490E-04
  -11.8199997       5.98058861E-04
  -11.8100004       7.41409487E-04
  -11.8000002       8.82624357E-04
  -11.7900000       1.02068600E-03
  -11.7799997       1.15473452E-03
  -11.7700005       1.28405250E-03
  -11.7600002       1.40803866E-03
  -11.7500000       1.52617681E-03
  -11.7399998       1.63799617E-03
  -11.7299995       1.74303353E-03
  -11.7200003       1.84078852E-03
  -11.7100000       1.93067919E-03
  -11.6999998       2.01200857E-03
  -11.6899996       2.08392623E-03
  -11.6800003       2.14541354E-03
  -11.6700001       2.19526538E-03
  -11.6599998       2.23211013E-03
  -11.6499996       2.25442555E-03
  -11.6400003       2.26058508E-03
  -11.6300001       2.24891724E-03
  -11.6199999       2.21777055E-03
  -11.6099997       2.16559623E-03
  -11.6000004       2.09102803E-03
  -11.5900002       1.99295557E-03
  -11.5799999       1.87059818E-03
  -11.5699997       1.72355783E-03
  -11.5600004       1.55186199E-03
  -11.5500002       1.35598623E-03
  -11.5400000       1.13685534E-03
  -11.5299997       8.95823352E-04
  -11.5200005       6.34646218E-04
  -11.5100002       3.55426106E-04
  -11.5000000       6.05476889E-05
  -11.4899998      -2.47390650E-04
  -11.4799995      -5.65663213E-04
  -11.4700003      -8.91490956E-04
  -11.4600000      -1.22212816E-03
  -11.4499998      -1.55494083E-03
  -11.4399996      -1.88747502E-03
  -11.4300003      -2.21752492E-03
  -11.4200001      -2.54317909E-03
  -11.4099998      -2.86285882E-03
  -11.3999996      -3.17533687E-03
  -11.3900003      -3.47973686E-03
  -11.3800001      -3.77551676E-03
  -11.3699999      -4.06243093E-03
  -11.3599997      -4.34047589E-03
  -11.3500004      -4.60982881E-03
  -11.3400002      -4.87077236E-03
  -11.3299999      -5.12361713E-03
  -11.3199997      -5.36862714E-03
  -11.3100004      -5.60595328E-03
  -11.3000002      -5.83557505E-03
  -11.2900000      -6.05725963E-03
  -11.2799997      -6.27052458E-03
  -11.2700005      -6.47463975E-03
  -11.2600002      -6.66861888E-03
  -11.2500000      -6.85124239E-03
  -11.2399998      -7.02110538E-03
  -11.2299995      -7.17664277E-03
  -11.2200003      -7.31621822E-03
  -11.2100000      -7.43817678E-03
  -11.1999998      -7.54093332E-03
  -11.1899996      -7.62304291E-03
  -11.1800003      -7.68328737E-03
  -11.1700001      -7.72073865E-03
  -11.1599998      -7.73481978E-03
  -11.1499996      -7.72534311E-03
  -11.1400003      -7.69254053E-03
  -11.1300001      -7.63705932E-03
  -11.1199999      -7.55994208E-03
  -11.1099997      -7.46260770E-03
  -11.1000004      -7.34678889E-03
  -11.0900002      -7.21447496E-03
  -11.0799999      -7.06784427E-03
  -11.0699997      -6.90918462E-03
  -11.0600004      -6.74082246E-03
  -11.0500002      -6.56503765E-03
  -11.0400000      -6.38398947E-03
  -11.0299997      -6.19964395E-03
  -11.0200005      -6.01370307E-03
  -11.0100002      -5.82755590E-03
  -11.0000000      -5.64222271E-03
  -10.9899998      -5.45833679E-03
  -10.9799995      -5.27612399E-03
  -10.9700003      -5.09542692E-03
  -10.9600000      -4.91571613E-03
  -10.9499998      -4.73615481E-03
  -10.9399996      -4.55565006E-03
  -10.9300003      -4.37293435E-03
  -10.9200001      -4.18664468E-03
  -10.9099998      -3.99539899E-03
  -10.8999996      -3.79787385E-03
  -10.8900003      -3.59285669E-03
  -10.8800001      -3.37929884E-03
  -10.8699999      -3.15634371E-03
  -10.8599997      -2.92333984E-03
  -10.8500004      -2.67983461E-03
  -10.8400002      -2.42556911E-03
  -10.8299999      -2.16044113E-03
  -10.8199997      -1.88449083E-03
  -10.8100004      -1.59786316E-03
  -10.8000002      -1.30079011E-03
  -10.7900000      -9.93560767E-04
  -10.7799997      -6.76504860E-04
  -10.7700005      -3.49982874E-04
  -10.7600002      -1.43620946E-05
  -10.7500000       3.29983945E-04
  -10.7399998       6.82702404E-04
  -10.7299995       1.04346406E-03
  -10.7200003       1.41199259E-03
  -10.7100000       1.78807427E-03
  -10.6999998       2.17156624E-03
  -10.6899996       2.56241183E-03
  -10.6800003       2.96063628E-03
  -10.6700001       3.36634950E-03
  -10.6599998       3.77972121E-03
  -10.6499996       4.20098379E-03
  -10.6400003       4.63039568E-03
  -10.6300001       5.06823929E-03
  -10.6199999       5.51479217E-03
  -10.6099997       5.97031740E-03
  -10.6000004       6.43504551E-03
  -10.5900002       6.90916879E-03
  -10.5799999       7.39282882E-03
  -10.5699997       7.88610801E-03
  -10.5600004       8.38902127E-03
  -10.5500002       8.90149549E-03
  -10.5400000       9.42336023E-03
  -10.5299997       9.95434262E-03
  -10.5200005       1.04940021E-02
  -10.5100002       1.10417409E-02
  -10.5000000       1.15967458E-02
  -10.4899998       1.21579869E-02
  -10.4799995       1.27241602E-02
  -10.4700003       1.32936919E-02
  -10.4600000       1.38647249E-02
  -10.4499998       1.44351125E-02
  -10.4399996       1.50024509E-02
  -10.4300003       1.55640747E-02
  -10.4200001       1.61171257E-02
  -10.4099998       1.66585669E-02
  -10.3999996       1.71852615E-02
  -10.3900003       1.76939685E-02
  -10.3800001       1.81814525E-02
  -10.3699999       1.86444968E-02
  -10.3599997       1.90799870E-02
  -10.3500004       1.94849502E-02
  -10.3400002       1.98566709E-02
  -10.3299999       2.01927014E-02
  -10.3199997       2.04910059E-02
  -10.3100004       2.07499731E-02
  -10.3000002       2.09685378E-02
  -10.2900000       2.11461782E-02
  -10.2799997       2.12829784E-02
  -10.2700005       2.13796366E-02
  -10.2600002       2.14374494E-02
  -10.2500000       2.14582924E-02
  -10.2399998       2.14445964E-02
  -10.2299995       2.13992745E-02
  -10.2200003       2.13256795E-02
  -10.2100000       2.12275479E-02
  -10.1999998       2.11089291E-02
  -10.1899996       2.09741220E-02
  -10.1800003       2.08276138E-02
  -10.1700001       2.06739996E-02
  -10.1599998       2.05178838E-02
  -10.1499996       2.03638002E-02
  -10.1400003       2.02161036E-02
  -10.1300001       2.00788677E-02
  -10.1199999       1.99557729E-02
  -10.1099997       1.98500194E-02
  -10.1000004       1.97642464E-02
  -10.0900002       1.97004862E-02
  -10.0799999       1.96601450E-02
  -10.0699997       1.96440183E-02
  -10.0600004       1.96523033E-02
  -10.0500002       1.96847152E-02
  -10.0400000       1.97405033E-02
  -10.0299997       1.98185071E-02
  -10.0200005       1.99173298E-02
  -10.0100002       2.00352669E-02
  -10.0000000       2.01704465E-02
  -9.98999977       2.03208160E-02
  -9.97999954       2.04842240E-02
  -9.97000027       2.06584334E-02
  -9.96000004       2.08412055E-02
  -9.94999981       2.10304130E-02
  -9.93999958       2.12240592E-02
  -9.93000031       2.14204621E-02
  -9.92000008       2.16183122E-02
  -9.90999985       2.18168199E-02
  -9.89999962       2.20157430E-02
  -9.89000034       2.22154912E-02
  -9.88000011       2.24171337E-02
  -9.86999989       2.26223543E-02
  -9.85999966       2.28334460E-02
  -9.85000038       2.30532605E-02
  -9.84000015       2.32850350E-02
  -9.82999992       2.35323478E-02
  -9.81999969       2.37989947E-02
  -9.81000042       2.40888149E-02
  -9.80000019       2.44056843E-02
  -9.78999996       2.47533396E-02
  -9.77999973       2.51353309E-02
  -9.77000046       2.55549010E-02
  -9.76000023       2.60149650E-02
  -9.75000000       2.65180282E-02
  -9.73999977       2.70661134E-02
  -9.72999954       2.76607089E-02
  -9.72000027       2.83027031E-02
  -9.71000004       2.89923325E-02
  -9.69999981       2.97291446E-02
  -9.68999958       3.05118971E-02
  -9.68000031       3.13385427E-02
  -9.67000008       3.22062857E-02
  -9.65999985       3.31114382E-02
  -9.64999962       3.40495184E-02
  -9.64000034       3.50152366E-02
  -9.63000011       3.60025689E-02
  -9.61999989       3.70047688E-02
  -9.60999966       3.80144492E-02
  -9.60000038       3.90236713E-02
  -9.59000015       4.00240496E-02
  -9.57999992       4.10069041E-02
  -9.56999969       4.19633612E-02
  -9.56000042       4.28845137E-02
  -9.55000019       4.37616296E-02
  -9.53999996       4.45862226E-02
  -9.52999973       4.53503057E-02
  -9.52000046       4.60464135E-02
  -9.51000023       4.66678105E-02
  -9.50000000       4.72085960E-02
  -9.48999977       4.76638600E-02
  -9.47999954       4.80296165E-02
  -9.47000027       4.83031571E-02
  -9.46000004       4.84829657E-02
  -9.44999981       4.85687889E-02
  -9.43999958       4.85617854E-02
  -9.43000031       4.84645404E-02
  -9.42000008       4.82810885E-02
  -9.40999985       4.80170026E-02
  -9.39999962       4.76792455E-02
  -9.39000034       4.72763255E-02
  -9.38000011       4.68181148E-02
  -9.36999989       4.63158675E-02
  -9.35999966       4.57819887E-02
  -9.35000038       4.52299379E-02
  -9.34000015       4.46740091E-02
  -9.32999992       4.41291146E-02
  -9.31999969       4.36106101E-02
  -9.31000042       4.31340374E-02
  -9.30000019       4.27149013E-02
  -9.28999996       4.23685201E-02
  -9.27999973       4.21099812E-02
  -9.27000046       4.19538878E-02
  -9.26000023       4.19142805E-02
  -9.25000000       4.20046374E-02
  -9.23999977       4.22374234E-02
  -9.22999954       4.26242277E-02
  -9.22000027       4.31754291E-02
  -9.21000004       4.39001061E-02
  -9.19999981       4.48057726E-02
  -9.18999958       4.58982103E-02
  -9.18000031       4.71816845E-02
  -9.17000008       4.86584380E-02
  -9.15999985       5.03290966E-02
  -9.14999962       5.21922335E-02
  -9.14000034       5.42447157E-02
  -9.13000011       5.64814731E-02
  -9.11999989       5.88957295E-02
  -9.10999966       6.14787973E-02
  -9.10000038       6.42202049E-02
  -9.09000015       6.71077967E-02
  -9.07999992       7.01276958E-02
  -9.06999969       7.32645541E-02
  -9.06000042       7.65017048E-02
  -9.05000019       7.98208266E-02
  -9.03999996       8.32028016E-02
  -9.02999973       8.66273642E-02
  -9.02000046       9.00733769E-02
  -9.01000023       9.35189500E-02
  -9.00000000       9.69418213E-02
  -8.98999977      0.100319281    
  -8.97999954      0.103628509    
  -8.97000027      0.106846943    
  -8.96000004      0.109952219    
  -8.94999981      0.112922497    
  -8.93999958      0.115736879    
  -8.93000031      0.118375205    
  -8.92000008      0.120818712    
  -8.90999985      0.123049743    
  -8.89999962      0.125052243    
  -8.89000034      0.126811758    
  -8.88000011      0.128315628    
  -8.86999989      0.129552945    
  -8.85999966      0.130514845    
  -8.85000038      0.131194010    
  -8.84000015      0.131585419    
  -8.82999992      0.131685883    
  -8.81999969      0.131493956    
  -8.81000042      0.131010294    
  -8.80000019      0.130237311    
  -8.78999996      0.129179463    
  -8.77999973      0.127843127    
  -8.77000046      0.126236662    
  -8.76000023      0.124370202    
  -8.75000000      0.122255661    
  -8.73999977      0.119906552    
  -8.72999954      0.117337994    
  -8.72000027      0.114566177    
  -8.71000004      0.111608468    
  -8.69999981      0.108483031    
  -8.68999958      0.105208710    
  -8.68000031      0.101804867    
  -8.67000008       9.82908979E-02
  -8.65999985       9.46865752E-02
  -8.64999962       9.10109952E-02
  -8.64000034       8.72833952E-02
  -8.63000011       8.35219547E-02
  -8.61999989       7.97443911E-02
  -8.60999966       7.59672001E-02
  -8.60000038       7.22060949E-02
  -8.59000015       6.84756339E-02
  -8.57999992       6.47891909E-02
  -8.56999969       6.11588806E-02
  -8.56000042       5.75957038E-02
  -8.55000019       5.41093349E-02
  -8.53999996       5.07081784E-02
  -8.52999973       4.73996587E-02
  -8.52000046       4.41894978E-02
  -8.51000023       4.10822108E-02
  -8.50000000       3.80814746E-02
  -8.48999977       3.51896174E-02
  -8.47999954       3.24077941E-02
  -8.47000027       2.97366474E-02
  -8.46000004       2.71755084E-02
  -8.44999981       2.47232914E-02
  -8.43999958       2.23783385E-02
  -8.43000031       2.01381668E-02
  -8.42000008       1.80000477E-02
  -8.40999985       1.59608293E-02
  -8.39999962       1.40175112E-02
  -8.39000034       1.21670179E-02
  -8.38000011       1.04064653E-02
  -8.36999989       8.73345416E-03
  -8.35999966       7.14587932E-03
  -8.35000038       5.64239267E-03
  -8.34000015       4.22229804E-03
  -8.32999992       2.88561429E-03
  -8.31999969       1.63290254E-03
  -8.31000042       4.65656165E-04
  -8.30000019      -6.13555952E-04
  -8.28999996      -1.60193292E-03
  -8.27999973      -2.49530817E-03
  -8.27000046      -3.28872749E-03
  -8.26000023      -3.97668593E-03
  -8.25000000      -4.55257716E-03
  -8.23999977      -5.00932010E-03
  -8.22999954      -5.33946604E-03
  -8.22000027      -5.53451804E-03
  -8.21000004      -5.58614871E-03
  -8.19999981      -5.48546249E-03
  -8.18999958      -5.22343908E-03
  -8.18000031      -4.79054591E-03
  -8.17000008      -4.17736359E-03
  -8.15999985      -3.37424269E-03
  -8.14999962      -2.37192237E-03
  -8.14000034      -1.16087392E-03
  -8.13000011       2.68266391E-04
  -8.11999989       1.92372256E-03
  -8.10999966       3.81345372E-03
  -8.10000038       5.94451698E-03
  -8.09000015       8.32320005E-03
  -8.07999992       1.09546054E-02
  -8.06999969       1.38423741E-02
  -8.06000042       1.69892311E-02
  -8.05000019       2.03966461E-02
  -8.03999996       2.40647290E-02
  -8.02999973       2.79915817E-02
  -8.02000046       3.21744345E-02
  -8.01000023       3.66086289E-02
  -8.00000000       4.12881412E-02
  -7.98999977       4.62053604E-02
  -7.98000002       5.13512827E-02
  -7.96999979       5.67159317E-02
  -7.96000004       6.22873940E-02
  -7.94999981       6.80530518E-02
  -7.94000006       7.39992857E-02
  -7.92999983       8.01109597E-02
  -7.92000008       8.63720030E-02
  -7.90999985       9.27658305E-02
  -7.90000010       9.92745757E-02
  -7.88999987      0.105880000    
  -7.88000011      0.112563096    
  -7.86999989      0.119305253    
  -7.86000013      0.126086935    
  -7.84999990      0.132889271    
  -7.84000015      0.139693633    
  -7.82999992      0.146481216    
  -7.82000017      0.153234020    
  -7.80999994      0.159934431    
  -7.80000019      0.166565984    
  -7.78999996      0.173112407    
  -7.78000021      0.179558843    
  -7.76999998      0.185891315    
  -7.76000023      0.192096755    
  -7.75000000      0.198163882    
  -7.73999977      0.204082042    
  -7.73000002      0.209842533    
  -7.71999979      0.215437487    
  -7.71000004      0.220859766    
  -7.69999981      0.226104364    
  -7.69000006      0.231166944    
  -7.67999983      0.236044824    
  -7.67000008      0.240736768    
  -7.65999985      0.245242283    
  -7.65000010      0.249563068    
  -7.63999987      0.253701895    
  -7.63000011      0.257663399    
  -7.61999989      0.261452556    
  -7.61000013      0.265076458    
  -7.59999990      0.268543601    
  -7.59000015      0.271862268    
  -7.57999992      0.275042713    
  -7.57000017      0.278095752    
  -7.55999994      0.281032830    
  -7.55000019      0.283865839    
  -7.53999996      0.286607534    
  -7.53000021      0.289270371    
  -7.51999998      0.291867286    
  -7.51000023      0.294410944    
  -7.50000000      0.296914786    
  -7.48999977      0.299391985    
  -7.48000002      0.301855206    
  -7.46999979      0.304317623    
  -7.46000004      0.306791574    
  -7.44999981      0.309289515    
  -7.44000006      0.311823130    