  -16.0000000       0.00000000    
  -15.9899998       0.00000000    
  -15.9799995       0.00000000    
  -15.9700003       0.00000000    
  -15.9600000       0.00000000    
  -15.9499998       0.00000000    
  -15.9399996       0.00000000    
  -15.9300003       0.00000000    
  -15.9200001       0.00000000    
  -15.9099998       0.00000000    
  -15.8999996       0.00000000    
  -15.8900003       0.00000000    
  -15.8800001       1.24715563E-43
  -15.8699999       1.93519318E-42
  -15.8599997      -1.45188534E-41
  -15.8500004      -6.00973471E-40
  -15.8400002      -7.62475641E-39
  -15.8299999      -6.18821978E-38
  -15.8199997      -3.77941317E-37
  -15.8100004      -1.87145047E-36
  -15.8000002      -7.84030482E-36
  -15.7900000      -2.85264900E-35
  -15.7799997      -9.15610228E-35
  -15.7700005      -2.61258556E-34
  -15.7600002      -6.63196464E-34
  -15.7500000      -1.48712525E-33
  -15.7399998      -2.88971115E-33
  -15.7299995      -4.64618036E-33
  -15.7200003      -5.37218808E-33
  -15.7100000      -1.31728505E-33
  -15.6999998       1.46509619E-32
  -15.6899996       5.21065730E-32
  -15.6800003       1.17194859E-31
  -15.6700001       1.99043120E-31
  -15.6599998       2.49535586E-31
  -15.6499996       1.66768665E-31
  -15.6400003      -1.94797317E-31
  -15.6300001      -9.56741341E-31
  -15.6199999      -2.07275671E-30
  -15.6099997      -3.13455198E-30
  -15.6000004      -3.23037095E-30
  -15.5900002      -1.03673223E-30
  -15.5799999       4.65680607E-30
  -15.5699997       1.38966408E-29
  -15.5600004       2.41641420E-29
  -15.5500002       2.92111783E-29
  -15.5400000       1.91845824E-29
  -15.5299997      -1.65397163E-29
  -15.5200005      -8.24253118E-29
  -15.5100002      -1.65429257E-28
  -15.5000000      -2.22072554E-28
  -15.4899998      -1.72834506E-28
  -15.4799995       7.94244782E-29
  -15.4700003       5.86878425E-28
  -15.4600000       1.24314965E-27
  -15.4499998       1.65571677E-27
  -15.4399996       1.11570845E-27
  -15.4300003      -1.15545050E-27
  -15.4200001      -5.32961091E-27
  -15.4099998      -9.94817773E-27
  -15.3999996      -1.11251767E-26
  -15.3900003      -3.12867705E-27
  -15.3800001       1.83488708E-26
  -15.3699999       4.99266061E-26
  -15.3599997       7.36581491E-26
  -15.3500004       5.57205553E-26
  -15.3400002      -4.06866814E-26
  -15.3299999      -2.22665235E-25
  -15.3199997      -4.22132487E-25
  -15.3100004      -4.65875761E-25
  -15.3000002      -1.09736604E-25
  -15.2900000       8.16228018E-25
  -15.2799997       2.15300888E-24
  -15.2700005       3.15399784E-24
  -15.2600002       2.45700550E-24
  -15.2500000      -1.41415160E-24
  -15.2399998      -8.85048845E-24
  -15.2299995      -1.75204745E-23
  -15.2200003      -2.12294050E-23
  -15.2100000      -1.08205676E-23
  -15.1999998       2.13813475E-23
  -15.1899996       7.34356486E-23
  -15.1800003       1.24708938E-22
  -15.1700001       1.32267715E-22
  -15.1599998       4.13982875E-23
  -15.1499996      -1.83456243E-22
  -15.1400003      -5.10719304E-22
  -15.1300001      -7.96594670E-22
  -15.1199999      -7.80165361E-22
  -15.1099997      -1.61776780E-22
  -15.1000004       1.21305492E-21
  -15.0900002       3.09863695E-21
  -15.0799999       4.64108908E-21
  -15.0699997       4.40998782E-21
  -15.0600004       8.66636986E-22
  -15.0500002      -6.66430824E-21
  -15.0400000      -1.67432439E-20
  -15.0299997      -2.48934092E-20
  -15.0200005      -2.39172731E-20
  -15.0100002      -6.30050184E-21
  -15.0000000       3.11213684E-20
  -14.9899998       8.13983204E-20
  -14.9799995       1.23429668E-19
  -14.9700003       1.23647165E-19
  -14.9600000       4.69425321E-20
  -14.9499998      -1.22688036E-19
  -14.9399996      -3.56999520E-19
  -14.9300003      -5.65843651E-19
  -14.9200001      -6.03481817E-19
  -14.9099998      -3.13143697E-19
  -14.8999996       3.88292952E-19
  -14.8900003       1.40609806E-18
  -14.8800001       2.39090145E-18
  -14.8699999       2.75368302E-18
  -14.8599997       1.82912815E-18
  -14.8500004      -8.01765643E-19
  -14.8400002      -4.90194138E-18
  -14.8299999      -9.25158336E-18
  -14.8199997      -1.16425605E-17
  -14.8100004      -9.41231614E-18
  -14.8000002      -5.82502552E-19
  -14.7900000       1.46192940E-17
  -14.7799997       3.24254238E-17
  -14.7700005       4.52135963E-17
  -14.7600002       4.30235529E-17
  -14.7500000       1.72542812E-17
  -14.7399998      -3.40351702E-17
  -14.7299995      -1.00979364E-16
  -14.7200003      -1.59646586E-16
  -14.7100000      -1.75540114E-16
  -14.6999998      -1.14499333E-16
  -14.6899996       4.01338471E-17
  -14.6800003       2.68994159E-16
  -14.6700001       5.05178073E-16
  -14.6599998       6.39329881E-16
  -14.6499996       5.48130902E-16
  -14.6400003       1.45382035E-16
  -14.6300001      -5.56430501E-16
  -14.6199999      -1.39767223E-15
  -14.6099997      -2.06605206E-15
  -14.6000004      -2.15931695E-15
  -14.5900002      -1.32260489E-15
  -14.5799999       5.64398011E-16
  -14.5699997       3.21082005E-15
  -14.5600004       5.83411688E-15
  -14.5500002       7.25999393E-15
  -14.5400000       6.24683495E-15
  -14.5299997       1.99953456E-15
  -14.5200005      -5.26315780E-15
  -14.5100002      -1.39113574E-14
  -14.5000000      -2.09298572E-14
  -14.4899998      -2.25524996E-14
  -14.4799995      -1.55118617E-14
  -14.4700003       1.34980439E-15
  -14.4600000       2.56291756E-14
  -14.4499998       5.07514766E-14
  -14.4399996       6.68241301E-14
  -14.4300003       6.32330559E-14
  -14.4200001       3.26551123E-14
  -14.4099998      -2.45587987E-14
  -14.3999996      -9.72579425E-14
  -14.3900003      -1.63402847E-13
  -14.3800001      -1.94282172E-13
  -14.3699999      -1.63081381E-13
  -14.3599997      -5.61354721E-14
  -14.3500004       1.16509260E-13
  -14.3400002       3.15613421E-13
  -14.3299999       4.76402229E-13
  -14.3199997       5.23386889E-13
  -14.3100004       3.94814606E-13
  -14.3000002       7.09755741E-14
  -14.2900000      -4.02927474E-13
  -14.2799997      -9.09859536E-13
  -14.2700005      -1.27815206E-12
  -14.2600002      -1.32479889E-12
  -14.2500000      -9.17832650E-13
  -14.2399998      -4.14153236E-14
  -14.2299995       1.15906330E-12
  -14.2200003       2.37466232E-12
  -14.2100000       3.18791976E-12
  -14.1999998       3.18382972E-12
  -14.1899996       2.09502923E-12
  -14.1800003      -5.92689485E-14
  -14.1700001      -2.89091993E-12
  -14.1599998      -5.66242843E-12
  -14.1499996      -7.43159527E-12
  -14.1400003      -7.30781061E-12
  -14.1300001      -4.76458760E-12
  -14.1199999       8.14553706E-14
  -14.1099997       6.32790174E-12
  -14.1000004       1.23643856E-11
  -14.0900002       1.62036010E-11
  -14.0799999       1.60224559E-11
  -14.0699997       1.07901734E-11
  -14.0600004       8.01187567E-13
  -14.0500002      -1.20826023E-11
  -14.0400000      -2.46281207E-11
  -14.0299997      -3.29073678E-11
  -14.0200005      -3.33509678E-11
  -14.0100002      -2.39333067E-11
  -14.0000000      -5.14766875E-12
  -13.9899998       1.95778480E-11
  -13.9799995       4.42722248E-11
  -13.9700003       6.16702037E-11
  -13.9600000       6.51118187E-11
  -13.9499998       5.06458139E-11
  -13.9399996       1.87411371E-11
  -13.9300003      -2.49839212E-11
  -13.9200001      -7.04170125E-11
  -13.9099998      -1.05050052E-10
  -13.8999996      -1.17156285E-10
  -13.8900003      -9.92972857E-11
  -13.8800001      -5.11857466E-11
  -13.8699999       1.90396900E-11
  -13.8599997       9.57551399E-11
  -13.8500004       1.59082511E-10
  -13.8400002       1.89825294E-10
  -13.8299999       1.74939341E-10
  -13.8199997       1.12040779E-10
  -13.8100004       1.15219908E-11
  -13.8000002      -1.04656360E-10
  -13.7900000      -2.07590653E-10
  -13.7799997      -2.68591455E-10
  -13.7700005      -2.67139533E-10
  -13.7600002      -1.97458508E-10
  -13.7500000      -7.16583806E-11
  -13.7399998       8.18450446E-11
  -13.7299995       2.24702437E-10
  -13.7200003       3.18470472E-10
  -13.7100000       3.35426270E-10
  -13.6999998       2.67299405E-10
  -13.6899996       1.29141753E-10
  -13.6800003      -4.33012549E-11
  -13.6700001      -2.02589737E-10
  -13.6599998      -3.02894765E-10
  -13.6499996      -3.14011012E-10
  -13.6400003      -2.31855604E-10
  -13.6300001      -8.18261708E-11
  -13.6199999       8.68231598E-11
  -13.6099997       2.14854357E-10
  -13.6000004       2.51759530E-10
  -13.5900002       1.73946191E-10
  -13.5799999      -3.51945274E-12
  -13.5699997      -2.26295052E-10
  -13.5600004      -4.13087231E-10
  -13.5500002      -4.78898587E-10
  -13.5400000      -3.63420960E-10
  -13.5299997      -5.63042182E-11
  -13.5200005       3.89252519E-10
  -13.5100002       8.60817029E-10
  -13.5000000       1.21058019E-09
  -13.4899998       1.29461231E-09
  -13.4799995       1.01802566E-09
  -13.4700003       3.73296172E-10
  -13.4600000      -5.40859413E-10
  -13.4499998      -1.52872659E-09
  -13.4399996      -2.33654474E-09
  -13.4300003      -2.71424172E-09
  -13.4200001      -2.48544052E-09
  -13.4099998      -1.60686620E-09
  -13.3999996      -1.98943126E-10
  -13.3900003       1.46466062E-09
  -13.3800001       3.01053227E-09
  -13.3699999       4.05211109E-09
  -13.3599997       4.28898428E-09
  -13.3500004       3.59284758E-09
  -13.3400002       2.05525419E-09
  -13.3299999      -1.93286723E-11
  -13.3199997      -2.17778950E-09
  -13.3100004      -3.92674426E-09
  -13.3000002      -4.85835105E-09
  -13.2900000      -4.75996531E-09
  -13.2799997      -3.67604569E-09
  -13.2700005      -1.90206673E-09
  -13.2600002       9.18735643E-11
  -13.2500000       1.79005810E-09
  -13.2399998       2.77859047E-09
  -13.2299995       2.86934076E-09
  -13.2200003       2.16223861E-09
  -13.2100000       1.02301290E-09
  -13.1999998      -2.33506946E-11
  -13.1899996      -4.58049321E-10
  -13.1800003       5.23241450E-11
  -13.1700001       1.51638135E-09
  -13.1599998       3.56528784E-09
  -13.1499996       5.51297630E-09
  -13.1400003       6.52475940E-09
  -13.1300001       5.85759619E-09
  -13.1199999       3.11027248E-09
  -13.1099997      -1.58814761E-09
  -13.1000004      -7.51377716E-09
  -13.0900002      -1.34414870E-08
  -13.0799999      -1.78904696E-08
  -13.0699997      -1.94730401E-08
  -13.0600004      -1.72644725E-08
  -13.0500002      -1.10978631E-08
  -13.0400000      -1.69880465E-09
  -13.0299997       9.39028233E-09
  -13.0200005       2.00949568E-08
  -13.0100002       2.82462427E-08
  -13.0000000       3.20703144E-08
  -12.9899998       3.06095345E-08
  -12.9799995       2.39650131E-08
  -12.9700003       1.32916487E-08
  -12.9600000       5.39040923E-10
  -12.9499998      -1.20014461E-08
  -12.9399996      -2.22291714E-08
  -12.9300003      -2.87065429E-08
  -12.9200001      -3.09448325E-08
  -12.9099998      -2.94253120E-08
  -12.8999996      -2.53510350E-08
  -12.8900003      -2.02019468E-08
  -12.8800001      -1.52265258E-08
  -12.8699999      -1.10258940E-08
  -12.8599997      -7.36561701E-09
  -12.8500004      -3.28593019E-09
  -12.8400002       2.50781107E-09
  -12.8299999       1.10824434E-08
  -12.8199997       2.27133672E-08
  -12.8100004       3.65072950E-08
  -12.8000002       5.03586435E-08
  -12.7900000       6.12975626E-08
  -12.7799997       6.61734205E-08
  -12.7700005       6.25091872E-08
  -12.7600002       4.92924919E-08
  -12.7500000       2.74628533E-08
  -12.7399998      -8.12177894E-11
  -12.7299995      -2.90103479E-08
  -12.7200003      -5.45339915E-08
  -12.7100000      -7.25818126E-08
  -12.6999998      -8.08863874E-08
  -12.6899996      -7.96539368E-08
  -12.6800003      -7.15985280E-08
  -12.6700001      -6.12710807E-08
  -12.6599998      -5.38043956E-08
  -12.6499996      -5.33651345E-08
  -12.6400003      -6.17111411E-08
  -12.6300001      -7.72528210E-08
  -12.6199999      -9.49203383E-08
  -12.6099997      -1.06944199E-07
  -12.6000004      -1.04428992E-07
  -12.5900002      -7.93858064E-08
  -12.5799999      -2.67523159E-08
  -12.5699997       5.40918030E-08
  -12.5600004       1.58699223E-07
  -12.5500002       2.77990011E-07
  -12.5400000       3.99652663E-07
  -12.5299997       5.10161726E-07
  -12.5200005       5.96894040E-07
  -12.5100002       6.49788433E-07
  -12.5000000       6.62112086E-07
  -12.4899998       6.30131183E-07
  -12.4799995       5.51800440E-07
  -12.4700003       4.24881421E-07
  -12.4600000       2.45093531E-07
  -12.4499998       4.95436625E-09
  -12.4399996      -3.06176503E-07
  -12.4300003      -7.00636292E-07
  -12.4200001      -1.18973071E-06
  -12.4099998      -1.78026880E-06
  -12.3999996      -2.47114440E-06
  -12.3900003      -3.25079122E-06
  -12.3800001      -4.09621134E-06
  -12.3699999      -4.97391829E-06
  -12.3599997      -5.84268037E-06
  -12.3500004      -6.65752214E-06
  -12.3400002      -7.37414166E-06
  -12.3299999      -7.95280175E-06
  -12.3199997      -8.36092022E-06
  -12.3100004      -8.57397572E-06
  -12.3000002      -8.57481609E-06
  -12.2900000      -8.35192259E-06
  -12.2799997      -7.89748628E-06
  -12.2700005      -7.20620710E-06
  -12.2600002      -6.27546888E-06
  -12.2500000      -5.10710515E-06
  -12.2399998      -3.71043870E-06
  -12.2299995      -2.10570556E-06
  -12.2200003      -3.26788069E-07
  -12.2100000       1.57788656E-06
  -12.1999998       3.54704275E-06
  -12.1899996       5.51101766E-06
  -12.1800003       7.39851384E-06
  -12.1700001       9.14449811E-06
  -12.1599998       1.06977768E-05
  -12.1499996       1.20267296E-05
  -12.1400003       1.31220195E-05
  -12.1300001       1.39956983E-05
  -12.1199999       1.46769053E-05
  -12.1099997       1.52050025E-05
  -12.1000004       1.56215556E-05
  -12.0900002       1.59626379E-05
  -12.0799999       1.62528740E-05
  -12.0699997       1.65020410E-05
  -12.0600004       1.67045873E-05
  -12.0500002       1.68416445E-05
  -12.0400000       1.68847873E-05
  -12.0299997       1.68004808E-05
  -12.0200005       1.65542933E-05
  -12.0100002       1.61141670E-05
  -12.0000000       1.54525078E-05
  -11.9899998       1.45472995E-05
  -11.9799995       1.33826998E-05
  -11.9700003       1.19496899E-05
  -11.9600000       1.02472713E-05
  -11.9499998       8.28434622E-06
  -11.9399996       6.08201663E-06
  -11.9300003       3.67569760E-06
  -11.9200001       1.11619579E-06
  -11.9099998      -1.53107965E-06
  -11.8999996      -4.18935360E-06
  -11.8900003      -6.77624121E-06
  -11.8800001      -9.21152514E-06
  -11.8699999      -1.14258846E-05
  -11.8599997      -1.33691083E-05
  -11.8500004      -1.50162305E-05
  -11.8400002      -1.63703098E-05
  -11.8299999      -1.74610886E-05
  -11.8199997      -1.83395914E-05
  -11.8100004      -1.90695046E-05
  -11.8000002      -1.97168138E-05
  -11.7900000      -2.03395921E-05
  -11.7799997      -2.09795908E-05
  -11.7700005      -2.16571261E-05
  -11.7600002      -2.23697116E-05
  -11.7500000      -2.30942806E-05
  -11.7399998      -2.37920685E-05
  -11.7299995      -2.44147523E-05
  -11.7200003      -2.49105251E-05
  -11.7100000      -2.52289756E-05
  -11.6999998      -2.53243161E-05
  -11.6899996      -2.51571182E-05
  -11.6800003      -2.46951549E-05
  -11.6700001      -2.39142082E-05
  -11.6599998      -2.27994769E-05
  -11.6499996      -2.13477815E-05
  -11.6400003      -1.95701759E-05
  -11.6300001      -1.74940542E-05
  -11.6199999      -1.51635932E-05
  -11.6099997      -1.26375626E-05
  -11.6000004      -9.98406813E-06
  -11.5900002      -7.27261613E-06
  -11.5799999      -4.56475300E-06
  -11.5699997      -1.90510536E-06
  -11.5600004       6.85089390E-07
  -11.5500002       3.21026982E-06
  -11.5400000       5.69777740E-06
  -11.5299997       8.19023535E-06
  -11.5200005       1.07344431E-05
  -11.5100002       1.33690019E-05
  -11.5000000       1.61131975E-05
  -11.4899998       1.89594211E-05
  -11.4799995       2.18706082E-05
  -11.4700003       2.47831231E-05
  -11.4600000       2.76142091E-05
  -11.4499998       3.02723492E-05
  -11.4399996       3.26683985E-05
  -11.4300003       3.47253153E-05
  -11.4200001       3.63851032E-05
  -11.4099998       3.76121461E-05
  -11.3999996       3.83932093E-05
  -11.3900003       3.87350410E-05
  -11.3800001       3.86606480E-05
  -11.3699999       3.82056132E-05
  -11.3599997       3.74150586E-05
  -11.3500004       3.63416293E-05
  -11.3400002       3.50441405E-05
  -11.3299999       3.35862496E-05
  -11.3199997       3.20345462E-05
  -11.3100004       3.04554560E-05
  -11.3000002       2.89109721E-05
  -11.2900000       2.74535741E-05
  -11.2799997       2.61210007E-05
  -11.2700005       2.49319764E-05
  -11.2600002       2.38836365E-05
  -11.2500000       2.29514008E-05
  -11.2399998       2.20915190E-05
  -11.2299995       2.12460363E-05
  -11.2200003       2.03496038E-05
  -11.2100000       1.93372307E-05
  -11.1999998       1.81519172E-05
  -11.1899996       1.67512262E-05
  -11.1800003       1.51119984E-05
  -11.1700001       1.32327305E-05
  -11.1599998       1.11335621E-05
  -11.1499996       8.85402369E-06
  -11.1400003       6.44914553E-06
  -11.1300001       3.98458360E-06
  -11.1199999       1.53150427E-06
  -11.1099997      -8.38190317E-07
  -11.1000004      -3.05588014E-06
  -11.0900002      -5.05934349E-06
  -11.0799999      -6.79504910E-06
  -11.0699997      -8.21983667E-06
  -11.0600004      -9.30215265E-06
  -11.0500002      -1.00228972E-05
  -11.0400000      -1.03757839E-05
  -11.0299997      -1.03669508E-05
  -11.0200005      -1.00135849E-05
  -11.0100002      -9.34142190E-06
  -11.0000000      -8.38136839E-06
  -10.9899998      -7.16576506E-06
  -10.9799995      -5.72511908E-06
  -10.9700003      -4.08619189E-06
  -10.9600000      -2.27210739E-06
  -10.9499998      -3.04661882E-07
  -10.9399996       1.79159724E-06
  -10.9300003       3.98452812E-06
  -10.9200001       6.23014603E-06
  -10.9099998       8.47033334E-06
  -10.8999996       1.06333391E-05
  -10.8900003       1.26373434E-05
  -10.8800001       1.43964344E-05
  -10.8699999       1.58278126E-05
  -10.8599997       1.68587594E-05
  -10.8500004       1.74320649E-05
  -10.8400002       1.75092464E-05
  -10.8299999       1.70715284E-05
  -10.8199997       1.61192966E-05
  -10.8100004       1.46710563E-05
  -10.8000002       1.27627527E-05
  -10.7900000       1.04479723E-05
  -10.7799997       7.79871971E-06
  -10.7700005       4.90588354E-06
  -10.7600002       1.87820558E-06
  -10.7500000      -1.16137539E-06
  -10.7399998      -4.08254436E-06
  -10.7299995      -6.75724323E-06
  -10.7200003      -9.07096910E-06
  -10.7100000      -1.09338771E-05
  -10.6999998      -1.22897591E-05
  -10.6899996      -1.31211691E-05
  -10.6800003      -1.34497441E-05
  -10.6700001      -1.33317035E-05
  -10.6599998      -1.28492766E-05
  -10.6499996      -1.20995392E-05
  -10.6400003      -1.11823565E-05
  -10.6300001      -1.01890728E-05
  -10.6199999      -9.19330796E-06
  -10.6099997      -8.24474682E-06
  -10.6000004      -7.36633501E-06
  -10.5900002      -6.55496524E-06
  -10.5799999      -5.78526533E-06
  -10.5699997      -5.01593649E-06
  -10.5600004      -4.19772960E-06
  -10.5500002      -3.28206329E-06
  -10.5400000      -2.22904919E-06
  -10.5299997      -1.01391765E-06
  -10.5200005       3.69071898E-07
  -10.5100002       1.90567073E-06
  -10.5000000       3.56358441E-06
  -10.4899998       5.29687986E-06
  -10.4799995       7.05198136E-06
  -10.4700003       8.77431739E-06
  -10.4600000       1.04147011E-05
  -10.4499998       1.19347069E-05
  -10.4399996       1.33104822E-05
  -10.4300003       1.45346457E-05
  -10.4200001       1.56160058E-05
  -10.4099998       1.65769034E-05
  -10.3999996       1.74480865E-05
  -10.3900003       1.82614494E-05
  -10.3800001       1.90412193E-05
  -10.3699999       1.97948721E-05
  -10.3599997       2.05054712E-05
  -10.3500004       2.11272436E-05
  -10.3400002       2.15860327E-05
  -10.3299999       2.17853831E-05
  -10.3199997       2.16180069E-05
  -10.3100004       2.09809350E-05
  -10.3000002       1.97917816E-05
  -10.2900000       1.80029128E-05
  -10.2799997       1.56106653E-05
  -10.2700005       1.26576615E-05
  -10.2600002       9.22771505E-06
  -10.2500000       5.43445503E-06
  -10.2399998       1.40613645E-06
  -10.2299995      -2.73034084E-06
  -10.2200003      -6.86305430E-06
  -10.2100000      -1.09040857E-05
  -10.1999998      -1.47928531E-05
  -10.1899996      -1.84940473E-05
  -10.1800003      -2.19915637E-05
  -10.1700001      -2.52804584E-05
  -10.1599998      -2.83590834E-05
  -10.1499996      -3.12230295E-05
  -10.1400003      -3.38617901E-05
  -10.1300001      -3.62581231E-05
  -10.1199999      -3.83894330E-05
  -10.1099997      -4.02300211E-05
  -10.1000004      -4.17530500E-05
  -10.0900002      -4.29315442E-05
  -10.0799999      -4.37382696E-05
  -10.0699997      -4.41451994E-05
  -10.0600004      -4.41235752E-05
  -10.0500002      -4.36458104E-05
  -10.0400000      -4.26899096E-05
  -10.0299997      -4.12463887E-05
  -10.0200005      -3.93262853E-05
  -10.0100002      -3.69680856E-05
  -10.0000000      -3.42408130E-05
  -9.98999977      -3.12408192E-05
  -9.97999954      -2.80813092E-05
  -9.97000027      -2.48753240E-05
  -9.96000004      -2.17153010E-05
  -9.94999981      -1.86539073E-05
  -9.93999958      -1.56912920E-05
  -9.93000031      -1.27730809E-05
  -9.92000008      -9.80096047E-06
  -9.90999985      -6.65459129E-06
  -9.89999962      -3.22033520E-06
  -9.89000034       5.79782920E-07
  -9.88000011       4.76587047E-06
  -9.86999989       9.29006274E-06
  -9.85999966       1.40408119E-05
  -9.85000038       1.88600352E-05
  -9.84000015       2.35682655E-05
  -9.82999992       2.79913038E-05
  -9.81999969       3.19820429E-05
  -9.81000042       3.54331896E-05
  -9.80000019       3.82798280E-05
  -9.78999996       4.04938146E-05
  -9.77999973       4.20739489E-05
  -9.77000046       4.30362925E-05
  -9.76000023       4.34078320E-05
  -9.75000000       4.32242414E-05
  -9.73999977       4.25305698E-05
  -9.72999954       4.13822854E-05
  -9.72000027       3.98440752E-05
  -9.71000004       3.79854864E-05
  -9.69999981       3.58741054E-05
  -9.68999958       3.35686527E-05
  -9.68000031       3.11150834E-05
  -9.67000008       2.85476199E-05
  -9.65999985       2.58948094E-05
  -9.64999962       2.31885533E-05
  -9.64000034       2.04724729E-05
  -9.63000011       1.78059454E-05
  -9.61999989       1.52616703E-05
  -9.60999966       1.29170094E-05
  -9.60000038       1.08420909E-05
  -9.59000015       9.08897164E-06
  -9.57999992       7.68599875E-06
  -9.56999969       6.63972924E-06
  -9.56000042       5.94364747E-06
  -9.55000019       5.59004002E-06
  -9.53999996       5.58029978E-06
  -9.52999973       5.92897231E-06
  -9.52000046       6.65954394E-06
  -9.51000023       7.79325001E-06
  -9.50000000       9.33520460E-06
  -9.48999977       1.12635080E-05
  -9.47999954       1.35262944E-05
  -9.47000027       1.60486343E-05
  -9.46000004       1.87472615E-05
  -9.44999981       2.15480268E-05
  -9.43999958       2.43991599E-05
  -9.43000031       2.72748312E-05
  -9.42000008       3.01668970E-05
  -9.40999985       3.30670300E-05
  -9.39999962       3.59456062E-05
  -9.39000034       3.87351283E-05
  -9.38000011       4.13250855E-05
  -9.36999989       4.35713373E-05
  -9.35999966       4.53180182E-05
  -9.35000038       4.64257428E-05
  -9.34000015       4.67973623E-05
  -9.32999992       4.63934230E-05
  -9.31999969       4.52327986E-05
  -9.31000042       4.33792084E-05
  -9.30000019       4.09187414E-05
  -9.28999996       3.79363701E-05
  -9.27999973       3.44993277E-05
  -9.27000046       3.06520196E-05
  -9.26000023       2.64230875E-05
  -9.25000000       2.18401165E-05
  -9.23999977       1.69455852E-05
  -9.22999954       1.18066300E-05
  -9.22000027       6.51449909E-06
  -9.21000004       1.17290745E-06
  -9.19999981      -4.12103782E-06
  -9.18999958      -9.29719226E-06
  -9.18000031      -1.43275292E-05
  -9.17000008      -1.92313673E-05
  -9.15999985      -2.40694480E-05
  -9.14999962      -2.89289928E-05
  -9.14000034      -3.39044018E-05
  -9.13000011      -3.90788118E-05
  -9.11999989      -4.45105179E-05
  -9.10999966      -5.02258845E-05
  -9.10000038      -5.62181704E-05
  -9.09000015      -6.24496170E-05
  -9.07999992      -6.88543150E-05
  -9.06999969      -7.53402201E-05
  -9.06000042      -8.17904001E-05
  -9.05000019      -8.80650186E-05
  -9.03999996      -9.40063765E-05
  -9.02999973      -9.94486982E-05
  -9.02000046      -1.04232560E-04
  -9.01000023      -1.08222237E-04
  -9.00000000      -1.11321999E-04
  -8.98999977      -1.13487760E-04
  -8.97999954      -1.14730356E-04
  -8.97000027      -1.15109069E-04
  -8.96000004      -1.14716669E-04
  -8.94999981      -1.13658971E-04
  -8.93999958      -1.12033980E-04
  -8.93000031      -1.09914996E-04
  -8.92000008      -1.07341672E-04
  -8.90999985      -1.04320206E-04
  -8.89999962      -1.00832120E-04
  -8.89000034      -9.68480163E-05
  -8.88000011      -9.23427870E-05
  -8.86999989      -8.73074823E-05
  -8.85999966      -8.17550826E-05
  -8.85000038      -7.57190792E-05
  -8.84000015      -6.92454996E-05
  -8.82999992      -6.23815940E-05
  -8.81999969      -5.51649428E-05
  -8.81000042      -4.76162859E-05
  -8.80000019      -3.97384792E-05
  -8.78999996      -3.15218749E-05
  -8.77999973      -2.29539437E-05
  -8.77000046      -1.40300472E-05
  -8.76000023      -4.76181094E-06
  -8.75000000       4.81952065E-06
  -8.73999977       1.46652264E-05
  -8.72999954       2.47151329E-05
  -8.72000027       3.49041693E-05
  -8.71000004       4.51665401E-05
  -8.69999981       5.54350408E-05
  -8.68999958       6.56358970E-05
  -8.68000031       7.56822556E-05
  -8.67000008       8.54700993E-05
  -8.65999985       9.48807719E-05
  -8.64999962       1.03791783E-04
  -8.64000034       1.12093534E-04
  -8.63000011       1.19707212E-04
  -8.61999989       1.26596424E-04
  -8.60999966       1.32766581E-04
  -8.60000038       1.38249845E-04
  -8.59000015       1.43078782E-04
  -8.57999992       1.47256622E-04
  -8.56999969       1.50735737E-04
  -8.56000042       1.53413464E-04
  -8.55000019       1.55150148E-04
  -8.53999996       1.55806381E-04
  -8.52999973       1.55288959E-04
  -8.52000046       1.53590314E-04
  -8.51000023       1.50807042E-04
  -8.50000000       1.47130064E-04
  -8.48999977       1.42805846E-04
  -8.47999954       1.38082076E-04
  -8.47000027       1.33153910E-04
  -8.46000004       1.28130210E-04
  -8.44999981       1.23031627E-04
  -8.43999958       1.17821626E-04
  -8.43000031       1.12460475E-04
  -8.42000008       1.06961867E-04
  -8.40999985       1.01432051E-04
  -8.39999962       9.60751786E-05
  -8.39000034       9.11619281E-05
  -8.38000011       8.69707001E-05
  -8.36999989       8.37219704E-05
  -8.35999966       8.15281819E-05
  -8.35000038       8.03776202E-05
  -8.34000015       8.01572314E-05
  -8.32999992       8.07058168E-05
  -8.31999969       8.18775225E-05
  -8.31000042       8.35918545E-05
  -8.30000019       8.58512140E-05
  -8.28999996       8.87198839E-05
  -8.27999973       9.22732142E-05
  -8.27000046       9.65369618E-05
  -8.26000023       1.01442150E-04
  -8.25000000       1.06813997E-04
  -8.23999977       1.12401409E-04
  -8.22999954       1.17937285E-04
  -8.22000027       1.23207778E-04
  -8.21000004       1.28104002E-04
  -8.19999981       1.32635570E-04
  -8.18999958       1.36899718E-04
  -8.18000031       1.41016004E-04
  -8.17000008       1.45050421E-04
  -8.15999985       1.48957726E-04
  -8.14999962       1.52564462E-04
  -8.14000034       1.55600588E-04
  -8.13000011       1.57770468E-04
  -8.11999989       1.58837269E-04
  -8.10999966       1.58691051E-04
  -8.10000038       1.57374889E-04
  -8.09000015       1.55058427E-04
  -8.07999992       1.51968154E-04
  -8.06999969       1.48298524E-04
  -8.06000042       1.44136007E-04
  -8.05000019       1.39424286E-04
  -8.03999996       1.33982656E-04
  -8.02999973       1.27572202E-04
  -8.02000046       1.19985401E-04
  -8.01000023       1.11127309E-04
  -8.00000000       1.01058489E-04
  -7.98999977       8.99840525E-05
  -7.98000002       7.81923372E-05
  -7.96999979       6.59648795E-05
  -7.96000004       5.34896644E-05
  -7.94999981       4.08083397E-05
  -7.94000006       2.78159951E-05
  -7.92999983       1.43131820E-05
  -7.92000008       9.14079052E-08
  -7.90999985      -1.49782200E-05
  -7.90000010      -3.08846065E-05
  -7.88999987      -4.74648259E-05
  -7.88000011      -6.44437168E-05
  -7.86999989      -8.15095627E-05
  -7.86000013      -9.83969730E-05
  -7.84999990      -1.14946779E-04
  -7.84000015      -1.31120818E-04
  -7.82999992      -1.46966908E-04
  -7.82000017      -1.62546785E-04
  -7.80999994      -1.77855036E-04
  -7.80000019      -1.92759035E-04
  -7.78999996      -2.06983837E-04
  -7.78000021      -2.20149945E-04
  -7.76999998      -2.31851896E-04
  -7.76000023      -2.41751899E-04
  -7.75000000      -2.49656354E-04
  -7.73999977      -2.55548221E-04
  -7.73000002      -2.59563851E-04
  -7.71999979      -2.61922076E-04
  -7.71000004      -2.62830115E-04
  -7.69999981      -2.62399059E-04
  -7.69000006      -2.60599045E-04
  -7.67999983      -2.57270935E-04
  -7.67000008      -2.52190832E-04
  -7.65999985      -2.45165807E-04
  -7.65000010      -2.36128442E-04
  -7.63999987      -2.25196389E-04
  -7.63000011      -2.12676139E-04
  -7.61999989      -1.99007744E-04
  -7.61000013      -1.84668592E-04
  -7.59999990      -1.70067491E-04
  -7.59000015      -1.55463538E-04
  -7.57999992      -1.40936507E-04
  -7.57000017      -1.26416810E-04
  -7.55999994      -1.11762762E-04
  -7.55000019      -9.68571767E-05
  -7.53999996      -8.16882894E-05
  -7.53000021      -6.63865358E-05
  -7.51999998      -5.12041952E-05
  -7.51000023      -3.64459192E-05
  -7.50000000      -2.23755706E-05
  -7.48999977      -9.13310123E-06
  -7.48000002       3.30756075E-06
  -7.46999979       1.51241329E-05
  -7.46000004       2.65787039E-05
  -7.44999981       3.79212543E-05
  -7.44000006       4.92968866E-05