  -16.0000000       0.00000000    
  -15.9899998       0.00000000    
  -15.9799995       0.00000000    
  -15.9700003       0.00000000    
  -15.9600000       0.00000000    
  -15.9499998       0.00000000    
  -15.9399996       0.00000000    
  -15.9300003       0.00000000    
  -15.9200001       0.00000000    
  -15.9099998       0.00000000    
  -15.8999996       0.00000000    
  -15.8900003       0.00000000    
  -15.8800001       0.00000000    
  -15.8699999       0.00000000    
  -15.8599997      -0.00000000    
  -15.8500004      -0.00000000    
  -15.8400002      -0.00000000    
  -15.8299999      -4.20389539E-45
  -15.8199997      -1.54142831E-44
  -15.8100004       2.80259693E-45
  -15.8000002       6.40393398E-43
  -15.7900000       6.32686257E-42
  -15.7799997       4.17278657E-41
  -15.7700005       2.18306886E-40
  -15.7600002       9.61401449E-40
  -15.7500000       3.67215868E-39
  -15.7399998       1.23843858E-38
  -15.7299995       3.73036217E-38
  -15.7200003       1.01095646E-37
  -15.7100000       2.47484622E-37
  -15.6999998       5.47618920E-37
  -15.6899996       1.09137214E-36
  -15.6800003       1.93898256E-36
  -15.6700001       2.99936632E-36
  -15.6599998       3.80961512E-36
  -15.6499996       3.23803744E-36
  -15.6400003      -7.59379467E-37
  -15.6300001      -1.10369047E-35
  -15.6199999      -3.03630765E-35
  -15.6099997      -5.92721215E-35
  -15.6000004      -9.25401958E-35
  -15.5900002      -1.15017404E-34
  -15.5799999      -9.88878653E-35
  -15.5699997      -5.83861529E-36
  -15.5600004       2.01802189E-34
  -15.5500002       5.38271628E-34
  -15.5400000       9.61304403E-34
  -15.5299997       1.33641833E-33
  -15.5200005       1.41253242E-33
  -15.5100002       8.26926205E-34
  -15.5000000      -8.40612081E-34
  -15.4899998      -3.93912822E-33
  -15.4799995      -8.49995263E-33
  -15.4700003      -1.38010237E-32
  -15.4600000      -1.76771340E-32
  -15.4499998      -1.56621780E-32
  -15.4399996      -4.99906202E-34
  -15.4300003       3.66298440E-32
  -15.4200001       1.00966666E-31
  -15.4099998       1.83012069E-31
  -15.3999996       2.42058761E-31
  -15.3900003       1.92212663E-31
  -15.3800001      -9.04044846E-32
  -15.3699999      -7.11571070E-31
  -15.3599997      -1.63178289E-30
  -15.3500004      -2.48258031E-30
  -15.3400002      -2.41887792E-30
  -15.3299999      -2.00949443E-31
  -15.3199997       5.24185281E-30
  -15.3100004       1.36141475E-29
  -15.3000002       2.16531521E-29
  -15.2900000       2.20290109E-29
  -15.2799997       4.39043792E-30
  -15.2700005      -3.95962199E-29
  -15.2600002      -1.06545827E-28
  -15.2500000      -1.69548918E-28
  -15.2399998      -1.71751207E-28
  -15.2299995      -3.72273050E-29
  -15.2200003       2.89393267E-28
  -15.2100000       7.73625066E-28
  -15.1999998       1.21452031E-27
  -15.1899996       1.21426243E-27
  -15.1800003       2.69832415E-28
  -15.1700001      -1.95117889E-27
  -15.1599998      -5.16603398E-27
  -15.1499996      -8.02634771E-27
  -15.1400003      -7.99958884E-27
  -15.1300001      -2.01793489E-27
  -15.1199999       1.18026950E-26
  -15.1099997       3.15614651E-26
  -15.1000004       4.91131734E-26
  -15.0900002       4.96743771E-26
  -15.0799999       1.57910756E-26
  -15.0699997      -6.29565237E-26
  -15.0600004      -1.75891096E-25
  -15.0500002      -2.78528321E-25
  -15.0400000      -2.91241308E-25
  -15.0299997      -1.20614515E-25
  -15.0200005       2.90460607E-25
  -15.0100002       8.91871841E-25
  -15.0000000       1.46327170E-24
  -14.9899998       1.60727727E-24
  -14.9799995       8.51683914E-25
  -14.9700003      -1.11258161E-24
  -14.9600000      -4.09588967E-24
  -14.9499998      -7.10832070E-24
  -14.9399996      -8.30935433E-24
  -14.9300003      -5.44394410E-24
  -14.9200001       3.11400673E-24
  -14.9099998       1.68675154E-23
  -14.8999996       3.18043284E-23
  -14.8900003       4.00222175E-23
  -14.8800001       3.13743014E-23
  -14.8699999      -2.30793189E-24
  -14.8599997      -6.09578254E-23
  -14.8500004      -1.30111057E-22
  -14.8400002      -1.78456556E-22
  -14.8299999      -1.63187919E-22
  -14.8199997      -4.57073171E-23
  -14.8100004       1.83811546E-22
  -14.8000002       4.80490659E-22
  -14.7900000       7.30832045E-22
  -14.7799997       7.66683488E-22
  -14.7700005       4.18372899E-22
  -14.7600002      -3.95429416E-22
  -14.7500000      -1.56490253E-21
  -14.7399998      -2.71946431E-21
  -14.7299995      -3.24957924E-21
  -14.7200003      -2.46718997E-21
  -14.7100000       9.05842477E-23
  -14.6999998       4.28104903E-21
  -14.6899996       9.04570710E-21
  -14.6800003       1.23706298E-20
  -14.6700001       1.17016556E-20
  -14.6599998       4.88003805E-21
  -14.6499996      -8.55645077E-21
  -14.6400003      -2.61327277E-20
  -14.6300001      -4.18972603E-20
  -14.6199999      -4.72491964E-20
  -14.6099997      -3.35099784E-20
  -14.6000004       4.00904110E-21
  -14.5900002       6.15410679E-20
  -14.5799999       1.23884772E-19
  -14.5699997       1.65112411E-19
  -14.5600004       1.54619030E-19
  -14.5500002       6.85641738E-20
  -14.5400000      -9.56934296E-20
  -14.5299997      -3.07168687E-19
  -14.5200005      -4.97467351E-19
  -14.5100002      -5.71733849E-19
  -14.5000000      -4.36862671E-19
  -14.4899998      -4.30948078E-20
  -14.4799995       5.72658741E-19
  -14.4700003       1.25978832E-18
  -14.4600000       1.76274711E-18
  -14.4499998       1.77881820E-18
  -14.4399996       1.06324121E-18
  -14.4300003      -4.40843891E-19
  -14.4200001      -2.49088443E-18
  -14.4099998      -4.50669711E-18
  -14.3999996      -5.65415255E-18
  -14.3900003      -5.07016055E-18
  -14.3800001      -2.19867791E-18
  -14.3699999       2.85076197E-18
  -14.3599997       9.05692626E-18
  -14.3500004       1.44989243E-17
  -14.3400002       1.67289090E-17
  -14.3299999       1.35062489E-17
  -14.3199997       3.75178437E-18
  -14.3100004      -1.15614273E-17
  -14.3000002      -2.89502759E-17
  -14.2900000      -4.27414149E-17
  -14.2799997      -4.63459636E-17
  -14.2700005      -3.43687953E-17
  -14.2600002      -5.07180292E-18
  -14.2500000       3.75986113E-17
  -14.2399998       8.33311477E-17
  -14.2299995       1.16852166E-16
  -14.2200003       1.21637544E-16
  -14.2100000       8.53927398E-17
  -14.1999998       5.93286485E-18
  -14.1899996      -1.04510287E-16
  -14.1800003      -2.18617099E-16
  -14.1700001      -2.98385567E-16
  -14.1599998      -3.04721267E-16
  -14.1499996      -2.10531296E-16
  -14.1400003      -1.38899242E-17
  -14.1300001       2.53234529E-16
  -14.1199999       5.25042796E-16
  -14.1099997       7.13397353E-16
  -14.1000004       7.30271202E-16
  -14.0900002       5.16840923E-16
  -14.0799999       7.14518348E-17
  -14.0699997      -5.33117667E-16
  -14.0600004      -1.15176120E-15
  -14.0500002      -1.59315886E-15
  -14.0400000      -1.66792402E-15
  -14.0299997      -1.24912711E-15
  -14.0200005      -3.29049748E-16
  -14.0100002       9.46851651E-16
  -14.0000000       2.28526376E-15
  -13.9899998       3.29768688E-15
  -13.9799995       3.59553458E-15
  -13.9700003       2.90831981E-15
  -13.9600000       1.19389177E-15
  -13.9499998      -1.29486361E-15
  -13.9399996      -4.01699827E-15
  -13.9300003      -6.23831211E-15
  -13.9200001      -7.20448447E-15
  -13.9099998      -6.35732871E-15
  -13.8999996      -3.53877109E-15
  -13.8900003       8.80296037E-16
  -13.8800001       5.99909433E-15
  -13.8699999       1.05390482E-14
  -13.8599997       1.31335321E-14
  -13.8500004       1.26966546E-14
  -13.8400002       8.77895270E-15
  -13.8299999       1.80548080E-15
  -13.8199997      -6.89181539E-15
  -13.8100004      -1.52907455E-14
  -13.8000002      -2.11231027E-14
  -13.7900000      -2.24562173E-14
  -13.7799997      -1.82684746E-14
  -13.7700005      -8.85588447E-15
  -13.7600002       4.06830348E-15
  -13.7500000       1.76506962E-14
  -13.7399998       2.85230281E-14
  -13.7299995       3.36441859E-14
  -13.7200003       3.11486778E-14
  -13.7100000       2.09639790E-14
  -13.6999998       4.99697855E-15
  -13.6899996      -1.32086326E-14
  -13.6800003      -2.93001063E-14
  -13.6700001      -3.92384150E-14
  -13.6599998      -4.04193585E-14
  -13.6499996      -3.24658411E-14
  -13.6400003      -1.74289836E-14
  -13.6300001       7.12695534E-16
  -13.6199999       1.71636624E-14
  -13.6099997       2.77409491E-14
  -13.6000004       3.02012172E-14
  -13.5900002       2.50290731E-14
  -13.5799999       1.53727620E-14
  -13.5699997       6.05185601E-15
  -13.5600004       1.85774845E-15
  -13.5500002       5.63423870E-15
  -13.5400000       1.67733530E-14
  -13.5299997       3.07248090E-14
  -13.5200005       3.98790464E-14
  -13.5100002       3.57875825E-14
  -13.5000000       1.22310168E-14
  -13.4899998      -3.17303285E-14
  -13.4799995      -8.97539692E-14
  -13.4700003      -1.48159005E-13
  -13.4600000      -1.88273578E-13
  -13.4499998      -1.90979123E-13
  -13.4399996      -1.42520923E-13
  -13.4300003      -4.00844586E-14
  -13.4200001       1.04583551E-13
  -13.4099998       2.64975270E-13
  -13.3999996       4.03778031E-13
  -13.3900003       4.80655283E-13
  -13.3800001       4.62373575E-13
  -13.3699999       3.32893896E-13
  -13.3599997       1.00675138E-13
  -13.3500004      -1.99213299E-13
  -13.3400002      -5.09510836E-13
  -13.3299999      -7.61484896E-13
  -13.3199997      -8.90003566E-13
  -13.3100004      -8.49628636E-13
  -13.3000002      -6.27741077E-13
  -13.2900000      -2.51058695E-13
  -13.2799997       2.16737584E-13
  -13.2700005       6.86469382E-13
  -13.2600002       1.06189048E-12
  -13.2500000       1.26100671E-12
  -13.2399998       1.23519511E-12
  -13.2299995       9.81292088E-13
  -13.2200003       5.43380391E-13
  -13.2100000       3.50822793E-15
  -13.1999998      -5.36585912E-13
  -13.1899996      -9.78277897E-13
  -13.1800003      -1.24764240E-12
  -13.1700001      -1.31031958E-12
  -13.1599998      -1.17594682E-12
  -13.1499996      -8.91289755E-13
  -13.1400003      -5.24383054E-13
  -13.1300001      -1.44563953E-13
  -13.1199999       1.95532108E-13
  -13.1099997       4.70550844E-13
  -13.1000004       6.82428127E-13
  -13.0900002       8.50080152E-13
  -13.0799999       9.92539167E-13
  -13.0699997       1.11179945E-12
  -13.0600004       1.18227639E-12
  -13.0500002       1.15216886E-12
  -13.0400000       9.58438624E-13
  -13.0299997       5.52496959E-13
  -13.0200005      -7.06204233E-14
  -13.0100002      -8.49435973E-13
  -13.0000000      -1.64926829E-12
  -12.9899998      -2.27800569E-12
  -12.9799995      -2.52508257E-12
  -12.9700003      -2.21735282E-12
  -12.9600000      -1.27923464E-12
  -12.9499998       2.19197680E-13
  -12.9399996       2.04217849E-12
  -12.9300003       3.80750292E-12
  -12.9200001       5.04769403E-12
  -12.9099998       5.30528442E-12
  -12.8999996       4.24452314E-12
  -12.8900003       1.75522596E-12
  -12.8800001      -1.97681129E-12
  -12.8699999      -6.45362149E-12
  -12.8599997      -1.09135435E-11
  -12.8500004      -1.44412598E-11
  -12.8400002      -1.61224038E-11
  -12.8299999      -1.52150844E-11
  -12.8199997      -1.13056222E-11
  -12.8100004      -4.41825829E-12
  -12.8000002       4.94268949E-12
  -12.7900000       1.58259950E-11
  -12.7799997       2.69350393E-11
  -12.7700005       3.67783269E-11
  -12.7600002       4.38426656E-11
  -12.7500000       4.67625001E-11
  -12.7399998       4.44651711E-11
  -12.7299995       3.62821474E-11
  -12.7200003       2.20270503E-11
  -12.7100000       2.04877088E-12
  -12.6999998      -2.27303384E-11
  -12.6899996      -5.07863994E-11
  -12.6800003      -7.99817990E-11
  -12.6700001      -1.07586585E-10
  -12.6599998      -1.30360528E-10
  -12.6499996      -1.44724788E-10
  -12.6400003      -1.47044599E-10
  -12.6300001      -1.34024680E-10
  -12.6199999      -1.03195306E-10
  -12.6099997      -5.34378652E-11
  -12.6000004       1.45226799E-11
  -12.5900002       9.77430151E-11
  -12.5799999       1.90884558E-10
  -12.5699997       2.86294904E-10
  -12.5600004       3.74375947E-10
  -12.5500002       4.44228071E-10
  -12.5400000       4.84524032E-10
  -12.5299997       4.84536300E-10
  -12.5200005       4.35231212E-10
  -12.5100002       3.30343447E-10
  -12.5000000       1.67357336E-10
  -12.4899998      -5.16553675E-11
  -12.4799995      -3.19378773E-10
  -12.4700003      -6.22798813E-10
  -12.4600000      -9.42982692E-10
  -12.4499998      -1.25512734E-09
  -12.4399996      -1.52893254E-09
  -12.4300003      -1.72936299E-09
  -12.4200001      -1.81785853E-09
  -12.4099998      -1.75403436E-09
  -12.3999996      -1.49785095E-09
  -12.3900003      -1.01218678E-09
  -12.3800001      -2.65664629E-10
  -12.3699999       7.64474872E-10
  -12.3599997       2.08970197E-09
  -12.3500004       3.70798880E-09
  -12.3400002       5.60226887E-09
  -12.3299999       7.73974396E-09
  -12.3199997       1.00720987E-08
  -12.3100004       1.25366002E-08
  -12.3000002       1.50579762E-08
  -12.2900000       1.75509065E-08
  -12.2799997       1.99229575E-08
  -12.2700005       2.20777370E-08
  -12.2600002       2.39181404E-08
  -12.2500000       2.53496442E-08
  -12.2399998       2.62834163E-08
  -12.2299995       2.66393130E-08
  -12.2200003       2.63487063E-08
  -12.2100000       2.53569254E-08
  -12.1999998       2.36253896E-08
  -12.1899996       2.11331859E-08
  -12.1800003       1.78779622E-08
  -12.1700001       1.38761740E-08
  -12.1599998       9.16249832E-09
  -12.1499996       3.78848108E-09
  -12.1400003      -2.17940643E-09
  -12.1300001      -8.66217142E-09
  -12.1199999      -1.55709579E-08
  -12.1099997      -2.28096528E-08
  -12.1000004      -3.02773699E-08
  -12.0900002      -3.78705352E-08
  -12.0799999      -4.54846685E-08
  -12.0699997      -5.30157891E-08
  -12.0600004      -6.03614723E-08
  -12.0500002      -6.74217659E-08
  -12.0400000      -7.40999511E-08
  -12.0299997      -8.03031455E-08
  -12.0200005      -8.59429861E-08
  -12.0100002      -9.09358917E-08
  -12.0000000      -9.52035109E-08
  -11.9899998      -9.86724800E-08
  -11.9799995      -1.01274367E-07
  -11.9700003      -1.02945222E-07
  -11.9600000      -1.03625204E-07
  -11.9499998      -1.03258181E-07
  -11.9399996      -1.01791827E-07
  -11.9300003      -9.91781164E-08
  -11.9200001      -9.53745953E-08
  -11.9099998      -9.03456367E-08
  -11.8999996      -8.40649506E-08
  -11.8900003      -7.65175088E-08
  -11.8800001      -6.77019685E-08
  -11.8699999      -5.76326542E-08
  -11.8599997      -4.63406664E-08
  -11.8500004      -3.38745565E-08
  -11.8400002      -2.03000230E-08
  -11.8299999      -5.69898750E-09
  -11.8199997       9.83211734E-09
  -11.8100004       2.61843258E-08
  -11.8000002       4.32381952E-08
  -11.7900000       6.08659505E-08
  -11.7799997       7.89334749E-08
  -11.7700005       9.73018430E-08
  -11.7600002       1.15828641E-07
  -11.7500000       1.34369159E-07
  -11.7399998       1.52777062E-07
  -11.7299995       1.70905267E-07
  -11.7200003       1.88606251E-07
  -11.7100000       2.05732391E-07
  -11.6999998       2.22135796E-07
  -11.6899996       2.37668203E-07
  -11.6800003       2.52180229E-07
  -11.6700001       2.65521038E-07
  -11.6599998       2.77538021E-07
  -11.6499996       2.88076677E-07
  -11.6400003       2.96981057E-07
  -11.6300001       3.04095778E-07
  -11.6199999       3.09267847E-07
  -11.6099997       3.12350068E-07
  -11.6000004       3.13204652E-07
  -11.5900002       3.11706600E-07
  -11.5799999       3.07747456E-07
  -11.5699997       3.01237691E-07
  -11.5600004       2.92108922E-07
  -11.5500002       2.80313884E-07
  -11.5400000       2.65826912E-07
  -11.5299997       2.48642806E-07
  -11.5200005       2.28775747E-07
  -11.5100002       2.06257880E-07
  -11.5000000       1.81138475E-07
  -11.4899998       1.53483313E-07
  -11.4799995       1.23373638E-07
  -11.4700003       9.09055231E-08
  -11.4600000       5.61887106E-08
  -11.4499998       1.93448457E-08
  -11.4399996      -1.94951344E-08
  -11.4300003      -6.01938055E-08
  -11.4200001      -1.02610443E-07
  -11.4099998      -1.46604563E-07
  -11.3999996      -1.92037234E-07
  -11.3900003      -2.38773225E-07
  -11.3800001      -2.86680887E-07
  -11.3699999      -3.35631000E-07
  -11.3599997      -3.85495099E-07
  -11.3500004      -4.36143608E-07
  -11.3400002      -4.87443458E-07
  -11.3299999      -5.39257087E-07
  -11.3199997      -5.91441619E-07
  -11.3100004      -6.43849660E-07
  -11.3000002      -6.96330176E-07
  -11.2900000      -7.48730827E-07
  -11.2799997      -8.00898931E-07
  -11.2700005      -8.52684423E-07
  -11.2600002      -9.03940133E-07
  -11.2500000      -9.54523330E-07
  -11.2399998      -1.00429565E-06
  -11.2299995      -1.05312381E-06
  -11.2200003      -1.10087956E-06
  -11.2100000      -1.14744080E-06
  -11.1999998      -1.19269168E-06
  -11.1899996      -1.23652489E-06
  -11.1800003      -1.27884357E-06
  -11.1700001      -1.31956199E-06
  -11.1599998      -1.35860637E-06
  -11.1499996      -1.39591930E-06
  -11.1400003      -1.43145633E-06
  -11.1300001      -1.46518778E-06
  -11.1199999      -1.49709592E-06
  -11.1099997      -1.52717701E-06
  -11.1000004      -1.55543671E-06
  -11.0900002      -1.58188948E-06
  -11.0799999      -1.60655702E-06
  -11.0699997      -1.62946833E-06
  -11.0600004      -1.65065842E-06
  -11.0500002      -1.67016583E-06
  -11.0400000      -1.68803524E-06
  -11.0299997      -1.70431440E-06
  -11.0200005      -1.71905401E-06
  -11.0100002      -1.73230558E-06
  -11.0000000      -1.74411912E-06
  -10.9899998      -1.75454250E-06
  -10.9799995      -1.76361834E-06
  -10.9700003      -1.77138088E-06
  -10.9600000      -1.77785796E-06
  -10.9499998      -1.78306448E-06
  -10.9399996      -1.78700611E-06
  -10.9300003      -1.78967628E-06
  -10.9200001      -1.79105746E-06
  -10.9099998      -1.79112271E-06
  -10.8999996      -1.78983169E-06
  -10.8900003      -1.78713788E-06
  -10.8800001      -1.78298387E-06
  -10.8699999      -1.77730544E-06
  -10.8599997      -1.77003767E-06
  -10.8500004      -1.76111143E-06
  -10.8400002      -1.75045898E-06
  -10.8299999      -1.73801345E-06
  -10.8199997      -1.72371472E-06
  -10.8100004      -1.70751400E-06
  -10.8000002      -1.68936720E-06
  -10.7900000      -1.66923587E-06
  -10.7799997      -1.64708842E-06
  -10.7700005      -1.62289757E-06
  -10.7600002      -1.59663466E-06
  -10.7500000      -1.56827014E-06
  -10.7399998      -1.53777341E-06
  -10.7299995      -1.50510823E-06
  -10.7200003      -1.47024014E-06
  -10.7100000      -1.43313207E-06
  -10.6999998      -1.39375084E-06
  -10.6899996      -1.35206710E-06
  -10.6800003      -1.30805938E-06
  -10.6700001      -1.26171301E-06
  -10.6599998      -1.21302605E-06
  -10.6499996      -1.16199726E-06
  -10.6400003      -1.10863425E-06
  -10.6300001      -1.05295624E-06
  -10.6199999      -9.94984021E-07
  -10.6099997      -9.34750915E-07
  -10.6000004      -8.72303417E-07
  -10.5900002      -8.07701383E-07
  -10.5799999      -7.41025644E-07
  -10.5699997      -6.72374085E-07
  -10.5600004      -6.01866645E-07
  -10.5500002      -5.29643671E-07
  -10.5400000      -4.55865433E-07
  -10.5299997      -3.80702375E-07
  -10.5200005      -3.04336709E-07
  -10.5100002      -2.26955535E-07
  -10.5000000      -1.48752548E-07
  -10.4899998      -6.99164104E-08
  -10.4799995       9.35588496E-09
  -10.4700003       8.88720990E-08
  -10.4600000       1.68436046E-07
  -10.4499998       2.47841854E-07
  -10.4399996       3.26876602E-07
  -10.4300003       4.05310459E-07
  -10.4200001       4.82901669E-07
  -10.4099998       5.59390685E-07
  -10.3999996       6.34503010E-07
  -10.3900003       7.07949425E-07
  -10.3800001       7.79436050E-07
  -10.3699999       8.48659965E-07
  -10.3599997       9.15324335E-07
  -10.3500004       9.79139031E-07
  -10.3400002       1.03983155E-06
  -10.3299999       1.09714506E-06
  -10.3199997       1.15085572E-06
  -10.3100004       1.20076027E-06
  -10.3000002       1.24669305E-06
  -10.2900000       1.28851741E-06
  -10.2799997       1.32613388E-06
  -10.2700005       1.35947869E-06
  -10.2600002       1.38852317E-06
  -10.2500000       1.41327507E-06
  -10.2399998       1.43377770E-06
  -10.2299995       1.45010608E-06
  -10.2200003       1.46236641E-06
  -10.2100000       1.47069068E-06
  -10.1999998       1.47523735E-06
  -10.1899996       1.47618016E-06
  -10.1800003       1.47371134E-06
  -10.1700001       1.46803404E-06
  -10.1599998       1.45935883E-06
  -10.1499996       1.44790545E-06
  -10.1400003       1.43389536E-06
  -10.1300001       1.41755515E-06
  -10.1199999       1.39911310E-06
  -10.1099997       1.37879715E-06
  -10.1000004       1.35683706E-06
  -10.0900002       1.33346043E-06
  -10.0799999       1.30889259E-06
  -10.0699997       1.28335626E-06
  -10.0600004       1.25706811E-06
  -10.0500002       1.23023858E-06
  -10.0400000       1.20306868E-06
  -10.0299997       1.17574837E-06
  -10.0200005       1.14845341E-06
  -10.0100002       1.12134524E-06
  -10.0000000       1.09456801E-06
  -9.98999977       1.06824950E-06
  -9.97999954       1.04250319E-06
  -9.97000027       1.01742751E-06
  -9.96000004       9.93111371E-07
  -9.94999981       9.69636972E-07
  -9.93999958       9.47082356E-07
  -9.93000031       9.25526024E-07
  -9.92000008       9.05049887E-07
  -9.90999985       8.85740064E-07
  -9.89999962       8.67687788E-07
  -9.89000034       8.50992365E-07
  -9.88000011       8.35758556E-07
  -9.86999989       8.22100162E-07
  -9.85999966       8.10135248E-07
  -9.85000038       7.99989948E-07
  -9.84000015       7.91794605E-07
  -9.82999992       7.85689622E-07
  -9.81999969       7.81820802E-07
  -9.81000042       7.80340940E-07
  -9.80000019       7.81416304E-07
  -9.78999996       7.85223222E-07
  -9.77999973       7.91947684E-07
  -9.77000046       8.01791430E-07
  -9.76000023       8.14970633E-07
  -9.75000000       8.31712441E-07
  -9.73999977       8.52251446E-07
  -9.72999954       8.76828437E-07
  -9.72000027       9.05679713E-07
  -9.71000004       9.39032645E-07
  -9.69999981       9.77084596E-07
  -9.68999958       1.02000024E-06
  -9.68000031       1.06789082E-06
  -9.67000008       1.12080681E-06
  -9.65999985       1.17872366E-06
  -9.64999962       1.24153564E-06
  -9.64000034       1.30904914E-06
  -9.63000011       1.38097403E-06
  -9.61999989       1.45693525E-06
  -9.60999966       1.53646135E-06
  -9.60000038       1.61900061E-06
  -9.59000015       1.70391274E-06
  -9.57999992       1.79049300E-06
  -9.56999969       1.87796127E-06
  -9.56000042       1.96548308E-06
  -9.55000019       2.05216929E-06
  -9.53999996       2.13709768E-06
  -9.52999973       2.21931282E-06
  -9.52000046       2.29784678E-06
  -9.51000023       2.37174049E-06
  -9.50000000       2.44005696E-06
  -9.48999977       2.50189328E-06
  -9.47999954       2.55641498E-06
  -9.47000027       2.60285401E-06
  -9.46000004       2.64053915E-06
  -9.44999981       2.66890834E-06
  -9.43999958       2.68753047E-06
  -9.43000031       2.69610382E-06
  -9.42000008       2.69448424E-06
  -9.40999985       2.68269332E-06
  -9.39999962       2.66092889E-06
  -9.39000034       2.62958019E-06
  -9.38000011       2.58923160E-06
  -9.36999989       2.54065981E-06
  -9.35999966       2.48484730E-06
  -9.35000038       2.42295800E-06
  -9.34000015       2.35633865E-06
  -9.32999992       2.28651038E-06
  -9.31999969       2.21513505E-06
  -9.31000042       2.14400302E-06
  -9.30000019       2.07499784E-06
  -9.28999996       2.01007879E-06
  -9.27999973       1.95124244E-06
  -9.27000046       1.90049650E-06
  -9.26000023       1.85983652E-06
  -9.25000000       1.83121711E-06
  -9.23999977       1.81651808E-06
  -9.22999954       1.81754331E-06
  -9.22000027       1.83598706E-06
  -9.21000004       1.87341709E-06
  -9.19999981       1.93126448E-06
  -9.18999958       2.01079297E-06
  -9.18000031       2.11308770E-06
  -9.17000008       2.23903203E-06
  -9.15999985       2.38928828E-06
  -9.14999962       2.56429439E-06
  -9.14000034       2.76425203E-06
  -9.13000011       2.98911459E-06
  -9.11999989       3.23858558E-06
  -9.10999966       3.51212657E-06
  -9.10000038       3.80895631E-06
  -9.09000015       4.12804502E-06
  -9.07999992       4.46811555E-06
  -9.06999969       4.82766518E-06
  -9.06000042       5.20495405E-06
  -9.05000019       5.59804812E-06
  -9.03999996       6.00480371E-06
  -9.02999973       6.42292571E-06
  -9.02000046       6.84997076E-06
  -9.01000023       7.28339955E-06
  -9.00000000       7.72057228E-06
  -8.98999977       8.15876956E-06
  -8.97999954       8.59522697E-06
  -8.97000027       9.02714419E-06
  -8.96000004       9.45165812E-06
  -8.94999981       9.86589566E-06
  -8.93999958       1.02669865E-05
  -8.93000031       1.06520520E-05
  -8.92000008       1.10182764E-05
  -8.90999985       1.13628894E-05
  -8.89999962       1.16831861E-05
  -8.89000034       1.19765928E-05
  -8.88000011       1.22406409E-05
  -8.86999989       1.24729941E-05
  -8.85999966       1.26714795E-05
  -8.85000038       1.28340853E-05
  -8.84000015       1.29589753E-05
  -8.82999992       1.30445533E-05
  -8.81999969       1.30894277E-05
  -8.81000042       1.30924609E-05
  -8.80000019       1.30527951E-05
  -8.78999996       1.29698101E-05
  -8.77999973       1.28431557E-05
  -8.77000046       1.26727400E-05
  -8.76000023       1.24587004E-05
  -8.75000000       1.22014171E-05
  -8.73999977       1.19014830E-05
  -8.72999954       1.15597422E-05
  -8.72000027       1.11772324E-05
  -8.71000004       1.07551732E-05
  -8.69999981       1.02950007E-05
  -8.68999958       9.79828201E-06
  -8.68000031       9.26673329E-06
  -8.67000008       8.70222084E-06
  -8.65999985       8.10665733E-06
  -8.64999962       7.48204820E-06
  -8.64000034       6.83042663E-06
  -8.63000011       6.15387671E-06
  -8.61999989       5.45449075E-06
  -8.60999966       4.73438240E-06
  -8.60000038       3.99564578E-06
  -8.59000015       3.24035932E-06
  -8.57999992       2.47053345E-06
  -8.56999969       1.68814745E-06
  -8.56000042       8.95076823E-07
  -8.55000019       9.31301329E-08
  -8.53999996      -7.16046316E-07
  -8.52999973      -1.53082192E-06
  -8.52000046      -2.34974004E-06
  -8.51000023      -3.17138756E-06
  -8.50000000      -3.99449573E-06
  -8.48999977      -4.81787038E-06
  -8.47999954      -5.64043103E-06
  -8.47000027      -6.46123635E-06
  -8.46000004      -7.27942552E-06
  -8.44999981      -8.09426092E-06
  -8.43999958      -8.90511274E-06
  -8.43000031      -9.71137251E-06
  -8.42000008      -1.05125646E-05
  -8.40999985      -1.13082169E-05
  -8.39999962      -1.20978912E-05
  -8.39000034      -1.28811462E-05
  -8.38000011      -1.36575873E-05
  -8.36999989      -1.44268352E-05
  -8.35999966      -1.51884551E-05
  -8.35000038      -1.59420251E-05
  -8.34000015      -1.66870741E-05
  -8.32999992      -1.74231100E-05
  -8.31999969      -1.81495398E-05
  -8.31000042      -1.88657050E-05
  -8.30000019      -1.95708672E-05
  -8.28999996      -2.02642132E-05
  -8.27999973      -2.09448408E-05
  -8.27000046      -2.16117660E-05
  -8.26000023      -2.22639628E-05
  -8.25000000      -2.29003344E-05
  -8.23999977      -2.35196967E-05
  -8.22999954      -2.41208236E-05
  -8.22000027      -2.47024236E-05
  -8.21000004      -2.52631380E-05
  -8.19999981      -2.58016098E-05
  -8.18999958      -2.63163929E-05
  -8.18000031      -2.68060539E-05
  -8.17000008      -2.72691796E-05
  -8.15999985      -2.77043255E-05
  -8.14999962      -2.81100947E-05
  -8.14000034      -2.84851521E-05
  -8.13000011      -2.88281663E-05
  -8.11999989      -2.91378674E-05
  -8.10999966      -2.94130386E-05
  -8.10000038      -2.96525250E-05
  -8.09000015      -2.98552641E-05
  -8.07999992      -3.00202555E-05
  -8.06999969      -3.01466607E-05
  -8.06000042      -3.02337048E-05
  -8.05000019      -3.02807675E-05
  -8.03999996      -3.02873559E-05
  -8.02999973      -3.02531043E-05
  -8.02000046      -3.01777709E-05
  -8.01000023      -3.00612428E-05
  -8.00000000      -2.99035200E-05
  -7.98999977      -2.97047482E-05
  -7.98000002      -2.94652164E-05
  -7.96999979      -2.91853539E-05
  -7.96000004      -2.88656993E-05
  -7.94999981      -2.85069855E-05
  -7.94000006      -2.81100783E-05
  -7.92999983      -2.76759947E-05
  -7.92000008      -2.72059060E-05
  -7.90999985      -2.67011328E-05
  -7.90000010      -2.61631230E-05
  -7.88999987      -2.55934847E-05
  -7.88000011      -2.49939876E-05
  -7.86999989      -2.43665199E-05
  -7.86000013      -2.37131571E-05
  -7.84999990      -2.30360929E-05
  -7.84000015      -2.23376519E-05
  -7.82999992      -2.16202861E-05
  -7.82000017      -2.08865295E-05
  -7.80999994      -2.01390012E-05
  -7.80000019      -1.93803826E-05
  -7.78999996      -1.86133511E-05
  -7.78000021      -1.78406444E-05
  -7.76999998      -1.70649801E-05
  -7.76000023      -1.62890792E-05
  -7.75000000      -1.55156304E-05
  -7.73999977      -1.47472865E-05
  -7.73000002      -1.39866279E-05
  -7.71999979      -1.32361611E-05
  -7.71000004      -1.24982744E-05
  -7.69999981      -1.17752170E-05
  -7.69000006      -1.10691071E-05
  -7.67999983      -1.03819148E-05
  -7.67000008      -9.71545978E-06
  -7.65999985      -9.07137746E-06
  -7.65000010      -8.45116483E-06
  -7.63999987      -7.85613520E-06
  -7.63000011      -7.28744817E-06
  -7.61999989      -6.74604871E-06
  -7.61000013      -6.23270626E-06
  -7.59999990      -5.74800515E-06
  -7.59000015      -5.29233739E-06
  -7.57999992      -4.86591534E-06
  -7.57000017      -4.46877448E-06
  -7.55999994      -4.10080565E-06
  -7.55000019      -3.76172807E-06
  -7.53999996      -3.45113858E-06
  -7.53000021      -3.16851037E-06
  -7.51999998      -2.91314359E-06
  -7.51000023      -2.68423446E-06
  -7.50000000      -2.48083825E-06
  -7.48999977      -2.30187447E-06
  -7.48000002      -2.14620059E-06
  -7.46999979      -2.01254238E-06
  -7.46000004      -1.89960338E-06
  -7.44999981      -1.80600387E-06
  -7.44000006      -1.73035016E-06