  -16.0000000       0.00000000    
  -15.9899998       0.00000000    
  -15.9799995       0.00000000    
  -15.9700003       0.00000000    
  -15.9600000       0.00000000    
  -15.9499998       0.00000000    
  -15.9399996       0.00000000    
  -15.9300003       0.00000000    
  -15.9200001       0.00000000    
  -15.9099998       0.00000000    
  -15.8999996       0.00000000    
  -15.8900003       0.00000000    
  -15.8800001      -2.80259693E-45
  -15.8699999      -3.83955779E-43
  -15.8599997      -8.21301030E-42
  -15.8500004      -8.93650070E-41
  -15.8400002      -6.38438587E-40
  -15.8299999      -3.40962261E-39
  -15.8199997      -1.50443025E-38
  -15.8100004      -6.01499462E-38
  -15.8000002      -2.32135696E-37
  -15.7900000      -8.65396911E-37
  -15.7799997      -2.96863891E-36
  -15.7700005      -8.83091064E-36
  -15.7600002      -2.13609020E-35
  -15.7500000      -3.70234200E-35
  -15.7399998      -2.16229703E-35
  -15.7299995       1.42164218E-34
  -15.7200003       7.22267167E-34
  -15.7100000       2.13131048E-33
  -15.6999998       4.63489304E-33
  -15.6899996       7.48640393E-33
  -15.6800003       7.41675736E-33
  -15.6700001      -2.79685995E-33
  -15.6599998      -3.36255948E-32
  -15.6499996      -9.29415129E-32
  -15.6400003      -1.73396901E-31
  -15.6300001      -2.36784247E-31
  -15.6199999      -2.06978882E-31
  -15.6099997       1.41117759E-32
  -15.6000004       5.06048249E-31
  -15.5900002       1.29241899E-30
  -15.5799999       2.35010473E-30
  -15.5699997       3.64905420E-30
  -15.5600004       5.02603994E-30
  -15.5500002       5.49310203E-30
  -15.5400000       1.72571824E-30
  -15.5299997      -1.34645644E-29
  -15.5200005      -4.96699770E-29
  -15.5100002      -1.09277494E-28
  -15.5000000      -1.65941506E-28
  -15.4899998      -1.37389643E-28
  -15.4799995       1.20225166E-28
  -15.4700003       7.45841360E-28
  -15.4600000       1.68526246E-27
  -15.4499998       2.39804182E-27
  -15.4399996       1.63593574E-27
  -15.4300003      -2.31866731E-27
  -15.4200001      -1.04684631E-26
  -15.4099998      -2.07927187E-26
  -15.3999996      -2.56173442E-26
  -15.3900003      -1.10402933E-26
  -15.3800001       3.78816985E-26
  -15.3699999       1.23146340E-25
  -15.3599997       2.12732022E-25
  -15.3500004       2.23723788E-25
  -15.3400002       3.22118747E-26
  -15.3299999      -4.63300869E-25
  -15.3199997      -1.21440985E-24
  -15.3100004      -1.86759447E-24
  -15.3000002      -1.68981658E-24
  -15.2900000       2.54518082E-25
  -15.2799997       4.52129711E-24
  -15.2700005       1.03189033E-23
  -15.2600002       1.45362547E-23
  -15.2500000       1.16003534E-23
  -15.2399998      -4.74372078E-24
  -15.2299995      -3.70051905E-23
  -15.2200003      -7.75258861E-23
  -15.2100000      -1.03073077E-22
  -15.1999998      -7.59245994E-23
  -15.1899996       4.23450784E-23
  -15.1800003       2.61559392E-22
  -15.1700001       5.24390705E-22
  -15.1599998       6.78415784E-22
  -15.1499996       4.90830164E-22
  -15.1400003      -2.61785019E-22
  -15.1300001      -1.61955926E-21
  -15.1199999      -3.22473454E-21
  -15.1099997      -4.18118272E-21
  -15.1000004      -3.15953025E-21
  -15.0900002       1.09225827E-21
  -15.0799999       8.80695563E-21
  -15.0699997       1.80724359E-20
  -15.0600004       2.41196464E-20
  -15.0500002       1.98771598E-20
  -15.0400000      -1.44527709E-21
  -15.0299997      -4.16549997E-20
  -15.0200005      -9.19725127E-20
  -15.0100002      -1.29359506E-19
  -15.0000000      -1.18761086E-19
  -14.9899998      -2.48109804E-20
  -14.9799995       1.66464683E-19
  -14.9700003       4.21172528E-19
  -14.9600000       6.38647694E-19
  -14.9499998       6.57624769E-19
  -14.9399996       3.03581023E-19
  -14.9300003      -5.18755309E-19
  -14.9200001      -1.70735000E-18
  -14.9099998      -2.86861253E-18
  -14.8999996      -3.31928058E-18
  -14.8900003      -2.25486168E-18
  -14.8800001       8.88415242E-19
  -14.8699999       5.94084052E-18
  -14.8599997       1.15559646E-17
  -14.8500004       1.50963969E-17
  -14.8400002       1.31417890E-17
  -14.8299999       2.77488118E-18
  -14.8199997      -1.65121413E-17
  -14.8100004      -4.08861546E-17
  -14.8000002      -6.12190349E-17
  -14.7900000      -6.42567863E-17
  -14.7799997      -3.66928155E-17
  -14.7700005       2.80745762E-17
  -14.7600002       1.22235020E-16
  -14.7500000       2.18210524E-16
  -14.7399998       2.69807284E-16
  -14.7299995       2.23314175E-16
  -14.7200003       3.91283760E-17
  -14.7100000      -2.80344506E-16
  -14.6999998      -6.66341444E-16
  -14.6899996      -9.76776372E-16
  -14.6800003      -1.02010190E-15
  -14.6700001      -6.16396146E-16
  -14.6599998       3.11947438E-16
  -14.6499996       1.64569280E-15
  -14.6400003       3.01210972E-15
  -14.6300001       3.81305391E-15
  -14.6199999       3.37087709E-15
  -14.6099997       1.18912891E-15
  -14.6000004      -2.72850382E-15
  -14.5900002      -7.61301355E-15
  -14.5799999      -1.18639695E-14
  -14.5699997      -1.33132446E-14
  -14.5600004      -9.86971006E-15
  -14.5500002      -4.55168665E-16
  -14.5400000       1.40279684E-14
  -14.5299997       3.00953584E-14
  -14.5200005       4.18767634E-14
  -14.5100002       4.24049833E-14
  -14.5000000       2.59705418E-14
  -14.4899998      -8.94270196E-15
  -14.4799995      -5.70856296E-14
  -14.4700003      -1.05452444E-13
  -14.4600000      -1.34975364E-13
  -14.4499998      -1.25401954E-13
  -14.4399996      -6.27798594E-14
  -14.4300003       5.23128700E-14
  -14.4200001       1.98728729E-13
  -14.4099998       3.34184395E-13
  -14.3999996       4.02634604E-13
  -14.3900003       3.49951405E-13
  -14.3800001       1.45203104E-13
  -14.3699999      -1.98378640E-13
  -14.3599997      -6.10806653E-13
  -14.3500004      -9.69064130E-13
  -14.3400002      -1.12191018E-12
  -14.3299999      -9.34394923E-13
  -14.3199997      -3.42897667E-13
  -14.3100004       5.95660619E-13
  -14.3000002       1.68037925E-12
  -14.2900000       2.58618452E-12
  -14.2799997       2.93464949E-12
  -14.2700005       2.40788140E-12
  -14.2600002       8.79543129E-13
  -14.2500000      -1.47738722E-12
  -14.2399998      -4.15117940E-12
  -14.2299995      -6.35550510E-12
  -14.2200003      -7.20728555E-12
  -14.2100000      -5.99215772E-12
  -14.1999998      -2.45372212E-12
  -14.1899996       2.98390522E-12
  -14.1800003       9.15394670E-12
  -14.1700001       1.43112102E-11
  -14.1599998       1.65311220E-11
  -14.1499996       1.42764498E-11
  -14.1400003       6.99155621E-12
  -14.1300001      -4.46079848E-12
  -14.1199999      -1.77004054E-11
  -14.1099997      -2.91836243E-11
  -14.1000004      -3.50078751E-11
  -14.0900002      -3.20196786E-11
  -14.0799999      -1.89496786E-11
  -14.0699997       2.77183636E-12
  -14.0600004       2.88398697E-11
  -14.0500002       5.27292758E-11
  -14.0400000       6.71497649E-11
  -14.0299997       6.60206056E-11
  -14.0200005       4.64718611E-11
  -14.0100002       1.02799349E-11
  -14.0000000      -3.57892917E-11
  -13.9899998      -8.10186779E-11
  -13.9799995      -1.13083487E-10
  -13.9700003      -1.21224808E-10
  -13.9600000      -9.94601415E-11
  -13.9499998      -4.89133803E-11
  -13.9399996       2.15211685E-11
  -13.9300003       9.65823949E-11
  -13.9200001       1.57963656E-10
  -13.9099998       1.88830201E-10
  -13.8999996       1.78388568E-10
  -13.8900003       1.25236169E-10
  -13.8800001       3.84541739E-11
  -13.8699999      -6.40303782E-11
  -13.8599997      -1.59537328E-10
  -13.8500004      -2.26179936E-10
  -13.8400002      -2.48385951E-10
  -13.8299999      -2.20847923E-10
  -13.8199997      -1.49753265E-10
  -13.8100004      -5.09093497E-11
  -13.8000002       5.47016217E-11
  -13.7900000       1.46609974E-10
  -13.7799997       2.10052822E-10
  -13.7700005       2.39071651E-10
  -13.7600002       2.36568876E-10
  -13.7500000       2.11382342E-10
  -13.7399998       1.73470002E-10
  -13.7299995       1.29016714E-10
  -13.7200003       7.74107792E-11
  -13.7100000       1.14967393E-11
  -13.6999998      -7.85836535E-11
  -13.6899996      -1.98975558E-10
  -13.6800003      -3.45257795E-10
  -13.6700001      -4.97809849E-10
  -13.6599998      -6.21725504E-10
  -13.6499996      -6.72430556E-10
  -13.6400003      -6.06440953E-10
  -13.6300001      -3.94924204E-10
  -13.6199999      -3.64479696E-11
  -13.6099997       4.35012026E-10
  -13.6000004       9.49907708E-10
  -13.5900002       1.41207290E-09
  -13.5799999       1.71571357E-09
  -13.5699997       1.76711368E-09
  -13.5600004       1.50629309E-09
  -13.5500002       9.23605914E-10
  -13.5400000       6.73752998E-11
  -13.5299997      -9.59258450E-10
  -13.5200005      -2.01159711E-09
  -13.5100002      -2.92391245E-09
  -13.5000000      -3.53319507E-09
  -13.4899998      -3.70208397E-09
  -13.4799995      -3.33804318E-09
  -13.4700003      -2.40747555E-09
  -13.4600000      -9.44932799E-10
  -13.4499998       9.41846601E-10
  -13.4399996       3.07088022E-09
  -13.4300003       5.19020960E-09
  -13.4200001       6.99056946E-09
  -13.4099998       8.13048651E-09
  -13.3999996       8.27698532E-09
  -13.3900003       7.16198256E-09
  -13.3800001       4.64923922E-09
  -13.3699999       8.00777444E-10
  -13.3599997      -4.07340384E-09
  -13.3500004      -9.40046707E-09
  -13.3400002      -1.43801628E-08
  -13.3299999      -1.80779995E-08
  -13.3199997      -1.95712975E-08
  -13.3100004      -1.81289188E-08
  -13.3000002      -1.33928530E-08
  -13.2900000      -5.52243762E-09
  -13.2799997       4.73705253E-09
  -13.2700005       1.60892402E-08
  -13.2600002       2.68339697E-08
  -13.2500000       3.51127696E-08
  -13.2399998       3.92151236E-08
  -13.2299995       3.78916631E-08
  -13.2200003       3.06144550E-08
  -13.2100000       1.77318515E-08
  -13.1999998       4.84457308E-10
  -13.1899996      -1.91242542E-08
  -13.1800003      -3.85809429E-08
  -13.1700001      -5.51944765E-08
  -13.1599998      -6.64509443E-08
  -13.1499996      -7.03370162E-08
  -13.1400003      -6.55910171E-08
  -13.1300001      -5.18614343E-08
  -13.1199999      -2.97738900E-08
  -13.1099997      -9.20884369E-10
  -13.1000004       3.22081171E-08
  -13.0900002       6.63474822E-08
  -13.0799999       9.76342776E-08
  -13.0699997       1.21866492E-07
  -13.0600004       1.34867520E-07
  -13.0500002       1.32971053E-07
  -13.0400000       1.13610987E-07
  -13.0299997       7.59557821E-08
  -13.0200005       2.14808775E-08
  -13.0100002      -4.56615972E-08
  -13.0000000      -1.18622154E-07
  -12.9899998      -1.88296127E-07
  -12.9799995      -2.44271178E-07
  -12.9700003      -2.76220788E-07
  -12.9600000      -2.75573598E-07
  -12.9499998      -2.37195010E-07
  -12.9399996      -1.60765325E-07
  -12.9300003      -5.15500176E-08
  -12.9200001       7.96637352E-08
  -12.9099998       2.17553861E-07
  -12.8999996       3.44094019E-07
  -12.8900003       4.40982404E-07
  -12.8800001       4.92295101E-07
  -12.8699999       4.86934255E-07
  -12.8599997       4.20466250E-07
  -12.8500004       2.96051041E-07
  -12.8400002       1.24325240E-07
  -12.8299999      -7.77183260E-08
  -12.8199997      -2.88651734E-07
  -12.8100004      -4.85024430E-07
  -12.8000002      -6.43926228E-07
  -12.7900000      -7.45393038E-07
  -12.7799997      -7.74437751E-07
  -12.7700005      -7.22588254E-07
  -12.7600002      -5.88902424E-07
  -12.7500000      -3.80468123E-07
  -12.7399998      -1.12389223E-07
  -12.7299995       1.92788704E-07
  -12.7200003       5.06312688E-07
  -12.7100000       7.95235792E-07
  -12.6999998       1.02527997E-06
  -12.6899996       1.16449394E-06
  -12.6800003       1.18744617E-06
  -12.6700001       1.07947164E-06
  -12.6599998       8.40294263E-07
  -12.6499996       4.86253612E-07
  -12.6400003       5.04315025E-08
  -12.6300001      -4.19781884E-07
  -12.6199999      -8.67739402E-07
  -12.6099997      -1.23476468E-06
  -12.6000004      -1.46861908E-06
  -12.5900002      -1.53190467E-06
  -12.5799999      -1.40894122E-06
  -12.5699997      -1.10978306E-06
  -12.5600004      -6.70443740E-07
  -12.5500002      -1.49016060E-07
  -12.5400000       3.81911178E-07
  -12.5299997       8.45465422E-07
  -12.5200005       1.17178035E-06
  -12.5100002       1.30862009E-06
  -12.5000000       1.22973154E-06
  -12.4899998       9.39747167E-07
  -12.4799995       4.75083112E-07
  -12.4700003      -9.90586813E-08
  -12.4600000      -6.94905623E-07
  -12.4499998      -1.21051050E-06
  -12.4399996      -1.53920359E-06
  -12.4300003      -1.57911870E-06
  -12.4200001      -1.24212193E-06
  -12.4099998      -4.61798635E-07
  -12.3999996       7.99604891E-07
  -12.3900003       2.54533188E-06
  -12.3800001       4.73954924E-06
  -12.3699999       7.30452712E-06
  -12.3599997       1.01203350E-05
  -12.3500004       1.30279741E-05
  -12.3400002       1.58367784E-05
  -12.3299999       1.83364918E-05
  -12.3199997       2.03136879E-05
  -12.3100004       2.15712844E-05
  -12.3000002       2.19490757E-05
  -12.2900000       2.13424901E-05
  -12.2799997       1.97166974E-05
  -12.2700005       1.71134816E-05
  -12.2600002       1.36493918E-05
  -12.2500000       9.50481353E-06
  -12.2399998       4.90532511E-06
  -12.2299995       9.78765229E-08
  -12.2200003      -4.67472773E-06
  -12.2100000      -9.19733066E-06
  -12.1999998      -1.33006542E-05
  -12.1899996      -1.68721162E-05
  -12.1800003      -1.98584603E-05
  -12.1700001      -2.22609015E-05
  -12.1599998      -2.41247017E-05
  -12.1499996      -2.55257473E-05
  -12.1400003      -2.65566541E-05
  -12.1300001      -2.73145488E-05
  -12.1199999      -2.78916232E-05
  -12.1099997      -2.83686677E-05
  -12.1000004      -2.88108968E-05
  -12.0900002      -2.92650311E-05
  -12.0799999      -2.97566512E-05
  -12.0699997      -3.02873614E-05
  -12.0600004      -3.08320232E-05
  -12.0500002      -3.13369492E-05
  -12.0400000      -3.17204249E-05
  -12.0299997      -3.18768725E-05
  -12.0200005      -3.16851256E-05
  -12.0100002      -3.10207906E-05
  -12.0000000      -2.97712340E-05
  -11.9899998      -2.78509724E-05
  -11.9799995      -2.52148257E-05
  -11.9700003      -2.18662790E-05
  -11.9600000      -1.78593709E-05
  -11.9499998      -1.32935374E-05
  -11.9399996      -8.30238696E-06
  -11.9300003      -3.03847651E-06
  -11.9200001       2.34299159E-06
  -11.9099998       7.69857343E-06
  -11.8999996       1.29066984E-05
  -11.8900003       1.78722385E-05
  -11.8800001       2.25256026E-05
  -11.8699999       2.68176609E-05
  -11.8599997       3.07127448E-05
  -11.8500004       3.41820451E-05
  -11.8400002       3.71994283E-05
  -11.8299999       3.97407639E-05
  -11.8199997       4.17867013E-05
  -11.8100004       4.33276400E-05
  -11.8000002       4.43693061E-05
  -11.7900000       4.49366526E-05
  -11.7799997       4.50747430E-05
  -11.7700005       4.48456922E-05
  -11.7600002       4.43221470E-05
  -11.7500000       4.35784314E-05
  -11.7399998       4.26812985E-05
  -11.7299995       4.16822186E-05
  -11.7200003       4.06126783E-05
  -11.7100000       3.94833187E-05
  -11.6999998       3.82865219E-05
  -11.6899996       3.70014532E-05
  -11.6800003       3.55998563E-05
  -11.6700001       3.40510196E-05
  -11.6599998       3.23245986E-05
  -11.6499996       3.03908873E-05
  -11.6400003       2.82190049E-05
  -11.6300001       2.57741121E-05
  -11.6199999       2.30153146E-05
  -11.6099997       1.98957678E-05
  -11.6000004       1.63659643E-05
  -11.5900002       1.23803520E-05
  -11.5799999       7.90645845E-06
  -11.5699997       2.93490416E-06
  -11.5600004      -2.51178380E-06
  -11.5500002      -8.37357584E-06
  -11.5400000      -1.45519743E-05
  -11.5299997      -2.09143182E-05
  -11.5200005      -2.73027745E-05
  -11.5100002      -3.35466539E-05
  -11.5000000      -3.94759300E-05
  -11.4899998      -4.49338550E-05
  -11.4799995      -4.97867150E-05
  -11.4700003      -5.39298053E-05
  -11.4600000      -5.72892641E-05
  -11.4499998      -5.98206316E-05
  -11.4399996      -6.15054232E-05
  -11.4300003      -6.23472515E-05
  -11.4200001      -6.23689630E-05
  -11.4099998      -6.16114630E-05
  -11.3999996      -6.01344655E-05
  -11.3900003      -5.80184969E-05
  -11.3800001      -5.53669634E-05
  -11.3699999      -5.23070557E-05
  -11.3599997      -4.89882950E-05
  -11.3500004      -4.55780391E-05
  -11.3400002      -4.22538469E-05
  -11.3299999      -3.91932699E-05
  -11.3199997      -3.65619780E-05
  -11.3100004      -3.45014923E-05
  -11.3000002      -3.31178126E-05
  -11.2900000      -3.24717912E-05
  -11.2799997      -3.25723631E-05
  -11.2700005      -3.33727476E-05
  -11.2600002      -3.47704081E-05
  -11.2500000      -3.66105596E-05
  -11.2399998      -3.86934735E-05
  -11.2299995      -4.07856351E-05
  -11.2200003      -4.26342413E-05
  -11.2100000      -4.39845353E-05
  -11.1999998      -4.45987607E-05
  -11.1899996      -4.42751843E-05
  -11.1800003      -4.28652238E-05
  -11.1700001      -4.02867627E-05
  -11.1599998      -3.65320084E-05
  -11.1499996      -3.16689002E-05
  -11.1400003      -2.58360578E-05
  -11.1300001      -1.92321404E-05
  -11.1199999      -1.21014209E-05
  -11.1099997      -4.71768135E-06
  -11.1000004       2.63145603E-06
  -11.0900002       9.65816616E-06
  -11.0799999       1.60853815E-05
  -11.0699997       2.16553199E-05
  -11.0600004       2.61366276E-05
  -11.0500002       2.93314752E-05
  -11.0400000       3.10838004E-05
  -11.0299997       3.12891862E-05
  -11.0200005       2.99056628E-05
  -11.0100002       2.69641077E-05
  -11.0000000       2.25757212E-05
  -10.9899998       1.69342893E-05
  -10.9799995       1.03113307E-05
  -10.9700003       3.04323248E-06
  -10.9600000      -4.48897799E-06
  -10.9499998      -1.18852704E-05
  -10.9399996      -1.87546502E-05
  -10.9300003      -2.47421212E-05
  -10.9200001      -2.95514437E-05
  -10.9099998      -3.29613576E-05
  -10.8999996      -3.48342001E-05
  -10.8900003      -3.51171766E-05
  -10.8800001      -3.38375939E-05
  -10.8699999      -3.10938703E-05
  -10.8599997      -2.70444089E-05
  -10.8500004      -2.18958776E-05
  -10.8400002      -1.58918701E-05
  -10.8299999      -9.30227088E-06
  -10.8199997      -2.41306907E-06
  -10.8100004       4.48398850E-06
  -10.8000002       1.11022964E-05
  -10.7900000       1.71722004E-05
  -10.7799997       2.24535725E-05
  -10.7700005       2.67485084E-05
  -10.7600002       2.99133208E-05
  -10.7500000       3.18685707E-05
  -10.7399998       3.26059999E-05
  -10.7299995       3.21912448E-05
  -10.7200003       3.07614537E-05
  -10.7100000       2.85175611E-05
  -10.6999998       2.57113952E-05
  -10.6899996       2.26283973E-05
  -10.6800003       1.95675875E-05
  -10.6700001       1.68205897E-05
  -10.6599998       1.46519196E-05
  -10.6499996       1.32824980E-05
  -10.6400003       1.28780439E-05
  -10.6300001       1.35428936E-05
  -10.6199999       1.53194669E-05
  -10.6099997       1.81923515E-05
  -10.6000004       2.20958300E-05
  -10.5900002       2.69231969E-05
  -10.5799999       3.25366309E-05
  -10.5699997       3.87767395E-05
  -10.5600004       4.54712936E-05
  -10.5500002       5.24431161E-05
  -10.5400000       5.95172678E-05
  -10.5299997       6.65274565E-05
  -10.5200005       7.33215638E-05
  -10.5100002       7.97657558E-05
  -10.5000000       8.57465711E-05
  -10.4899998       9.11705429E-05
  -10.4799995       9.59612880E-05
  -10.4700003       1.00054320E-04
  -10.4600000       1.03390674E-04
  -10.4499998       1.05910527E-04
  -10.4399996       1.07548054E-04
  -10.4300003       1.08228836E-04
  -10.4200001       1.07870474E-04
  -10.4099998       1.06386353E-04
  -10.3999996       1.03692764E-04
  -10.3900003       9.97179450E-05
  -10.3800001       9.44127241E-05
  -10.3699999       8.77612038E-05
  -10.3599997       7.97903704E-05
  -10.3500004       7.05774073E-05
  -10.3400002       6.02536129E-05
  -10.3299999       4.90037310E-05
  -10.3199997       3.70603302E-05
  -10.3100004       2.46930231E-05
  -10.3000002       1.21934518E-05
  -10.2900000      -1.42327409E-07
  -10.2799997      -1.20319337E-05
  -10.2700005      -2.32227831E-05
  -10.2600002      -3.35040422E-05
  -10.2500000      -4.27131745E-05
  -10.2399998      -5.07367695E-05
  -10.2299995      -5.75066260E-05
  -10.2200003      -6.29928327E-05
  -10.2100000      -6.71959715E-05
  -10.1999998      -7.01401586E-05
  -10.1899996      -7.18683295E-05
  -10.1800003      -7.24396887E-05
  -10.1700001      -7.19286691E-05
  -10.1599998      -7.04242921E-05
  -10.1499996      -6.80287121E-05
  -10.1400003      -6.48542191E-05
  -10.1300001      -6.10187308E-05
  -10.1199999      -5.66404487E-05
  -10.1099997      -5.18329362E-05
  -10.1000004      -4.67018144E-05
  -10.0900002      -4.13439884E-05
  -10.0799999      -3.58496036E-05
  -10.0699997      -3.03064262E-05
  -10.0600004      -2.48055603E-05
  -10.0500002      -1.94471268E-05
  -10.0400000      -1.43445141E-05
  -10.0299997      -9.62598824E-06
  -10.0200005      -5.43280657E-06
  -10.0100002      -1.91336312E-06
  -10.0000000       7.86564328E-07
  -9.98999977       2.53667281E-06
  -9.97999954       3.23713493E-06
  -9.97000027       2.83365262E-06
  -9.96000004       1.33078663E-06
  -9.94999981      -1.19890387E-06
  -9.93999958      -4.61175159E-06
  -9.93000031      -8.69687483E-06
  -9.92000008      -1.31873676E-05
  -9.90999985      -1.77772654E-05
  -9.89999962      -2.21424016E-05
  -9.89000034      -2.59620101E-05
  -9.88000011      -2.89384097E-05
  -9.86999989      -3.08124690E-05
  -9.85999966      -3.13736418E-05
  -9.85000038      -3.04642745E-05
  -9.84000015      -2.79792457E-05
  -9.82999992      -2.38619832E-05
  -9.81999969      -1.80983643E-05
  -9.81000042      -1.07096184E-05
  -9.80000019      -1.74514980E-06
  -9.78999996       8.72409328E-06
  -9.77999973       2.06110799E-05
  -9.77000046       3.38162972E-05
  -9.76000023       4.82285759E-05
  -9.75000000       6.37224512E-05
  -9.73999977       8.01522983E-05
  -9.72999954       9.73441420E-05
  -9.72000027       1.15086550E-04
  -9.71000004       1.33124078E-04
  -9.69999981       1.51155356E-04
  -9.68999958       1.68838582E-04
  -9.68000031       1.85804602E-04
  -9.67000008       2.01676477E-04
  -9.65999985       2.16092929E-04
  -9.64999962       2.28731413E-04
  -9.64000034       2.39326764E-04
  -9.63000011       2.47682416E-04
  -9.61999989       2.53672595E-04
  -9.60999966       2.57236446E-04
  -9.60000038       2.58365442E-04
  -9.59000015       2.57088366E-04
  -9.57999992       2.53456208E-04
  -9.56999969       2.47529621E-04
  -9.56000042       2.39370755E-04
  -9.55000019       2.29038807E-04
  -9.53999996       2.16589411E-04
  -9.52999973       2.02076466E-04
  -9.52000046       1.85555371E-04
  -9.51000023       1.67087463E-04
  -9.50000000       1.46745209E-04
  -9.48999977       1.24617683E-04
  -9.47999954       1.00816367E-04
  -9.47000027       7.54805733E-05
  -9.46000004       4.87821526E-05
  -9.44999981       2.09288210E-05
  -9.43999958      -7.83393261E-06
  -9.43000031      -3.72224931E-05
  -9.42000008      -6.69153451E-05
  -9.40999985      -9.65545551E-05
  -9.39999962      -1.25747742E-04
  -9.39000034      -1.54071706E-04
  -9.38000011      -1.81078227E-04
  -9.36999989      -2.06302560E-04
  -9.35999966      -2.29275727E-04
  -9.35000038      -2.49539036E-04
  -9.34000015      -2.66659801E-04
  -9.32999992      -2.80246517E-04
  -9.31999969      -2.89960386E-04
  -9.31000042      -2.95523438E-04
  -9.30000019      -2.96722079E-04
  -9.28999996      -2.93407880E-04
  -9.27999973      -2.85496557E-04
  -9.27000046      -2.72968871E-04
  -9.26000023      -2.55872059E-04
  -9.25000000      -2.34322870E-04
  -9.23999977      -2.08509970E-04
  -9.22999954      -1.78693328E-04
  -9.22000027      -1.45198748E-04
  -9.21000004      -1.08407185E-04
  -9.19999981      -6.87400243E-05
  -9.18999958      -2.66438583E-05
  -9.18000031       1.74226661E-05
  -9.17000008       6.29956266E-05
  -9.15999985       1.09606444E-04
  -9.14999962       1.56776689E-04
  -9.14000034       2.04011725E-04
  -9.13000011       2.50795856E-04
  -9.11999989       2.96593644E-04
  -9.10999966       3.40858853E-04
  -9.10000038       3.83048609E-04
  -9.09000015       4.22641140E-04
  -9.07999992       4.59151575E-04
  -9.06999969       4.92143154E-04
  -9.06000042       5.21232723E-04
  -9.05000019       5.46091585E-04
  -9.03999996       5.66446746E-04
  -9.02999973       5.82083536E-04
  -9.02000046       5.92854514E-04
  -9.01000023       5.98692743E-04
  -9.00000000       5.99623949E-04
  -8.98999977       5.95774443E-04
  -8.97999954       5.87366580E-04
  -8.97000027       5.74700476E-04
  -8.96000004       5.58122469E-04
  -8.94999981       5.37986809E-04
  -8.93999958       5.14620333E-04
  -8.93000031       4.88297781E-04
  -8.92000008       4.59236384E-04
  -8.90999985       4.27609019E-04
  -8.89999962       3.93573428E-04
  -8.89000034       3.57306679E-04
  -8.88000011       3.19036597E-04
  -8.86999989       2.79059459E-04
  -8.85999966       2.37740984E-04
  -8.85000038       1.95502624E-04
  -8.84000015       1.52798937E-04
  -8.82999992       1.10093897E-04
  -8.81999969       6.78439537E-05
  -8.81000042       2.64908031E-05
  -8.80000019      -1.35375412E-05
  -8.78999996      -5.18229281E-05
  -8.77999973      -8.79572981E-05
  -8.77000046      -1.21551820E-04
  -8.76000023      -1.52255583E-04
  -8.75000000      -1.79780254E-04
  -8.73999977      -2.03922609E-04
  -8.72999954      -2.24577016E-04
  -8.72000027      -2.41731599E-04
  -8.71000004      -2.55448715E-04
  -8.69999981      -2.65833369E-04
  -8.68999958      -2.73000624E-04
  -8.68000031      -2.77051644E-04
  -8.67000008      -2.78066640E-04
  -8.65999985      -2.76117353E-04
  -8.64999962      -2.71293567E-04
  -8.64000034      -2.63734924E-04
  -8.63000011      -2.53656472E-04
  -8.61999989      -2.41357149E-04
  -8.60999966      -2.27208060E-04
  -8.60000038      -2.11622522E-04
  -8.59000015      -1.95016633E-04
  -8.57999992      -1.77772541E-04
  -8.56999969      -1.60214258E-04
  -8.56000042      -1.42602832E-04
  -8.55000019      -1.25150196E-04
  -8.53999996      -1.08044733E-04
  -8.52999973      -9.14792181E-05
  -8.52000046      -7.56697555E-05
  -8.51000023      -6.08595874E-05
  -8.50000000      -4.73067812E-05
  -8.48999977      -3.52609932E-05
  -8.47999954      -2.49374152E-05
  -8.47000027      -1.64971952E-05
  -8.46000004      -1.00410271E-05
  -8.44999981      -5.61541083E-06
  -8.43999958      -3.22802362E-06
  -8.43000031      -2.86411455E-06
  -8.42000008      -4.49497611E-06
  -8.40999985      -8.07351262E-06
  -8.39999962      -1.35176324E-05
  -8.39000034      -2.06867480E-05
  -8.38000011      -2.93613248E-05
  -8.36999989      -3.92357142E-05
  -8.35999966      -4.99303278E-05
  -8.35000038      -6.10231255E-05
  -8.34000015      -7.20944154E-05
  -8.32999992      -8.27725089E-05
  -8.31999969      -9.27670771E-05
  -8.31000042      -1.01881589E-04
  -8.30000019      -1.10000612E-04
  -8.28999996      -1.17057905E-04
  -8.27999973      -1.22997037E-04
  -8.27000046      -1.27738138E-04
  -8.26000023      -1.31163528E-04
  -8.25000000      -1.33127178E-04
  -8.23999977      -1.33483074E-04
  -8.22999954      -1.32122252E-04
  -8.22000027      -1.29001855E-04
  -8.21000004      -1.24152721E-04
  -8.19999981      -1.17659300E-04
  -8.18999958      -1.09615728E-04
  -8.18000031      -1.00071418E-04
  -8.17000008      -8.89855000E-05
  -8.15999985      -7.62078562E-05
  -8.14999962      -6.14975434E-05
  -8.14000034      -4.45760961E-05
  -8.13000011      -2.52019690E-05
  -8.11999989      -3.24503594E-06
  -8.10999966       2.12634804E-05
  -8.10000038       4.81208554E-05
  -8.09000015       7.69843900E-05
  -8.07999992       1.07436412E-04
  -8.06999969       1.39059004E-04
  -8.06000042       1.71494845E-04
  -8.05000019       2.04474301E-04
  -8.03999996       2.37802713E-04
  -8.02999973       2.71314988E-04
  -8.02000046       3.04818008E-04
  -8.01000023       3.38043959E-04
  -8.00000000       3.70635738E-04
  -7.98999977       4.02170641E-04
  -7.98000002       4.32216708E-04
  -7.96999979       4.60400246E-04
  -7.96000004       4.86460660E-04
  -7.94999981       5.10271522E-04
  -7.94000006       5.31820988E-04
  -7.92999983       5.51156350E-04
  -7.92000008       5.68316027E-04
  -7.90999985       5.83272602E-04
  -7.90000010       5.95910416E-04
  -7.88999987       6.06046000E-04
  -7.88000011       6.13484939E-04
  -7.86999989       6.18093240E-04
  -7.86000013       6.19856932E-04
  -7.84999990       6.18908496E-04
  -7.84000015       6.15505560E-04
  -7.82999992       6.09973562E-04
  -7.82000017       6.02629152E-04
  -7.80999994       5.93713601E-04
  -7.80000019       5.83358516E-04
  -7.78999996       5.71596902E-04
  -7.78000021       5.58411004E-04
  -7.76999998       5.43800881E-04
  -7.76000023       5.27843426E-04
  -7.75000000       5.10721235E-04
  -7.73999977       4.92708059E-04
  -7.73000002       4.74115543E-04
  -7.71999979       4.55222500E-04
  -7.71000004       4.36210190E-04
  -7.69999981       4.17126867E-04
  -7.69000006       3.97895754E-04
  -7.67999983       3.78360972E-04
  -7.67000008       3.58356367E-04
  -7.65999985       3.37772100E-04
  -7.65000010       3.16599268E-04
  -7.63999987       2.94938567E-04
  -7.63000011       2.72976904E-04
  -7.61999989       2.50941812E-04
  -7.61000013       2.29056051E-04
  -7.59999990       2.07509176E-04
  -7.59000015       1.86453617E-04
  -7.57999992       1.66026977E-04
  -7.57000017       1.46385297E-04
  -7.55999994       1.27735169E-04
  -7.55000019       1.10347959E-04
  -7.53999996       9.45507127E-05
  -7.53000021       8.06955577E-05
  -7.51999998       6.91174064E-05
  -7.51000023       6.00931344E-05
  -7.50000000       5.38129534E-05
  -7.48999977       5.03719166E-05
  -7.48000002       4.97791698E-05
  -7.46999979       5.19780115E-05
  -7.46000004       5.68702271E-05
  -7.44999981       6.43368621E-05
  -7.44000006       7.42474149E-05