  -16.0000000       0.00000000    
  -15.9899998       0.00000000    
  -15.9799995       0.00000000    
  -15.9700003       0.00000000    
  -15.9600000       0.00000000    
  -15.9499998       0.00000000    
  -15.9399996       0.00000000    
  -15.9300003       0.00000000    
  -15.9200001       0.00000000    
  -15.9099998       0.00000000    
  -15.8999996       0.00000000    
  -15.8900003       0.00000000    
  -15.8800001       0.00000000    
  -15.8699999       5.60519386E-45
  -15.8599997       3.68541496E-43
  -15.8500004       1.19250499E-41
  -15.8400002       1.67010955E-40
  -15.8299999       1.76802948E-39
  -15.8199997       1.46753812E-38
  -15.8100004       9.92268299E-38
  -15.8000002       5.60630952E-37
  -15.7900000       2.70063729E-36
  -15.7799997       1.12910810E-35
  -15.7700005       4.15361044E-35
  -15.7600002       1.35843628E-34
  -15.7500000       3.98021698E-34
  -15.7399998       1.04989838E-33
  -15.7299995       2.49786084E-33
  -15.7200003       5.34939598E-33
  -15.7100000       1.02313632E-32
  -15.6999998       1.71478030E-32
  -15.6899996       2.40545700E-32
  -15.6800003       2.44980516E-32
  -15.6700001       4.82622422E-33
  -15.6599998      -5.71514539E-32
  -15.6499996      -1.88241220E-31
  -15.6400003      -4.05295500E-31
  -15.6300001      -6.85510972E-31
  -15.6199999      -9.23473628E-31
  -15.6099997      -8.91083681E-31
  -15.6000004      -2.37308118E-31
  -15.5900002       1.41715756E-30
  -15.5799999       4.23916478E-30
  -15.5699997       7.79718531E-30
  -15.5600004       1.06486134E-29
  -15.5500002       1.01845523E-29
  -15.5400000       3.14930829E-30
  -15.5299997      -1.27977503E-29
  -15.5200005      -3.65176299E-29
  -15.5100002      -6.06937262E-29
  -15.5000000      -7.09063308E-29
  -15.4899998      -4.89864163E-29
  -15.4799995       1.76739100E-29
  -15.4700003       1.22270503E-28
  -15.4600000       2.26782319E-28
  -15.4499998       2.63793132E-28
  -15.4399996       1.63803784E-28
  -15.4300003      -8.98979260E-29
  -15.4200001      -3.98839388E-28
  -15.4099998      -5.27585012E-28
  -15.3999996      -1.86242337E-28
  -15.3900003       7.44075908E-28
  -15.3800001       1.89205149E-27
  -15.3699999       2.17433061E-27
  -15.3599997      -8.19525396E-30
  -15.3500004      -5.84722808E-27
  -15.3400002      -1.44662838E-26
  -15.3299999      -2.11535363E-26
  -15.3199997      -1.69275945E-26
  -15.3100004       8.65719762E-27
  -15.3000002       6.01843863E-26
  -15.2900000       1.25620121E-25
  -15.2799997       1.67218581E-25
  -15.2700005       1.23286338E-25
  -15.2600002      -6.89467451E-26
  -15.2500000      -4.25026078E-25
  -15.2399998      -8.50494016E-25
  -15.2299995      -1.09681514E-24
  -15.2200003      -7.88302490E-25
  -15.2100000       4.28663910E-25
  -15.1999998       2.60265210E-24
  -15.1899996       5.13497726E-24
  -15.1800003       6.56647147E-24
  -15.1700001       4.76836007E-24
  -15.1599998      -2.21319009E-24
  -15.1499996      -1.46284536E-23
  -15.1400003      -2.92206638E-23
  -15.1300001      -3.81112177E-23
  -15.1199999      -2.97471243E-23
  -15.1099997       6.85069687E-24
  -15.1000004       7.43408570E-23
  -15.0900002       1.57691793E-22
  -15.0799999       2.17714175E-22
  -15.0699997       1.94089191E-22
  -15.0600004       2.42645284E-23
  -15.0500002      -3.19716666E-22
  -15.0400000      -7.83459089E-22
  -15.0299997      -1.19094369E-21
  -15.0200005      -1.24433319E-21
  -15.0100002      -5.95619064E-22
  -15.0000000       9.91339210E-22
  -14.9899998       3.40745260E-21
  -14.9799995       5.96830926E-21
  -14.9700003       7.32150485E-21
  -14.9600000       5.65648640E-21
  -14.9499998      -6.54486111E-22
  -14.9399996      -1.19916737E-20
  -14.9300003      -2.62489078E-20
  -14.9200001      -3.79663784E-20
  -14.9099998      -3.86075726E-20
  -14.8999996      -1.87453344E-20
  -14.8900003       2.75246772E-20
  -14.8800001       9.65845228E-20
  -14.8699999       1.69709583E-19
  -14.8599997       2.11236157E-19
  -14.8500004       1.74365718E-19
  -14.8400002       1.73716701E-20
  -14.8299999      -2.70505819E-19
  -14.8199997      -6.39871612E-19
  -14.8100004      -9.61658156E-19
  -14.8000002      -1.03473119E-18
  -14.7900000      -6.36622601E-19
  -14.7799997       3.77608699E-19
  -14.7700005       1.94487781E-18
  -14.7600002       3.67670574E-18
  -14.7500000       4.82454664E-18
  -14.7399998       4.40375159E-18
  -14.7299995       1.52290299E-18
  -14.7200003      -4.10707665E-18
  -14.7100000      -1.16182207E-17
  -14.6999998      -1.86323260E-17
  -14.6899996      -2.14197857E-17
  -14.6800003      -1.58269512E-17
  -14.6700001       9.84231088E-19
  -14.6599998       2.83146538E-17
  -14.6499996       6.00011670E-17
  -14.6400003       8.39030934E-17
  -14.6300001       8.39223965E-17
  -14.6199999       4.51543206E-17
  -14.6099997      -3.83909974E-17
  -14.6000004      -1.55600376E-16
  -14.5900002      -2.73177946E-16
  -14.5799999      -3.37866196E-16
  -14.5699997      -2.89173819E-16
  -14.5600004      -8.27358423E-17
  -14.5500002       2.80376826E-16
  -14.5400000       7.28451352E-16
  -14.5299997       1.11171190E-15
  -14.5200005       1.22574350E-15
  -14.5100002       8.71932698E-16
  -14.5000000      -5.22320452E-17
  -14.4899998      -1.45712399E-15
  -14.4799995      -2.99845280E-15
  -14.4700003      -4.09273530E-15
  -14.4600000      -4.04371920E-15
  -14.4499998      -2.28102458E-15
  -14.4399996       1.33552574E-15
  -14.4300003       6.24306269E-15
  -14.4200001       1.10648812E-14
  -14.4099998       1.37858559E-14
  -14.3999996       1.22754717E-14
  -14.3900003       5.10448016E-15
  -14.3800001      -7.54665190E-15
  -14.3699999      -2.32166750E-14
  -14.3599997      -3.71096417E-14
  -14.3500004      -4.29517499E-14
  -14.3400002      -3.48150802E-14
  -14.3299999      -9.59610487E-15
  -14.3199997       3.05504320E-14
  -14.3100004       7.67997997E-14
  -14.3000002       1.14238385E-13
  -14.2900000       1.25027660E-13
  -14.2799997       9.39672331E-14
  -14.2700005       1.52851940E-14
  -14.2600002      -1.01447950E-13
  -14.2500000      -2.28846185E-13
  -14.2399998      -3.24904437E-13
  -14.2299995      -3.42789219E-13
  -14.2200003      -2.46034042E-13
  -14.2100000      -2.55117294E-14
  -14.1999998       2.87353529E-13
  -14.1899996       6.17237598E-13
  -14.1800003       8.56008027E-13
  -14.1700001       8.89195347E-13
  -14.1599998       6.33565845E-13
  -14.1499996       7.62357164E-14
  -14.1400003      -6.97857787E-13
  -14.1300001      -1.50322907E-12
  -14.1199999      -2.08449382E-12
  -14.1099997      -2.17992768E-12
  -14.1000004      -1.60618220E-12
  -14.0900002      -3.41766790E-13
  -14.0799999       1.41885505E-12
  -14.0699997       3.26663219E-12
  -14.0600004       4.64924843E-12
  -14.0500002       5.00750049E-12
  -14.0400000       3.94942499E-12
  -14.0299997       1.41549912E-12
  -14.0200005      -2.21966260E-12
  -14.0100002      -6.15631721E-12
  -14.0000000      -9.31172240E-12
  -13.9899998      -1.05804627E-11
  -13.9799995      -9.15788799E-12
  -13.9700003      -4.84056241E-12
  -13.9600000       1.79185399E-12
  -13.9499998       9.39041206E-12
  -13.9399996       1.60771604E-11
  -13.9300003       1.98790619E-11
  -13.9200001       1.92595124E-11
  -13.9099998       1.36067407E-11
  -13.8999996       3.53286866E-12
  -13.8900003      -9.12631342E-12
  -13.8800001      -2.16441171E-11
  -13.8699999      -3.10083417E-11
  -13.8599997      -3.46522464E-11
  -13.8500004      -3.11177056E-11
  -13.8400002      -2.04635284E-11
  -13.8299999      -4.30036952E-12
  -13.8199997       1.45587032E-11
  -13.8100004       3.27260163E-11
  -13.8000002       4.69540934E-11
  -13.7900000       5.47255713E-11
  -13.7799997       5.45612479E-11
  -13.7700005       4.60042386E-11
  -13.7600002       2.93793948E-11
  -13.7500000       5.52831305E-12
  -13.7399998      -2.42559514E-11
  -13.7299995      -5.79582320E-11
  -13.7200003      -9.22757842E-11
  -13.7100000      -1.22017479E-10
  -13.6999998      -1.39891848E-10
  -13.6899996      -1.37136719E-10
  -13.6800003      -1.05278071E-10
  -13.6700001      -3.89491703E-11
  -13.6599998       6.07714434E-11
  -13.6499996       1.83483090E-10
  -13.6400003       3.08260667E-10
  -13.6300001       4.05230738E-10
  -13.6199999       4.40492642E-10
  -13.6099997       3.84056481E-10
  -13.6000004       2.19412030E-10
  -13.5900002      -4.75861399E-11
  -13.5799999      -3.83305887E-10
  -13.5699997      -7.26926186E-10
  -13.5600004      -9.98503502E-10
  -13.5500002      -1.11422094E-09
  -13.5400000      -1.00648034E-09
  -13.5299997      -6.44609310E-10
  -13.5200005      -5.09094121E-11
  -13.5100002       6.93067326E-10
  -13.5000000       1.45352808E-09
  -13.4899998       2.06548312E-09
  -13.4799995       2.36502751E-09
  -13.4700003       2.22690977E-09
  -13.4600000       1.59911573E-09
  -13.4499998       5.25916088E-10
  -13.4399996      -8.47519777E-10
  -13.4300003      -2.29218577E-09
  -13.4200001      -3.53238128E-09
  -13.4099998      -4.29665059E-09
  -13.3999996      -4.37248637E-09
  -13.3900003      -3.65343955E-09
  -13.3800001      -2.16845986E-09
  -13.3699999      -8.68970451E-11
  -13.3599997       2.30220687E-09
  -13.3500004       4.63258143E-09
  -13.3400002       6.51663745E-09
  -13.3299999       7.60466179E-09
  -13.3199997       7.63742758E-09
  -13.3100004       6.48523013E-09
  -13.3000002       4.17004831E-09
  -13.2900000       8.71033135E-10
  -13.2799997      -3.08419446E-09
  -13.2700005      -7.24021865E-09
  -13.2600002      -1.10456826E-08
  -13.2500000      -1.38980116E-08
  -13.2399998      -1.52043604E-08
  -13.2299995      -1.44602108E-08
  -13.2200003      -1.13436052E-08
  -13.2100000      -5.81478998E-09
  -13.1999998       1.79673376E-09
  -13.1899996       1.07423919E-08
  -13.1800003       1.98681267E-08
  -13.1700001       2.77112076E-08
  -13.1599998       3.26867138E-08
  -13.1499996       3.33486661E-08
  -13.1400003       2.86901702E-08
  -13.1300001       1.84259861E-08
  -13.1199999       3.19385185E-09
  -13.1099997      -1.53855773E-08
  -13.1000004      -3.48287443E-08
  -13.0900002      -5.20953307E-08
  -13.0799999      -6.40448263E-08
  -13.0699997      -6.79729197E-08
  -13.0600004      -6.21287697E-08
  -13.0500002      -4.61109977E-08
  -13.0400000      -2.10570619E-08
  -13.0299997       1.04217408E-08
  -13.0200005       4.45558435E-08
  -13.0100002       7.69278259E-08
  -13.0000000       1.03083437E-07
  -12.9899998       1.19130462E-07
  -12.9799995       1.22224108E-07
  -12.9700003       1.10871220E-07
  -12.9600000       8.50363620E-08
  -12.9499998       4.60826399E-08
  -12.9399996      -3.38580652E-09
  -12.9300003      -5.97017049E-08
  -12.9200001      -1.18280767E-07
  -12.9099998      -1.73727685E-07
  -12.8999996      -2.19952028E-07
  -12.8900003      -2.50390116E-07
  -12.8800001      -2.58442867E-07
  -12.8699999      -2.38206397E-07
  -12.8599997      -1.85503822E-07
  -12.8500004      -9.91063303E-08
  -12.8400002       1.80734840E-08
  -12.8299999       1.58117928E-07
  -12.8199997       3.07899398E-07
  -12.8100004       4.49790377E-07
  -12.8000002       5.63401272E-07
  -12.7900000       6.28232840E-07
  -12.7799997       6.26912083E-07
  -12.7700005       5.48455489E-07
  -12.7600002       3.90932939E-07
  -12.7500000       1.62916152E-07
  -12.7399998      -1.16712918E-07
  -12.7299995      -4.20709455E-07
  -12.7200003      -7.16921932E-07
  -12.7100000      -9.72665816E-07
  -12.6999998      -1.15918601E-06
  -12.6899996      -1.25532938E-06
  -12.6800003      -1.24968938E-06
  -12.6700001      -1.14084958E-06
  -12.6599998      -9.35769151E-07
  -12.6499996      -6.46861793E-07
  -12.6400003      -2.88620384E-07
  -12.6300001       1.25205688E-07
  -12.6199999       5.82959444E-07
  -12.6099997       1.07445646E-06
  -12.6000004       1.58836974E-06
  -12.5900002       2.10818666E-06
  -12.5799999       2.60778711E-06
  -12.5699997       3.04784066E-06
  -12.5600004       3.37431948E-06
  -12.5500002       3.51993845E-06
  -12.5400000       3.40890028E-06
  -12.5299997       2.96475332E-06
  -12.5200005       2.12049918E-06
  -12.5100002       8.29959276E-07
  -12.5000000      -9.20830189E-07
  -12.4899998      -3.10322798E-06
  -12.4799995      -5.63730100E-06
  -12.4700003      -8.38535743E-06
  -12.4600000      -1.11479167E-05
  -12.4499998      -1.36623548E-05
  -12.4399996      -1.56047936E-05
  -12.4300003      -1.65957681E-05
  -12.4200001      -1.62110082E-05
  -12.4099998      -1.39979866E-05
  -12.3999996      -9.49900550E-06
  -12.3900003      -2.28140425E-06
  -12.3800001       8.02685099E-06
  -12.3699999       2.16978551E-05
  -12.3599997       3.88638400E-05
  -12.3500004       5.94812591E-05
  -12.3400002       8.33023369E-05
  -12.3299999       1.09858607E-04
  -12.3199997       1.38458607E-04
  -12.3100004       1.68202314E-04
  -12.3000002       1.98008944E-04
  -12.2900000       2.26661912E-04
  -12.2799997       2.52859434E-04
  -12.2700005       2.75275816E-04
  -12.2600002       2.92620884E-04
  -12.2500000       3.03700392E-04
  -12.2399998       3.07465729E-04
  -12.2299995       3.03061592E-04
  -12.2200003       2.89856980E-04
  -12.2100000       2.67467432E-04
  -12.1999998       2.35767206E-04
  -12.1899996       1.94886248E-04
  -12.1800003       1.45198370E-04
  -12.1700001       8.72989476E-05
  -12.1599998       2.19785379E-05
  -12.1499996      -4.98192712E-05
  -12.1400003      -1.27032676E-04
  -12.1300001      -2.08523110E-04
  -12.1199999      -2.93111283E-04
  -12.1099997      -3.79613659E-04
  -12.1000004      -4.66863508E-04
  -12.0900002      -5.53731516E-04
  -12.0799999      -6.39129488E-04
  -12.0699997      -7.22010853E-04
  -12.0600004      -8.01360875E-04
  -12.0500002      -8.76185659E-04
  -12.0400000      -9.45492822E-04
  -12.0299997      -1.00828579E-03
  -12.0200005      -1.06355024E-03
  -12.0100002      -1.11025909E-03
  -12.0000000      -1.14738266E-03
  -11.9899998      -1.17390009E-03
  -11.9799995      -1.18883362E-03
  -11.9700003      -1.19126984E-03
  -11.9600000      -1.18039281E-03
  -11.9499998      -1.15551148E-03
  -11.9399996      -1.11608219E-03
  -11.9300003      -1.06172380E-03
  -11.9200001      -9.92225367E-04
  -11.9099998      -9.07553360E-04
  -11.8999996      -8.07843579E-04
  -11.8900003      -6.93406735E-04
  -11.8800001      -5.64715418E-04
  -11.8699999      -4.22405894E-04
  -11.8599997      -2.67272815E-04
  -11.8500004      -1.00262499E-04
  -11.8400002       7.75304361E-05
  -11.8299999       2.64876231E-04
  -11.8199997       4.60420677E-04
  -11.8100004       6.62703766E-04
  -11.8000002       8.70178163E-04
  -11.7900000       1.08122360E-03
  -11.7799997       1.29417493E-03
  -11.7700005       1.50732475E-03
  -11.7600002       1.71894080E-03
  -11.7500000       1.92727137E-03
  -11.7399998       2.13055033E-03
  -11.7299995       2.32700072E-03
  -11.7200003       2.51484709E-03
  -11.7100000       2.69231480E-03
  -11.6999998       2.85764504E-03
  -11.6899996       3.00910114E-03
  -11.6800003       3.14497901E-03
  -11.6700001       3.26361204E-03
  -11.6599998       3.36337159E-03
  -11.6499996       3.44267231E-03
  -11.6400003       3.49997403E-03
  -11.6300001       3.53378360E-03
  -11.6199999       3.54267121E-03
  -11.6099997       3.52528412E-03
  -11.6000004       3.48037807E-03
  -11.5900002       3.40685504E-03
  -11.5799999       3.30378511E-03
  -11.5699997       3.17045837E-03
  -11.5600004       3.00639775E-03
  -11.5500002       2.81137833E-03
  -11.5400000       2.58544204E-03
  -11.5299997       2.32888456E-03
  -11.5200005       2.04225071E-03
  -11.5100002       1.72631105E-03
  -11.5000000       1.38205569E-03
  -11.4899998       1.01067510E-03
  -11.4799995       6.13537501E-04
  -11.4700003       1.92186999E-04
  -11.4600000      -2.51696591E-04
  -11.4499998      -7.16303068E-04
  -11.4399996      -1.19974231E-03
  -11.4300003      -1.70007814E-03
  -11.4200001      -2.21537403E-03
  -11.4099998      -2.74372404E-03
  -11.3999996      -3.28329764E-03
  -11.3900003      -3.83234536E-03
  -11.3800001      -4.38921852E-03
  -11.3699999      -4.95234644E-03
  -11.3599997      -5.52021759E-03
  -11.3500004      -6.09136047E-03
  -11.3400002      -6.66430918E-03
  -11.3299999      -7.23758759E-03
  -11.3199997      -7.80968927E-03
  -11.3100004      -8.37907102E-03
  -11.3000002      -8.94416403E-03
  -11.2900000      -9.50336829E-03
  -11.2799997      -1.00550568E-02
  -11.2700005      -1.05975727E-02
  -11.2600002      -1.11292442E-02
  -11.2500000      -1.16483662E-02
  -11.2399998      -1.21532176E-02
  -11.2299995      -1.26420613E-02
  -11.2200003      -1.31131746E-02
  -11.2100000      -1.35648781E-02
  -11.1999998      -1.39955981E-02
  -11.1899996      -1.44038815E-02
  -11.1800003      -1.47884982E-02
  -11.1700001      -1.51484394E-02
  -11.1599998      -1.54829966E-02
  -11.1499996      -1.57917403E-02
  -11.1400003      -1.60745326E-02
  -11.1300001      -1.63315069E-02
  -11.1199999      -1.65630355E-02
  -11.1099997      -1.67696606E-02
  -11.1000004      -1.69520564E-02
  -11.0900002      -1.71109736E-02
  -11.0799999      -1.72471907E-02
  -11.0699997      -1.73614658E-02
  -11.0600004      -1.74545143E-02
  -11.0500002      -1.75269675E-02
  -11.0400000      -1.75794009E-02
  -11.0299997      -1.76122859E-02
  -11.0200005      -1.76260322E-02
  -11.0100002      -1.76209733E-02
  -11.0000000      -1.75974015E-02
  -10.9899998      -1.75555628E-02
  -10.9799995      -1.74956731E-02
  -10.9700003      -1.74179263E-02
  -10.9600000      -1.73224825E-02
  -10.9499998      -1.72094777E-02
  -10.9399996      -1.70789938E-02
  -10.9300003      -1.69310588E-02
  -10.9200001      -1.67656429E-02
  -10.9099998      -1.65826622E-02
  -10.8999996      -1.63819753E-02
  -10.8900003      -1.61634255E-02
  -10.8800001      -1.59268361E-02
  -10.8699999      -1.56720653E-02
  -10.8599997      -1.53989969E-02
  -10.8500004      -1.51075814E-02
  -10.8400002      -1.47978617E-02
  -10.8299999      -1.44699113E-02
  -10.8199997      -1.41238784E-02
  -10.8100004      -1.37599539E-02
  -10.8000002      -1.33783482E-02
  -10.7900000      -1.29792551E-02
  -10.7799997      -1.25628244E-02
  -10.7700005      -1.21291736E-02
  -10.7600002      -1.16783278E-02
  -10.7500000      -1.12102032E-02
  -10.7399998      -1.07246581E-02
  -10.7299995      -1.02214431E-02
  -10.7200003      -9.70024522E-03
  -10.7100000      -9.16071981E-03
  -10.6999998      -8.60252511E-03
  -10.6899996      -8.02535564E-03
  -10.6800003      -7.42897578E-03
  -10.6700001      -6.81325002E-03
  -10.6599998      -6.17814483E-03
  -10.6499996      -5.52377384E-03
  -10.6400003      -4.85037221E-03
  -10.6300001      -4.15833155E-03
  -10.6199999      -3.44819692E-03
  -10.6099997      -2.72071082E-03
  -10.6000004      -1.97682832E-03
  -10.5900002      -1.21774524E-03
  -10.5799999      -4.44926991E-04
  -10.5699997       3.39925202E-04
  -10.5600004       1.13486184E-03
  -10.5500002       1.93775899E-03
  -10.5400000       2.74637528E-03
  -10.5299997       3.55840242E-03
  -10.5200005       4.37153829E-03
  -10.5100002       5.18352212E-03
  -10.5000000       5.99216530E-03
  -10.4899998       6.79533323E-03
  -10.4799995       7.59095373E-03
  -10.4700003       8.37699231E-03
  -10.4600000       9.15144477E-03
  -10.4499998       9.91234276E-03
  -10.4399996       1.06577678E-02
  -10.4300003       1.13858683E-02
  -10.4200001       1.20948600E-02
  -10.4099998       1.27830487E-02
  -10.3999996       1.34487934E-02
  -10.3900003       1.40904663E-02
  -10.3800001       1.47063993E-02
  -10.3699999       1.52948536E-02
  -10.3599997       1.58539619E-02
  -10.3500004       1.63817424E-02
  -10.3400002       1.68761332E-02
  -10.3299999       1.73350461E-02
  -10.3199997       1.77564602E-02
  -10.3100004       1.81385335E-02
  -10.3000002       1.84796657E-02
  -10.2900000       1.87786054E-02
  -10.2799997       1.90344900E-02
  -10.2700005       1.92468688E-02
  -10.2600002       1.94157250E-02
  -10.2500000       1.95414647E-02
  -10.2399998       1.96249001E-02
  -10.2299995       1.96672343E-02
  -10.2200003       1.96700208E-02
  -10.2100000       1.96351726E-02
  -10.1999998       1.95648894E-02
  -10.1899996       1.94616392E-02
  -10.1800003       1.93281081E-02
  -10.1700001       1.91671848E-02
  -10.1599998       1.89818442E-02
  -10.1499996       1.87751558E-02
  -10.1400003       1.85502097E-02
  -10.1300001       1.83100719E-02
  -10.1199999       1.80577803E-02
  -10.1099997       1.77962556E-02
  -10.1000004       1.75283775E-02
  -10.0900002       1.72568616E-02
  -10.0799999       1.69843361E-02
  -10.0699997       1.67132746E-02
  -10.0600004       1.64460205E-02
  -10.0500002       1.61847603E-02
  -10.0400000       1.59314945E-02
  -10.0299997       1.56880524E-02
  -10.0200005       1.54560152E-02
  -10.0100002       1.52367176E-02
  -10.0000000       1.50312046E-02
  -9.98999977       1.48402220E-02
  -9.97999954       1.46642216E-02
  -9.97000027       1.45034073E-02
  -9.96000004       1.43577848E-02
  -9.94999981       1.42272320E-02
  -9.93999958       1.41116399E-02
  -9.93000031       1.40109537E-02
  -9.92000008       1.39252935E-02
  -9.90999985       1.38549982E-02
  -9.89999962       1.38006415E-02
  -9.89000034       1.37630291E-02
  -9.88000011       1.37431538E-02
  -9.86999989       1.37421070E-02
  -9.85999966       1.37610175E-02
  -9.85000038       1.38009414E-02
  -9.84000015       1.38628073E-02
  -9.82999992       1.39473546E-02
  -9.81999969       1.40551087E-02
  -9.81000042       1.41864009E-02
  -9.80000019       1.43413851E-02
  -9.78999996       1.45201311E-02
  -9.77999973       1.47226518E-02
  -9.77000046       1.49490219E-02
  -9.76000023       1.51994145E-02
  -9.75000000       1.54741416E-02
  -9.73999977       1.57736838E-02
  -9.72999954       1.60986017E-02
  -9.72000027       1.64495204E-02
  -9.71000004       1.68270264E-02
  -9.69999981       1.72314961E-02
  -9.68999958       1.76630206E-02
  -9.68000031       1.81212593E-02
  -9.67000008       1.86053496E-02
  -9.65999985       1.91138349E-02
  -9.64999962       1.96446478E-02
  -9.64000034       2.01951303E-02
  -9.63000011       2.07620524E-02
  -9.61999989       2.13417578E-02
  -9.60999966       2.19301600E-02
  -9.60000038       2.25228816E-02
  -9.59000015       2.31153015E-02
  -9.57999992       2.37025507E-02
  -9.56999969       2.42795479E-02
  -9.56000042       2.48410143E-02
  -9.55000019       2.53814086E-02
  -9.53999996       2.58950014E-02
  -9.52999973       2.63758451E-02
  -9.52000046       2.68179085E-02
  -9.51000023       2.72151809E-02
  -9.50000000       2.75618024E-02
  -9.48999977       2.78522186E-02
  -9.47999954       2.80813780E-02
  -9.47000027       2.82448549E-02
  -9.46000004       2.83389632E-02
  -9.44999981       2.83608884E-02
  -9.43999958       2.83087939E-02
  -9.43000031       2.81818043E-02
  -9.42000008       2.79801749E-02
  -9.40999985       2.77052745E-02
  -9.39999962       2.73596793E-02
  -9.39000034       2.69471928E-02
  -9.38000011       2.64728479E-02
  -9.36999989       2.59428713E-02
  -9.35999966       2.53647044E-02
  -9.35000038       2.47468986E-02
  -9.34000015       2.40990520E-02
  -9.32999992       2.34317034E-02
  -9.31999969       2.27562562E-02
  -9.31000042       2.20848788E-02
  -9.30000019       2.14303005E-02
  -9.28999996       2.08057296E-02
  -9.27999973       2.02245880E-02
  -9.27000046       1.97003111E-02
  -9.26000023       1.92461647E-02
  -9.25000000       1.88749190E-02
  -9.23999977       1.85987353E-02
  -9.22999954       1.84290428E-02
  -9.22000027       1.83763187E-02
  -9.21000004       1.84500571E-02
  -9.19999981       1.86587144E-02
  -9.18999958       1.90095007E-02
  -9.18000031       1.95083451E-02
  -9.17000008       2.01596562E-02
  -9.15999985       2.09662654E-02
  -9.14999962       2.19291989E-02
  -9.14000034       2.30475366E-02
  -9.13000011       2.43185274E-02
  -9.11999989       2.57375482E-02
  -9.10999966       2.72981841E-02
  -9.10000038       2.89925095E-02
  -9.09000015       3.08110677E-02
  -9.07999992       3.27431560E-02
  -9.06999969       3.47768590E-02
  -9.06000042       3.68991643E-02
  -9.05000019       3.90960351E-02
  -9.03999996       4.13526222E-02
  -9.02999973       4.36532125E-02
  -9.02000046       4.59816232E-02
  -9.01000023       4.83213738E-02
  -9.00000000       5.06558307E-02
  -8.98999977       5.29685058E-02
  -8.97999954       5.52430674E-02
  -8.97000027       5.74634746E-02
  -8.96000004       5.96140064E-02
  -8.94999981       6.16792999E-02
  -8.93999958       6.36442825E-02
  -8.93000031       6.54944256E-02
  -8.92000008       6.72157481E-02
  -8.90999985       6.87949806E-02
  -8.89999962       7.02197775E-02
  -8.89000034       7.14788288E-02
  -8.88000011       7.25618079E-02
  -8.86999989       7.34593794E-02
  -8.85999966       7.41631165E-02
  -8.85000038       7.46655762E-02
  -8.84000015       7.49599934E-02
  -8.82999992       7.50404671E-02
  -8.81999969       7.49020427E-02
  -8.81000042       7.45410100E-02
  -8.80000019       7.39547759E-02
  -8.78999996       7.31423572E-02
  -8.77999973       7.21042380E-02
  -8.77000046       7.08423927E-02
  -8.76000023       6.93602189E-02
  -8.75000000       6.76625147E-02
  -8.73999977       6.57550842E-02
  -8.72999954       6.36449978E-02
  -8.72000027       6.13402128E-02
  -8.71000004       5.88499978E-02
  -8.69999981       5.61844185E-02
  -8.68999958       5.33547103E-02
  -8.68000031       5.03729321E-02
  -8.67000008       4.72517759E-02
  -8.65999985       4.40044664E-02
  -8.64999962       4.06442508E-02
  -8.64000034       3.71843390E-02
  -8.63000011       3.36375572E-02
  -8.61999989       3.00164167E-02
  -8.60999966       2.63329241E-02
  -8.60000038       2.25985330E-02
  -8.59000015       1.88242421E-02
  -8.57999992       1.50203975E-02
  -8.56999969       1.11965481E-02
  -8.56000042       7.36137899E-03
  -8.55000019       3.52250296E-03
  -8.53999996      -3.13602824E-04
  -8.52999973      -4.14160965E-03
  -8.52000046      -7.95712508E-03
  -8.51000023      -1.17566995E-02
  -8.50000000      -1.55374389E-02
  -8.48999977      -1.92969535E-02
  -8.47999954      -2.30332073E-02
  -8.47000027      -2.67444849E-02
  -8.46000004      -3.04293074E-02
  -8.44999981      -3.40865739E-02
  -8.43999958      -3.77153307E-02
  -8.43000031      -4.13147509E-02
  -8.42000008      -4.48839143E-02
  -8.40999985      -4.84216399E-02
  -8.39999962      -5.19262180E-02
  -8.39000034      -5.53953387E-02
  -8.38000011      -5.88260069E-02
  -8.36999989      -6.22145608E-02
  -8.35999966      -6.55569881E-02
  -8.35000038      -6.88489452E-02
  -8.34000015      -7.20859542E-02
  -8.32999992      -7.52634853E-02
  -8.31999969      -7.83769488E-02
  -8.31000042      -8.14216584E-02
  -8.30000019      -8.43926594E-02
  -8.28999996      -8.72847661E-02
  -8.27999973      -9.00925323E-02
  -8.27000046      -9.28101689E-02
  -8.26000023      -9.54318792E-02
  -8.25000000      -9.79518294E-02
  -8.23999977     -0.100364074    
  -8.22999954     -0.102662817    
  -8.22000027     -0.104841948    
  -8.21000004     -0.106895179    
  -8.19999981     -0.108815692    
  -8.18999958     -0.110596135    
  -8.18000031     -0.112228513    
  -8.17000008     -0.113704458    
  -8.15999985     -0.115015142    
  -8.14999962     -0.116151780    
  -8.14000034     -0.117105484    
  -8.13000011     -0.117867753    
  -8.11999989     -0.118430212    
  -8.10999966     -0.118784770    
  -8.10000038     -0.118923657    
  -8.09000015     -0.118839443    
  -8.07999992     -0.118525282    
  -8.06999969     -0.117974967    
  -8.06000042     -0.117183223    
  -8.05000019     -0.116146050    
  -8.03999996     -0.114860527    
  -8.02999973     -0.113325186    
  -8.02000046     -0.111539684    
  -8.01000023     -0.109504789    
  -8.00000000     -0.107222140    
  -7.98999977     -0.104694158    
  -7.98000002     -0.101924181    
  -7.96999979      -9.89163592E-02
  -7.96000004      -9.56759751E-02
  -7.94999981      -9.22095105E-02
  -7.94000006      -8.85248035E-02
  -7.92999983      -8.46309662E-02
  -7.92000008      -8.05383399E-02
  -7.90999985      -7.62583464E-02
  -7.90000010      -7.18030632E-02
  -7.88999987      -6.71854094E-02
  -7.88000011      -6.24186322E-02
  -7.86999989      -5.75167574E-02
  -7.86000013      -5.24944067E-02
  -7.84999990      -4.73668240E-02
  -7.84000015      -4.21500392E-02
  -7.82999992      -3.68606821E-02
  -7.82000017      -3.15157510E-02
  -7.80999994      -2.61325110E-02
  -7.80000019      -2.07279343E-02
  -7.78999996      -1.53188128E-02
  -7.78000021      -9.92129743E-03
  -7.76999998      -4.55107540E-03
  -7.76000023       7.76750268E-04
  -7.75000000       6.04755525E-03
  -7.73999977       1.12473099E-02
  -7.73000002       1.63625386E-02
  -7.71999979       2.13806331E-02
  -7.71000004       2.62901112E-02
  -7.69999981       3.10806073E-02
  -7.69000006       3.57432403E-02
  -7.67999983       4.02707942E-02
  -7.67000008       4.46571149E-02
  -7.65999985       4.88976166E-02
  -7.65000010       5.29885478E-02
  -7.63999987       5.69272973E-02
  -7.63000011       6.07120208E-02
  -7.61999989       6.43418506E-02
  -7.61000013       6.78171813E-02
  -7.59999990       7.11396262E-02
  -7.59000015       7.43121505E-02
  -7.57999992       7.73388743E-02
  -7.57000017       8.02253336E-02
  -7.55999994       8.29777867E-02
  -7.55000019       8.56032372E-02
  -7.53999996       8.81090090E-02
  -7.53000021       9.05028358E-02
  -7.51999998       9.27925035E-02
  -7.51000023       9.49860290E-02
  -7.50000000       9.70918536E-02
  -7.48999977       9.91186574E-02
  -7.48000002      0.101075508    
  -7.46999979      0.102971636    
  -7.46000004      0.104816534    
  -7.44999981      0.106619380    
  -7.44000006      0.108389340    