  -16.0000000       0.00000000    
  -15.9899998       0.00000000    
  -15.9799995       0.00000000    
  -15.9700003       0.00000000    
  -15.9600000       0.00000000    
  -15.9499998       0.00000000    
  -15.9399996       0.00000000    
  -15.9300003       0.00000000    
  -15.9200001       0.00000000    
  -15.9099998       0.00000000    
  -15.8999996       0.00000000    
  -15.8900003       0.00000000    
  -15.8800001       0.00000000    
  -15.8699999       0.00000000    
  -15.8599997       1.40129846E-45
  -15.8500004       1.96181785E-44
  -15.8400002       2.00385680E-43
  -15.8299999       1.60869064E-42
  -15.8199997       1.06106320E-41
  -15.8100004       5.81566889E-41
  -15.8000002       2.68975036E-40
  -15.7900000       1.06223188E-39
  -15.7799997       3.60507292E-39
  -15.7700005       1.04926777E-38
  -15.7600002       2.57391931E-38
  -15.7500000       5.03895605E-38
  -15.7399998       6.40365877E-38
  -15.7299995      -2.60883883E-38
  -15.7200003      -4.89690587E-37
  -15.7100000      -1.92630244E-36
  -15.6999998      -5.36477534E-36
  -15.6899996      -1.20118469E-35
  -15.6800003      -2.21166765E-35
  -15.6700001      -3.24112835E-35
  -15.6599998      -3.23357087E-35
  -15.6499996      -1.29179396E-36
  -15.6400003       8.77750414E-35
  -15.6300001       2.51349000E-34
  -15.6199999       4.61955964E-34
  -15.6099997       6.10818778E-34
  -15.6000004       5.04127466E-34
  -15.5900002      -5.15668307E-35
  -15.5799999      -1.04491814E-33
  -15.5699997      -2.01306328E-33
  -15.5600004      -2.00611666E-33
  -15.5500002      -1.38523652E-34
  -15.5400000       3.08400824E-33
  -15.5299997       4.21883784E-33
  -15.5200005      -3.11555080E-33
  -15.5100002      -2.41381153E-32
  -15.5000000      -5.34621766E-32
  -15.4899998      -6.41488309E-32
  -15.4799995      -7.26735056E-33
  -15.4700003       1.60408747E-31
  -15.4600000       4.11011788E-31
  -15.4499998       5.65788753E-31
  -15.4399996       2.79216278E-31
  -15.4300003      -7.91006512E-31
  -15.4200001      -2.54381002E-30
  -15.4099998      -3.83697794E-30
  -15.3999996      -2.20727483E-30
  -15.3900003       5.25853956E-30
  -15.3800001       1.91285258E-29
  -15.3699999       3.31442944E-29
  -15.3599997       3.05090685E-29
  -15.3500004      -1.38433166E-29
  -15.3400002      -1.18621167E-28
  -15.3299999      -2.66572153E-28
  -15.3199997      -3.68783662E-28
  -15.3100004      -2.49860112E-28
  -15.3000002       3.03194529E-28
  -15.2900000       1.38968133E-27
  -15.2799997       2.74781496E-27
  -15.2700005       3.51255841E-27
  -15.2600002       2.20044815E-27
  -15.2500000      -2.78599652E-27
  -15.2399998      -1.19381071E-26
  -15.2299995      -2.28810061E-26
  -15.2200003      -2.88957408E-26
  -15.2100000      -1.92402281E-26
  -15.1999998       1.69756812E-26
  -15.1899996       8.24922202E-26
  -15.1800003       1.60801481E-25
  -15.1700001       2.07699237E-25
  -15.1599998       1.54556488E-25
  -15.1499996      -6.71080151E-26
  -15.1400003      -4.76167832E-25
  -15.1300001      -9.78342139E-25
  -15.1199999      -1.31977199E-24
  -15.1099997      -1.10653322E-24
  -15.1000004       6.11436473E-26
  -15.0900002       2.32472753E-24
  -15.0799999       5.23209195E-24
  -15.0699997       7.48985328E-24
  -15.0600004       7.04402459E-24
  -15.0500002       1.72414149E-24
  -15.0400000      -9.47661603E-24
  -15.0299997      -2.47579309E-23
  -15.0200005      -3.82344567E-23
  -15.0100002      -4.01221283E-23
  -15.0000000      -1.94701868E-23
  -14.9899998       3.01754947E-23
  -14.9799995       1.03266607E-22
  -14.9700003       1.75946640E-22
  -14.9600000       2.05609413E-22
  -14.9499998       1.41065622E-22
  -14.9399996      -5.45795253E-23
  -14.9300003      -3.72030110E-22
  -14.9200001      -7.26430630E-22
  -14.9099998      -9.48949333E-22
  -14.8999996      -8.19056532E-22
  -14.8900003      -1.48419206E-22
  -14.8800001       1.09357649E-21
  -14.8699999       2.65227991E-21
  -14.8599997       3.92566267E-21
  -14.8500004       4.04494147E-21
  -14.8400002       2.15011605E-21
  -14.8299999      -2.15633950E-21
  -14.8199997      -8.29842535E-21
  -14.8100004      -1.43853752E-20
  -14.8000002      -1.73223366E-20
  -14.7900000      -1.35990028E-20
  -14.7799997      -7.77460666E-22
  -14.7700005       2.06373760E-20
  -14.7600002       4.56398874E-20
  -14.7500000       6.44280639E-20
  -14.7399998       6.42531023E-20
  -14.7299995       3.37632314E-20
  -14.7200003      -3.08118219E-20
  -14.7100000      -1.19530830E-19
  -14.6999998      -2.05578009E-19
  -14.6899996      -2.48170029E-19
  -14.6800003      -2.03474592E-19
  -14.6700001      -4.28131980E-20
  -14.6599998       2.26290508E-19
  -14.6499996       5.44230197E-19
  -14.6400003       7.98354247E-19
  -14.6300001       8.44889050E-19
  -14.6199999       5.55512010E-19
  -14.6099997      -1.19629755E-19
  -14.6000004      -1.09174689E-18
  -14.5900002      -2.10325477E-18
  -14.5799999      -2.75457575E-18
  -14.5699997      -2.60297836E-18
  -14.5600004      -1.32497294E-18
  -14.5500002       1.09653502E-18
  -14.5400000       4.22636188E-18
  -14.5299997       7.14987128E-18
  -14.5200005       8.62632912E-18
  -14.5100002       7.43736783E-18
  -14.5000000       2.87289505E-18
  -14.4899998      -4.78097614E-18
  -14.4799995      -1.39416660E-17
  -14.4700003      -2.18074456E-17
  -14.4600000      -2.49283682E-17
  -14.4499998      -2.02407142E-17
  -14.4399996      -6.34761569E-18
  -14.4300003       1.53421109E-17
  -14.4200001       4.00882165E-17
  -14.4099998       6.03128751E-17
  -14.3999996       6.72836453E-17
  -14.3900003       5.37796703E-17
  -14.3800001       1.71158690E-17
  -14.3699999      -3.84225626E-17
  -14.3599997      -1.00764118E-16
  -14.3500004      -1.51624099E-16
  -14.3400002      -1.70637262E-16
  -14.3299999      -1.41398055E-16
  -14.3199997      -5.79396675E-17
  -14.3100004       7.03470193E-17
  -14.3000002       2.17346484E-16
  -14.2900000       3.43733276E-16
  -14.2799997       4.05456911E-16
  -14.2700005       3.65750706E-16
  -14.2600002       2.07828295E-16
  -14.2500000      -5.53471081E-17
  -14.2399998      -3.77658877E-16
  -14.2299995      -6.85015026E-16
  -14.2200003      -8.89276492E-16
  -14.2100000      -9.08737603E-16
  -14.1999998      -6.90904393E-16
  -14.1899996      -2.32178163E-16
  -14.1800003       4.10848805E-16
  -14.1700001       1.12239679E-15
  -14.1599998       1.74241210E-15
  -14.1499996       2.09428727E-15
  -14.1400003       2.02169909E-15
  -14.1300001       1.42882991E-15
  -14.1199999       3.16830980E-16
  -14.1099997      -1.19128630E-15
  -14.1000004      -2.84512120E-15
  -14.0900002      -4.28744276E-15
  -14.0799999      -5.10495619E-15
  -14.0699997      -4.90863809E-15
  -14.0600004      -3.43575643E-15
  -14.0500002      -6.56700621E-16
  -14.0400000       3.13917419E-15
  -14.0299997       7.31001885E-15
  -14.0200005       1.09099961E-14
  -14.0100002       1.28377254E-14
  -14.0000000       1.20797486E-14
  -13.9899998       8.01335266E-15
  -13.9799995       7.01595273E-16
  -13.9700003      -8.90846573E-15
  -13.9600000      -1.89745663E-14
  -13.9499998      -2.69982062E-14
  -13.9399996      -3.03210317E-14
  -13.9300003      -2.68099226E-14
  -13.9200001      -1.55849082E-14
  -13.9099998       2.40999169E-15
  -13.8999996       2.42001972E-14
  -13.8900003       4.50908198E-14
  -13.8800001       5.95312170E-14
  -13.8699999       6.24168211E-14
  -13.8599997       5.05559204E-14
  -13.8500004       2.39210117E-14
  -13.8400002      -1.37131483E-14
  -13.8299999      -5.50455406E-14
  -13.8199997      -9.05337545E-14
  -13.8100004      -1.10510484E-13
  -13.8000002      -1.07685359E-13
  -13.7900000      -7.94006787E-14
  -13.7799997      -2.89794298E-14
  -13.7700005       3.43383125E-14
  -13.7600002       9.70470042E-14
  -13.7500000       1.44364731E-13
  -13.7399998       1.63897718E-13
  -13.7299995       1.49044473E-13
  -13.7200003       1.01168477E-13
  -13.7100000       2.98112975E-14
  -13.6999998      -4.92973040E-14
  -13.6899996      -1.18066323E-13
  -13.6800003      -1.60772532E-13
  -13.6700001      -1.68403702E-13
  -13.6599998      -1.41320413E-13
  -13.6499996      -8.93192923E-14
  -13.6400003      -2.88735066E-14
  -13.6300001       2.18411833E-14
  -13.6199999       4.87880813E-14
  -13.6099997       4.70248501E-14
  -13.6000004       2.31005400E-14
  -13.5900002      -6.17354754E-15
  -13.5799999      -1.86446639E-14
  -13.5699997       5.65144956E-15
  -13.5600004       7.63962393E-14
  -13.5500002       1.86840357E-13
  -13.5400000       3.11884307E-13
  -13.5299997       4.11723363E-13
  -13.5200005       4.40922174E-13
  -13.5100002       3.61152243E-13
  -13.5000000       1.54485501E-13
  -13.4899998      -1.66486467E-13
  -13.4799995      -5.55084028E-13
  -13.4700003      -9.35552742E-13
  -13.4600000      -1.21661253E-12
  -13.4499998      -1.31119106E-12
  -13.4399996      -1.15807136E-12
  -13.4300003      -7.40213880E-13
  -13.4200001      -9.48443323E-14
  -13.4099998       6.87940481E-13
  -13.3999996       1.47866181E-12
  -13.3900003       2.13167721E-12
  -13.3800001       2.51324786E-12
  -13.3699999       2.52820681E-12
  -13.3599997       2.13921220E-12
  -13.3500004       1.37438173E-12
  -13.3400002       3.22045559E-13
  -13.3299999      -8.85399067E-13
  -13.3199997      -2.09390925E-12
  -13.3100004      -3.15068457E-12
  -13.3000002      -3.92230345E-12
  -13.2900000      -4.30511573E-12
  -13.2799997      -4.22808446E-12
  -13.2700005      -3.65123340E-12
  -13.2600002      -2.56461042E-12
  -13.2500000      -9.92363852E-13
  -13.2399998       9.95972510E-13
  -13.2299995       3.26893504E-12
  -13.2200003       5.61761358E-12
  -13.2100000       7.75044005E-12
  -13.1999998       9.30783922E-12
  -13.1899996       9.90301331E-12
  -13.1800003       9.18861341E-12
  -13.1700001       6.94069715E-12
  -13.1599998       3.14338030E-12
  -13.1499996      -1.94750227E-12
  -13.1400003      -7.78341627E-12
  -13.1300001      -1.35605277E-11
  -13.1199999      -1.83198092E-11
  -13.1099997      -2.10995631E-11
  -13.1000004      -2.11156960E-11
  -13.0900002      -1.79349192E-11
  -13.0799999      -1.16027795E-11
  -13.0699997      -2.69438790E-12
  -13.0600004       7.73039705E-12
  -13.0500002       1.82660033E-11
  -13.0400000       2.73725886E-11
  -13.0299997       3.36214979E-11
  -13.0200005       3.59279481E-11
  -13.0100002       3.37263724E-11
  -13.0000000       2.70565306E-11
  -12.9899998       1.65480910E-11
  -12.9799995       3.31393962E-12
  -12.9700003      -1.12189919E-11
  -12.9600000      -2.55017101E-11
  -12.9499998      -3.80387492E-11
  -12.9399996      -4.75189922E-11
  -12.9300003      -5.28914239E-11
  -12.9200001      -5.33951668E-11
  -12.9099998      -4.85682258E-11
  -12.8999996      -3.82646657E-11
  -12.8900003      -2.27030703E-11
  -12.8800001      -2.55163924E-12
  -12.8699999       2.09680433E-11
  -12.8599997       4.59988471E-11
  -12.8500004       7.00406608E-11
  -12.8400002       9.00684735E-11
  -12.8299999       1.02807735E-10
  -12.8199997       1.05163683E-10
  -12.8100004       9.47595474E-11
  -12.8000002       7.04985792E-11
  -12.7900000       3.30384713E-11
  -12.7799997      -1.49372736E-11
  -12.7700005      -6.87446974E-11
  -12.7600002      -1.22068106E-10
  -12.7500000      -1.67657152E-10
  -12.7399998      -1.98271025E-10
  -12.7299995      -2.07734135E-10
  -12.7200003      -1.91936661E-10
  -12.7100000      -1.49613988E-10
  -12.6999998      -8.27714841E-11
  -12.6899996       3.32066969E-12
  -12.6800003       1.00566978E-10
  -12.6700001       1.98855224E-10
  -12.6599998       2.87116525E-10
  -12.6499996       3.54490270E-10
  -12.6400003       3.91451843E-10
  -12.6300001       3.90785126E-10
  -12.6199999       3.48324897E-10
  -12.6099997       2.63437078E-10
  -12.6000004       1.39240869E-10
  -12.5900002      -1.74082328E-11
  -12.5799999      -1.96153788E-10
  -12.5699997      -3.83586163E-10
  -12.5600004      -5.63911307E-10
  -12.5500002      -7.19857840E-10
  -12.5400000      -8.33826008E-10
  -12.5299997      -8.89253671E-10
  -12.5200005      -8.72122763E-10
  -12.5100002      -7.72479247E-10
  -12.5000000      -5.85794524E-10
  -12.4899998      -3.13981896E-10
  -12.4799995       3.40995947E-11
  -12.4700003       4.42760273E-10
  -12.4600000       8.90229945E-10
  -12.4499998       1.34995159E-09
  -12.4399996       1.79222881E-09
  -12.4300003       2.18597340E-09
  -12.4200001       2.50027288E-09
  -12.4099998       2.70553935E-09
  -12.3999996       2.77407963E-09
  -12.3900003       2.68005196E-09
  -12.3800001       2.39888132E-09
  -12.3699999       1.90632998E-09
  -12.3599997       1.17747045E-09
  -12.3500004       1.85822288E-10
  -12.3400002      -1.09711973E-09
  -12.3299999      -2.70181721E-09
  -12.3199997      -4.66001993E-09
  -12.3100004      -7.00353020E-09
  -12.3000002      -9.76248682E-09
  -12.2900000      -1.29632731E-08
  -12.2799997      -1.66261618E-08
  -12.2700005      -2.07628066E-08
  -12.2600002      -2.53735770E-08
  -12.2500000      -3.04448982E-08
  -12.2399998      -3.59465595E-08
  -12.2299995      -4.18292601E-08
  -12.2200003      -4.80224926E-08
  -12.2100000      -5.44330980E-08
  -12.1999998      -6.09447710E-08
  -12.1899996      -6.74187675E-08
  -12.1800003      -7.36959791E-08
  -12.1700001      -7.96005324E-08
  -12.1599998      -8.49445954E-08
  -12.1499996      -8.95342041E-08
  -12.1400003      -9.31755153E-08
  -12.1300001      -9.56812585E-08
  -12.1199999      -9.68763487E-08
  -12.1099997      -9.66028324E-08
  -12.1000004      -9.47235463E-08
  -12.0900002      -9.11245124E-08
  -12.0799999      -8.57162306E-08
  -12.0699997      -7.84340841E-08
  -12.0600004      -6.92382258E-08
  -12.0500002      -5.81130628E-08
  -12.0400000      -4.50667095E-08
  -12.0299997      -3.01304652E-08
  -12.0200005      -1.33582176E-08
  -12.0100002       5.17416821E-09
  -12.0000000       2.53697223E-08
  -11.9899998       4.71114348E-08
  -11.9799995       7.02635035E-08
  -11.9700003       9.46727994E-08
  -11.9600000       1.20170142E-07
  -11.9499998       1.46571395E-07
  -11.9399996       1.73678146E-07
  -11.9300003       2.01277800E-07
  -11.9200001       2.29143396E-07
  -11.9099998       2.57033093E-07
  -11.8999996       2.84689776E-07
  -11.8900003       3.11840921E-07
  -11.8800001       3.38199186E-07
  -11.8699999       3.63463784E-07
  -11.8599997       3.87322444E-07
  -11.8500004       4.09454600E-07
  -11.8400002       4.29534538E-07
  -11.8299999       4.47234839E-07
  -11.8199997       4.62229934E-07
  -11.8100004       4.74199425E-07
  -11.8000002       4.82830785E-07
  -11.7900000       4.87821922E-07
  -11.7799997       4.88884268E-07
  -11.7700005       4.85745318E-07
  -11.7600002       4.78152572E-07
  -11.7500000       4.65877179E-07
  -11.7399998       4.48718765E-07
  -11.7299995       4.26511036E-07
  -11.7200003       3.99126719E-07
  -11.7100000       3.66483192E-07
  -11.6999998       3.28546747E-07
  -11.6899996       2.85336426E-07
  -11.6800003       2.36926212E-07
  -11.6700001       1.83446176E-07
  -11.6599998       1.25082153E-07
  -11.6499996       6.20739939E-08
  -11.6400003      -5.28704369E-09
  -11.6300001      -7.66617774E-08
  -11.6199999      -1.51667336E-07
  -11.6099997      -2.29881906E-07
  -11.6000004      -3.10849771E-07
  -11.5900002      -3.94086669E-07
  -11.5799999      -4.79085031E-07
  -11.5699997      -5.65319112E-07
  -11.5600004      -6.52249355E-07
  -11.5500002      -7.39325799E-07
  -11.5400000      -8.25991322E-07
  -11.5299997      -9.11681241E-07
  -11.5200005      -9.95824280E-07
  -11.5100002      -1.07783944E-06
  -11.5000000      -1.15713397E-06
  -11.4899998      -1.23309815E-06
  -11.4799995      -1.30510250E-06
  -11.4700003      -1.37249390E-06
  -11.4600000      -1.43459181E-06
  -11.4499998      -1.49068876E-06
  -11.4399996      -1.54004886E-06
  -11.4300003      -1.58191199E-06
  -11.4200001      -1.61549565E-06
  -11.4099998      -1.64000176E-06
  -11.3999996      -1.65462416E-06
  -11.3900003      -1.65855488E-06
  -11.3800001      -1.65099470E-06
  -11.3699999      -1.63116226E-06
  -11.3599997      -1.59830415E-06
  -11.3500004      -1.55170414E-06
  -11.3400002      -1.49069410E-06
  -11.3299999      -1.41466012E-06
  -11.3199997      -1.32305252E-06
  -11.3100004      -1.21538960E-06
  -11.3000002      -1.09126222E-06
  -11.2900000      -9.50334481E-07
  -11.2799997      -7.92342689E-07
  -11.2700005      -6.17092610E-07
  -11.2600002      -4.24453589E-07
  -11.2500000      -2.14352482E-07
  -11.2399998       1.32341835E-08
  -11.2299995       2.58288367E-07
  -11.2200003       5.20758931E-07
  -11.2100000       8.00569296E-07
  -11.1999998       1.09762516E-06
  -11.1899996       1.41182090E-06
  -11.1800003       1.74304455E-06
  -11.1700001       2.09118252E-06
  -11.1599998       2.45612250E-06
  -11.1499996       2.83775421E-06
  -11.1400003       3.23597033E-06
  -11.1300001       3.65066080E-06
  -11.1199999       4.08171309E-06
  -11.1099997       4.52900622E-06
  -11.1000004       4.99240105E-06
  -11.0900002       5.47173750E-06
  -11.0799999       5.96682412E-06
  -11.0699997       6.47743127E-06
  -11.0600004       7.00328746E-06
  -11.0500002       7.54406710E-06
  -11.0400000       8.09939320E-06
  -11.0299997       8.66882874E-06
  -11.0200005       9.25188033E-06
  -11.0100002       9.84799772E-06
  -11.0000000       1.04565688E-05
  -10.9899998       1.10769379E-05
  -10.9799995       1.17083991E-05
  -10.9700003       1.23502168E-05
  -10.9600000       1.30016251E-05
  -10.9499998       1.36618446E-05
  -10.9399996       1.43300913E-05
  -10.9300003       1.50055912E-05
  -10.9200001       1.56875940E-05
  -10.9099998       1.63753630E-05
  -10.8999996       1.70682160E-05
  -10.8900003       1.77654983E-05
  -10.8800001       1.84665969E-05
  -10.8699999       1.91709441E-05
  -10.8599997       1.98780035E-05
  -10.8500004       2.05872802E-05
  -10.8400002       2.12983014E-05
  -10.8299999       2.20106194E-05
  -10.8199997       2.27238124E-05
  -10.8100004       2.34374638E-05
  -10.8000002       2.41511898E-05
  -10.7900000       2.48645829E-05
  -10.7799997       2.55772702E-05
  -10.7700005       2.62888589E-05
  -10.7600002       2.69989723E-05
  -10.7500000       2.77072086E-05
  -10.7399998       2.84131747E-05
  -10.7299995       2.91164633E-05
  -10.7200003       2.98166651E-05
  -10.7100000       3.05133708E-05
  -10.6999998       3.12061638E-05
  -10.6899996       3.18946550E-05
  -10.6800003       3.25784677E-05
  -10.6700001       3.32572745E-05
  -10.6599998       3.39307808E-05
  -10.6499996       3.45987537E-05
  -10.6400003       3.52610514E-05
  -10.6300001       3.59175901E-05
  -10.6199999       3.65683954E-05
  -10.6099997       3.72135728E-05
  -10.6000004       3.78533332E-05
  -10.5900002       3.84879895E-05
  -10.5799999       3.91179492E-05
  -10.5699997       3.97437143E-05
  -10.5600004       4.03658632E-05
  -10.5500002       4.09850618E-05
  -10.5400000       4.16020230E-05
  -10.5299997       4.22175217E-05
  -10.5200005       4.28323583E-05
  -10.5100002       4.34473695E-05
  -10.5000000       4.40633994E-05
  -10.4899998       4.46812955E-05
  -10.4799995       4.53019020E-05
  -10.4700003       4.59260300E-05
  -10.4600000       4.65544908E-05
  -10.4499998       4.71880521E-05
  -10.4399996       4.78274305E-05
  -10.4300003       4.84733027E-05
  -10.4200001       4.91263163E-05
  -10.4099998       4.97870169E-05
  -10.3999996       5.04559139E-05
  -10.3900003       5.11334329E-05
  -10.3800001       5.18199195E-05
  -10.3699999       5.25156502E-05
  -10.3599997       5.32207923E-05
  -10.3500004       5.39354478E-05
  -10.3400002       5.46596275E-05
  -10.3299999       5.53932296E-05
  -10.3199997       5.61361230E-05
  -10.3100004       5.68880496E-05
  -10.3000002       5.76487182E-05
  -10.2900000       5.84177687E-05
  -10.2799997       5.91948119E-05
  -10.2700005       5.99793821E-05
  -10.2600002       6.07710099E-05
  -10.2500000       6.15691897E-05
  -10.2399998       6.23733940E-05
  -10.2299995       6.31830699E-05
  -10.2200003       6.39976643E-05
  -10.2100000       6.48166024E-05
  -10.1999998       6.56393022E-05
  -10.1899996       6.64652180E-05
  -10.1800003       6.72937895E-05
  -10.1700001       6.81244856E-05
  -10.1599998       6.89568333E-05
  -10.1499996       6.97903815E-05
  -10.1400003       7.06247374E-05
  -10.1300001       7.14595662E-05
  -10.1199999       7.22946279E-05
  -10.1099997       7.31296968E-05
  -10.1000004       7.39646421E-05
  -10.0900002       7.47994200E-05
  -10.0799999       7.56340232E-05
  -10.0699997       7.64685392E-05
  -10.0600004       7.73030843E-05
  -10.0500002       7.81378694E-05
  -10.0400000       7.89731494E-05
  -10.0299997       7.98091933E-05
  -10.0200005       8.06463722E-05
  -10.0100002       8.14850864E-05
  -10.0000000       8.23257433E-05
  -9.98999977       8.31688376E-05
  -9.97999954       8.40148859E-05
  -9.97000027       8.48644268E-05
  -9.96000004       8.57180567E-05
  -9.94999981       8.65764305E-05
  -9.93999958       8.74402176E-05
  -9.93000031       8.83101602E-05
  -9.92000008       8.91870295E-05
  -9.90999985       9.00716404E-05
  -9.89999962       9.09648807E-05
  -9.89000034       9.18676742E-05
  -9.88000011       9.27810252E-05
  -9.86999989       9.37059958E-05
  -9.85999966       9.46436776E-05
  -9.85000038       9.55952928E-05
  -9.84000015       9.65621803E-05
  -9.82999992       9.75457151E-05
  -9.81999969       9.85473525E-05
  -9.81000042       9.95686860E-05
  -9.80000019       1.00611382E-04
  -9.78999996       1.01677193E-04
  -9.77999973       1.02767997E-04
  -9.77000046       1.03885672E-04
  -9.76000023       1.05032217E-04
  -9.75000000       1.06209663E-04
  -9.73999977       1.07420092E-04
  -9.72999954       1.08665576E-04
  -9.72000027       1.09948211E-04
  -9.71000004       1.11270121E-04
  -9.69999981       1.12633337E-04
  -9.68999958       1.14039904E-04
  -9.68000031       1.15491799E-04
  -9.67000008       1.16990872E-04
  -9.65999985       1.18538883E-04
  -9.64999962       1.20137505E-04
  -9.64000034       1.21788224E-04
  -9.63000011       1.23492311E-04
  -9.61999989       1.25250954E-04
  -9.60999966       1.27064981E-04
  -9.60000038       1.28935106E-04
  -9.59000015       1.30861692E-04
  -9.57999992       1.32844885E-04
  -9.56999969       1.34884569E-04
  -9.56000042       1.36980379E-04
  -9.55000019       1.39131618E-04
  -9.53999996       1.41337281E-04
  -9.52999973       1.43596189E-04
  -9.52000046       1.45906786E-04
  -9.51000023       1.48267252E-04
  -9.50000000       1.50675536E-04
  -9.48999977       1.53129266E-04
  -9.47999954       1.55625909E-04
  -9.47000027       1.58162671E-04
  -9.46000004       1.60736541E-04
  -9.44999981       1.63344332E-04
  -9.43999958       1.65982783E-04
  -9.43000031       1.68648447E-04
  -9.42000008       1.71337786E-04
  -9.40999985       1.74047149E-04
  -9.39999962       1.76772970E-04
  -9.39000034       1.79511670E-04
  -9.38000011       1.82259682E-04
  -9.36999989       1.85013647E-04
  -9.35999966       1.87770333E-04
  -9.35000038       1.90526742E-04
  -9.34000015       1.93280284E-04
  -9.32999992       1.96028719E-04
  -9.31999969       1.98770038E-04
  -9.31000042       2.01502902E-04
  -9.30000019       2.04226482E-04
  -9.28999996       2.06940356E-04
  -9.27999973       2.09644786E-04
  -9.27000046       2.12340616E-04
  -9.26000023       2.15029257E-04
  -9.25000000       2.17712790E-04
  -9.23999977       2.20393849E-04
  -9.22999954       2.23075767E-04
  -9.22000027       2.25762473E-04
  -9.21000004       2.28458433E-04
  -9.19999981       2.31168699E-04
  -9.18999958       2.33898827E-04
  -9.18000031       2.36654843E-04
  -9.17000008       2.39443281E-04
  -9.15999985       2.42270995E-04
  -9.14999962       2.45145202E-04
  -9.14000034       2.48073455E-04
  -9.13000011       2.51063379E-04
  -9.11999989       2.54122773E-04
  -9.10999966       2.57259526E-04
  -9.10000038       2.60481436E-04
  -9.09000015       2.63796363E-04
  -9.07999992       2.67211726E-04
  -9.06999969       2.70734890E-04
  -9.06000042       2.74372782E-04
  -9.05000019       2.78131803E-04
  -9.03999996       2.82018183E-04
  -9.02999973       2.86037219E-04
  -9.02000046       2.90193770E-04
  -9.01000023       2.94491852E-04
  -9.00000000       2.98934843E-04
  -8.98999977       3.03525187E-04
  -8.97999954       3.08264600E-04
  -8.97000027       3.13153752E-04
  -8.96000004       3.18192557E-04
  -8.94999981       3.23379762E-04
  -8.93999958       3.28713388E-04
  -8.93000031       3.34190205E-04
  -8.92000008       3.39806254E-04
  -8.90999985       3.45556415E-04
  -8.89999962       3.51434661E-04
  -8.89000034       3.57434008E-04
  -8.88000011       3.63546453E-04
  -8.86999989       3.69763380E-04
  -8.85999966       3.76075099E-04
  -8.85000038       3.82471248E-04
  -8.84000015       3.88940796E-04
  -8.82999992       3.95472045E-04
  -8.81999969       4.02052712E-04
  -8.81000042       4.08670225E-04
  -8.80000019       4.15311399E-04
  -8.78999996       4.21962875E-04
  -8.77999973       4.28611093E-04
  -8.77000046       4.35242371E-04
  -8.76000023       4.41842858E-04
  -8.75000000       4.48399049E-04
  -8.73999977       4.54897410E-04
  -8.72999954       4.61324496E-04
  -8.72000027       4.67667589E-04
  -8.71000004       4.73913999E-04
  -8.69999981       4.80051589E-04
  -8.68999958       4.86068835E-04
  -8.68000031       4.91954561E-04
  -8.67000008       4.97698435E-04
  -8.65999985       5.03290503E-04
  -8.64999962       5.08721801E-04
  -8.64000034       5.13983890E-04
  -8.63000011       5.19069028E-04
  -8.61999989       5.23970346E-04
  -8.60999966       5.28681616E-04
  -8.60000038       5.33197424E-04
  -8.59000015       5.37513115E-04
  -8.57999992       5.41624846E-04
  -8.56999969       5.45529532E-04
  -8.56000042       5.49224671E-04
  -8.55000019       5.52708807E-04
  -8.53999996       5.55981067E-04
  -8.52999973       5.59041393E-04
  -8.52000046       5.61890251E-04
  -8.51000023       5.64529153E-04
  -8.50000000       5.66959905E-04
  -8.48999977       5.69185417E-04
  -8.47999954       5.71209006E-04
  -8.47000027       5.73034165E-04
  -8.46000004       5.74665784E-04
  -8.44999981       5.76108752E-04
  -8.43999958       5.77368366E-04
  -8.43000031       5.78450621E-04
  -8.42000008       5.79361862E-04
  -8.40999985       5.80108666E-04
  -8.39999962       5.80698252E-04
  -8.39000034       5.81137370E-04
  -8.38000011       5.81433997E-04
  -8.36999989       5.81595581E-04
  -8.35999966       5.81630098E-04
  -8.35000038       5.81545639E-04
  -8.34000015       5.81350178E-04
  -8.32999992       5.81052329E-04
  -8.31999969       5.80660184E-04
  -8.31000042       5.80182590E-04
  -8.30000019       5.79627987E-04
  -8.28999996       5.79005107E-04
  -8.27999973       5.78322797E-04
  -8.27000046       5.77590021E-04
  -8.26000023       5.76815801E-04
  -8.25000000       5.76009101E-04
  -8.23999977       5.75179351E-04
  -8.22999954       5.74335980E-04
  -8.22000027       5.73488360E-04
  -8.21000004       5.72646386E-04
  -8.19999981       5.71820186E-04
  -8.18999958       5.71019831E-04
  -8.18000031       5.70255739E-04
  -8.17000008       5.69538912E-04
  -8.15999985       5.68880292E-04
  -8.14999962       5.68291231E-04
  -8.14000034       5.67783194E-04
  -8.13000011       5.67368115E-04
  -8.11999989       5.67057985E-04
  -8.10999966       5.66865085E-04
  -8.10000038       5.66802279E-04
  -8.09000015       5.66882140E-04
  -8.07999992       5.67117590E-04
  -8.06999969       5.67521784E-04
  -8.06000042       5.68107585E-04
  -8.05000019       5.68888208E-04
  -8.03999996       5.69876633E-04
  -8.02999973       5.71085431E-04
  -8.02000046       5.72527526E-04
  -8.01000023       5.74215315E-04
  -8.00000000       5.76160906E-04
  -7.98999977       5.78375999E-04
  -7.98000002       5.80871885E-04
  -7.96999979       5.83659392E-04
  -7.96000004       5.86748822E-04
  -7.94999981       5.90150012E-04
  -7.94000006       5.93871926E-04
  -7.92999983       5.97923179E-04
  -7.92000008       6.02311338E-04
  -7.90999985       6.07043679E-04
  -7.90000010       6.12126256E-04
  -7.88999987       6.17564539E-04
  -7.88000011       6.23363419E-04
  -7.86999989       6.29526738E-04
  -7.86000013       6.36057637E-04
  -7.84999990       6.42958330E-04
  -7.84000015       6.50230213E-04
  -7.82999992       6.57873927E-04
  -7.82000017       6.65889354E-04
  -7.80999994       6.74275216E-04
  -7.80000019       6.83029764E-04
  -7.78999996       6.92150206E-04
  -7.78000021       7.01633224E-04
  -7.76999998       7.11474859E-04
  -7.76000023       7.21670338E-04
  -7.75000000       7.32213841E-04
  -7.73999977       7.43099605E-04
  -7.73000002       7.54320936E-04
  -7.71999979       7.65870675E-04
  -7.71000004       7.77740905E-04
  -7.69999981       7.89923826E-04
  -7.69000006       8.02410650E-04
  -7.67999983       8.15192878E-04
  -7.67000008       8.28261080E-04
  -7.65999985       8.41605826E-04
  -7.65000010       8.55217630E-04
  -7.63999987       8.69086536E-04
  -7.63000011       8.83202825E-04
  -7.61999989       8.97556543E-04
  -7.61000013       9.12137388E-04
  -7.59999990       9.26935405E-04
  -7.59000015       9.41941107E-04
  -7.57999992       9.57144366E-04
  -7.57000017       9.72536393E-04
  -7.55999994       9.88107407E-04
  -7.55000019       1.00384874E-03
  -7.53999996       1.01975189E-03
  -7.53000021       1.03580870E-03
  -7.51999998       1.05201092E-03
  -7.51000023       1.06835202E-03
  -7.50000000       1.08482479E-03
  -7.48999977       1.10142271E-03
  -7.48000002       1.11814076E-03
  -7.46999979       1.13497349E-03
  -7.46000004       1.15191634E-03
  -7.44999981       1.16896548E-03
  -7.44000006       1.18611776E-03