  -16.0000000       0.00000000    
  -15.9899998       0.00000000    
  -15.9799995       0.00000000    
  -15.9700003       0.00000000    
  -15.9600000       0.00000000    
  -15.9499998       0.00000000    
  -15.9399996       0.00000000    
  -15.9300003       0.00000000    
  -15.9200001       0.00000000    
  -15.9099998       0.00000000    
  -15.8999996       0.00000000    
  -15.8900003       0.00000000    
  -15.8800001       0.00000000    
  -15.8699999       0.00000000    
  -15.8599997       0.00000000    
  -15.8500004       0.00000000    
  -15.8400002       0.00000000    
  -15.8299999       0.00000000    
  -15.8199997       1.40129846E-45
  -15.8100004       5.60519386E-45
  -15.8000002       3.78350585E-44
  -15.7900000       1.96181785E-43
  -15.7799997       8.84219331E-43
  -15.7700005       3.50464746E-42
  -15.7600002       1.24701550E-41
  -15.7500000       4.01177737E-41
  -15.7399998       1.17489067E-40
  -15.7299995       3.14815713E-40
  -15.7200003       7.74302881E-40
  -15.7100000       1.75073606E-39
  -15.6999998       3.63721730E-39
  -15.6899996       6.92141949E-39
  -15.6800003       1.19781704E-38
  -15.6700001       1.85836993E-38
  -15.6599998       2.50897557E-38
  -15.6499996       2.73946899E-38
  -15.6400003       1.82421244E-38
  -15.6300001      -1.20977852E-38
  -15.6199999      -7.23353855E-38
  -15.6099997      -1.62751434E-37
  -15.6000004      -2.64459615E-37
  -15.5900002      -3.29343748E-37
  -15.5799999      -2.79067513E-37
  -15.5699997      -2.44318769E-38
  -15.5600004       4.86502846E-37
  -15.5500002       1.19593430E-36
  -15.5400000       1.86718837E-36
  -15.5299997       2.07261522E-36
  -15.5200005       1.30232563E-36
  -15.5100002      -7.72541807E-37
  -15.5000000      -3.93407732E-36
  -15.4899998      -7.12660311E-36
  -15.4799995      -8.51641281E-36
  -15.4700003      -6.14483932E-36
  -15.4600000       8.41897427E-37
  -15.4499998       1.08732115E-35
  -15.4399996       1.95021544E-35
  -15.4300003       2.08429526E-35
  -15.4200001       1.11600489E-35
  -15.4099998      -6.77983729E-36
  -15.3999996      -2.18409505E-35
  -15.3900003      -1.89513624E-35
  -15.3800001       8.80816772E-36
  -15.3699999       4.51484737E-35
  -15.3599997       4.46511500E-35
  -15.3500004      -4.87689131E-35
  -15.3400002      -2.51997107E-34
  -15.3299999      -4.77526213E-34
  -15.3199997      -5.00215642E-34
  -15.3100004      -2.19584253E-35
  -15.3000002       1.12275984E-33
  -15.2900000       2.66182210E-33
  -15.2799997       3.65244278E-33
  -15.2700005       2.59742466E-33
  -15.2600002      -1.84394656E-33
  -15.2500000      -9.57359334E-33
  -15.2399998      -1.77187965E-32
  -15.2299995      -2.02745342E-32
  -15.2200003      -9.88744592E-33
  -15.2100000       1.77341896E-32
  -15.1999998       5.79286614E-32
  -15.1899996       9.29247386E-32
  -15.1800003       9.39016391E-32
  -15.1700001       3.25963937E-32
  -15.1599998      -9.87344843E-32
  -15.1499996      -2.67163182E-31
  -15.1400003      -3.92835260E-31
  -15.1300001      -3.70315468E-31
  -15.1199999      -1.20408872E-31
  -15.1099997       3.44887856E-31
  -15.1000004       8.82090209E-31
  -15.0900002       1.24307691E-30
  -15.0799999       1.18578566E-30
  -15.0699997       6.28855812E-31
  -15.0600004      -2.51935241E-31
  -15.0500002      -1.10563453E-30
  -15.0400000      -1.70883476E-30
  -15.0299997      -2.34755964E-30
  -15.0200005      -3.92158495E-30
  -15.0100002      -7.33875906E-30
  -15.0000000      -1.20338001E-29
  -14.9899998      -1.41480213E-29
  -14.9799995      -5.84512930E-30
  -14.9700003       2.21765055E-29
  -14.9600000       7.35335942E-29
  -14.9499998       1.35423437E-28
  -14.9399996       1.69515081E-28
  -14.9300003       1.13769087E-28
  -14.9200001      -9.47328407E-29
  -14.9099998      -4.72090544E-28
  -14.8999996      -9.26153614E-28
  -14.8900003      -1.21318670E-27
  -14.8800001      -9.61032205E-28
  -14.8699999       1.95605053E-28
  -14.8599997       2.35896431E-27
  -14.8500004       5.05678329E-27
  -14.8400002       7.03450149E-27
  -14.8299999       6.37600987E-27
  -14.8199997       1.15172893E-27
  -14.8100004      -9.38129643E-27
  -14.8000002      -2.33295244E-26
  -14.7900000      -3.51578111E-26
  -14.7799997      -3.60897547E-26
  -14.7700005      -1.67579294E-26
  -14.7600002       2.77592295E-26
  -14.7500000       9.16807858E-26
  -14.7399998       1.53772533E-25
  -14.7299995       1.77913600E-25
  -14.7200003       1.22456838E-25
  -14.7100000      -4.06744202E-26
  -14.6999998      -3.00983913E-25
  -14.6899996      -5.88172571E-25
  -14.6800003      -7.68750326E-25
  -14.6700001      -6.74157818E-25
  -14.6599998      -1.66071220E-25
  -14.6499996       7.71534759E-25
  -14.6400003       1.94459992E-24
  -14.6300001       2.91360786E-24
  -14.6199999       3.06128577E-24
  -14.6099997       1.79203579E-24
  -14.6000004      -1.15784527E-24
  -14.5900002      -5.38811562E-24
  -14.5799999      -9.63240423E-24
  -14.5699997      -1.18606342E-23
  -14.5600004      -9.81086113E-24
  -14.5500002      -1.93658903E-24
  -14.5400000       1.14522140E-23
  -14.5299997       2.72902391E-23
  -14.5200005       3.96558642E-23
  -14.5100002       4.09449733E-23
  -14.5000000       2.44521874E-23
  -14.4899998      -1.20913239E-23
  -14.4799995      -6.31450086E-23
  -14.4700003      -1.13765935E-22
  -14.4600000      -1.41413049E-22
  -14.4499998      -1.22039193E-22
  -14.4399996      -3.98845171E-23
  -14.4300003       1.01536288E-22
  -14.4200001       2.71477330E-22
  -14.4099998       4.11925393E-22
  -14.3999996       4.49218597E-22
  -14.3900003       3.17759357E-22
  -14.3800001      -8.69513965E-24
  -14.3699999      -4.87899994E-22
  -14.3599997      -9.95275790E-22
  -14.3500004      -1.33782792E-21
  -14.3400002      -1.30218454E-21
  -14.3299999      -7.31808061E-22
  -14.3199997       3.85524503E-22
  -14.3100004       1.85084166E-21
  -14.3000002       3.24290727E-21
  -14.2900000       3.99009471E-21
  -14.2799997       3.53038222E-21
  -14.2700005       1.53209551E-21
  -14.2600002      -1.88619677E-21
  -14.2500000      -6.02136878E-21
  -14.2399998      -9.62083108E-21
  -14.2299995      -1.11375548E-20
  -14.2200003      -9.19106147E-21
  -14.2100000      -3.13836626E-21
  -14.1999998       6.41609468E-21
  -14.1899996       1.73799920E-20
  -14.1800003       2.63840113E-20
  -14.1700001       2.95243831E-20
  -14.1599998       2.35532765E-20
  -14.1499996       7.24572897E-21
  -14.1400003      -1.74785412E-20
  -14.1300001      -4.51495502E-20
  -14.1199999      -6.74282609E-20
  -14.1099997      -7.49859582E-20
  -14.1000004      -6.03171572E-20
  -14.0900002      -2.08256920E-20
  -14.0799999       3.87642878E-20
  -14.0699997       1.05672110E-19
  -14.0600004       1.60733717E-19
  -14.0500002       1.82636581E-19
  -14.0400000       1.54080341E-19
  -14.0299997       6.84325293E-20
  -14.0200005      -6.50936406E-20
  -14.0100002      -2.19770463E-19
  -14.0000000      -3.54654670E-19
  -13.9899998      -4.23146517E-19
  -13.9799995      -3.85553769E-19
  -13.9700003      -2.22871072E-19
  -13.9600000       5.20648739E-20
  -13.9499998       3.90019665E-19
  -13.9399996       7.10363220E-19
  -13.9300003       9.16454287E-19
  -13.9200001       9.19389744E-19
  -13.9099998       6.65220303E-19
  -13.8999996       1.58656162E-19
  -13.8900003      -5.24239879E-19
  -13.8800001      -1.24035919E-18
  -13.8699999      -1.80335341E-18
  -13.8599997      -2.02452393E-18
  -13.8500004      -1.76318511E-18
  -13.8400002      -9.74797817E-19
  -13.8299999       2.56513826E-19
  -13.8199997       1.71279399E-18
  -13.8100004       3.07107222E-18
  -13.8000002       3.96503402E-18
  -13.7900000       4.06959172E-18
  -13.7799997       3.19077291E-18
  -13.7700005       1.33900182E-18
  -13.7600002      -1.23541978E-18
  -13.7500000      -4.05967506E-18
  -13.7399998      -6.51269612E-18
  -13.7299995      -7.94699629E-18
  -13.7200003      -7.83586705E-18
  -13.7100000      -5.91471609E-18
  -13.6999998      -2.28292316E-18
  -13.6899996       2.56213797E-18
  -13.6800003       7.77475081E-18
  -13.6700001       1.22927774E-17
  -13.6599998       1.50323334E-17
  -13.6499996       1.51105566E-17
  -13.6400003       1.20535634E-17
  -13.6300001       5.94687357E-18
  -13.6199999      -2.50560845E-18
  -13.6099997      -1.20325042E-17
  -13.6000004      -2.09556580E-17
  -13.5900002      -2.74420295E-17
  -13.5799999      -2.98131179E-17
  -13.5699997      -2.68681878E-17
  -13.5600004      -1.81727345E-17
  -13.5500002      -4.26397668E-18
  -13.5400000       1.32700599E-17
  -13.5299997       3.18720796E-17
  -13.5200005       4.82769671E-17
  -13.5100002       5.89505087E-17
  -13.5000000       6.06737575E-17
  -13.4899998       5.12063974E-17
  -13.4799995       2.99275104E-17
  -13.4700003      -1.67519149E-18
  -13.4600000      -3.98050097E-17
  -13.4499998      -7.85621007E-17
  -13.4399996      -1.10619287E-16
  -13.4300003      -1.28346681E-16
  -13.4200001      -1.25259298E-16
  -13.4099998      -9.75593226E-17
  -13.3999996      -4.54682555E-17
  -13.3900003       2.59775823E-17
  -13.3800001       1.06949292E-16
  -13.3699999       1.83825168E-16
  -13.3599997       2.41149804E-16
  -13.3500004       2.64326001E-16
  -13.3400002       2.42618982E-16
  -13.3299999       1.71918598E-16
  -13.3199997       5.66666431E-17
  -13.3100004      -8.95645889E-17
  -13.3000002      -2.45160875E-16
  -13.2900000      -3.83257024E-16
  -13.2799997      -4.75936908E-16
  -13.2700005      -4.99241643E-16
  -13.2600002      -4.38153150E-16
  -13.2500000      -2.90617295E-16
  -13.2399998      -6.97337609E-17
  -13.2299995       1.96527658E-16
  -13.2200003       4.68350775E-16
  -13.2100000       6.99625180E-16
  -13.1999998       8.45327711E-16
  -13.1899996       8.69604417E-16
  -13.1800003       7.53159833E-16
  -13.1700001       4.98520182E-16
  -13.1599998       1.31972127E-16
  -13.1499996      -2.98539727E-16
  -13.1400003      -7.29577006E-16
  -13.1300001      -1.09168920E-15
  -13.1199999      -1.32076450E-15
  -13.1099997      -1.36931283E-15
  -13.1000004      -1.21561002E-15
  -13.0900002      -8.68890844E-16
  -13.0799999      -3.69440329E-16
  -13.0699997       2.16659672E-16
  -13.0600004       8.07357289E-16
  -13.0500002       1.31738410E-15
  -13.0400000       1.67172900E-15
  -13.0299997       1.81750146E-15
  -13.0200005       1.73218206E-15
  -13.0100002       1.42696242E-15
  -13.0000000       9.44734492E-16
  -12.9899998       3.53193178E-16
  -12.9799995      -2.65810718E-16
  -12.9700003      -8.29079343E-16
  -12.9600000      -1.26530152E-15
  -12.9499998      -1.52696281E-15
  -12.9399996      -1.59928778E-15
  -12.9300003      -1.50468860E-15
  -12.9200001      -1.30131016E-15
  -12.9099998      -1.07462477E-15
  -12.8999996      -9.21676455E-16
  -12.8900003      -9.28740710E-16
  -12.8800001      -1.14485333E-15
  -12.8699999      -1.55558638E-15
  -12.8599997      -2.06318676E-15
  -12.8500004      -2.48012136E-15
  -12.8400002      -2.54244689E-15
  -12.8299999      -1.94694123E-15
  -12.8199997      -4.11493714E-16
  -12.8100004       2.24748503E-15
  -12.8000002       6.03279608E-15
  -12.7900000       1.06961305E-14
  -12.7799997       1.56983767E-14
  -12.7700005       2.02171484E-14
  -12.7600002       2.32120570E-14
  -12.7500000       2.35486798E-14
  -12.7399998       2.01709343E-14
  -12.7299995       1.23009733E-14
  -12.7200003      -3.62156110E-16
  -12.7100000      -1.74764988E-14
  -12.6999998      -3.79528968E-14
  -12.6899996      -5.99340252E-14
  -12.6800003      -8.08674891E-14
  -12.6700001      -9.76729074E-14
  -12.6599998      -1.06992763E-13
  -12.6499996      -1.05511235E-13
  -12.6400003      -9.03215423E-14
  -12.6300001      -5.93228605E-14
  -12.6199999      -1.16263776E-14
  -12.6099997       5.20518585E-14
  -12.6000004       1.29040957E-13
  -12.5900002       2.14448007E-13
  -12.5799999       3.01026565E-13
  -12.5699997       3.79243105E-13
  -12.5600004       4.37605708E-13
  -12.5500002       4.63311355E-13
  -12.5400000       4.43240551E-13
  -12.5299997       3.65292621E-13
  -12.5200005       2.20003960E-13
  -12.5100002       2.33873441E-15
  -12.5000000      -2.86503758E-13
  -12.4899998      -6.37455908E-13
  -12.4799995      -1.03232180E-12
  -12.4700003      -1.44308111E-12
  -12.4600000      -1.83190876E-12
  -12.4499998      -2.15200904E-12
  -12.4399996      -2.34929827E-12
  -12.4300003      -2.36488975E-12
  -12.4200001      -2.13828824E-12
  -12.4099998      -1.61110654E-12
  -12.3999996      -7.31116502E-13
  -12.3900003       5.43639786E-13
  -12.3800001       2.24092836E-12
  -12.3699999       4.37087345E-12
  -12.3599997       6.92321157E-12
  -12.3500004       9.86550338E-12
  -12.3400002       1.31424463E-11
  -12.3299999       1.66763617E-11
  -12.3199997       2.03689426E-11
  -12.3100004       2.41040833E-11
  -12.3000002       2.77517453E-11
  -12.2900000       3.11725541E-11
  -12.2799997       3.42229856E-11
  -12.2700005       3.67607091E-11
  -12.2600002       3.86499444E-11
  -12.2500000       3.97665928E-11
  -12.2399998       4.00027754E-11
  -12.2299995       3.92708331E-11
  -12.2200003       3.75063348E-11
  -12.2100000       3.46701973E-11
  -12.1999998       3.07496494E-11
  -12.1899996       2.57581213E-11
  -12.1800003       1.97338656E-11
  -12.1700001       1.27377371E-11
  -12.1599998       4.84997285E-12
  -12.1499996      -3.83351380E-12
  -12.1400003      -1.32050161E-11
  -12.1300001      -2.31487069E-11
  -12.1199999      -3.35439558E-11
  -12.1099997      -4.42677041E-11
  -12.1000004      -5.51960595E-11
  -12.0900002      -6.62050484E-11
  -12.0799999      -7.71707628E-11
  -12.0699997      -8.79688891E-11
  -12.0600004      -9.84742565E-11
  -12.0500002      -1.08560251E-10
  -12.0400000      -1.18098614E-10
  -12.0299997      -1.26959346E-10
  -12.0200005      -1.35010891E-10
  -12.0100002      -1.42120649E-10
  -12.0000000      -1.48155613E-10
  -11.9899998      -1.52983043E-10
  -11.9799995      -1.56471835E-10
  -11.9700003      -1.58494121E-10
  -11.9600000      -1.58927344E-10
  -11.9499998      -1.57657262E-10
  -11.9399996      -1.54581556E-10
  -11.9300003      -1.49613572E-10
  -11.9200001      -1.42686599E-10
  -11.9099998      -1.33757630E-10
  -11.8999996      -1.22810345E-10
  -11.8900003      -1.09857040E-10
  -11.8800001      -9.49387791E-11
  -11.8699999      -7.81246456E-11
  -11.8599997      -5.95093766E-11
  -11.8500004      -3.92100345E-11
  -11.8400002      -1.73624032E-11
  -11.8299999       5.88297640E-12
  -11.8199997       3.03635381E-11
  -11.8100004       5.59076847E-11
  -11.8000002       8.23361171E-11
  -11.7900000       1.09462828E-10
  -11.7799997       1.37094849E-10
  -11.7700005       1.65032071E-10
  -11.7600002       1.93066410E-10
  -11.7500000       2.20981164E-10
  -11.7399998       2.48551207E-10
  -11.7299995       2.75542922E-10
  -11.7200003       3.01715486E-10
  -11.7100000       3.26822874E-10
  -11.6999998       3.50616508E-10
  -11.6899996       3.72848613E-10
  -11.6800003       3.93275829E-10
  -11.6700001       4.11663398E-10
  -11.6599998       4.27788277E-10
  -11.6499996       4.41441828E-10
  -11.6400003       4.52432480E-10
  -11.6300001       4.60585764E-10
  -11.6199999       4.65744610E-10
  -11.6099997       4.67768491E-10
  -11.6000004       4.66532091E-10
  -11.5900002       4.61923610E-10
  -11.5799999       4.53844184E-10
  -11.5699997       4.42207160E-10
  -11.5600004       4.26937846E-10
  -11.5500002       4.07974987E-10
  -11.5400000       3.85270982E-10
  -11.5299997       3.58793745E-10
  -11.5200005       3.28527289E-10
  -11.5100002       2.94473945E-10
  -11.5000000       2.56654309E-10
  -11.4899998       2.15108029E-10
  -11.4799995       1.69894487E-10
  -11.4700003       1.21092553E-10
  -11.4600000       6.88017768E-11
  -11.4499998       1.31412060E-11
  -11.4399996      -4.57502924E-11
  -11.4300003      -1.07714830E-10
  -11.4200001      -1.72577133E-10
  -11.4099998      -2.40145848E-10
  -11.3999996      -3.10215187E-10
  -11.3900003      -3.82567755E-10
  -11.3800001      -4.56976318E-10
  -11.3699999      -5.33205979E-10
  -11.3599997      -6.11015794E-10
  -11.3500004      -6.90160873E-10
  -11.3400002      -7.70394026E-10
  -11.3299999      -8.51468451E-10
  -11.3199997      -9.33139677E-10
  -11.3100004      -1.01516850E-09
  -11.3000002      -1.09732534E-09
  -11.2900000      -1.17939292E-09
  -11.2799997      -1.26117072E-09
  -11.2700005      -1.34247757E-09
  -11.2600002      -1.42315237E-09
  -11.2500000      -1.50305579E-09
  -11.2399998      -1.58206903E-09
  -11.2299995      -1.66009084E-09
  -11.2200003      -1.73703296E-09
  -11.2100000      -1.81281612E-09
  -11.1999998      -1.88736449E-09
  -11.1899996      -1.96060168E-09
  -11.1800003      -2.03244732E-09
  -11.1700001      -2.10281303E-09
  -11.1599998      -2.17160112E-09
  -11.1499996      -2.23870944E-09
  -11.1400003      -2.30403074E-09
  -11.1300001      -2.36745712E-09
  -11.1199999      -2.42889131E-09
  -11.1099997      -2.48824916E-09
  -11.1000004      -2.54546917E-09
  -11.0900002      -2.60051802E-09
  -11.0799999      -2.65339284E-09
  -11.0699997      -2.70412581E-09
  -11.0600004      -2.75277401E-09
  -11.0500002      -2.79941736E-09
  -11.0400000      -2.84414914E-09
  -11.0299997      -2.88706037E-09
  -11.0200005      -2.92822766E-09
  -11.0100002      -2.96770430E-09
  -11.0000000      -3.00551495E-09
  -10.9899998      -3.04164671E-09
  -10.9799995      -3.07605186E-09
  -10.9700003      -3.10866288E-09
  -10.9600000      -3.13939341E-09
  -10.9499998      -3.16814908E-09
  -10.9399996      -3.19485127E-09
  -10.9300003      -3.21943383E-09
  -10.9200001      -3.24185567E-09
  -10.9099998      -3.26210814E-09
  -10.8999996      -3.28020189E-09
  -10.8900003      -3.29617977E-09
  -10.8800001      -3.31009264E-09
  -10.8699999      -3.32200045E-09
  -10.8599997      -3.33195715E-09
  -10.8500004      -3.33999739E-09
  -10.8400002      -3.34614114E-09
  -10.8299999      -3.35037753E-09
  -10.8199997      -3.35265704E-09
  -10.8100004      -3.35292172E-09
  -10.8000002      -3.35107453E-09
  -10.7900000      -3.34700445E-09
  -10.7799997      -3.34060335E-09
  -10.7700005      -3.33176886E-09
  -10.7600002      -3.32042283E-09
  -10.7500000      -3.30651084E-09
  -10.7399998      -3.29003313E-09
  -10.7299995      -3.27101479E-09
  -10.7200003      -3.24953331E-09
  -10.7100000      -3.22570681E-09
  -10.6999998      -3.19969140E-09
  -10.6899996      -3.17166160E-09
  -10.6800003      -3.14181281E-09
  -10.6700001      -3.11035286E-09
  -10.6599998      -3.07748516E-09
  -10.6499996      -3.04342263E-09
  -10.6400003      -3.00837333E-09
  -10.6300001      -2.97253155E-09
  -10.6199999      -2.93611158E-09
  -10.6099997      -2.89931101E-09
  -10.6000004      -2.86233770E-09
  -10.5900002      -2.82539414E-09
  -10.5799999      -2.78869794E-09
  -10.5699997      -2.75248868E-09
  -10.5600004      -2.71699863E-09
  -10.5500002      -2.68246469E-09
  -10.5400000      -2.64913758E-09
  -10.5299997      -2.61725930E-09
  -10.5200005      -2.58703592E-09
  -10.5100002      -2.55866683E-09
  -10.5000000      -2.53231369E-09
  -10.4899998      -2.50809795E-09
  -10.4799995      -2.48609400E-09
  -10.4700003      -2.46635556E-09
  -10.4600000      -2.44889042E-09
  -10.4499998      -2.43368881E-09
  -10.4399996      -2.42073761E-09
  -10.4300003      -2.40999598E-09
  -10.4200001      -2.40144415E-09
  -10.4099998      -2.39504638E-09
  -10.3999996      -2.39080022E-09
  -10.3900003      -2.38868147E-09
  -10.3800001      -2.38870679E-09
  -10.3699999      -2.39087505E-09
  -10.3599997      -2.39519027E-09
  -10.3500004      -2.40165776E-09
  -10.3400002      -2.41026554E-09
  -10.3299999      -2.42099207E-09
  -10.3199997      -2.43379250E-09
  -10.3100004      -2.44862508E-09
  -10.3000002      -2.46541831E-09
  -10.2900000      -2.48409582E-09
  -10.2799997      -2.50456367E-09
  -10.2700005      -2.52674393E-09
  -10.2600002      -2.55054822E-09
  -10.2500000      -2.57590860E-09
  -10.2399998      -2.60275401E-09
  -10.2299995      -2.63105671E-09
  -10.2200003      -2.66077005E-09
  -10.2100000      -2.69185008E-09
  -10.1999998      -2.72426637E-09
  -10.1899996      -2.75795631E-09
  -10.1800003      -2.79287815E-09
  -10.1700001      -2.82897927E-09
  -10.1599998      -2.86620483E-09
  -10.1499996      -2.90451974E-09
  -10.1400003      -2.94389491E-09
  -10.1300001      -2.98433789E-09
  -10.1199999      -3.02588843E-09
  -10.1099997      -3.06859915E-09
  -10.1000004      -3.11257153E-09
  -10.0900002      -3.15792126E-09
  -10.0799999      -3.20478555E-09
  -10.0699997      -3.25335470E-09
  -10.0600004      -3.30381300E-09
  -10.0500002      -3.35636163E-09
  -10.0400000      -3.41121731E-09
  -10.0299997      -3.46859652E-09
  -10.0200005      -3.52869312E-09
  -10.0100002      -3.59168739E-09
  -10.0000000      -3.65773367E-09
  -9.98999977      -3.72695697E-09
  -9.97999954      -3.79943721E-09
  -9.97000027      -3.87523302E-09
  -9.96000004      -3.95438438E-09
  -9.94999981      -4.03692946E-09
  -9.93999958      -4.12288159E-09
  -9.93000031      -4.21225987E-09
  -9.92000008      -4.30510205E-09
  -9.90999985      -4.40144321E-09
  -9.89999962      -4.50131177E-09
  -9.89000034      -4.60474991E-09
  -9.88000011      -4.71176387E-09
  -9.86999989      -4.82236828E-09
  -9.85999966      -4.93652852E-09
  -9.85000038      -5.05420639E-09
  -9.84000015      -5.17532639E-09
  -9.82999992      -5.29981259E-09
  -9.81999969      -5.42755707E-09
  -9.81000042      -5.55848167E-09
  -9.80000019      -5.69248026E-09
  -9.78999996      -5.82948179E-09
  -9.77999973      -5.96942851E-09
  -9.77000046      -6.11230311E-09
  -9.76000023      -6.25810737E-09
  -9.75000000      -6.40689057E-09
  -9.73999977      -6.55872112E-09
  -9.72999954      -6.71368605E-09
  -9.72000027      -6.87190171E-09
  -9.71000004      -7.03346448E-09
  -9.69999981      -7.19844895E-09
  -9.68999958      -7.36691064E-09
  -9.68000031      -7.53883445E-09
  -9.67000008      -7.71419018E-09
  -9.65999985      -7.89283838E-09
  -9.64999962      -8.07465472E-09
  -9.64000034      -8.25938340E-09
  -9.63000011      -8.44677484E-09
  -9.61999989      -8.63649952E-09
  -9.60999966      -8.82819684E-09
  -9.60000038      -9.02146624E-09
  -9.59000015      -9.21588139E-09
  -9.57999992      -9.41097777E-09
  -9.56999969      -9.60629087E-09
  -9.56000042      -9.80132686E-09
  -9.55000019      -9.99559280E-09
  -9.53999996      -1.01885886E-08
  -9.52999973      -1.03797841E-08
  -9.52000046      -1.05686873E-08
  -9.51000023      -1.07547660E-08
  -9.50000000      -1.09375184E-08
  -9.48999977      -1.11164571E-08
  -9.47999954      -1.12911147E-08
  -9.47000027      -1.14610446E-08
  -9.46000004      -1.16258967E-08
  -9.44999981      -1.17854100E-08
  -9.43999958      -1.19393713E-08
  -9.43000031      -1.20877228E-08
  -9.42000008      -1.22304762E-08
  -9.40999985      -1.23677895E-08
  -9.39999962      -1.24999140E-08
  -9.39000034      -1.26272157E-08
  -9.38000011      -1.27501840E-08
  -9.36999989      -1.28693998E-08
  -9.35999966      -1.29855087E-08
  -9.35000038      -1.30992808E-08
  -9.34000015      -1.32115909E-08
  -9.32999992      -1.33233398E-08
  -9.31999969      -1.34354989E-08
  -9.31000042      -1.35490765E-08
  -9.30000019      -1.36651055E-08
  -9.28999996      -1.37846232E-08
  -9.27999973      -1.39086280E-08
  -9.27000046      -1.40381102E-08
  -9.26000023      -1.41739873E-08
  -9.25000000      -1.43171910E-08
  -9.23999977      -1.44685570E-08
  -9.22999954      -1.46288999E-08
  -9.22000027      -1.47989585E-08
  -9.21000004      -1.49794328E-08
  -9.19999981      -1.51708974E-08
  -9.18999958      -1.53738462E-08
  -9.18000031      -1.55887410E-08
  -9.17000008      -1.58159068E-08
  -9.15999985      -1.60555267E-08
  -9.14999962      -1.63077107E-08
  -9.14000034      -1.65724359E-08
  -9.13000011      -1.68496150E-08
  -9.11999989      -1.71389871E-08
  -9.10999966      -1.74401844E-08
  -9.10000038      -1.77528268E-08
  -9.09000015      -1.80763315E-08
  -9.07999992      -1.84101161E-08
  -9.06999969      -1.87534237E-08
  -9.06000042      -1.91054497E-08
  -9.05000019      -1.94653076E-08
  -9.03999996      -1.98320453E-08
  -9.02999973      -2.02046735E-08
  -9.02000046      -2.05821049E-08
  -9.01000023      -2.09632756E-08
  -9.00000000      -2.13470219E-08
  -8.98999977      -2.17322391E-08
  -8.97999954      -2.21177334E-08
  -8.97000027      -2.25023715E-08
  -8.96000004      -2.28850325E-08
  -8.94999981      -2.32645689E-08
  -8.93999958      -2.36399238E-08
  -8.93000031      -2.40100082E-08
  -8.92000008      -2.43738025E-08
  -8.90999985      -2.47303618E-08
  -8.89999962      -2.50787977E-08
  -8.89000034      -2.54182844E-08
  -8.88000011      -2.57480046E-08
  -8.86999989      -2.60673119E-08
  -8.85999966      -2.63755737E-08
  -8.85000038      -2.66722697E-08
  -8.84000015      -2.69569718E-08
  -8.82999992      -2.72293867E-08
  -8.81999969      -2.74892908E-08
  -8.81000042      -2.77365348E-08
  -8.80000019      -2.79710850E-08
  -8.78999996      -2.81930230E-08
  -8.77999973      -2.84025123E-08
  -8.77000046      -2.85998283E-08
  -8.76000023      -2.87854043E-08
  -8.75000000      -2.89597057E-08
  -8.73999977      -2.91233206E-08
  -8.72999954      -2.92768938E-08
  -8.72000027      -2.94211127E-08
  -8.71000004      -2.95568157E-08
  -8.69999981      -2.96848945E-08
  -8.68999958      -2.98062197E-08
  -8.68000031      -2.99217149E-08
  -8.67000008      -3.00323357E-08
  -8.65999985      -3.01390983E-08
  -8.64999962      -3.02429761E-08
  -8.64000034      -3.03449177E-08
  -8.63000011      -3.04459071E-08
  -8.61999989      -3.05468255E-08
  -8.60999966      -3.06486250E-08
  -8.60000038      -3.07521404E-08
  -8.59000015      -3.08580574E-08
  -8.57999992      -3.09670440E-08
  -8.56999969      -3.10796828E-08
  -8.56000042      -3.11964712E-08
  -8.55000019      -3.13178283E-08
  -8.53999996      -3.14439852E-08
  -8.52999973      -3.15751940E-08
  -8.52000046      -3.17115934E-08
  -8.51000023      -3.18532081E-08
  -8.50000000      -3.20001625E-08
  -8.48999977      -3.21524674E-08
  -8.47999954      -3.23099734E-08
  -8.47000027      -3.24726521E-08
  -8.46000004      -3.26405214E-08
  -8.44999981      -3.28135634E-08
  -8.43999958      -3.29916325E-08
  -8.43000031      -3.31748069E-08
  -8.42000008      -3.33631185E-08
  -8.40999985      -3.35565993E-08
  -8.39999962      -3.37553914E-08
  -8.39000034      -3.39596511E-08
  -8.38000011      -3.41695667E-08
  -8.36999989      -3.43854474E-08
  -8.35999966      -3.46075986E-08
  -8.35000038      -3.48363827E-08
  -8.34000015      -3.50722154E-08
  -8.32999992      -3.53154341E-08
  -8.31999969      -3.55666643E-08
  -8.31000042      -3.58262753E-08
  -8.30000019      -3.60946544E-08
  -8.28999996      -3.63724091E-08
  -8.27999973      -3.66599266E-08
  -8.27000046      -3.69576654E-08
  -8.26000023      -3.72660445E-08
  -8.25000000      -3.75853730E-08
  -8.23999977      -3.79158323E-08
  -8.22999954      -3.82577845E-08
  -8.22000027      -3.86112795E-08
  -8.21000004      -3.89766477E-08
  -8.19999981      -3.93539210E-08
  -8.18999958      -3.97431599E-08
  -8.18000031      -4.01444531E-08
  -8.17000008      -4.05578611E-08
  -8.15999985      -4.09834406E-08
  -8.14999962      -4.14212558E-08
  -8.14000034      -4.18713384E-08
  -8.13000011      -4.23336211E-08
  -8.11999989      -4.28081286E-08
  -8.10999966      -4.32948859E-08
  -8.10000038      -4.37938859E-08
  -8.09000015      -4.43048442E-08
  -8.07999992      -4.48276651E-08
  -8.06999969      -4.53621780E-08
  -8.06000042      -4.59081768E-08
  -8.05000019      -4.64654022E-08
  -8.03999996      -4.70333994E-08
  -8.02999973      -4.76119517E-08
  -8.02000046      -4.82005369E-08
  -8.01000023      -4.87986895E-08
  -8.00000000      -4.94057737E-08
  -7.98999977      -5.00213062E-08
  -7.98000002      -5.06443207E-08
  -7.96999979      -5.12742560E-08
  -7.96000004      -5.19102663E-08
  -7.94999981      -5.25515205E-08
  -7.94000006      -5.31971942E-08
  -7.92999983      -5.38463141E-08
  -7.92000008      -5.44979351E-08
  -7.90999985      -5.51511796E-08
  -7.90000010      -5.58052236E-08
  -7.88999987      -5.64591573E-08
  -7.88000011      -5.71118299E-08
  -7.86999989      -5.77625947E-08
  -7.86000013      -5.84103290E-08
  -7.84999990      -5.90543756E-08
  -7.84000015      -5.96937326E-08
  -7.82999992      -6.03279631E-08
  -7.82000017      -6.09564097E-08
  -7.80999994      -6.15785041E-08
  -7.80000019      -6.21936422E-08
  -7.78999996      -6.28017105E-08
  -7.78000021      -6.34021475E-08
  -7.76999998      -6.39950102E-08
  -7.76000023      -6.45801137E-08
  -7.75000000      -6.51572947E-08
  -7.73999977      -6.57268941E-08
  -7.73000002      -6.62892248E-08
  -7.71999979      -6.68445850E-08
  -7.71000004      -6.73934153E-08
  -7.69999981      -6.79363197E-08
  -7.69000006      -6.84740087E-08
  -7.67999983      -6.90072142E-08
  -7.67000008      -6.95367248E-08
  -7.65999985      -7.00634573E-08
  -7.65000010      -7.05883423E-08
  -7.63999987      -7.11124954E-08
  -7.63000011      -7.16370181E-08
  -7.61999989      -7.21632745E-08
  -7.61000013      -7.26923304E-08
  -7.59999990      -7.32252801E-08
  -7.59000015      -7.37632888E-08
  -7.57999992      -7.43078061E-08
  -7.57000017      -7.48597841E-08
  -7.55999994      -7.54205089E-08
  -7.55000019      -7.59911956E-08
  -7.53999996      -7.65731940E-08
  -7.53000021      -7.71675914E-08
  -7.51999998      -7.77756455E-08
  -7.51000023      -7.83985712E-08
  -7.50000000      -7.90375125E-08
  -7.48999977      -7.96938266E-08
  -7.48000002      -8.03684586E-08
  -7.46999979      -8.10625167E-08
  -7.46000004      -8.17772658E-08
  -7.44999981      -8.25135800E-08
  -7.44000006      -8.32726457E-08