  -16.0000000       0.00000000    
  -15.9899998       0.00000000    
  -15.9799995       0.00000000    
  -15.9700003       0.00000000    
  -15.9600000       0.00000000    
  -15.9499998       0.00000000    
  -15.9399996       0.00000000    
  -15.9300003       0.00000000    
  -15.9200001       0.00000000    
  -15.9099998       0.00000000    
  -15.8999996       0.00000000    
  -15.8900003       0.00000000    
  -15.8800001      -5.60519386E-45
  -15.8699999      -2.67648007E-43
  -15.8599997      -8.83939071E-42
  -15.8500004      -1.64354093E-40
  -15.8400002      -1.99735058E-39
  -15.8299999      -1.77755047E-38
  -15.8199997      -1.24396762E-37
  -15.8100004      -7.16820037E-37
  -15.8000002      -3.50895431E-36
  -15.7900000      -1.49156845E-35
  -15.7799997      -5.59316398E-35
  -15.7700005      -1.87136313E-34
  -15.7600002      -5.63122865E-34
  -15.7500000      -1.53175335E-33
  -15.7399998      -3.77471477E-33
  -15.7299995      -8.41886189E-33
  -15.7200003      -1.69014679E-32
  -15.7100000      -3.01486941E-32
  -15.6999998      -4.64351566E-32
  -15.6899996      -5.74427766E-32
  -15.6800003      -4.30599803E-32
  -15.6700001       3.21047314E-32
  -15.6599998       2.13766257E-31
  -15.6499996       5.34506544E-31
  -15.6400003       9.63158035E-31
  -15.6300001       1.33080678E-30
  -15.6199999       1.26537792E-30
  -15.6099997       2.06248031E-31
  -15.6000004      -2.40132356E-30
  -15.5900002      -6.65787211E-30
  -15.5799999      -1.15612393E-29
  -15.5699997      -1.44531608E-29
  -15.5600004      -1.11285604E-29
  -15.5500002       2.73528921E-30
  -15.5400000       2.85592811E-29
  -15.5299997       6.10278570E-29
  -15.5200005       8.56855320E-29
  -15.5100002       8.12175070E-29
  -15.5000000       2.88017316E-29
  -15.4899998      -7.29370795E-29
  -15.4799995      -1.95105876E-28
  -15.4700003      -2.80723958E-28
  -15.4600000      -2.72618923E-28
  -15.4499998      -1.62837606E-28
  -15.4399996      -3.31873961E-29
  -15.4300003      -3.35472260E-29
  -15.4200001      -2.51962602E-28
  -15.4099998      -4.94759462E-28
  -15.3999996      -1.14796559E-28
  -15.3900003       1.85635650E-27
  -15.3800001       6.02081022E-27
  -15.3699999       1.13793501E-26
  -15.3599997       1.41072104E-26
  -15.3500004       7.54184691E-27
  -15.3400002      -1.51709261E-26
  -15.3299999      -5.51181182E-26
  -15.3199997      -9.98957306E-26
  -15.3100004      -1.18801799E-25
  -15.3000002      -6.79650385E-26
  -15.2900000       8.87332440E-26
  -15.2799997       3.44065776E-25
  -15.2700005       6.10836791E-25
  -15.2600002       7.11006004E-25
  -15.2500000       4.21444896E-25
  -15.2399998      -4.08407046E-25
  -15.2299995      -1.69147812E-24
  -15.2200003      -2.96865832E-24
  -15.2100000      -3.42189362E-24
  -15.1999998      -2.13628523E-24
  -15.1899996       1.38531587E-24
  -15.1800003       6.62114229E-24
  -15.1700001       1.16785090E-23
  -15.1599998       1.35768768E-23
  -15.1499996       9.36845689E-24
  -15.1400003      -2.13680627E-24
  -15.1300001      -1.88092571E-23
  -15.1199999      -3.48748306E-23
  -15.1099997      -4.26179485E-23
  -15.1000004      -3.58807798E-23
  -15.0900002      -1.37021968E-23
  -15.0799999       1.85100390E-23
  -15.0699997       5.22536257E-23
  -15.0600004       8.28481602E-23
  -15.0500002       1.15070623E-22
  -15.0400000       1.59755743E-22
  -15.0299997       2.15735358E-22
  -15.0200005       2.41064432E-22
  -15.0100002       1.32732436E-22
  -15.0000000      -2.53189590E-22
  -14.9899998      -1.01212515E-21
  -14.9799995      -2.03471204E-21
  -14.9700003      -2.84597467E-21
  -14.9600000      -2.56920824E-21
  -14.9499998      -1.71863547E-22
  -14.9399996       4.91603293E-21
  -14.9300003       1.19152136E-20
  -14.9200001       1.79372306E-20
  -14.9099998       1.80059900E-20
  -14.8999996       6.53661465E-21
  -14.8900003      -1.94778481E-20
  -14.8800001      -5.62617492E-20
  -14.8699999      -8.99559045E-20
  -14.8599997      -9.70816261E-20
  -14.8500004      -5.14510121E-20
  -14.8400002       6.18143283E-20
  -14.8299999       2.28424220E-19
  -14.8199997       3.91266511E-19
  -14.8100004       4.52292691E-19
  -14.8000002       3.00047023E-19
  -14.7900000      -1.35180738E-19
  -14.7799997      -8.11447431E-19
  -14.7700005      -1.52071789E-18
  -14.7600002      -1.89152363E-18
  -14.7500000      -1.48539025E-18
  -14.7399998       5.25852165E-21
  -14.7299995       2.50174138E-18
  -14.7200003       5.33007435E-18
  -14.7100000       7.20152292E-18
  -14.6999998       6.51139704E-18
  -14.6899996       1.99156678E-18
  -14.6800003      -6.41554500E-18
  -14.6700001      -1.67894470E-17
  -14.6599998      -2.50344972E-17
  -14.6499996      -2.56879268E-17
  -14.6400003      -1.38958716E-17
  -14.6300001       1.17868067E-17
  -14.6199999       4.67273501E-17
  -14.6099997       7.90885185E-17
  -14.6000004       9.16483031E-17
  -14.5900002       6.72560439E-17
  -14.5799999      -2.81373571E-18
  -14.5699997      -1.10151281E-16
  -14.5600004      -2.24165628E-16
  -14.5500002      -2.94997700E-16
  -14.5400000      -2.67031822E-16
  -14.5299997      -1.01915951E-16
  -14.5200005       1.95009431E-16
  -14.5100002       5.55508294E-16
  -14.5000000       8.48803987E-16
  -14.4899998       9.10587417E-16
  -14.4799995       6.00867703E-16
  -14.4700003      -1.22167258E-16
  -14.4600000      -1.13811370E-15
  -14.4499998      -2.14304460E-15
  -14.4399996      -2.69923926E-15
  -14.4300003      -2.36512034E-15
  -14.4200001      -8.83281140E-16
  -14.4099998       1.63007150E-15
  -14.3999996       4.57500875E-15
  -14.3900003       6.91669868E-15
  -14.3800001       7.43694928E-15
  -14.3699999       5.16378559E-15
  -14.3599997      -1.30185523E-16
  -14.3500004      -7.54039063E-15
  -14.3400002      -1.49556677E-14
  -14.3299999      -1.94442461E-14
  -14.3199997      -1.81138944E-14
  -14.3100004      -9.27204616E-15
  -14.3000002       6.47099799E-15
  -14.2900000       2.56139290E-14
  -14.2799997       4.21010408E-14
  -14.2700005       4.87652589E-14
  -14.2600002       3.96845812E-14
  -14.2500000       1.28404283E-14
  -14.2399998      -2.78447665E-14
  -14.2299995      -7.20616804E-14
  -14.2200003      -1.04918603E-13
  -14.2100000      -1.10997705E-13
  -14.1999998      -7.98157723E-14
  -14.1899996      -1.10735717E-14
  -14.1800003       8.22951123E-14
  -14.1700001       1.74993930E-13
  -14.1599998       2.34893376E-13
  -14.1499996       2.32450642E-13
  -14.1400003       1.51649608E-13
  -14.1300001      -1.04157958E-15
  -14.1199999      -1.93327613E-13
  -14.1099997      -3.71838004E-13
  -14.1000004      -4.75157619E-13
  -14.0900002      -4.52458763E-13
  -14.0799999      -2.82541270E-13
  -14.0699997       1.30968590E-14
  -14.0600004       3.68722278E-13
  -14.0500002       6.87015820E-13
  -14.0400000       8.64208065E-13
  -14.0299997       8.21498848E-13
  -14.0200005       5.33464603E-13
  -14.0100002       4.37880086E-14
  -14.0000000      -5.38475948E-13
  -13.9899998      -1.06328997E-12
  -13.9799995      -1.37918767E-12
  -13.9700003      -1.37693990E-12
  -13.9600000      -1.02392205E-12
  -13.9499998      -3.77828465E-13
  -13.9399996       4.25483298E-13
  -13.9300003       1.20684723E-12
  -13.9200001       1.79043477E-12
  -13.9099998       2.04712592E-12
  -13.8999996       1.92085974E-12
  -13.8900003       1.43083754E-12
  -13.8800001       6.52181434E-13
  -13.8699999      -3.13389776E-13
  -13.8599997      -1.36111044E-12
  -13.8500004      -2.38819663E-12
  -13.8400002      -3.27762166E-12
  -13.8299999      -3.87140407E-12
  -13.8199997      -3.95528705E-12
  -13.8100004      -3.27946784E-12
  -13.8000002      -1.63053100E-12
  -13.7900000       1.05127593E-12
  -13.7799997       4.54179402E-12
  -13.7700005       8.24414235E-12
  -13.7600002       1.12018823E-11
  -13.7500000       1.22573141E-11
  -13.7399998       1.03564110E-11
  -13.7299995       4.94499884E-12
  -13.7200003      -3.65419500E-12
  -13.7100000      -1.40251370E-11
  -13.6999998      -2.37333157E-11
  -13.6899996      -2.97612074E-11
  -13.6800003      -2.92700274E-11
  -13.6700001      -2.05326450E-11
  -13.6599998      -3.78157575E-12
  -13.6499996       1.83249440E-11
  -13.6400003       4.08685273E-11
  -13.6300001       5.75762181E-11
  -13.6199999       6.23638224E-11
  -13.6099997       5.11879115E-11
  -13.6000004       2.37046476E-11
  -13.5900002      -1.58180621E-11
  -13.5799999      -5.87761576E-11
  -13.5699997      -9.38591427E-11
  -13.5600004      -1.09816906E-10
  -13.5500002      -9.87540605E-11
  -13.5400000      -5.90594518E-11
  -13.5299997       2.98039891E-12
  -13.5200005       7.36151209E-11
  -13.5100002       1.34354389E-10
  -13.5000000       1.66573214E-10
  -13.4899998       1.56946720E-10
  -13.4799995       1.02224139E-10
  -13.4700003       1.17956304E-11
  -13.4600000      -9.30919855E-11
  -13.4499998      -1.83790316E-10
  -13.4399996      -2.31636682E-10
  -13.4300003      -2.16523868E-10
  -13.4200001      -1.34256217E-10
  -13.4099998      -2.75159832E-13
  -13.3999996       1.51951937E-10
  -13.3900003       2.78242429E-10
  -13.3800001       3.35401595E-10
  -13.3699999       2.94478192E-10
  -13.3599997       1.51818655E-10
  -13.3500004      -6.57514876E-11
  -13.3400002      -3.04084591E-10
  -13.3299999      -4.93542152E-10
  -13.3199997      -5.67287439E-10
  -13.3100004      -4.81572338E-10
  -13.3000002      -2.32305661E-10
  -13.2900000       1.37517789E-10
  -13.2799997       5.43006251E-10
  -13.2700005       8.75416462E-10
  -13.2600002       1.02955322E-09
  -13.2500000       9.33837008E-10
  -13.2399998       5.74738312E-10
  -13.2299995       7.90867111E-12
  -13.2200003      -6.48700926E-10
  -13.2100000      -1.23977073E-09
  -13.1999998      -1.61042824E-09
  -13.1899996      -1.64754277E-09
  -13.1800003      -1.31316480E-09
  -13.1700001      -6.59994281E-10
  -13.1599998       1.76965609E-10
  -13.1499996       1.01199238E-09
  -13.1400003       1.65608083E-09
  -13.1300001       1.96761563E-09
  -13.1199999       1.89170879E-09
  -13.1099997       1.47588408E-09
  -13.1000004       8.55903848E-10
  -13.0900002       2.14062865E-10
  -13.0799999      -2.79121004E-10
  -13.0699997      -5.22812849E-10
  -13.0600004      -5.24847499E-10
  -13.0500002      -4.07272049E-10
  -13.0400000      -3.72655407E-10
  -13.0299997      -6.36885489E-10
  -13.0200005      -1.34515166E-09
  -13.0100002      -2.49514009E-09
  -13.0000000      -3.89258670E-09
  -12.9899998      -5.15831244E-09
  -12.9799995      -5.79372372E-09
  -12.9700003      -5.29631050E-09
  -12.9600000      -3.30177108E-09
  -12.9499998       2.80828832E-10
  -12.9399996       5.17694776E-09
  -12.9300003       1.07271161E-08
  -12.9200001       1.59552354E-08
  -12.9099998       1.97203232E-08
  -12.8999996       2.09274695E-08
  -12.8900003       1.87581843E-08
  -12.8800001       1.28728148E-08
  -12.8699999       3.54053253E-09
  -12.8599997      -8.33496117E-09
  -12.8500004      -2.13055511E-08
  -12.8400002      -3.35729347E-08
  -12.8299999      -4.32538805E-08
  -12.8199997      -4.86683369E-08
  -12.8100004      -4.85976059E-08
  -12.8000002      -4.24658424E-08
  -12.7900000      -3.04146397E-08
  -12.7799997      -1.32631959E-08
  -12.7700005       7.62843655E-09
  -12.7600002       3.05555119E-08
  -12.7500000       5.36742775E-08
  -12.7399998       7.51688418E-08
  -12.7299995       9.33439850E-08
  -12.7200003       1.06633308E-07
  -12.7100000       1.13541219E-07
  -12.6999998       1.12563740E-07
  -12.6899996       1.02149905E-07
  -12.6800003       8.07653464E-08
  -12.6700001       4.71003752E-08
  -12.6599998       4.29170838E-10
  -12.6499996      -5.89194862E-08
  -12.6400003      -1.29063608E-07
  -12.6300001      -2.06156372E-07
  -12.6199999      -2.84183841E-07
  -12.6099997      -3.55073183E-07
  -12.6000004      -4.09163562E-07
  -12.5900002      -4.36028699E-07
  -12.5799999      -4.25570562E-07
  -12.5699997      -3.69251865E-07
  -12.5600004      -2.61309083E-07
  -12.5500002      -9.97949456E-08
  -12.5400000       1.12660949E-07
  -12.5299997       3.68428431E-07
  -12.5200005       6.54787925E-07
  -12.5100002       9.54131565E-07
  -12.5000000       1.24439862E-06
  -12.4899998       1.49970515E-06
  -12.4799995       1.69116504E-06
  -12.4700003       1.78793925E-06
  -12.4600000       1.75857190E-06
  -12.4499998       1.57265481E-06
  -12.4399996       1.20281425E-06
  -12.4300003       6.26926692E-07
  -12.4200001      -1.69610985E-07
  -12.4099998      -1.19181345E-06
  -12.3999996      -2.43349928E-06
  -12.3900003      -3.87638556E-06
  -12.3800001      -5.49001652E-06
  -12.3699999      -7.23254561E-06
  -12.3599997      -9.05224897E-06
  -12.3500004      -1.08895838E-05
  -12.3400002      -1.26795485E-05
  -12.3299999      -1.43541693E-05
  -12.3199997      -1.58449875E-05
  -12.3100004      -1.70855546E-05
  -12.3000002      -1.80139778E-05
  -12.2900000      -1.85755380E-05
  -12.2799997      -1.87254154E-05
  -12.2700005      -1.84312721E-05
  -12.2600002      -1.76754875E-05
  -12.2500000      -1.64566027E-05
  -12.2399998      -1.47896417E-05
  -12.2299995      -1.27050616E-05
  -12.2200003      -1.02463491E-05
  -12.2100000      -7.46659634E-06
  -12.1999998      -4.42461942E-06
  -12.1899996      -1.18132175E-06
  -12.1800003       2.20301854E-06
  -12.1700001       5.67009920E-06
  -12.1599998       9.16354202E-06
  -12.1499996       1.26278164E-05
  -12.1400003       1.60068594E-05
  -12.1300001       1.92432690E-05
  -12.1199999       2.22788112E-05
  -12.1099997       2.50566973E-05
  -12.1000004       2.75253951E-05
  -12.0900002       2.96434118E-05
  -12.0799999       3.13838391E-05
  -12.0699997       3.27374582E-05
  -12.0600004       3.37134625E-05
  -12.0500002       3.43370775E-05
  -12.0400000       3.46444685E-05
  -12.0299997       3.46756751E-05
  -12.0200005       3.44670152E-05
  -12.0100002       3.40445113E-05
  -12.0000000       3.34196993E-05
  -11.9899998       3.25886031E-05
  -11.9799995       3.15339385E-05
  -11.9700003       3.02298904E-05
  -11.9600000       2.86481791E-05
  -11.9499998       2.67640189E-05
  -11.9399996       2.45607825E-05
  -11.9300003       2.20325146E-05
  -11.9200001       1.91842209E-05
  -11.9099998       1.60304116E-05
  -11.8999996       1.25927409E-05
  -11.8900003       8.89777039E-06
  -11.8800001       4.97563087E-06
  -11.8699999       8.59906550E-07
  -11.8599997      -3.41131204E-06
  -11.8500004      -7.79381662E-06
  -11.8400002      -1.22358242E-05
  -11.8299999      -1.66774626E-05
  -11.8199997      -2.10516555E-05
  -11.8100004      -2.52865320E-05
  -11.8000002      -2.93090925E-05
  -11.7900000      -3.30495423E-05
  -11.7799997      -3.64455773E-05
  -11.7700005      -3.94460149E-05
  -11.7600002      -4.20132274E-05
  -11.7500000      -4.41241136E-05
  -11.7399998      -4.57697024E-05
  -11.7299995      -4.69534862E-05
  -11.7200003      -4.76889072E-05
  -11.7100000      -4.79963128E-05
  -11.6999998      -4.78998991E-05
  -11.6899996      -4.74249973E-05
  -11.6800003      -4.65961275E-05
  -11.6700001      -4.54361543E-05
  -11.6599998      -4.39665673E-05
  -11.6499996      -4.22088087E-05
  -11.6400003      -4.01862853E-05
  -11.6300001      -3.79263256E-05
  -11.6199999      -3.54612275E-05
  -11.6099997      -3.28277638E-05
  -11.6000004      -3.00645879E-05
  -11.5900002      -2.72076577E-05
  -11.5799999      -2.42844089E-05
  -11.5699997      -2.13078056E-05
  -11.5600004      -1.82719850E-05
  -11.5500002      -1.51508411E-05
  -11.5400000      -1.19007600E-05
  -11.5299997      -8.46741204E-06
  -11.5200005      -4.79606706E-06
  -11.5100002      -8.43556904E-07
  -11.5000000       3.41040118E-06
  -11.4899998       7.95480264E-06
  -11.4799995       1.27437506E-05
  -11.4700003       1.76985322E-05
  -11.4600000       2.27151068E-05
  -11.4499998       2.76755109E-05
  -11.4399996       3.24611065E-05
  -11.4300003       3.69651825E-05
  -11.4200001       4.11028850E-05
  -11.4099998       4.48169558E-05
  -11.3999996       4.80790986E-05
  -11.3900003       5.08873236E-05
  -11.3800001       5.32605336E-05
  -11.3699999       5.52318379E-05
  -11.3599997       5.68419237E-05
  -11.3500004       5.81332897E-05
  -11.3400002       5.91460703E-05
  -11.3299999       5.99153063E-05
  -11.3199997       6.04694833E-05
  -11.3100004       6.08302689E-05
  -11.3000002       6.10132411E-05
  -11.2900000       6.10295647E-05
  -11.2799997       6.08885202E-05
  -11.2700005       6.06009598E-05
  -11.2600002       6.01826978E-05
  -11.2500000       5.96573955E-05
  -11.2399998       5.90578493E-05
  -11.2299995       5.84249065E-05
  -11.2200003       5.78036925E-05
  -11.2100000       5.72374156E-05
  -11.1999998       5.67599782E-05
  -11.1899996       5.63889262E-05
  -11.1800003       5.61206980E-05
  -11.1700001       5.59294931E-05
  -11.1599998       5.57707281E-05
  -11.1499996       5.55885163E-05
  -11.1400003       5.53257814E-05
  -11.1300001       5.49350189E-05
  -11.1199999       5.43873393E-05
  -11.1099997       5.36777734E-05
  -11.1000004       5.28259006E-05
  -11.0900002       5.18721608E-05
  -11.0799999       5.08706362E-05
  -11.0699997       4.98804875E-05
  -11.0600004       4.89579143E-05
  -11.0500002       4.81500938E-05
  -11.0400000       4.74919143E-05
  -11.0299997       4.70052255E-05
  -11.0200005       4.66997553E-05
  -11.0100002       4.65743615E-05
  -11.0000000       4.66178826E-05
  -10.9899998       4.68088510E-05
  -10.9799995       4.71144958E-05
  -10.9700003       4.74898807E-05
  -10.9600000       4.78783040E-05
  -10.9499998       4.82140131E-05
  -10.9399996       4.84273151E-05
  -10.9300003       4.84519151E-05
  -10.9200001       4.82330724E-05
  -10.9099998       4.77348221E-05
  -10.8999996       4.69445949E-05
  -10.8900003       4.58738250E-05
  -10.8800001       4.45541409E-05
  -10.8699999       4.30294895E-05
  -10.8599997       4.13460475E-05
  -10.8500004       3.95416100E-05
  -10.8400002       3.76371390E-05
  -10.8299999       3.56321871E-05
  -10.8199997       3.35056575E-05
  -10.8100004       3.12219090E-05
  -10.8000002       2.87412840E-05
  -10.7900000       2.60330944E-05
  -10.7799997       2.30884052E-05
  -10.7700005       1.99297865E-05
  -10.7600002       1.66156969E-05
  -10.7500000       1.32381574E-05
  -10.7399998       9.91347133E-06
  -10.7299995       6.76771515E-06
  -10.7200003       3.91947515E-06
  -10.7100000       1.46380830E-06
  -10.6999998      -5.39448649E-07
  -10.6899996      -2.06982872E-06
  -10.6800003      -3.14179738E-06
  -10.6700001      -3.79263406E-06
  -10.6599998      -4.06509434E-06
  -10.6499996      -3.98939210E-06
  -10.6400003      -3.56861051E-06
  -10.6300001      -2.77163554E-06
  -10.6199999      -1.53539338E-06
  -10.6099997       2.23662681E-07
  -10.6000004       2.59174226E-06
  -10.5900002       5.63762387E-06
  -10.5799999       9.39546590E-06
  -10.5699997       1.38544692E-05
  -10.5600004       1.89580023E-05
  -10.5500002       2.46116779E-05
  -10.5400000       3.06986440E-05
  -10.5299997       3.70972411E-05
  -10.5200005       4.36971022E-05
  -10.5100002       5.04093950E-05
  -10.5000000       5.71696182E-05
  -10.4899998       6.39327336E-05
  -10.4799995       7.06633509E-05
  -10.4700003       7.73236025E-05
  -10.4600000       8.38637279E-05
  -10.4499998       9.02174215E-05
  -10.4399996       9.63038910E-05
  -10.4300003       1.02036014E-04
  -10.4200001       1.07332366E-04
  -10.4099998       1.12130110E-04
  -10.3999996       1.16395116E-04
  -10.3900003       1.20126351E-04
  -10.3800001       1.23353224E-04
  -10.3699999       1.26125626E-04
  -10.3599997       1.28498781E-04
  -10.3500004       1.30515458E-04
  -10.3400002       1.32189889E-04
  -10.3299999       1.33496476E-04
  -10.3199997       1.34366681E-04
  -10.3100004       1.34695525E-04
  -10.3000002       1.34357411E-04
  -10.2900000       1.33228736E-04
  -10.2799997       1.31213674E-04
  -10.2700005       1.28267202E-04
  -10.2600002       1.24411585E-04
  -10.2500000       1.19741475E-04
  -10.2399998       1.14416114E-04
  -10.2299995       1.08639848E-04
  -10.2200003       1.02634869E-04
  -10.2100000       9.66112857E-05
  -10.1999998       9.07414869E-05
  -10.1899996       8.51439254E-05
  -10.1800003       7.98795227E-05
  -10.1700001       7.49603569E-05
  -10.1599998       7.03684636E-05
  -10.1499996       6.60782680E-05
  -10.1400003       6.20773644E-05
  -10.1300001       5.83804940E-05
  -10.1199999       5.50336299E-05
  -10.1099997       5.21083166E-05
  -10.1000004       4.96889479E-05
  -10.0900002       4.78577604E-05
  -10.0799999       4.66811289E-05
  -10.0699997       4.62010321E-05
  -10.0600004       4.64326549E-05
  -10.0500002       4.73667387E-05
  -10.0400000       4.89747508E-05
  -10.0299997       5.12134902E-05
  -10.0200005       5.40276669E-05
  -10.0100002       5.73495054E-05
  -10.0000000       6.10971183E-05
  -9.98999977       6.51737428E-05
  -9.97999954       6.94705523E-05
  -9.97000027       7.38735980E-05
  -9.96000004       7.82750794E-05
  -9.94999981       8.25860043E-05
  -9.93999958       8.67472409E-05
  -9.93000031       9.07355279E-05
  -9.92000008       9.45627326E-05
  -9.90999985       9.82684069E-05
  -9.89999962       1.01907994E-04
  -9.89000034       1.05540559E-04
  -9.88000011       1.09220229E-04
  -9.86999989       1.12993221E-04
  -9.85999966       1.16901327E-04
  -9.85000038       1.20990815E-04
  -9.84000015       1.25321210E-04
  -9.82999992       1.29971711E-04
  -9.81999969       1.35040929E-04
  -9.81000042       1.40640041E-04
  -9.80000019       1.46880426E-04
  -9.78999996       1.53860266E-04
  -9.77999973       1.61653879E-04
  -9.77000046       1.70308325E-04
  -9.76000023       1.79848241E-04
  -9.75000000       1.90287290E-04
  -9.73999977       2.01642004E-04
  -9.72999954       2.13941312E-04
  -9.72000027       2.27229117E-04
  -9.71000004       2.41553746E-04
  -9.69999981       2.56947242E-04
  -9.68999958       2.73398909E-04
  -9.68000031       2.90827797E-04
  -9.67000008       3.09065392E-04
  -9.65999985       3.27851129E-04
  -9.64999962       3.46845976E-04
  -9.64000034       3.65660351E-04
  -9.63000011       3.83890118E-04
  -9.61999989       4.01153520E-04
  -9.60999966       4.17118747E-04
  -9.60000038       4.31515480E-04
  -9.59000015       4.44129750E-04
  -9.57999992       4.54783381E-04
  -9.56999969       4.63305361E-04
  -9.56000042       4.69505001E-04
  -9.55000019       4.73153952E-04
  -9.53999996       4.73984110E-04
  -9.52999973       4.71701293E-04
  -9.52000046       4.66014491E-04
  -9.51000023       4.56670037E-04
  -9.50000000       4.43486875E-04
  -9.48999977       4.26382496E-04
  -9.47999954       4.05387487E-04
  -9.47000027       3.80647194E-04
  -9.46000004       3.52412259E-04
  -9.44999981       3.21023719E-04
  -9.43999958       2.86895811E-04
  -9.43000031       2.50501325E-04
  -9.42000008       2.12359737E-04
  -9.40999985       1.73028369E-04
  -9.39999962       1.33094843E-04
  -9.39000034       9.31689865E-05
  -9.38000011       5.38730346E-05
  -9.36999989       1.58316525E-05
  -9.35999966      -2.03388918E-05
  -9.35000038      -5.40390647E-05
  -9.34000015      -8.46938929E-05
  -9.32999992      -1.11757530E-04
  -9.31999969      -1.34720045E-04
  -9.31000042      -1.53114233E-04
  -9.30000019      -1.66526021E-04
  -9.28999996      -1.74606743E-04
  -9.27999973      -1.77084876E-04
  -9.27000046      -1.73775712E-04
  -9.26000023      -1.64583413E-04
  -9.25000000      -1.49497340E-04
  -9.23999977      -1.28581843E-04
  -9.22999954      -1.01963778E-04
  -9.22000027      -6.98228614E-05
  -9.21000004      -3.23876193E-05
  -9.19999981       1.00586603E-05
  -9.18999958       5.71684468E-05
  -9.18000031       1.08515298E-04
  -9.17000008       1.63587611E-04
  -9.15999985       2.21790979E-04
  -9.14999962       2.82463327E-04
  -9.14000034       3.44902743E-04
  -9.13000011       4.08401742E-04
  -9.11999989       4.72277985E-04
  -9.10999966       5.35896572E-04
  -9.10000038       5.98677259E-04
  -9.09000015       6.60087971E-04
  -9.07999992       7.19628239E-04
  -9.06999969       7.76812143E-04
  -9.06000042       8.31156329E-04
  -9.05000019       8.82181106E-04
  -9.03999996       9.29423142E-04
  -9.02999973       9.72455484E-04
  -9.02000046       1.01091131E-03
  -9.01000023       1.04449654E-03
  -9.00000000       1.07299164E-03
  -8.98999977       1.09624234E-03
  -8.97999954       1.11413654E-03
  -8.97000027       1.12658390E-03
  -8.96000004       1.13349652E-03
  -8.94999981       1.13478745E-03
  -8.93999958       1.13037624E-03
  -8.93000031       1.12021132E-03
  -8.92000008       1.10429164E-03
  -8.90999985       1.08269067E-03
  -8.89999962       1.05556764E-03
  -8.89000034       1.02317042E-03
  -8.88000011       9.85828927E-04
  -8.86999989       9.43940191E-04
  -8.85999966       8.97955149E-04
  -8.85000038       8.48366297E-04
  -8.84000015       7.95698434E-04
  -8.82999992       7.40505813E-04
  -8.81999969       6.83367602E-04
  -8.81000042       6.24886190E-04
  -8.80000019       5.65680733E-04
  -8.78999996       5.06383309E-04
  -8.77999973       4.47632890E-04
  -8.77000046       3.90069647E-04
  -8.76000023       3.34332668E-04
  -8.75000000       2.81056011E-04
  -8.73999977       2.30861842E-04
  -8.72999954       1.84349148E-04
  -8.72000027       1.42077959E-04
  -8.71000004       1.04547849E-04
  -8.69999981       7.21772740E-05
  -8.68999958       4.52867134E-05
  -8.68000031       2.40907302E-05
  -8.67000008       8.69678206E-06
  -8.65999985      -8.84713074E-07
  -8.64999962      -4.72929287E-06
  -8.64000034      -2.98891564E-06
  -8.63000011       4.11262363E-06
  -8.61999989       1.62757206E-05
  -8.60999966       3.31171650E-05
  -8.60000038       5.41656518E-05
  -8.59000015       7.88631223E-05
  -8.57999992       1.06581312E-04
  -8.56999969       1.36649731E-04
  -8.56000042       1.68392580E-04
  -8.55000019       2.01167772E-04
  -8.53999996       2.34394727E-04
  -8.52999973       2.67566444E-04
  -8.52000046       3.00242886E-04
  -8.51000023       3.32028023E-04
  -8.50000000       3.62542021E-04
  -8.48999977       3.91395763E-04
  -8.47999954       4.18181153E-04
  -8.47000027       4.42479999E-04
  -8.46000004       4.63892909E-04
  -8.44999981       4.82079486E-04
  -8.43999958       4.96800174E-04
  -8.43000031       5.07949735E-04
  -8.42000008       5.15572785E-04
  -8.40999985       5.19858440E-04
  -8.39999962       5.21118985E-04
  -8.39000034       5.19756693E-04
  -8.38000011       5.16229076E-04
  -8.36999989       5.11018850E-04
  -8.35999966       5.04613155E-04
  -8.35000038       4.97492845E-04
  -8.34000015       4.90127364E-04
  -8.32999992       4.82969917E-04
  -8.31999969       4.76450659E-04
  -8.31000042       4.70963772E-04
  -8.30000019       4.66849800E-04
  -8.28999996       4.64380166E-04
  -8.27999973       4.63742675E-04
  -8.27000046       4.65040008E-04
  -8.26000023       4.68300306E-04
  -8.25000000       4.73497086E-04
  -8.23999977       4.80580726E-04
  -8.22999954       4.89507103E-04
  -8.22000027       5.00262540E-04
  -8.21000004       5.12877945E-04
  -8.19999981       5.27428172E-04
  -8.18999958       5.44020615E-04
  -8.18000031       5.62771282E-04
  -8.17000008       5.83785761E-04
  -8.15999985       6.07139780E-04
  -8.14999962       6.32871583E-04
  -8.14000034       6.60982740E-04
  -8.13000011       6.91451656E-04
  -8.11999989       7.24243175E-04
  -8.10999966       7.59320566E-04
  -8.10000038       7.96648266E-04
  -8.09000015       8.36184947E-04
  -8.07999992       8.77870538E-04
  -8.06999969       9.21610568E-04
  -8.06000042       9.67264175E-04
  -8.05000019       1.01464300E-03
  -8.03999996       1.06351357E-03
  -8.02999973       1.11361523E-03
  -8.02000046       1.16467196E-03
  -8.01000023       1.21640519E-03
  -8.00000000       1.26853352E-03
  -7.98999977       1.32076442E-03
  -7.98000002       1.37277925E-03
  -7.96999979       1.42421678E-03
  -7.96000004       1.47466792E-03
  -7.94999981       1.52368157E-03
  -7.94000006       1.57078670E-03
  -7.92999983       1.61552301E-03
  -7.92000008       1.65747444E-03
  -7.90999985       1.69629010E-03
  -7.90000010       1.73169631E-03
  -7.88999987       1.76348560E-03
  -7.88000011       1.79149699E-03
  -7.86999989       1.81559369E-03
  -7.86000013       1.83564250E-03
  -7.84999990       1.85151689E-03
  -7.84000015       1.86310627E-03
  -7.82999992       1.87034695E-03
  -7.82000017       1.87324511E-03
  -7.80999994       1.87189970E-03
  -7.80000019       1.86650292E-03
  -7.78999996       1.85732485E-03
  -7.78000021       1.84468471E-03
  -7.76999998       1.82891847E-03
  -7.76000023       1.81034859E-03
  -7.75000000       1.78927544E-03
  -7.73999977       1.76597480E-03
  -7.73000002       1.74071488E-03
  -7.71999979       1.71376904E-03
  -7.71000004       1.68542541E-03
  -7.69999981       1.65598642E-03
  -7.69000006       1.62575266E-03
  -7.67999983       1.59500760E-03
  -7.67000008       1.56400551E-03
  -7.65999985       1.53297267E-03
  -7.65000010       1.50212669E-03
  -7.63999987       1.47170259E-03
  -7.63000011       1.44198525E-03
  -7.61999989       1.41332520E-03
  -7.61000013       1.38614152E-03
  -7.59999990       1.36089488E-03
  -7.59000015       1.33804651E-03
  -7.57999992       1.31801108E-03
  -7.57000017       1.30111666E-03
  -7.55999994       1.28759001E-03
  -7.55000019       1.27756805E-03
  -7.53999996       1.27112831E-03
  -7.53000021       1.26832898E-03
  -7.51999998       1.26924634E-03
  -7.51000023       1.27399131E-03
  -7.50000000       1.28270348E-03
  -7.48999977       1.29552442E-03
  -7.48000002       1.31255400E-03
  -7.46999979       1.33381761E-03
  -7.46000004       1.35924004E-03
  -7.44999981       1.38864643E-03
  -7.44000006       1.42178137E-03