  -16.0000000       0.00000000    
  -15.9899998       0.00000000    
  -15.9799995       0.00000000    
  -15.9700003       0.00000000    
  -15.9600000       0.00000000    
  -15.9499998       0.00000000    
  -15.9399996       0.00000000    
  -15.9300003       0.00000000    
  -15.9200001       0.00000000    
  -15.9099998       0.00000000    
  -15.8999996       0.00000000    
  -15.8900003       0.00000000    
  -15.8800001       0.00000000    
  -15.8699999      -2.80259693E-45
  -15.8599997      -6.36189503E-43
  -15.8500004      -2.09718328E-41
  -15.8400002      -3.87729476E-40
  -15.8299999      -4.65774233E-39
  -15.8199997      -4.11870906E-38
  -15.8100004      -2.87422279E-37
  -15.8000002      -1.65424894E-36
  -15.7900000      -8.09630559E-36
  -15.7799997      -3.44170138E-35
  -15.7700005      -1.29071759E-34
  -15.7600002      -4.31854630E-34
  -15.7500000      -1.29932974E-33
  -15.7399998      -3.53307133E-33
  -15.7299995      -8.70120020E-33
  -15.7200003      -1.93872946E-32
  -15.7100000      -3.88595569E-32
  -15.6999998      -6.91298647E-32
  -15.6899996      -1.05917977E-31
  -15.6800003      -1.29355889E-31
  -15.6700001      -9.15842636E-32
  -15.6599998       9.20350833E-32
  -15.6499996       5.32612588E-31
  -15.6400003       1.31467157E-30
  -15.6300001       2.37844825E-30
  -15.6199999       3.34170061E-30
  -15.6099997       3.32713125E-30
  -15.6000004       9.52904527E-31
  -15.5900002      -5.27907855E-30
  -15.5799999      -1.59894225E-29
  -15.5699997      -2.93544525E-29
  -15.5600004      -3.95050000E-29
  -15.5500002      -3.60835915E-29
  -15.5400000      -6.56965399E-30
  -15.5299997       5.74282578E-29
  -15.5200005       1.50481513E-28
  -15.5100002       2.43862405E-28
  -15.5000000       2.83029802E-28
  -15.4899998       1.99732910E-28
  -15.4799995      -5.75259686E-29
  -15.4700003      -4.80634114E-28
  -15.4600000      -9.65288318E-28
  -15.4499998      -1.30793205E-27
  -15.4399996      -1.25877529E-27
  -15.4300003      -6.30295963E-28
  -15.4200001       5.75754686E-28
  -15.4099998       2.09119053E-27
  -15.3999996       3.42451568E-27
  -15.3900003       4.05195746E-27
  -15.3800001       3.70536981E-27
  -15.3699999       2.62553093E-27
  -15.3599997       1.60610395E-27
  -15.3500004       1.66005705E-27
  -15.3400002       3.17944706E-27
  -15.3299999       4.54020728E-27
  -15.3199997       3.61211965E-28
  -15.3100004      -1.96543662E-26
  -15.3000002      -6.89773628E-26
  -15.2900000      -1.55718973E-25
  -15.2799997      -2.63503529E-25
  -15.2700005      -3.23023404E-25
  -15.2600002      -1.88593137E-25
  -15.2500000       3.46459698E-25
  -15.2399998       1.44702629E-24
  -15.2299995       3.01097617E-24
  -15.2200003       4.35589980E-24
  -15.2100000       3.98831034E-24
  -15.1999998      -2.12651016E-25
  -15.1899996      -9.99672780E-24
  -15.1800003      -2.47376809E-23
  -15.1700001      -3.88740841E-23
  -15.1599998      -4.02905469E-23
  -15.1499996      -1.21438265E-23
  -15.1400003       5.92703952E-23
  -15.1300001       1.69968804E-22
  -15.1199999       2.81065183E-22
  -15.1099997       3.09454785E-22
  -15.1000004       1.42222748E-22
  -15.0900002      -3.10869055E-22
  -15.0799999      -1.02644774E-21
  -15.0699997      -1.76619358E-21
  -15.0600004      -2.02901366E-21
  -15.0500002      -1.14469397E-21
  -15.0400000       1.41972082E-21
  -15.0299997       5.55312114E-21
  -15.0200005       9.95833046E-21
  -15.0100002       1.19177452E-20
  -15.0000000       7.81050430E-21
  -14.9899998      -5.28863781E-21
  -14.9799995      -2.70350251E-20
  -14.9700003      -5.11164337E-20
  -14.9600000      -6.40995828E-20
  -14.9499998      -4.78977577E-20
  -14.9399996       1.26679431E-20
  -14.9300003       1.17791605E-19
  -14.9200001       2.40010849E-19
  -14.9099998       3.18404203E-19
  -14.8999996       2.68792650E-19
  -14.8900003       1.63645987E-20
  -14.8800001      -4.51587882E-19
  -14.8699999      -1.02915113E-18
  -14.8599997      -1.46247321E-18
  -14.8500004      -1.38566318E-18
  -14.8400002      -4.49499819E-19
  -14.8299999       1.46368596E-18
  -14.8199997       4.00052089E-18
  -14.8100004       6.19232742E-18
  -14.8000002       6.55622237E-18
  -14.7900000       3.55751315E-18
  -14.7799997      -3.57390497E-18
  -14.7700005      -1.38827790E-17
  -14.7600002      -2.40150814E-17
  -14.7500000      -2.83936495E-17
  -14.7399998      -2.07135058E-17
  -14.7299995       3.17859722E-18
  -14.7200003       4.16566469E-17
  -14.7100000       8.43813362E-17
  -14.6999998       1.12043440E-16
  -14.6899996       1.00606782E-16
  -14.6800003       3.06576528E-17
  -14.6700001      -9.97995593E-17
  -14.6599998      -2.63523491E-16
  -14.6499996      -3.99768793E-16
  -14.6400003      -4.24216414E-16
  -14.6300001      -2.56516172E-16
  -14.6199999       1.37919715E-16
  -14.6099997       7.04187617E-16
  -14.6000004       1.27246054E-15
  -14.5900002       1.57347413E-15
  -14.5799999       1.31029358E-15
  -14.5699997       2.83187890E-16
  -14.5600004      -1.46261795E-15
  -14.5500002      -3.52341460E-15
  -14.5400000      -5.12893993E-15
  -14.5299997      -5.29908343E-15
  -14.5200005      -3.17916283E-15
  -14.5100002       1.50752012E-15
  -14.5000000       8.03519679E-15
  -14.4899998       1.44845632E-14
  -14.4799995       1.79866769E-14
  -14.4700003       1.55073826E-14
  -14.4600000       5.08919629E-15
  -14.4499998      -1.27729223E-14
  -14.4399996      -3.41562953E-14
  -14.4300003      -5.17442263E-14
  -14.4200001      -5.63216296E-14
  -14.4099998      -3.97657947E-14
  -14.3999996       1.05553222E-15
  -14.3900003       6.07070546E-14
  -14.3800001       1.23562456E-13
  -14.3699999       1.65656077E-13
  -14.3599997       1.60744329E-13
  -14.3500004       8.98937229E-14
  -14.3400002      -4.78081252E-14
  -14.3299999      -2.27258235E-13
  -14.3199997      -3.96364880E-13
  -14.3100004      -4.85306511E-13
  -14.3000002      -4.26455827E-13
  -14.2900000      -1.81361219E-13
  -14.2799997       2.32947206E-13
  -14.2700005       7.28725186E-13
  -14.2600002       1.15335053E-12
  -14.2500000       1.32183912E-12
  -14.2399998       1.07353113E-12
  -14.2299995       3.40461112E-13
  -14.2200003      -7.93902921E-13
  -14.2100000      -2.07054838E-12
  -14.1999998      -3.08628774E-12
  -14.1899996      -3.38800667E-12
  -14.1800003      -2.61679719E-12
  -14.1700001      -6.66702750E-13
  -14.1599998       2.19368230E-12
  -14.1499996       5.29169720E-12
  -14.1400003       7.65225210E-12
  -14.1300001       8.23592583E-12
  -14.1199999       6.27240751E-12
  -14.1099997       1.60336718E-12
  -14.1000004      -5.07926166E-12
  -14.0900002      -1.22102918E-11
  -14.0799999      -1.76121617E-11
  -14.0699997      -1.90314830E-11
  -14.0600004      -1.48489207E-11
  -14.0500002      -4.77614216E-12
  -14.0400000       9.69065800E-12
  -14.0299997       2.52691531E-11
  -14.0200005       3.74556323E-11
  -14.0100002       4.16152494E-11
  -14.0000000       3.43810640E-11
  -13.9899998       1.49969152E-11
  -13.9799995      -1.38259890E-11
  -13.9700003      -4.59096962E-11
  -13.9600000      -7.26576577E-11
  -13.9499998      -8.50542622E-11
  -13.9399996      -7.62163596E-11
  -13.9300003      -4.38487753E-11
  -13.9200001       8.13914387E-12
  -13.9099998       6.94890534E-11
  -13.8999996       1.25236710E-10
  -13.8900003       1.58994373E-10
  -13.8800001       1.57224997E-10
  -13.8699999       1.13468422E-10
  -13.8599997       3.13354863E-11
  -13.8500004      -7.47554518E-11
  -13.8400002      -1.81640925E-10
  -13.8299999      -2.62121436E-10
  -13.8199997      -2.91414337E-10
  -13.8100004      -2.53873617E-10
  -13.8000002      -1.48231191E-10
  -13.7900000       1.01704235E-11
  -13.7799997       1.91074698E-10
  -13.7700005       3.54905133E-10
  -13.7600002       4.61238103E-10
  -13.7500000       4.78287854E-10
  -13.7399998       3.91171318E-10
  -13.7299995       2.06855769E-10
  -13.7200003      -4.55994582E-11
  -13.7100000      -3.19799270E-10
  -13.6999998      -5.60877400E-10
  -13.6899996      -7.16562087E-10
  -13.6800003      -7.48020978E-10
  -13.6700001      -6.38106123E-10
  -13.6599998      -3.95312727E-10
  -13.6499996      -5.27637690E-11
  -13.6400003       3.37285422E-10
  -13.6300001       7.12013226E-10
  -13.6199999       1.00782394E-09
  -13.6099997       1.16956500E-09
  -13.6000004       1.15797316E-09
  -13.5900002       9.54847312E-10
  -13.5799999       5.66161784E-10
  -13.5699997       2.35507551E-11
  -13.5600004      -6.15617946E-10
  -13.5500002      -1.26995892E-09
  -13.5400000      -1.83871829E-09
  -13.5299997      -2.21082219E-09
  -13.5200005      -2.27948171E-09
  -13.5100002      -1.96217864E-09
  -13.5000000      -1.22389532E-09
  -13.4899998      -9.90603780E-11
  -13.4799995       1.29405142E-09
  -13.4700003       2.75314016E-09
  -13.4600000       4.01107680E-09
  -13.4499998       4.77587481E-09
  -13.4399996       4.78762940E-09
  -13.4300003       3.88289934E-09
  -13.4200001       2.05252815E-09
  -13.4099998      -5.22856092E-10
  -13.3999996      -3.47321216E-09
  -13.3900003      -6.28260954E-09
  -13.3800001      -8.37378877E-09
  -13.3699999      -9.22103283E-09
  -13.3599997      -8.46961434E-09
  -13.3500004      -6.03495165E-09
  -13.3400002      -2.15617102E-09
  -13.3299999       2.61408251E-09
  -13.3199997       7.48821449E-09
  -13.3100004       1.15799157E-08
  -13.3000002       1.40729801E-08
  -13.2900000       1.43877825E-08
  -13.2799997       1.23090054E-08
  -13.2700005       8.04491407E-09
  -13.2600002       2.20267293E-09
  -13.2500000      -4.31705560E-09
  -13.2399998      -1.04847704E-08
  -13.2299995      -1.53312385E-08
  -13.2200003      -1.81202786E-08
  -13.2100000      -1.84691196E-08
  -13.1999998      -1.63929439E-08
  -13.1899996      -1.22679635E-08
  -13.1800003      -6.72705713E-09
  -13.1700001      -5.16385046E-10
  -13.1599998       5.65031399E-09
  -13.1499996       1.12050911E-08
  -13.1400003       1.57827298E-08
  -13.1300001       1.92120488E-08
  -13.1199999       2.14513864E-08
  -13.1099997       2.24926460E-08
  -13.1000004       2.22657039E-08
  -13.0900002       2.05770014E-08
  -13.0799999       1.71067835E-08
  -13.0699997       1.14753336E-08
  -13.0600004       3.37014239E-09
  -13.0500002      -7.28867722E-09
  -13.0400000      -2.01829966E-08
  -13.0299997      -3.44710855E-08
  -13.0200005      -4.87419634E-08
  -13.0100002      -6.10749211E-08
  -13.0000000      -6.92161208E-08
  -12.9899998      -7.08600254E-08
  -12.9799995      -6.40066915E-08
  -12.9700003      -4.73469015E-08
  -12.9600000      -2.06193977E-08
  -12.9499998       1.51182853E-08
  -12.9399996       5.73583847E-08
  -12.9300003       1.02188423E-07
  -12.9200001       1.44533644E-07
  -12.9099998       1.78592572E-07
  -12.8999996       1.98440148E-07
  -12.8900003       1.98745894E-07
  -12.8800001       1.75540762E-07
  -12.8699999       1.26942140E-07
  -12.8599997       5.37429621E-08
  -12.8500004      -4.02315052E-08
  -12.8400002      -1.48084013E-07
  -12.8299999      -2.60182162E-07
  -12.8199997      -3.64881032E-07
  -12.8100004      -4.49591539E-07
  -12.8000002      -5.02093201E-07
  -12.7900000      -5.11932797E-07
  -12.7799997      -4.71712269E-07
  -12.7700005      -3.78086582E-07
  -12.7600002      -2.32307755E-07
  -12.7500000      -4.02424334E-08
  -12.7399998       1.88087981E-07
  -12.7299995       4.39326470E-07
  -12.7200003       6.97732332E-07
  -12.7100000       9.46013472E-07
  -12.6999998       1.16586227E-06
  -12.6899996       1.33809488E-06
  -12.6800003       1.44249873E-06
  -12.6700001       1.45765182E-06
  -12.6599998       1.36110089E-06
  -12.6499996       1.13036936E-06
  -12.6400003       7.45144348E-07
  -12.6300001       1.90842798E-07
  -12.6199999      -5.36612959E-07
  -12.6099997      -1.42522561E-06
  -12.6000004      -2.44140369E-06
  -12.5900002      -3.52549455E-06
  -12.5799999      -4.58943578E-06
  -12.5699997      -5.51754329E-06
  -12.5600004      -6.17112528E-06
  -12.5500002      -6.39727523E-06
  -12.5400000      -6.04170964E-06
  -12.5299997      -4.96506118E-06
  -12.5200005      -3.06168477E-06
  -12.5100002      -2.79623691E-07
  -12.5000000       3.35976324E-06
  -12.4899998       7.74433556E-06
  -12.4799995       1.26574660E-05
  -12.4700003       1.77701622E-05
  -12.4600000       2.26402808E-05
  -12.4499998       2.67204068E-05
  -12.4399996       2.93754310E-05
  -12.4300003       2.99092826E-05
  -12.4200001       2.76010705E-05
  -12.4099998       2.17481047E-05
  -12.3999996       1.17141390E-05
  -12.3900003      -3.02121907E-06
  -12.3800001      -2.28147492E-05
  -12.3699999      -4.78171241E-05
  -12.3599997      -7.79400725E-05
  -12.3500004      -1.12833201E-04
  -12.3400002      -1.51875473E-04
  -12.3299999      -1.94177861E-04
  -12.3199997      -2.38602661E-04
  -12.3100004      -2.83791131E-04
  -12.3000002      -3.28207941E-04
  -12.2900000      -3.70189897E-04
  -12.2799997      -4.08007036E-04
  -12.2700005      -4.39927506E-04
  -12.2600002      -4.64283919E-04
  -12.2500000      -4.79538227E-04
  -12.2399998      -4.84343793E-04
  -12.2299995      -4.77596157E-04
  -12.2200003      -4.58470720E-04
  -12.2100000      -4.26443119E-04
  -12.1999998      -3.81299440E-04
  -12.1899996      -3.23123095E-04
  -12.1800003      -2.52275000E-04
  -12.1700001      -1.69363149E-04
  -12.1599998      -7.52092164E-05
  -12.1499996       2.91741817E-05
  -12.1400003       1.42622070E-04
  -12.1300001       2.63823982E-04
  -12.1199999       3.91346170E-04
  -12.1099997       5.23629657E-04
  -12.1000004       6.59016427E-04
  -12.0900002       7.95747968E-04
  -12.0799999       9.31999122E-04
  -12.0699997       1.06589787E-03
  -12.0600004       1.19555928E-03
  -12.0500002       1.31912553E-03
  -12.0400000       1.43479905E-03
  -12.0299997       1.54086878E-03
  -12.0200005       1.63573248E-03
  -12.0100002       1.71790412E-03
  -12.0000000       1.78601465E-03
  -11.9899998       1.83880550E-03
  -11.9799995       1.87511661E-03
  -11.9700003       1.89387216E-03
  -11.9600000       1.89407985E-03
  -11.9499998       1.87482371E-03
  -11.9399996       1.83528056E-03
  -11.9300003       1.77472120E-03
  -11.9200001       1.69253245E-03
  -11.9099998       1.58824841E-03
  -11.8999996       1.46155991E-03
  -11.8900003       1.31235027E-03
  -11.8800001       1.14071451E-03
  -11.8699999       9.46982473E-04
  -11.8599997       7.31741253E-04
  -11.8500004       4.95853834E-04
  -11.8400002       2.40467751E-04
  -11.8299999      -3.29926988E-05
  -11.8199997      -3.22805310E-04
  -11.8100004      -6.26993831E-04
  -11.8000002      -9.43334191E-04
  -11.7900000      -1.26939092E-03
  -11.7799997      -1.60256808E-03
  -11.7700005      -1.94012909E-03
  -11.7600002      -2.27925507E-03
  -11.7500000      -2.61707860E-03
  -11.7399998      -2.95071956E-03
  -11.7299995      -3.27729993E-03
  -11.7200003      -3.59398383E-03
  -11.7100000      -3.89797357E-03
  -11.6999998      -4.18651849E-03
  -11.6899996      -4.45691403E-03
  -11.6800003      -4.70650662E-03
  -11.6700001      -4.93268389E-03
  -11.6599998      -5.13287401E-03
  -11.6499996      -5.30455308E-03
  -11.6400003      -5.44525916E-03
  -11.6300001      -5.55260852E-03
  -11.6199999      -5.62433945E-03
  -11.6099997      -5.65832574E-03
  -11.6000004      -5.65263070E-03
  -11.5900002      -5.60554396E-03
  -11.5799999      -5.51558053E-03
  -11.5699997      -5.38152317E-03
  -11.5600004      -5.20240422E-03
  -11.5500002      -4.97750659E-03
  -11.5400000      -4.70634364E-03
  -11.5299997      -4.38865786E-03
  -11.5200005      -4.02439153E-03
  -11.5100002      -3.61370714E-03
  -11.5000000      -3.15698632E-03
  -11.4899998      -2.65486282E-03
  -11.4799995      -2.10820907E-03
  -11.4700003      -1.51820062E-03
  -11.4600000      -8.86273046E-04
  -11.4499998      -2.14143132E-04
  -11.4399996       4.96229739E-04
  -11.4300003       1.24269794E-03
  -11.4200001       2.02293578E-03
  -11.4099998       2.83452473E-03
  -11.3999996       3.67497583E-03
  -11.3900003       4.54177009E-03
  -11.3800001       5.43237058E-03
  -11.3699999       6.34422759E-03
  -11.3599997       7.27479998E-03
  -11.3500004       8.22152663E-03
  -11.3400002       9.18185245E-03
  -11.3299999       1.01532228E-02
  -11.3199997       1.11330897E-02
  -11.3100004       1.21189244E-02
  -11.3000002       1.31082432E-02
  -11.2900000       1.40986145E-02
  -11.2799997       1.50876958E-02
  -11.2700005       1.60731841E-02
  -11.2600002       1.70529205E-02
  -11.2500000       1.80248413E-02
  -11.2399998       1.89870186E-02
  -11.2299995       1.99376587E-02
  -11.2200003       2.08751298E-02
  -11.2100000       2.17979662E-02
  -11.1999998       2.27048155E-02
  -11.1899996       2.35945005E-02
  -11.1800003       2.44658850E-02
  -11.1700001       2.53178962E-02
  -11.1599998       2.61494871E-02
  -11.1499996       2.69595683E-02
  -11.1400003       2.77470239E-02
  -11.1300001       2.85107382E-02
  -11.1199999       2.92496067E-02
  -11.1099997       2.99626198E-02
  -11.1000004       3.06489263E-02
  -11.0900002       3.13078053E-02
  -11.0799999       3.19388658E-02
  -11.0699997       3.25419344E-02
  -11.0600004       3.31171229E-02
  -11.0500002       3.36647928E-02
  -11.0400000       3.41854766E-02
  -11.0299997       3.46798040E-02
  -11.0200005       3.51485126E-02
  -11.0100002       3.55922878E-02
  -11.0000000       3.60117182E-02
  -10.9899998       3.64073068E-02
  -10.9799995       3.67793664E-02
  -10.9700003       3.71279791E-02
  -10.9600000       3.74530777E-02
  -10.9499998       3.77543978E-02
  -10.9399996       3.80314775E-02
  -10.9300003       3.82837281E-02
  -10.9200001       3.85104753E-02
  -10.9099998       3.87109965E-02
  -10.8999996       3.88845764E-02
  -10.8900003       3.90305109E-02
  -10.8800001       3.91482078E-02
  -10.8699999       3.92370895E-02
  -10.8599997       3.92966606E-02
  -10.8500004       3.93265076E-02
  -10.8400002       3.93262319E-02
  -10.8299999       3.92954312E-02
  -10.8199997       3.92337479E-02
  -10.8100004       3.91407907E-02
  -10.8000002       3.90162505E-02
  -10.7900000       3.88598777E-02
  -10.7799997       3.86715308E-02
  -10.7700005       3.84512544E-02
  -10.7600002       3.81992832E-02
  -10.7500000       3.79161499E-02
  -10.7399998       3.76026556E-02
  -10.7299995       3.72598879E-02
  -10.7200003       3.68892252E-02
  -10.7100000       3.64923142E-02
  -10.6999998       3.60709913E-02
  -10.6899996       3.56272385E-02
  -10.6800003       3.51631045E-02
  -10.6700001       3.46806608E-02
  -10.6599998       3.41819525E-02
  -10.6499996       3.36689949E-02
  -10.6400003       3.31437401E-02
  -10.6300001       3.26082706E-02
  -10.6199999       3.20646800E-02
  -10.6099997       3.15152742E-02
  -10.6000004       3.09625361E-02
  -10.5900002       3.04092038E-02
  -10.5799999       2.98581813E-02
  -10.5699997       2.93124877E-02
  -10.5600004       2.87752282E-02
  -10.5500002       2.82492992E-02
  -10.5400000       2.77375374E-02
  -10.5299997       2.72423197E-02
  -10.5200005       2.67658159E-02
  -10.5100002       2.63096988E-02
  -10.5000000       2.58753430E-02
  -10.4899998       2.54638512E-02
  -10.4799995       2.50760261E-02
  -10.4700003       2.47124620E-02
  -10.4600000       2.43736003E-02
  -10.4499998       2.40597688E-02
  -10.4399996       2.37711966E-02
  -10.4300003       2.35079955E-02
  -10.4200001       2.32701693E-02
  -10.4099998       2.30576396E-02
  -10.3999996       2.28703171E-02
  -10.3900003       2.27079540E-02
  -10.3800001       2.25702990E-02
  -10.3699999       2.24570893E-02
  -10.3599997       2.23678965E-02
  -10.3500004       2.23021768E-02
  -10.3400002       2.22593583E-02
  -10.3299999       2.22385544E-02
  -10.3199997       2.22387761E-02
  -10.3100004       2.22588181E-02
  -10.3000002       2.22973078E-02
  -10.2900000       2.23526303E-02
  -10.2799997       2.24231612E-02
  -10.2700005       2.25072112E-02
  -10.2600002       2.26030964E-02
  -10.2500000       2.27092542E-02
  -10.2399998       2.28243843E-02
  -10.2299995       2.29473468E-02
  -10.2200003       2.30772458E-02
  -10.2100000       2.32135691E-02
  -10.1999998       2.33560205E-02
  -10.1899996       2.35043969E-02
  -10.1800003       2.36587711E-02
  -10.1700001       2.38191150E-02
  -10.1599998       2.39855424E-02
  -10.1499996       2.41579991E-02
  -10.1400003       2.43364889E-02
  -10.1300001       2.45210156E-02
  -10.1199999       2.47116312E-02
  -10.1099997       2.49085780E-02
  -10.1000004       2.51122601E-02
  -10.0900002       2.53232978E-02
  -10.0799999       2.55427249E-02
  -10.0699997       2.57716142E-02
  -10.0600004       2.60113236E-02
  -10.0500002       2.62633860E-02
  -10.0400000       2.65293196E-02
  -10.0299997       2.68108081E-02
  -10.0200005       2.71093659E-02
  -10.0100002       2.74266955E-02
  -10.0000000       2.77642887E-02
  -9.98999977       2.81238705E-02
  -9.97999954       2.85068806E-02
  -9.97000027       2.89148949E-02
  -9.96000004       2.93495245E-02
  -9.94999981       2.98121590E-02
  -9.93999958       3.03042643E-02
  -9.93000031       3.08271740E-02
  -9.92000008       3.13821919E-02
  -9.90999985       3.19705531E-02
  -9.89999962       3.25932615E-02
  -9.89000034       3.32514904E-02
  -9.88000011       3.39459218E-02
  -9.86999989       3.46773751E-02
  -9.85999966       3.54460850E-02
  -9.85000038       3.62524055E-02
  -9.84000015       3.70962210E-02
  -9.82999992       3.79773937E-02
  -9.81999969       3.88955399E-02
  -9.81000042       3.98503989E-02
  -9.80000019       4.08416502E-02
  -9.78999996       4.18691374E-02
  -9.77999973       4.29327711E-02
  -9.77000046       4.40325849E-02
  -9.76000023       4.51686867E-02
  -9.75000000       4.63410392E-02
  -9.73999977       4.75496165E-02
  -9.72999954       4.87942696E-02
  -9.72000027       5.00744954E-02
  -9.71000004       5.13899662E-02
  -9.69999981       5.27399778E-02
  -9.68999958       5.41237704E-02
  -9.68000031       5.55405281E-02
  -9.67000008       5.69892488E-02
  -9.65999985       5.84688634E-02
  -9.64999962       5.99776991E-02
  -9.64000034       6.15141541E-02
  -9.63000011       6.30759150E-02
  -9.61999989       6.46606162E-02
  -9.60999966       6.62653819E-02
  -9.60000038       6.78872094E-02
  -9.59000015       6.95227757E-02
  -9.57999992       7.11686984E-02
  -9.56999969       7.28214383E-02
  -9.56000042       7.44775534E-02
  -9.55000019       7.61333033E-02
  -9.53999996       7.77846873E-02
  -9.52999973       7.94279948E-02
  -9.52000046       8.10589045E-02
  -9.51000023       8.26733038E-02
  -9.50000000       8.42670798E-02
  -9.48999977       8.58362541E-02
  -9.47999954       8.73772055E-02
  -9.47000027       8.88869390E-02
  -9.46000004       9.03630033E-02
  -9.44999981       9.18035135E-02
  -9.43999958       9.32073444E-02
  -9.43000031       9.45739299E-02
  -9.42000008       9.59036350E-02
  -9.40999985       9.71975401E-02
  -9.39999962       9.84570459E-02
  -9.39000034       9.96845737E-02
  -9.38000011      0.100883372    
  -9.36999989      0.102057092    
  -9.35999966      0.103210397    
  -9.35000038      0.104348406    
  -9.34000015      0.105477065    
  -9.32999992      0.106602751    
  -9.31999969      0.107732274    
  -9.31000042      0.108872704    
  -9.30000019      0.110031642    
  -9.28999996      0.111216597    
  -9.27999973      0.112435170    
  -9.27000046      0.113694757    
  -9.26000023      0.115002476    
  -9.25000000      0.116365418    
  -9.23999977      0.117789939    
  -9.22999954      0.119281836    
  -9.22000027      0.120846510    
  -9.21000004      0.122488312    
  -9.19999981      0.124211282    
  -9.18999958      0.126018628    
  -9.18000031      0.127912730    
  -9.17000008      0.129895240    
  -9.15999985      0.131966516    
  -9.14999962      0.134126276    
  -9.14000034      0.136373267    
  -9.13000011      0.138704821    
  -9.11999989      0.141117454    
  -9.10999966      0.143606901    
  -9.10000038      0.146168232    
  -9.09000015      0.148795798    
  -9.07999992      0.151483551    
  -9.06999969      0.154225066    
  -9.06000042      0.157014027    
  -9.05000019      0.159843236    
  -9.03999996      0.162705377    
  -9.02999973      0.165593132    
  -9.02000046      0.168498456    
  -9.01000023      0.171413347    
  -9.00000000      0.174329296    
  -8.98999977      0.177237958    
  -8.97999954      0.180130973    
  -8.97000027      0.183000073    
  -8.96000004      0.185836971    
  -8.94999981      0.188633338    
  -8.93999958      0.191381335    
  -8.93000031      0.194073021    
  -8.92000008      0.196700618    
  -8.90999985      0.199256808    
  -8.89999962      0.201734632    
  -8.89000034      0.204128057    
  -8.88000011      0.206431463    
  -8.86999989      0.208639964    
  -8.85999966      0.210749879    
  -8.85000038      0.212758511    
  -8.84000015      0.214663014    
  -8.82999992      0.216462836    
  -8.81999969      0.218156517    
  -8.81000042      0.219744816    
  -8.80000019      0.221228004    
  -8.78999996      0.222608060    
  -8.77999973      0.223887518    
  -8.77000046      0.225069657    
  -8.76000023      0.226158634    
  -8.75000000      0.227159992    
  -8.73999977      0.228079706    
  -8.72999954      0.228924364    
  -8.72000027      0.229701921    
  -8.71000004      0.230419815    
  -8.69999981      0.231086627    
  -8.68999958      0.231711566    
  -8.68000031      0.232303694    
  -8.67000008      0.232872546    
  -8.65999985      0.233427733    
  -8.64999962      0.233978420    
  -8.64000034      0.234534085    
  -8.63000011      0.235103220    
  -8.61999989      0.235693857    
  -8.60999966      0.236313507    
  -8.60000038      0.236968383    
  -8.59000015      0.237664685    
  -8.57999992      0.238406762    
  -8.56999969      0.239199072    
  -8.56000042      0.240044788    
  -8.55000019      0.240946144    
  -8.53999996      0.241904899    
  -8.52999973      0.242922202    
  -8.52000046      0.243998662    
  -8.51000023      0.245134100    
  -8.50000000      0.246328086    
  -8.48999977      0.247580096    
  -8.47999954      0.248888358    
  -8.47000027      0.250252426    
  -8.46000004      0.251670241    
  -8.44999981      0.253141075    
  -8.43999958      0.254662961    
  -8.43000031      0.256234378    
  -8.42000008      0.257854223    
  -8.40999985      0.259521484    
  -8.39999962      0.261235654    
  -8.39000034      0.262996852    
  -8.38000011      0.264806032    
  -8.36999989      0.266664118    
  -8.35999966      0.268575102    
  -8.35000038      0.270541400    
  -8.34000015      0.272567421    
  -8.32999992      0.274657786    
  -8.31999969      0.276817918    
  -8.31000042      0.279052496    
  -8.30000019      0.281367183    
  -8.28999996      0.283767790    
  -8.27999973      0.286258966    
  -8.27000046      0.288846165    
  -8.26000023      0.291534126    
  -8.25000000      0.294326335    
  -8.23999977      0.297226787    
  -8.22999954      0.300238103    
  -8.22000027      0.303362638    
  -8.21000004      0.306600988    
  -8.19999981      0.309955031    
  -8.18999958      0.313424081    
  -8.18000031      0.317007631    
  -8.17000008      0.320705563    
  -8.15999985      0.324517041    
  -8.14999962      0.328440785    
  -8.14000034      0.332475364    
  -8.13000011      0.336619020    
  -8.11999989      0.340869188    
  -8.10999966      0.345223367    
  -8.10000038      0.349678367    
  -8.09000015      0.354231089    
  -8.07999992      0.358878672    
  -8.06999969      0.363618016    
  -8.06000042      0.368446022    
  -8.05000019      0.373359948    
  -8.03999996      0.378357142    
  -8.02999973      0.383433878    
  -8.02000046      0.388586700    
  -8.01000023      0.393812686    
  -8.00000000      0.399106592    
  -7.98999977      0.404463828    
  -7.98000002      0.409879386    
  -7.96999979      0.415347308    
  -7.96000004      0.420861274    
  -7.94999981      0.426415741    
  -7.94000006      0.432003170    
  -7.92999983      0.437616646    
  -7.92000008      0.443248063    
  -7.90999985      0.448891759    
  -7.90000010      0.454537243    
  -7.88999987      0.460178673    
  -7.88000011      0.465805799    
  -7.86999989      0.471414387    
  -7.86000013      0.476995796    
  -7.84999990      0.482543916    
  -7.84000015      0.488052905    
  -7.82999992      0.493515968    
  -7.82000017      0.498930216    
  -7.80999994      0.504288971    
  -7.80000019      0.509588718    
  -7.78999996      0.514826298    
  -7.78000021      0.519999325    
  -7.76999998      0.525103688    
  -7.76000023      0.530139625    
  -7.75000000      0.535106421    
  -7.73999977      0.540003896    
  -7.73000002      0.544834435    
  -7.71999979      0.549598515    
  -7.71000004      0.554299176    
  -7.69999981      0.558939636    
  -7.69000006      0.563522875    
  -7.67999983      0.568054199    
  -7.67000008      0.572537780    
  -7.65999985      0.576980233    
  -7.65000010      0.581385851    
  -7.63999987      0.585762322    
  -7.63000011      0.590116978    
  -7.61999989      0.594457865    
  -7.61000013      0.598791897    
  -7.59999990      0.603129745    
  -7.59000015      0.607479870    
  -7.57999992      0.611851633    
  -7.57000017      0.616256058    
  -7.55999994      0.620701253    
  -7.55000019      0.625198662    
  -7.53999996      0.629759192    
  -7.53000021      0.634392440    
  -7.51999998      0.639109552    
  -7.51000023      0.643921375    
  -7.50000000      0.648837745    
  -7.48999977      0.653870761    
  -7.48000002      0.659029841    
  -7.46999979      0.664324522    
  -7.46000004      0.669766009    
  -7.44999981      0.675362527    
  -7.44000006      0.681123912    