  -16.0000000       0.00000000    
  -15.9899998       0.00000000    
  -15.9799995       0.00000000    
  -15.9700003       0.00000000    
  -15.9600000       0.00000000    
  -15.9499998       0.00000000    
  -15.9399996       0.00000000    
  -15.9300003       0.00000000    
  -15.9200001       0.00000000    
  -15.9099998       0.00000000    
  -15.8999996       0.00000000    
  -15.8900003       0.00000000    
  -15.8800001       0.00000000    
  -15.8699999       0.00000000    
  -15.8599997      -0.00000000    
  -15.8500004       0.00000000    
  -15.8400002       1.40129846E-44
  -15.8299999       1.69557114E-43
  -15.8199997       1.62550622E-42
  -15.8100004       1.24056953E-41
  -15.8000002       7.85483841E-41
  -15.7900000       4.24594836E-40
  -15.7799997       2.00161753E-39
  -15.7700005       8.36274044E-39
  -15.7600002       3.13528144E-38
  -15.7500000       1.06500387E-37
  -15.7399998       3.30222777E-37
  -15.7299995       9.39925541E-37
  -15.7200003       2.46590773E-36
  -15.7100000       5.97838964E-36
  -15.6999998       1.34087530E-35
  -15.6899996       2.78042784E-35
  -15.6800003       5.31499254E-35
  -15.6700001       9.30813595E-35
  -15.6599998       1.47572491E-34
  -15.6499996       2.06864437E-34
  -15.6400003       2.43056255E-34
  -15.6300001       2.02413079E-34
  -15.6199999       5.48205896E-36
  -15.6099997      -4.33939663E-34
  -15.6000004      -1.15958348E-33
  -15.5900002      -2.09024275E-33
  -15.5799999      -2.92263748E-33
  -15.5699997      -3.07169108E-33
  -15.5600004      -1.73310314E-33
  -15.5500002       1.84152486E-33
  -15.5400000       7.82300160E-33
  -15.5299997       1.51417484E-32
  -15.5200005       2.09897652E-32
  -15.5100002       2.09623454E-32
  -15.5000000       1.02969044E-32
  -15.4899998      -1.36906903E-32
  -15.4799995      -4.85908986E-32
  -15.4700003      -8.47637574E-32
  -15.4600000      -1.05956486E-31
  -15.4499998      -9.39103377E-32
  -15.4399996      -3.62098927E-32
  -15.4300003       6.60552770E-32
  -15.4200001       1.95841708E-31
  -15.4099998       3.26130587E-31
  -15.3999996       4.31203348E-31
  -15.3900003       4.91536771E-31
  -15.3800001       4.76888513E-31
  -15.3699999       3.02743186E-31
  -15.3599997      -2.14461304E-31
  -15.3500004      -1.33692198E-30
  -15.3400002      -3.23194404E-30
  -15.3299999      -5.60133365E-30
  -15.3199997      -7.21513467E-30
  -15.3100004      -5.67963925E-30
  -15.3000002       2.03329885E-30
  -15.2900000       1.78149709E-29
  -15.2799997       3.94437374E-29
  -15.2700005       5.74987769E-29
  -15.2600002       5.45466092E-29
  -15.2500000       9.69606421E-30
  -15.2399998      -8.93859597E-29
  -15.2299995      -2.28523649E-28
  -15.2200003      -3.50639452E-28
  -15.2100000      -3.54445138E-28
  -15.1999998      -1.23429010E-28
  -15.1899996       4.07444924E-28
  -15.1800003       1.15995978E-27
  -15.1700001       1.83708314E-27
  -15.1599998       1.92940683E-27
  -15.1499996       8.69225436E-28
  -15.1400003      -1.64706434E-27
  -15.1300001      -5.24297026E-27
  -15.1199999      -8.54897345E-27
  -15.1099997      -9.27730007E-27
  -15.1000004      -4.93907469E-27
  -15.0900002       5.75926701E-27
  -15.0799999       2.12081218E-26
  -15.0699997       3.57124881E-26
  -15.0600004       3.99539467E-26
  -15.0500002       2.39966095E-26
  -15.0400000      -1.71964066E-26
  -15.0299997      -7.73337170E-26
  -15.0200005      -1.34708021E-25
  -15.0100002      -1.54498002E-25
  -15.0000000      -1.00372184E-25
  -14.9899998       4.53407697E-26
  -14.9799995       2.59245627E-25
  -14.9700003       4.63996299E-25
  -14.9600000       5.38589014E-25
  -14.9499998       3.60482810E-25
  -14.9399996      -1.25071555E-25
  -14.9300003      -8.31913088E-25
  -14.9200001      -1.49616454E-24
  -14.9099998      -1.71925174E-24
  -14.8999996      -1.11438377E-24
  -14.8900003       4.65492769E-25
  -14.8800001       2.70052706E-24
  -14.8699999       4.70854035E-24
  -14.8599997       5.21447235E-24
  -14.8500004       3.04483191E-24
  -14.8400002      -2.14291205E-24
  -14.8299999      -9.17274208E-24
  -14.8199997      -1.51190162E-23
  -14.8100004      -1.59300709E-23
  -14.8000002      -8.05410497E-24
  -14.7900000       9.26180368E-24
  -14.7799997       3.18936843E-23
  -14.7700005       5.02671067E-23
  -14.7600002       5.14713976E-23
  -14.7500000       2.44382419E-23
  -14.7399998      -3.29003781E-23
  -14.7299995      -1.07244391E-22
  -14.7200003      -1.68233108E-22
  -14.7100000      -1.74955086E-22
  -14.6999998      -9.17548984E-23
  -14.6899996       8.98985193E-23
  -14.6800003       3.31657168E-22
  -14.6700001       5.42120310E-22
  -14.6599998       5.94773102E-22
  -14.6499996       3.73704767E-22
  -14.6400003      -1.61540904E-22
  -14.6300001      -9.14864989E-22
  -14.6199999      -1.62905659E-21
  -14.6099997      -1.92898418E-21
  -14.6000004      -1.44574490E-21
  -14.5900002      -1.45446141E-24
  -14.5799999       2.20564701E-21
  -14.5699997       4.50606760E-21
  -14.5600004       5.84464859E-21
  -14.5500002       5.09418615E-21
  -14.5400000       1.55761916E-21
  -14.5299997      -4.48974734E-21
  -14.5200005      -1.14558182E-20
  -14.5100002      -1.65412131E-20
  -14.5000000      -1.64651028E-20
  -14.4899998      -8.75731106E-21
  -14.4799995       6.71887348E-21
  -14.4700003       2.66074163E-20
  -14.4600000       4.39595120E-20
  -14.4499998       4.97174096E-20
  -14.4399996       3.58235606E-20
  -14.4300003      -7.15512290E-22
  -14.4200001      -5.41988932E-20
  -14.4099998      -1.08831313E-19
  -14.3999996      -1.41138106E-19
  -14.3900003      -1.26785721E-19
  -14.3800001      -5.07340889E-20
  -14.3699999       8.22341994E-20
  -14.3599997       2.40947321E-19
  -14.3500004       3.69673349E-19
  -14.3400002       4.01034790E-19
  -14.3299999       2.79146625E-19
  -14.3199997      -1.24741316E-20
  -14.3100004      -4.27782373E-19
  -14.3000002      -8.51184722E-19
  -14.2900000      -1.11577369E-18
  -14.2799997      -1.04930642E-18
  -14.2700005      -5.40282892E-19
  -14.2600002       3.94311027E-19
  -14.2500000       1.56544293E-18
  -14.2399998       2.61852253E-18
  -14.2299995       3.10576500E-18
  -14.2200003       2.62068561E-18
  -14.2100000       9.66129171E-19
  -14.1999998      -1.69527110E-18
  -14.1899996      -4.77021080E-18
  -14.1800003      -7.29687038E-18
  -14.1700001      -8.16268777E-18
  -14.1599998      -6.45113155E-18
  -14.1499996      -1.83583038E-18
  -14.1400003       5.10261664E-18
  -14.1300001       1.27737813E-17
  -14.1199999       1.87926684E-17
  -14.1099997       2.05385158E-17
  -14.1000004       1.59717376E-17
  -14.0900002       4.50975851E-18
  -14.0799999      -1.23163049E-17
  -14.0699997      -3.07097221E-17
  -14.0600004      -4.51603855E-17
  -14.0500002      -4.97244339E-17
  -14.0400000      -3.98219405E-17
  -14.0299997      -1.41173724E-17
  -14.0200005       2.40994390E-17
  -14.0100002       6.66113460E-17
  -14.0000000       1.01442744E-16
  -13.9899998       1.15530926E-16
  -13.9799995       9.84692609E-17
  -13.9700003       4.64461351E-17
  -13.9600000      -3.47807908E-17
  -13.9499998      -1.29035186E-16
  -13.9399996      -2.11800827E-16
  -13.9300003      -2.55346288E-16
  -13.9200001      -2.36125310E-16
  -13.9099998      -1.42816002E-16
  -13.8999996       1.72257302E-17
  -13.8900003       2.15381725E-16
  -13.8800001       4.04744609E-16
  -13.8699999       5.29104001E-16
  -13.8599997       5.36759061E-16
  -13.8500004       3.96300537E-16
  -13.8400002       1.10297772E-16
  -13.8299999      -2.77476744E-16
  -13.8199997      -6.84768328E-16
  -13.8100004      -1.00490771E-15
  -13.8000002      -1.13072705E-15
  -13.7900000      -9.83736018E-16
  -13.7799997      -5.41569467E-16
  -13.7700005       1.44186753E-16
  -13.7600002       9.46560907E-16
  -13.7500000       1.68167624E-15
  -13.7399998       2.14588174E-15
  -13.7299995       2.16495692E-15
  -13.7200003       1.64445189E-15
  -13.7100000       6.08113593E-16
  -13.6999998      -7.87495848E-16
  -13.6899996      -2.26959344E-15
  -13.6800003      -3.49725822E-15
  -13.6700001      -4.13320611E-15
  -13.6599998      -3.92449634E-15
  -13.6499996      -2.77357466E-15
  -13.6400003      -7.81715060E-16
  -13.6300001       1.74784158E-15
  -13.6199999       4.35104901E-15
  -13.6099997       6.48242700E-15
  -13.6000004       7.61788568E-15
  -13.5900002       7.36110849E-15
  -13.5799999       5.53327703E-15
  -13.5699997       2.23003700E-15
  -13.5600004      -2.16345513E-15
  -13.5500002      -7.00131388E-15
  -13.5400000      -1.14461121E-14
  -13.5299997      -1.45725022E-14
  -13.5200005      -1.54990766E-14
  -13.5100002      -1.35418147E-14
  -13.5000000      -8.37929884E-15
  -13.4899998      -2.11609503E-16
  -13.4799995       1.01174697E-14
  -13.4700003       2.10780388E-14
  -13.4600000       3.05406979E-14
  -13.4499998       3.60333643E-14
  -13.4399996       3.51811916E-14
  -13.4300003       2.62941727E-14
  -13.4200001       9.00593043E-15
  -13.4099998      -1.51898080E-14
  -13.3999996      -4.26918056E-14
  -13.3900003      -6.80064525E-14
  -13.3800001      -8.45283113E-14
  -13.3699999      -8.58611888E-14
  -13.3599997      -6.74925475E-14
  -13.3500004      -2.84755604E-14
  -13.3400002       2.73336075E-14
  -13.3299999       9.09408725E-14
  -13.3199997       1.49117331E-13
  -13.3100004       1.86625739E-13
  -13.3000002       1.89518540E-13
  -13.2900000       1.48907254E-13
  -13.2799997       6.43355134E-14
  -13.2700005      -5.42007980E-14
  -13.2600002      -1.86397826E-13
  -13.2500000      -3.04368781E-13
  -13.2399998      -3.77787808E-13
  -13.2299995      -3.80642024E-13
  -13.2200003      -2.98227616E-13
  -13.2100000      -1.32721918E-13
  -13.1999998       9.42638166E-14
  -13.1899996       3.43267136E-13
  -13.1800003       5.62976694E-13
  -13.1700001       6.99919018E-13
  -13.1599998       7.10119517E-13
  -13.1499996       5.70326826E-13
  -13.1400003       2.86189854E-13
  -13.1300001      -1.04844003E-13
  -13.1199999      -5.37203637E-13
  -13.1099997      -9.27397915E-13
  -13.1000004      -1.18926136E-12
  -13.0900002      -1.25150563E-12
  -13.0799999      -1.07409416E-12
  -13.0699997      -6.59906808E-13
  -13.0600004      -5.88647241E-14
  -13.0500002       6.36962542E-13
  -13.0400000       1.30701233E-12
  -13.0299997       1.82259893E-12
  -13.0200005       2.07048311E-12
  -13.0100002       1.97529168E-12
  -13.0000000       1.51642815E-12
  -12.9899998       7.35968415E-13
  -12.9799995      -2.64401294E-13
  -12.9700003      -1.33731882E-12
  -12.9600000      -2.31239702E-12
  -12.9499998      -3.02371496E-12
  -12.9399996      -3.33724172E-12
  -12.9300003      -3.17323815E-12
  -12.9200001      -2.51959629E-12
  -12.9099998      -1.43388274E-12
  -12.8999996      -3.41585484E-14
  -12.8900003       1.51906439E-12
  -12.8800001       3.04557659E-12
  -12.8699999       4.36801159E-12
  -12.8599997       5.32974836E-12
  -12.8500004       5.80542558E-12
  -12.8400002       5.70389005E-12
  -12.8299999       4.96604754E-12
  -12.8199997       3.56212585E-12
  -12.8100004       1.49349012E-12
  -12.8000002      -1.19711446E-12
  -12.7900000      -4.40600291E-12
  -12.7799997      -7.94299002E-12
  -12.7700005      -1.15073654E-11
  -12.7600002      -1.46758786E-11
  -12.7500000      -1.69136719E-11
  -12.7399998      -1.76163528E-11
  -12.7299995      -1.61855286E-11
  -12.7200003      -1.21324539E-11
  -12.7100000      -5.19611871E-12
  -12.6999998       4.54401100E-12
  -12.6899996       1.65830422E-11
  -12.6800003       2.99541260E-11
  -12.6700001       4.32540392E-11
  -12.6599998       5.47352302E-11
  -12.6499996       6.24576293E-11
  -12.6400003       6.44851533E-11
  -12.6300001       5.91059493E-11
  -12.6199999       4.50554767E-11
  -12.6099997       2.17241017E-11
  -12.6000004      -1.06630997E-11
  -12.5900002      -5.09024801E-11
  -12.5799999      -9.67101052E-11
  -12.5699997      -1.44672094E-10
  -12.5600004      -1.90263319E-10
  -12.5500002      -2.27959165E-10
  -12.5400000      -2.51470955E-10
  -12.5299997      -2.54134741E-10
  -12.5200005      -2.29471109E-10
  -12.5100002      -1.71915232E-10
  -12.5000000      -7.76843520E-11
  -12.4899998       5.42822731E-11
  -12.4799995       2.21401356E-10
  -12.4700003       4.16652629E-10
  -12.4600000       6.28027075E-10
  -12.4499998       8.38314640E-10
  -12.4399996       1.02529563E-09
  -12.4300003       1.16236731E-09
  -12.4200001       1.21959221E-09
  -12.4099998       1.16511323E-09
  -12.3999996       9.66870806E-10
  -12.3900003       5.94515770E-10
  -12.3800001       2.14328989E-11
  -12.3699999      -7.73224040E-10
  -12.3599997      -1.80259951E-09
  -12.3500004      -3.07038861E-09
  -12.3400002      -4.56937954E-09
  -12.3299999      -6.28040686E-09
  -12.3199997      -8.17180368E-09
  -12.3100004      -1.01994555E-08
  -12.3000002      -1.23075123E-08
  -12.2900000      -1.44297783E-08
  -12.2799997      -1.64917431E-08
  -12.2700005      -1.84131643E-08
  -12.2600002      -2.01110435E-08
  -12.2500000      -2.15029061E-08
  -12.2399998      -2.25101129E-08
  -12.2299995      -2.30610535E-08
  -12.2200003      -2.30941470E-08
  -12.2100000      -2.25603820E-08
  -12.1999998      -2.14253522E-08
  -12.1899996      -1.96706935E-08
  -12.1800003      -1.72947576E-08
  -12.1700001      -1.43125343E-08
  -12.1599998      -1.07546265E-08
  -12.1499996      -6.66544953E-09
  -12.1400003      -2.10066009E-09
  -12.1300001       2.87600743E-09
  -12.1199999       8.19611845E-09
  -12.1099997       1.37898475E-08
  -12.1000004       1.95888141E-08
  -12.0900002       2.55280632E-08
  -12.0799999       3.15469393E-08
  -12.0699997       3.75889009E-08
  -12.0600004       4.36002239E-08
  -12.0500002       4.95279409E-08
  -12.0400000       5.53175568E-08
  -12.0299997       6.09107857E-08
  -12.0200005       6.62439277E-08
  -12.0100002       7.12471220E-08
  -12.0000000       7.58445253E-08
  -11.9899998       7.99555195E-08
  -11.9799995       8.34966656E-08
  -11.9700003       8.63841834E-08
  -11.9600000       8.85362539E-08
  -11.9499998       8.98756127E-08
  -11.9399996       9.03314827E-08
  -11.9300003       8.98408885E-08
  -11.9200001       8.83502835E-08
  -11.9099998       8.58160334E-08
  -11.8999996       8.22052968E-08
  -11.8900003       7.74968427E-08
  -11.8800001       7.16813773E-08
  -11.8699999       6.47624390E-08
  -11.8599997       5.67569032E-08
  -11.8500004       4.76951278E-08
  -11.8400002       3.76213727E-08
  -11.8299999       2.65931952E-08
  -11.8199997       1.46809018E-08
  -11.8100004       1.96656713E-09
  -11.8000002      -1.14576846E-08
  -11.7900000      -2.54912571E-08
  -11.7799997      -4.00269116E-08
  -11.7700005      -5.49530199E-08
  -11.7600002      -7.01551670E-08
  -11.7500000      -8.55181241E-08
  -11.7399998      -1.00926847E-07
  -11.7299995      -1.16267408E-07
  -11.7200003      -1.31427342E-07
  -11.7100000      -1.46295179E-07
  -11.6999998      -1.60760081E-07
  -11.6899996      -1.74711033E-07
  -11.6800003      -1.88036196E-07
  -11.6700001      -2.00622338E-07
  -11.6599998      -2.12355047E-07
  -11.6499996      -2.23119400E-07
  -11.6400003      -2.32800417E-07
  -11.6300001      -2.41285079E-07
  -11.6199999      -2.48462925E-07
  -11.6099997      -2.54227785E-07
  -11.6000004      -2.58478309E-07
  -11.5900002      -2.61119368E-07
  -11.5799999      -2.62061803E-07
  -11.5699997      -2.61224159E-07
  -11.5600004      -2.58532765E-07
  -11.5500002      -2.53922934E-07
  -11.5400000      -2.47340040E-07
  -11.5299997      -2.38740256E-07
  -11.5200005      -2.28091281E-07
  -11.5100002      -2.15371585E-07
  -11.5000000      -2.00569517E-07
  -11.4899998      -1.83681067E-07
  -11.4799995      -1.64707586E-07
  -11.4700003      -1.43653054E-07
  -11.4600000      -1.20522444E-07
  -11.4499998      -9.53214609E-08
  -11.4399996      -6.80571191E-08
  -11.4300003      -3.87416357E-08
  -11.4200001      -7.39624761E-09
  -11.4099998       2.59436970E-08
  -11.3999996       6.12236093E-08
  -11.3900003       9.83663782E-08
  -11.3800001       1.37270661E-07
  -11.3699999       1.77811316E-07
  -11.3599997       2.19843386E-07
  -11.3500004       2.63207539E-07
  -11.3400002       3.07737679E-07
  -11.3299999       3.53268973E-07
  -11.3199997       3.99645955E-07
  -11.3100004       4.46729160E-07
  -11.3000002       4.94400467E-07
  -11.2900000       5.42565886E-07
  -11.2799997       5.91155185E-07
  -11.2700005       6.40119879E-07
  -11.2600002       6.89428134E-07
  -11.2500000       7.39058578E-07
  -11.2399998       7.88992566E-07
  -11.2299995       8.39206166E-07
  -11.2200003       8.89665216E-07
  -11.2100000       9.40319808E-07
  -11.1999998       9.91102524E-07
  -11.1899996       1.04192873E-06
  -11.1800003       1.09270218E-06
  -11.1700001       1.14331863E-06
  -11.1599998       1.19367326E-06
  -11.1499996       1.24366807E-06
  -11.1400003       1.29321586E-06
  -11.1300001       1.34224592E-06
  -11.1199999       1.39070414E-06
  -11.1099997       1.43854982E-06
  -11.1000004       1.48575532E-06
  -11.0900002       1.53230349E-06
  -11.0799999       1.57818067E-06
  -11.0699997       1.62337403E-06
  -11.0600004       1.66787208E-06
  -11.0500002       1.71166232E-06
  -11.0400000       1.75472792E-06
  -11.0299997       1.79705444E-06
  -11.0200005       1.83862585E-06
  -11.0100002       1.87942771E-06
  -11.0000000       1.91944332E-06
  -10.9899998       1.95865482E-06
  -10.9799995       1.99704436E-06
  -10.9700003       2.03458990E-06
  -10.9600000       2.07126618E-06
  -10.9499998       2.10704502E-06
  -10.9399996       2.14189367E-06
  -10.9300003       2.17577895E-06
  -10.9200001       2.20866696E-06
  -10.9099998       2.24052860E-06
  -10.8999996       2.27133387E-06
  -10.8900003       2.30105638E-06
  -10.8800001       2.32968500E-06
  -10.8699999       2.35719608E-06
  -10.8599997       2.38358166E-06
  -10.8500004       2.40883128E-06
  -10.8400002       2.43294085E-06
  -10.8299999       2.45590468E-06
  -10.8199997       2.47772255E-06
  -10.8100004       2.49839718E-06
  -10.8000002       2.51792562E-06
  -10.7900000       2.53631470E-06
  -10.7799997       2.55357145E-06
  -10.7700005       2.56970839E-06
  -10.7600002       2.58473938E-06
  -10.7500000       2.59867193E-06
  -10.7399998       2.61152854E-06
  -10.7299995       2.62331923E-06
  -10.7200003       2.63406127E-06
  -10.7100000       2.64377309E-06
  -10.6999998       2.65247741E-06
  -10.6899996       2.66021880E-06
  -10.6800003       2.66705206E-06
  -10.6700001       2.67305336E-06
  -10.6599998       2.67833093E-06
  -10.6499996       2.68300028E-06
  -10.6400003       2.68721556E-06
  -10.6300001       2.69114776E-06
  -10.6199999       2.69496786E-06
  -10.6099997       2.69885550E-06
  -10.6000004       2.70299961E-06
  -10.5900002       2.70756141E-06
  -10.5799999       2.71269846E-06
  -10.5699997       2.71854674E-06
  -10.5600004       2.72523471E-06
  -10.5500002       2.73287310E-06
  -10.5400000       2.74154968E-06
  -10.5299997       2.75134857E-06
  -10.5200005       2.76234118E-06
  -10.5100002       2.77458571E-06
  -10.5000000       2.78812763E-06
  -10.4899998       2.80302129E-06
  -10.4799995       2.81931511E-06
  -10.4700003       2.83705549E-06
  -10.4600000       2.85628926E-06
  -10.4499998       2.87705393E-06
  -10.4399996       2.89938498E-06
  -10.4300003       2.92330810E-06
  -10.4200001       2.94881511E-06
  -10.4099998       2.97587530E-06
  -10.3999996       3.00442434E-06
  -10.3900003       3.03435763E-06
  -10.3800001       3.06554625E-06
  -10.3699999       3.09784332E-06
  -10.3599997       3.13108944E-06
  -10.3500004       3.16512910E-06
  -10.3400002       3.19982632E-06
  -10.3299999       3.23504355E-06
  -10.3199997       3.27069824E-06
  -10.3100004       3.30672424E-06
  -10.3000002       3.34306924E-06
  -10.2900000       3.37969664E-06
  -10.2799997       3.41658460E-06
  -10.2700005       3.45370108E-06
  -10.2600002       3.49100605E-06
  -10.2500000       3.52845882E-06
  -10.2399998       3.56601186E-06
  -10.2299995       3.60361378E-06
  -10.2200003       3.64121661E-06
  -10.2100000       3.67879011E-06
  -10.1999998       3.71632518E-06
  -10.1899996       3.75381319E-06
  -10.1800003       3.79129483E-06
  -10.1700001       3.82882808E-06
  -10.1599998       3.86647707E-06
  -10.1499996       3.90434343E-06
  -10.1400003       3.94253129E-06
  -10.1300001       3.98116481E-06
  -10.1199999       4.02037131E-06
  -10.1099997       4.06027175E-06
  -10.1000004       4.10101302E-06
  -10.0900002       4.14271472E-06
  -10.0799999       4.18553554E-06
  -10.0699997       4.22961921E-06
  -10.0600004       4.27511759E-06
  -10.0500002       4.32218621E-06
  -10.0400000       4.37099879E-06
  -10.0299997       4.42169494E-06
  -10.0200005       4.47444017E-06
  -10.0100002       4.52938320E-06
  -10.0000000       4.58665954E-06
  -9.98999977       4.64638379E-06
  -9.97999954       4.70867599E-06
  -9.97000027       4.77365484E-06
  -9.96000004       4.84142402E-06
  -9.94999981       4.91209448E-06
  -9.93999958       4.98576674E-06
  -9.93000031       5.06254719E-06
  -9.92000008       5.14250723E-06
  -9.90999985       5.22571463E-06
  -9.89999962       5.31220712E-06
  -9.89000034       5.40198926E-06
  -9.88000011       5.49504603E-06
  -9.86999989       5.59132786E-06
  -9.85999966       5.69076292E-06
  -9.85000038       5.79327843E-06
  -9.84000015       5.89882256E-06
  -9.82999992       6.00735757E-06
  -9.81999969       6.11885844E-06
  -9.81000042       6.23332471E-06
  -9.80000019       6.35080914E-06
  -9.78999996       6.47137176E-06
  -9.77999973       6.59512079E-06
  -9.77000046       6.72217220E-06
  -9.76000023       6.85267105E-06
  -9.75000000       6.98680151E-06
  -9.73999977       7.12475139E-06
  -9.72999954       7.26674398E-06
  -9.72000027       7.41303802E-06
  -9.71000004       7.56390136E-06
  -9.69999981       7.71960367E-06
  -9.68999958       7.88041507E-06
  -9.68000031       8.04657247E-06
  -9.67000008       8.21828417E-06
  -9.65999985       8.39565564E-06
  -9.64999962       8.57876148E-06
  -9.64000034       8.76751255E-06
  -9.63000011       8.96177062E-06
  -9.61999989       9.16126282E-06
  -9.60999966       9.36563629E-06
  -9.60000038       9.57438533E-06
  -9.59000015       9.78693515E-06
  -9.57999992       1.00026000E-05
  -9.56999969       1.02205913E-05
  -9.56000042       1.04400606E-05
  -9.55000019       1.06600237E-05
  -9.53999996       1.08794011E-05
  -9.52999973       1.10970886E-05
  -9.52000046       1.13119058E-05
  -9.51000023       1.15226312E-05
  -9.50000000       1.17280606E-05
  -9.48999977       1.19270280E-05
  -9.47999954       1.21184348E-05
  -9.47000027       1.23012614E-05
  -9.46000004       1.24746393E-05
  -9.44999981       1.26378445E-05
  -9.43999958       1.27903204E-05
  -9.43000031       1.29316968E-05
  -9.42000008       1.30618346E-05
  -9.40999985       1.31808174E-05
  -9.39999962       1.32889490E-05
  -9.39000034       1.33867416E-05
  -9.38000011       1.34750007E-05
  -9.36999989       1.35547216E-05
  -9.35999966       1.36271619E-05
  -9.35000038       1.36937642E-05
  -9.34000015       1.37561774E-05
  -9.32999992       1.38162068E-05
  -9.31999969       1.38758005E-05
  -9.31000042       1.39369804E-05
  -9.30000019       1.40018219E-05
  -9.28999996       1.40724578E-05
  -9.27999973       1.41509790E-05
  -9.27000046       1.42394620E-05
  -9.26000023       1.43399220E-05
  -9.25000000       1.44542755E-05
  -9.23999977       1.45843715E-05
  -9.22999954       1.47319015E-05
  -9.22000027       1.48984327E-05
  -9.21000004       1.50853721E-05
  -9.19999981       1.52939865E-05
  -9.18999958       1.55253329E-05
  -9.18000031       1.57803388E-05
  -9.17000008       1.60597192E-05
  -9.15999985       1.63639888E-05
  -9.14999962       1.66934424E-05
  -9.14000034       1.70482763E-05
  -9.13000011       1.74283814E-05
  -9.11999989       1.78335595E-05
  -9.10999966       1.82632975E-05
  -9.10000038       1.87170026E-05
  -9.09000015       1.91937233E-05
  -9.07999992       1.96924302E-05
  -9.06999969       2.02117171E-05
  -9.06000042       2.07501034E-05
  -9.05000019       2.13058483E-05
  -9.03999996       2.18770128E-05
  -9.02999973       2.24613941E-05
  -9.02000046       2.30567530E-05
  -9.01000023       2.36606247E-05
  -9.00000000       2.42704045E-05
  -8.98999977       2.48833621E-05
  -8.97999954       2.54967254E-05
  -8.97000027       2.61076639E-05
  -8.96000004       2.67132418E-05
  -8.94999981       2.73105943E-05
  -8.93999958       2.78968600E-05
  -8.93000031       2.84693251E-05
  -8.92000008       2.90252683E-05
  -8.90999985       2.95621685E-05
  -8.89999962       3.00775555E-05
  -8.89000034       3.05691792E-05
  -8.88000011       3.10350624E-05
  -8.86999989       3.14733043E-05
  -8.85999966       3.18823259E-05
  -8.85000038       3.22607302E-05
  -8.84000015       3.26073205E-05
  -8.82999992       3.29212162E-05
  -8.81999969       3.32017808E-05
  -8.81000042       3.34484976E-05
  -8.80000019       3.36610792E-05
  -8.78999996       3.38394893E-05
  -8.77999973       3.39838625E-05
  -8.77000046       3.40945298E-05
  -8.76000023       3.41719824E-05
  -8.75000000       3.42168460E-05
  -8.73999977       3.42298918E-05
  -8.72999954       3.42120766E-05
  -8.72000027       3.41643827E-05
  -8.71000004       3.40879706E-05
  -8.69999981       3.39840881E-05
  -8.68999958       3.38539758E-05
  -8.68000031       3.36990561E-05
  -8.67000008       3.35207005E-05
  -8.65999985       3.33203425E-05
  -8.64999962       3.30995972E-05
  -8.64000034       3.28599854E-05
  -8.63000011       3.26030386E-05
  -8.61999989       3.23305139E-05
  -8.60999966       3.20440449E-05
  -8.60000038       3.17453050E-05
  -8.59000015       3.14359640E-05
  -8.57999992       3.11176118E-05
  -8.56999969       3.07919472E-05
  -8.56000042       3.04605182E-05
  -8.55000019       3.01248256E-05
  -8.53999996       2.97865372E-05
  -8.52999973       2.94470938E-05
  -8.52000046       2.91079559E-05
  -8.51000023       2.87704424E-05
  -8.50000000       2.84359867E-05
  -8.48999977       2.81056164E-05
  -8.47999954       2.77807121E-05
  -8.47000027       2.74621125E-05
  -8.46000004       2.71509161E-05
  -8.44999981       2.68478816E-05
  -8.43999958       2.65539256E-05
  -8.43000031       2.62696467E-05
  -8.42000008       2.59956887E-05
  -8.40999985       2.57326392E-05
  -8.39999962       2.54810093E-05
  -8.39000034       2.52410955E-05
  -8.38000011       2.50133180E-05
  -8.36999989       2.47979569E-05
  -8.35999966       2.45954161E-05
  -8.35000038       2.44058556E-05
  -8.34000015       2.42295719E-05
  -8.32999992       2.40669724E-05
  -8.31999969       2.39184465E-05
  -8.31000042       2.37843851E-05
  -8.30000019       2.36652377E-05
  -8.28999996       2.35615225E-05
  -8.27999973       2.34738854E-05
  -8.27000046       2.34029922E-05
  -8.26000023       2.33495139E-05
  -8.25000000       2.33143492E-05
  -8.23999977       2.32982748E-05
  -8.22999954       2.33023802E-05
  -8.22000027       2.33276169E-05
  -8.21000004       2.33751598E-05
  -8.19999981       2.34460513E-05
  -8.18999958       2.35415009E-05
  -8.18000031       2.36628202E-05
  -8.17000008       2.38111352E-05
  -8.15999985       2.39877427E-05
  -8.14999962       2.41939360E-05
  -8.14000034       2.44308303E-05
  -8.13000011       2.46998025E-05
  -8.11999989       2.50018984E-05
  -8.10999966       2.53381604E-05
  -8.10000038       2.57096199E-05
  -8.09000015       2.61170680E-05
  -8.07999992       2.65613871E-05
  -8.06999969       2.70430082E-05
  -8.06000042       2.75625389E-05
  -8.05000019       2.81201392E-05
  -8.03999996       2.87160237E-05
  -8.02999973       2.93500088E-05
  -8.02000046       3.00218871E-05
  -8.01000023       3.07311602E-05
  -8.00000000       3.14771969E-05
  -7.98999977       3.22591259E-05
  -7.98000002       3.30759140E-05
  -7.96999979       3.39266153E-05
  -7.96000004       3.48096328E-05
  -7.94999981       3.57236386E-05
  -7.94000006       3.66670356E-05
  -7.92999983       3.76381140E-05
  -7.92000008       3.86351167E-05
  -7.90999985       3.96562536E-05
  -7.90000010       4.06994586E-05
  -7.88999987       4.17628653E-05
  -7.88000011       4.28443091E-05
  -7.86999989       4.39420473E-05
  -7.86000013       4.50539010E-05
  -7.84999990       4.61779309E-05
  -7.84000015       4.73119908E-05
  -7.82999992       4.84541961E-05
  -7.82000017       4.96025859E-05
  -7.80999994       5.07552686E-05
  -7.80000019       5.19103196E-05
  -7.78999996       5.30661237E-05
  -7.78000021       5.42206944E-05
  -7.76999998       5.53724276E-05
  -7.76000023       5.65196751E-05
  -7.75000000       5.76609855E-05
  -7.73999977       5.87949507E-05
  -7.73000002       5.99202140E-05
  -7.71999979       6.10356146E-05
  -7.71000004       6.21400541E-05
  -7.69999981       6.32327210E-05
  -7.69000006       6.43128515E-05
  -7.67999983       6.53797033E-05
  -7.67000008       6.64328836E-05
  -7.65999985       6.74720213E-05
  -7.65000010       6.84970437E-05
  -7.63999987       6.95079652E-05
  -7.63000011       7.05047496E-05
  -7.61999989       7.14878988E-05
  -7.61000013       7.24578786E-05
  -7.59999990       7.34152418E-05
  -7.59000015       7.43604833E-05
  -7.57999992       7.52946071E-05
  -7.57000017       7.62185373E-05
  -7.55999994       7.71333653E-05
  -7.55000019       7.80398550E-05
  -7.53999996       7.89396072E-05
  -7.53000021       7.98337278E-05
  -7.51999998       8.07235338E-05
  -7.51000023       8.16103056E-05
  -7.50000000       8.24955860E-05
  -7.48999977       8.33809099E-05
  -7.48000002       8.42676382E-05
  -7.46999979       8.51572477E-05
  -7.46000004       8.60509535E-05
  -7.44999981       8.69504802E-05
  -7.44000006       8.78571518E-05