  -16.0000000       0.00000000    
  -15.9899998       0.00000000    
  -15.9799995       0.00000000    
  -15.9700003       0.00000000    
  -15.9600000       0.00000000    
  -15.9499998       0.00000000    
  -15.9399996       0.00000000    
  -15.9300003       0.00000000    
  -15.9200001       0.00000000    
  -15.9099998       0.00000000    
  -15.8999996       0.00000000    
  -15.8900003       0.00000000    
  -15.8800001       0.00000000    
  -15.8699999      -0.00000000    
  -15.8599997       1.40129846E-45
  -15.8500004       7.14662217E-44
  -15.8400002       1.24435304E-42
  -15.8299999       1.32913159E-41
  -15.8199997       1.03396208E-40
  -15.8100004       6.34722343E-40
  -15.8000002       3.22311679E-39
  -15.7900000       1.39550325E-38
  -15.7799997       5.25653735E-38
  -15.7700005       1.74534437E-37
  -15.7600002       5.14696567E-37
  -15.7500000       1.35115844E-36
  -15.7399998       3.14525059E-36
  -15.7299995       6.40566720E-36
  -15.7200003       1.10408723E-35
  -15.7100000       1.46857988E-35
  -15.6999998       9.60701242E-36
  -15.6899996      -2.12481868E-35
  -15.6800003      -1.06129921E-34
  -15.6700001      -2.77832475E-34
  -15.6599998      -5.49677827E-34
  -15.6499996      -8.69269991E-34
  -15.6400003      -1.06158151E-33
  -15.6300001      -8.02092234E-34
  -15.6199999       3.13483152E-34
  -15.6099997       2.55128908E-33
  -15.6000004       5.71876753E-33
  -15.5900002       8.95786352E-33
  -15.5799999       1.09828781E-32
  -15.5699997       1.08846082E-32
  -15.5600004       8.85475429E-33
  -15.5500002       5.08310096E-33
  -15.5400000      -5.16211034E-33
  -15.5299997      -3.94945472E-32
  -15.5200005      -1.31210678E-31
  -15.5100002      -3.08861423E-31
  -15.5000000      -5.32232057E-31
  -15.4899998      -5.87645472E-31
  -15.4799995      -1.01166563E-32
  -15.4700003       1.80521457E-30
  -15.4600000       5.08406761E-30
  -15.4499998       8.64954473E-30
  -15.4399996       8.74811924E-30
  -15.4300003      -1.13186395E-30
  -15.4200001      -2.75455859E-29
  -15.4099998      -6.97481608E-29
  -15.3999996      -1.08336027E-28
  -15.3900003      -9.57682267E-29
  -15.3800001       3.83470377E-29
  -15.3699999       3.50330364E-28
  -15.3599997       8.04279515E-28
  -15.3500004       1.17005463E-27
  -15.3400002       9.62093778E-28
  -15.3299999      -4.66268121E-28
  -15.3199997      -3.54867229E-27
  -15.3100004      -7.81873554E-27
  -15.3000002      -1.11143614E-26
  -15.2900000      -9.23225411E-27
  -15.2799997       3.10077032E-27
  -15.2700005       2.91305840E-26
  -15.2600002       6.48461598E-26
  -15.2500000       9.33553896E-26
  -15.2399998       8.29419572E-26
  -15.2299995      -5.39776110E-27
  -15.2200003      -1.96060889E-25
  -15.2100000      -4.63414268E-25
  -15.1999998      -6.94867931E-25
  -15.1899996      -6.78461892E-25
  -15.1800003      -1.50229451E-25
  -15.1700001       1.07050160E-24
  -15.1599998       2.86429952E-24
  -15.1499996       4.58412633E-24
  -15.1400003       4.96557411E-24
  -15.1300001       2.37255893E-24
  -15.1199999      -4.46322788E-24
  -15.1099997      -1.52346064E-23
  -15.1000004      -2.67446818E-23
  -15.0900002      -3.22509152E-23
  -15.0799999      -2.24968868E-23
  -15.0699997       1.07055880E-23
  -15.0600004       6.83453753E-23
  -15.0500002       1.37139758E-22
  -15.0400000       1.85095230E-22
  -15.0299997       1.64677314E-22
  -15.0200005       2.80830065E-23
  -15.0100002      -2.44486902E-22
  -15.0000000      -6.09688758E-22
  -14.9899998      -9.34137126E-22
  -14.9799995      -9.97999972E-22
  -14.9700003      -5.51086869E-22
  -14.9600000       5.69674451E-22
  -14.9499998       2.28052019E-21
  -14.9399996       4.10616212E-21
  -14.9300003       5.14154264E-21
  -14.9200001       4.21978071E-21
  -14.9099998       3.45709015E-22
  -14.8999996      -6.64675004E-21
  -14.8900003      -1.54043519E-20
  -14.8800001      -2.26730044E-20
  -14.8699999      -2.36389656E-20
  -14.8599997      -1.33115292E-20
  -14.8500004       1.10579168E-20
  -14.8400002       4.70588834E-20
  -14.8299999       8.48504489E-20
  -14.8199997       1.07092528E-19
  -14.8100004       9.25326174E-20
  -14.8000002       2.38112890E-20
  -14.7900000      -1.01666727E-19
  -14.7799997      -2.61143142E-19
  -14.7700005      -4.01442125E-19
  -14.7600002      -4.45178680E-19
  -14.7500000      -3.12050629E-19
  -14.7399998       4.58229819E-20
  -14.7299995       6.02690774E-19
  -14.7200003       1.22761854E-18
  -14.7100000       1.68244773E-18
  -14.6999998       1.66673109E-18
  -14.6899996       9.15531670E-19
  -14.6800003      -6.64424659E-19
  -14.6700001      -2.85953112E-18
  -14.6599998      -5.07454585E-18
  -14.6499996      -6.38249417E-18
  -14.6400003      -5.74246607E-18
  -14.6300001      -2.37844246E-18
  -14.6199999       3.75965913E-18
  -14.6099997       1.16051198E-17
  -14.6000004       1.88509763E-17
  -14.5900002       2.22748059E-17
  -14.5799999       1.85933063E-17
  -14.5699997       5.74985486E-18
  -14.5600004      -1.56824279E-17
  -14.5500002      -4.14902380E-17
  -14.5400000      -6.37814023E-17
  -14.5299997      -7.23672194E-17
  -14.5200005      -5.76519211E-17
  -14.5100002      -1.45634295E-17
  -14.5000000       5.35411213E-17
  -14.4899998       1.32496546E-16
  -14.4799995       1.98013261E-16
  -14.4700003       2.20419241E-16
  -14.4600000       1.73329212E-16
  -14.4499998       4.45922414E-17
  -14.4399996      -1.53612866E-16
  -14.4300003      -3.79540005E-16
  -14.4200001      -5.65230062E-16
  -14.4099998      -6.30454722E-16
  -14.3999996      -5.06167831E-16
  -14.3900003      -1.62607257E-16
  -14.3800001       3.66160141E-16
  -14.3699999       9.71026183E-16
  -14.3599997       1.47839564E-15
  -14.3500004       1.68621782E-15
  -14.3400002       1.42166020E-15
  -14.3299999       6.07979762E-16
  -14.3199997      -6.78855614E-16
  -14.3100004      -2.18580854E-15
  -14.3000002      -3.50857225E-15
  -14.2900000      -4.17414067E-15
  -14.2799997      -3.77004963E-15
  -14.2700005      -2.09208223E-15
  -14.2600002       7.31545828E-16
  -14.2500000       4.18535327E-15
  -14.2399998       7.41705925E-15
  -14.2299995       9.40527766E-15
  -14.2200003       9.22264889E-15
  -14.2100000       6.33740056E-15
  -14.1999998       8.70847279E-16
  -14.1899996      -6.27756615E-15
  -14.1800003      -1.35058726E-14
  -14.1700001      -1.88084259E-14
  -14.1599998      -2.02583955E-14
  -14.1499996      -1.65713323E-14
  -14.1400003      -7.60261029E-15
  -14.1300001       5.37816243E-15
  -14.1199999       1.97567199E-14
  -14.1099997       3.20314691E-14
  -14.1000004       3.85982817E-14
  -14.0900002       3.66986240E-14
  -14.0799999       2.52943655E-14
  -14.0699997       5.61681481E-15
  -14.0600004      -1.88080972E-14
  -14.0500002      -4.27384060E-14
  -14.0400000      -6.03210448E-14
  -14.0299997      -6.64921270E-14
  -14.0200005      -5.83331533E-14
  -14.0100002      -3.60200727E-14
  -14.0000000      -3.07679530E-15
  -13.9899998       3.41923382E-14
  -13.9799995       6.80055716E-14
  -13.9700003       9.08515884E-14
  -13.9600000       9.72530636E-14
  -13.9499998       8.50911138E-14
  -13.9399996       5.61343811E-14
  -13.9300003       1.56231517E-14
  -13.9200001      -2.89844883E-14
  -13.9099998      -6.97609085E-14
  -13.8999996      -1.00067381E-13
  -13.8900003      -1.15834818E-13
  -13.8800001      -1.16028321E-13
  -13.8699999      -1.02213316E-13
  -13.8599997      -7.74336107E-14
  -13.8500004      -4.48457901E-14
  -13.8400002      -6.65022253E-15
  -13.8299999       3.62280904E-14
  -13.8199997       8.35110992E-14
  -13.8100004       1.34149731E-13
  -13.8000002       1.84621646E-13
  -13.7900000       2.27670828E-13
  -13.7799997       2.52209847E-13
  -13.7700005       2.44854023E-13
  -13.7600002       1.93089089E-13
  -13.7500000       8.95165764E-14
  -13.7399998      -6.38721592E-14
  -13.7299995      -2.52699825E-13
  -13.7200003      -4.49710093E-13
  -13.7100000      -6.17541012E-13
  -13.6999998      -7.14770040E-13
  -13.6899996      -7.04359260E-13
  -13.6800003      -5.62846590E-13
  -13.6700001      -2.88189611E-13
  -13.6599998       9.57963228E-14
  -13.6499996       5.39899668E-13
  -13.6400003       9.75367898E-13
  -13.6300001       1.32445281E-12
  -13.6199999       1.51383365E-12
  -13.6099997       1.48835631E-12
  -13.6000004       1.22236162E-12
  -13.5900002       7.26331321E-13
  -13.5799999       4.75742187E-14
  -13.5699997      -7.35098451E-13
  -13.5600004      -1.52153095E-12
  -13.5500002      -2.20323065E-12
  -13.5400000      -2.67696455E-12
  -13.5299997      -2.85699177E-12
  -13.5200005      -2.68474262E-12
  -13.5100002      -2.13566578E-12
  -13.5000000      -1.22360672E-12
  -13.4899998      -3.38372955E-15
  -13.4799995       1.42819513E-12
  -13.4700003       2.93337793E-12
  -13.4600000       4.33806680E-12
  -13.4499998       5.44205262E-12
  -13.4399996       6.03679736E-12
  -13.4300003       5.93157988E-12
  -13.4200001       4.98667557E-12
  -13.4099998       3.14961794E-12
  -13.3999996       4.88000807E-13
  -13.3900003      -2.78930676E-12
  -13.3800001      -6.33054893E-12
  -13.3699999      -9.66499363E-12
  -13.3599997      -1.22541673E-11
  -13.3500004      -1.35666088E-11
  -13.3400002      -1.31667463E-11
  -13.3299999      -1.08037182E-11
  -13.3199997      -6.48377012E-12
  -13.3100004      -5.10525107E-13
  -13.3000002       6.51822476E-12
  -13.2900000       1.37617842E-11
  -13.2799997       2.02321285E-11
  -13.2700005       2.49219673E-11
  -13.2600002       2.69472205E-11
  -13.2500000       2.56827996E-11
  -13.2399998       2.08716950E-11
  -13.2299995       1.26908735E-11
  -13.2200003       1.76485161E-12
  -13.2100000      -1.08751081E-11
  -13.1999998      -2.38811609E-11
  -13.1899996      -3.57180743E-11
  -13.1800003      -4.48187008E-11
  -13.1700001      -4.97515952E-11
  -13.1599998      -4.93877821E-11
  -13.1499996      -4.30541713E-11
  -13.1400003      -3.06611923E-11
  -13.1300001      -1.27915777E-11
  -13.1199999       9.26358990E-12
  -13.1099997       3.35365832E-11
  -13.1000004       5.74941726E-11
  -13.0900002       7.82362855E-11
  -13.0799999       9.27772026E-11
  -13.0699997       9.83945980E-11
  -13.0600004       9.30124311E-11
  -13.0500002       7.55729229E-11
  -13.0400000       4.63417360E-11
  -13.0299997       7.08959454E-12
  -13.0200005      -3.88973784E-11
  -13.0100002      -8.70087613E-11
  -13.0000000      -1.31705119E-10
  -12.9899998      -1.67090772E-10
  -12.9799995      -1.87607041E-10
  -12.9700003      -1.88766447E-10
  -12.9600000      -1.67834219E-10
  -12.9499998      -1.24365934E-10
  -12.9399996      -6.05201236E-11
  -12.9300003       1.89093047E-11
  -12.9200001       1.06763452E-10
  -12.9099998       1.94084596E-10
  -12.8999996       2.70931583E-10
  -12.8900003       3.27376903E-10
  -12.8800001       3.54594021E-10
  -12.8699999       3.45930590E-10
  -12.8599997       2.97860930E-10
  -12.8500004       2.10712323E-10
  -12.8400002       8.90714516E-11
  -12.8299999      -5.82066513E-11
  -12.8199997      -2.18433216E-10
  -12.8100004      -3.75977999E-10
  -12.8000002      -5.13585952E-10
  -12.7900000      -6.14032547E-10
  -12.7799997      -6.61982746E-10
  -12.7700005      -6.45870746E-10
  -12.7600002      -5.59590208E-10
  -12.7500000      -4.03773209E-10
  -12.7399998      -1.86457877E-10
  -12.7299995       7.69918990E-11
  -12.7200003       3.64793085E-10
  -12.7100000       6.50436649E-10
  -12.6999998       9.05037545E-10
  -12.6899996       1.10012055E-09
  -12.6800003       1.21055110E-09
  -12.6700001       1.21729415E-09
  -12.6599998       1.10969489E-09
  -12.6499996       8.87026397E-10
  -12.6400003       5.59126079E-10
  -12.6300001       1.46047854E-10
  -12.6199999      -3.23246624E-10
  -12.6099997      -8.13032086E-10
  -12.6000004      -1.28360966E-09
  -12.5900002      -1.69450076E-09
  -12.5799999      -2.00776107E-09
  -12.5699997      -2.19115326E-09
  -12.5600004      -2.22091012E-09
  -12.5500002      -2.08384732E-09
  -12.5400000      -1.77865234E-09
  -12.5299997      -1.31619793E-09
  -12.5200005      -7.18834769E-10
  -12.5100002      -1.86943967E-11
  -12.5000000       7.44850959E-10
  -12.4899998       1.52832158E-09
  -12.4799995       2.28751085E-09
  -12.4700003       2.98067571E-09
  -12.4600000       3.57109808E-09
  -12.4499998       4.02861478E-09
  -12.4399996       4.32980141E-09
  -12.4300003       4.45668435E-09
  -12.4200001       4.39405179E-09
  -12.4099998       4.12565715E-09
  -12.3999996       3.62980068E-09
  -12.3900003       2.87493185E-09
  -12.3800001       1.81594051E-09
  -12.3699999       3.91824906E-10
  -12.3599997      -1.47477142E-09
  -12.3500004      -3.87582721E-09
  -12.3400002      -6.91390989E-09
  -12.3299999      -1.06960432E-08
  -12.3199997      -1.53258561E-08
  -12.3100004      -2.08945714E-08
  -12.3000002      -2.74714829E-08
  -12.2900000      -3.50945939E-08
  -12.2799997      -4.37620820E-08
  -12.2700005      -5.34252322E-08
  -12.2600002      -6.39831512E-08
  -12.2500000      -7.52798357E-08
  -12.2399998      -8.71038495E-08
  -12.2299995      -9.91905651E-08
  -12.2200003      -1.11227266E-07
  -12.2100000      -1.22860939E-07
  -12.1999998      -1.33708284E-07
  -12.1899996      -1.43367785E-07
  -12.1800003      -1.51433156E-07
  -12.1700001      -1.57507245E-07
  -12.1599998      -1.61215681E-07
  -12.1499996      -1.62219521E-07
  -12.1400003      -1.60225895E-07
  -12.1300001      -1.54996215E-07
  -12.1199999      -1.46351795E-07
  -12.1099997      -1.34176503E-07
  -12.1000004      -1.18416907E-07
  -12.0900002      -9.90803741E-08
  -12.0799999      -7.62315437E-08
  -12.0699997      -4.99879569E-08
  -12.0600004      -2.05151931E-08
  -12.0500002       1.19778845E-08
  -12.0400000       4.72436170E-08
  -12.0299997       8.49998116E-08
  -12.0200005       1.24933734E-07
  -12.0100002       1.66706016E-07
  -12.0000000       2.09953939E-07
  -11.9899998       2.54295344E-07
  -11.9799995       2.99331788E-07
  -11.9700003       3.44650857E-07
  -11.9600000       3.89828784E-07
  -11.9499998       4.34430859E-07
  -11.9399996       4.78011771E-07
  -11.9300003       5.20114554E-07
  -11.9200001       5.60268859E-07
  -11.9099998       5.97988901E-07
  -11.8999996       6.32772412E-07
  -11.8900003       6.64099616E-07
  -11.8800001       6.91434252E-07
  -11.8699999       7.14226474E-07
  -11.8599997       7.31918135E-07
  -11.8500004       7.43949670E-07
  -11.8400002       7.49769185E-07
  -11.8299999       7.48844684E-07
  -11.8199997       7.40674807E-07
  -11.8100004       7.24803385E-07
  -11.8000002       7.00832175E-07
  -11.7900000       6.68434893E-07
  -11.7799997       6.27368706E-07
  -11.7700005       5.77486901E-07
  -11.7600002       5.18747186E-07
  -11.7500000       4.51219051E-07
  -11.7399998       3.75087552E-07
  -11.7299995       2.90653759E-07
  -11.7200003       1.98331833E-07
  -11.7100000       9.86419408E-08
  -11.6999998      -7.79932297E-09
  -11.6899996      -1.20291730E-07
  -11.6800003      -2.38065482E-07
  -11.6700001      -3.60296355E-07
  -11.6599998      -4.86120371E-07
  -11.6499996      -6.14646922E-07
  -11.6400003      -7.44970237E-07
  -11.6300001      -8.76178092E-07
  -11.6199999      -1.00735713E-06
  -11.6099997      -1.13759631E-06
  -11.6000004      -1.26598707E-06
  -11.5900002      -1.39162194E-06
  -11.5799999      -1.51359143E-06
  -11.5699997      -1.63098002E-06
  -11.5600004      -1.74286265E-06
  -11.5500002      -1.84829992E-06
  -11.5400000      -1.94633526E-06
  -11.5299997      -2.03599302E-06
  -11.5200005      -2.11627867E-06
  -11.5100002      -2.18617834E-06
  -11.5000000      -2.24466567E-06
  -11.4899998      -2.29070429E-06
  -11.4799995      -2.32325783E-06
  -11.4700003      -2.34129993E-06
  -11.4600000      -2.34382537E-06
  -11.4499998      -2.32986417E-06
  -11.4399996      -2.29849456E-06
  -11.4300003      -2.24885753E-06
  -11.4200001      -2.18017067E-06
  -11.4099998      -2.09173959E-06
  -11.3999996      -1.98296902E-06
  -11.3900003      -1.85337217E-06
  -11.3800001      -1.70257738E-06
  -11.3699999      -1.53033307E-06
  -11.3599997      -1.33650815E-06
  -11.3500004      -1.12109308E-06
  -11.3400002      -8.84195003E-07
  -11.3299999      -6.26031806E-07
  -11.3199997      -3.46922405E-07
  -11.3100004      -4.72747494E-08
  -11.3000002       2.72429133E-07
  -11.2900000       6.11649682E-07
  -11.2799997       9.69806365E-07
  -11.2700005       1.34629579E-06
  -11.2600002       1.74050865E-06
  -11.2500000       2.15184264E-06
  -11.2399998       2.57971556E-06
  -11.2299995       3.02357284E-06
  -11.2200003       3.48288972E-06
  -11.2100000       3.95717461E-06
  -11.1999998       4.44596390E-06
  -11.1899996       4.94881715E-06
  -11.1800003       5.46530600E-06
  -11.1700001       5.99500481E-06
  -11.1599998       6.53748430E-06
  -11.1499996       7.09229334E-06
  -11.1400003       7.65895584E-06
  -11.1300001       8.23696064E-06
  -11.1199999       8.82575023E-06
  -11.1099997       9.42472980E-06
  -11.1000004       1.00332518E-05
  -11.0900002       1.06506277E-05
  -11.0799999       1.12761245E-05
  -11.0699997       1.19089800E-05
  -11.0600004       1.25484003E-05
  -11.0500002       1.31935831E-05
  -11.0400000       1.38437154E-05
  -11.0299997       1.44979977E-05
  -11.0200005       1.51556505E-05
  -11.0100002       1.58159237E-05
  -11.0000000       1.64781086E-05
  -10.9899998       1.71415522E-05
  -10.9799995       1.78056489E-05
  -10.9700003       1.84698620E-05
  -10.9600000       1.91336985E-05
  -10.9499998       1.97967365E-05
  -10.9399996       2.04585849E-05
  -10.9300003       2.11189090E-05
  -10.9200001       2.17773977E-05
  -10.9099998       2.24337546E-05
  -10.8999996       2.30876994E-05
  -10.8900003       2.37389377E-05
  -10.8800001       2.43871837E-05
  -10.8699999       2.50320991E-05
  -10.8599997       2.56733420E-05
  -10.8500004       2.63105285E-05
  -10.8400002       2.69432458E-05
  -10.8299999       2.75710499E-05
  -10.8199997       2.81934590E-05
  -10.8100004       2.88099709E-05
  -10.8000002       2.94200563E-05
  -10.7900000       3.00231586E-05
  -10.7799997       3.06187067E-05
  -10.7700005       3.12061384E-05
  -10.7600002       3.17848535E-05
  -10.7500000       3.23542808E-05
  -10.7399998       3.29138456E-05
  -10.7299995       3.34629949E-05
  -10.7200003       3.40011902E-05
  -10.7100000       3.45279441E-05
  -10.6999998       3.50428090E-05
  -10.6899996       3.55453813E-05
  -10.6800003       3.60353188E-05
  -10.6700001       3.65123669E-05
  -10.6599998       3.69763075E-05
  -10.6499996       3.74270276E-05
  -10.6400003       3.78644945E-05
  -10.6300001       3.82887447E-05
  -10.6199999       3.86998945E-05
  -10.6099997       3.90981695E-05
  -10.6000004       3.94838462E-05
  -10.5900002       3.98573211E-05
  -10.5799999       4.02190308E-05
  -10.5699997       4.05694991E-05
  -10.5600004       4.09093554E-05
  -10.5500002       4.12392401E-05
  -10.5400000       4.15598952E-05
  -10.5299997       4.18720738E-05
  -10.5200005       4.21765835E-05
  -10.5100002       4.24742793E-05
  -10.5000000       4.27660198E-05
  -10.4899998       4.30526889E-05
  -10.4799995       4.33351743E-05
  -10.4700003       4.36143164E-05
  -10.4600000       4.38909992E-05
  -10.4499998       4.41660450E-05
  -10.4399996       4.44402249E-05
  -10.4300003       4.47142738E-05
  -10.4200001       4.49888612E-05
  -10.4099998       4.52645909E-05
  -10.3999996       4.55419649E-05
  -10.3900003       4.58214308E-05
  -10.3800001       4.61033342E-05
  -10.3699999       4.63879369E-05
  -10.3599997       4.66754027E-05
  -10.3500004       4.69658153E-05
  -10.3400002       4.72591782E-05
  -10.3299999       4.75554116E-05
  -10.3199997       4.78543552E-05
  -10.3100004       4.81557981E-05
  -10.3000002       4.84594493E-05
  -10.2900000       4.87649850E-05
  -10.2799997       4.90720158E-05
  -10.2700005       4.93801490E-05
  -10.2600002       4.96889443E-05
  -10.2500000       4.99979578E-05
  -10.2399998       5.03067458E-05
  -10.2299995       5.06149045E-05
  -10.2200003       5.09220263E-05
  -10.2100000       5.12277511E-05
  -10.1999998       5.15317770E-05
  -10.1899996       5.18338384E-05
  -10.1800003       5.21337497E-05
  -10.1700001       5.24313873E-05
  -10.1599998       5.27266639E-05
  -10.1499996       5.30196157E-05
  -10.1400003       5.33102939E-05
  -10.1300001       5.35988256E-05
  -10.1199999       5.38854365E-05
  -10.1099997       5.41703666E-05
  -10.1000004       5.44539325E-05
  -10.0900002       5.47365053E-05
  -10.0799999       5.50185250E-05
  -10.0699997       5.53004429E-05
  -10.0600004       5.55827610E-05
  -10.0500002       5.58660795E-05
  -10.0400000       5.61509587E-05
  -10.0299997       5.64380352E-05
  -10.0200005       5.67279640E-05
  -10.0100002       5.70213961E-05
  -10.0000000       5.73190373E-05
  -9.98999977       5.76215862E-05
  -9.97999954       5.79297557E-05
  -9.97000027       5.82442954E-05
  -9.96000004       5.85659618E-05
  -9.94999981       5.88955409E-05
  -9.93999958       5.92338292E-05
  -9.93000031       5.95817037E-05
  -9.92000008       5.99400373E-05
  -9.90999985       6.03097833E-05
  -9.89999962       6.06919239E-05
  -9.89000034       6.10875504E-05
  -9.88000011       6.14977616E-05
  -9.86999989       6.19237690E-05
  -9.85999966       6.23668238E-05
  -9.85000038       6.28282578E-05
  -9.84000015       6.33094605E-05
  -9.82999992       6.38118581E-05
  -9.81999969       6.43369131E-05
  -9.81000042       6.48861096E-05
  -9.80000019       6.54609175E-05
  -9.78999996       6.60628139E-05
  -9.77999973       6.66932465E-05
  -9.77000046       6.73535978E-05
  -9.76000023       6.80452285E-05
  -9.75000000       6.87694483E-05
  -9.73999977       6.95274648E-05
  -9.72999954       7.03204496E-05
  -9.72000027       7.11495013E-05
  -9.71000004       7.20156168E-05
  -9.69999981       7.29197200E-05
  -9.68999958       7.38626622E-05
  -9.68000031       7.48451857E-05
  -9.67000008       7.58679234E-05
  -9.65999985       7.69313847E-05
  -9.64999962       7.80359842E-05
  -9.64000034       7.91820057E-05
  -9.63000011       8.03695366E-05
  -9.61999989       8.15985331E-05
  -9.60999966       8.28688135E-05
  -9.60000038       8.41799629E-05
  -9.59000015       8.55314574E-05
  -9.57999992       8.69224968E-05
  -9.56999969       8.83521643E-05
  -9.56000042       8.98193030E-05
  -9.55000019       9.13225740E-05
  -9.53999996       9.28604786E-05
  -9.52999973       9.44313215E-05
  -9.52000046       9.60331672E-05
  -9.51000023       9.76640367E-05
  -9.50000000       9.93216890E-05
  -9.48999977       1.01003847E-04
  -9.47999954       1.02708058E-04
  -9.47000027       1.04431820E-04
  -9.46000004       1.06172600E-04
  -9.44999981       1.07927859E-04
  -9.43999958       1.09695116E-04
  -9.43000031       1.11471913E-04
  -9.42000008       1.13255926E-04
  -9.40999985       1.15045041E-04
  -9.39999962       1.16837196E-04
  -9.39000034       1.18630633E-04
  -9.38000011       1.20423756E-04
  -9.36999989       1.22215293E-04
  -9.35999966       1.24004233E-04
  -9.35000038       1.25789811E-04
  -9.34000015       1.27571591E-04
  -9.32999992       1.29349486E-04
  -9.31999969       1.31123699E-04
  -9.31000042       1.32894769E-04
  -9.30000019       1.34663656E-04
  -9.28999996       1.36431554E-04
  -9.27999973       1.38200048E-04
  -9.27000046       1.39971045E-04
  -9.26000023       1.41746816E-04
  -9.25000000       1.43529905E-04
  -9.23999977       1.45323138E-04
  -9.22999954       1.47129656E-04
  -9.22000027       1.48952851E-04
  -9.21000004       1.50796302E-04
  -9.19999981       1.52663779E-04
  -9.18999958       1.54559253E-04
  -9.18000031       1.56486800E-04
  -9.17000008       1.58450450E-04
  -9.15999985       1.60454481E-04
  -9.14999962       1.62502896E-04
  -9.14000034       1.64599842E-04
  -9.13000011       1.66749276E-04
  -9.11999989       1.68954997E-04
  -9.10999966       1.71220687E-04
  -9.10000038       1.73549692E-04
  -9.09000015       1.75945155E-04
  -9.07999992       1.78409959E-04
  -9.06999969       1.80946619E-04
  -9.06000042       1.83557233E-04
  -9.05000019       1.86243589E-04
  -9.03999996       1.89006940E-04
  -9.02999973       1.91848230E-04
  -9.02000046       1.94767737E-04
  -9.01000023       1.97765447E-04
  -9.00000000       2.00840659E-04
  -8.98999977       2.03992255E-04
  -8.97999954       2.07218560E-04
  -8.97000027       2.10517363E-04
  -8.96000004       2.13886029E-04
  -8.94999981       2.17321212E-04
  -8.93999958       2.20819289E-04
  -8.93000031       2.24376141E-04
  -8.92000008       2.27987126E-04
  -8.90999985       2.31647326E-04
  -8.89999962       2.35351370E-04
  -8.89000034       2.39093672E-04
  -8.88000011       2.42868366E-04
  -8.86999989       2.46669428E-04
  -8.85999966       2.50490586E-04
  -8.85000038       2.54325540E-04
  -8.84000015       2.58167885E-04
  -8.82999992       2.62011221E-04
  -8.81999969       2.65849318E-04
  -8.81000042       2.69676006E-04
  -8.80000019       2.73485144E-04
  -8.78999996       2.77271058E-04
  -8.77999973       2.81028042E-04
  -8.77000046       2.84750859E-04
  -8.76000023       2.88434589E-04
  -8.75000000       2.92074605E-04
  -8.73999977       2.95666803E-04
  -8.72999954       2.99207371E-04
  -8.72000027       3.02692963E-04
  -8.71000004       3.06120695E-04
  -8.69999981       3.09488125E-04
  -8.68999958       3.12793360E-04
  -8.68000031       3.16034828E-04
  -8.67000008       3.19211598E-04
  -8.65999985       3.22322914E-04
  -8.64999962       3.25368805E-04
  -8.64000034       3.28349386E-04
  -8.63000011       3.31265270E-04
  -8.61999989       3.34117416E-04
  -8.60999966       3.36907193E-04
  -8.60000038       3.39636259E-04
  -8.59000015       3.42306565E-04
  -8.57999992       3.44920089E-04
  -8.56999969       3.47479247E-04
  -8.56000042       3.49986512E-04
  -8.55000019       3.52444476E-04
  -8.53999996       3.54855903E-04
  -8.52999973       3.57223587E-04
  -8.52000046       3.59550584E-04
  -8.51000023       3.61839862E-04
  -8.50000000       3.64094361E-04
  -8.48999977       3.66317166E-04
  -8.47999954       3.68511421E-04
  -8.47000027       3.70680180E-04
  -8.46000004       3.72826384E-04
  -8.44999981       3.74953088E-04
  -8.43999958       3.77063174E-04
  -8.43000031       3.79159697E-04
  -8.42000008       3.81245307E-04
  -8.40999985       3.83323000E-04
  -8.39999962       3.85395193E-04
  -8.39000034       3.87464679E-04
  -8.38000011       3.89533961E-04
  -8.36999989       3.91605659E-04
  -8.35999966       3.93681927E-04
  -8.35000038       3.95765412E-04
  -8.34000015       3.97858472E-04
  -8.32999992       3.99963552E-04
  -8.31999969       4.02083067E-04
  -8.31000042       4.04219551E-04
  -8.30000019       4.06375388E-04
  -8.28999996       4.08553256E-04
  -8.27999973       4.10755834E-04
  -8.27000046       4.12985741E-04
  -8.26000023       4.15245857E-04
  -8.25000000       4.17539064E-04
  -8.23999977       4.19868215E-04
  -8.22999954       4.22236539E-04
  -8.22000027       4.24647267E-04
  -8.21000004       4.27103689E-04
  -8.19999981       4.29609296E-04
  -8.18999958       4.32167581E-04
  -8.18000031       4.34782181E-04
  -8.17000008       4.37456911E-04
  -8.15999985       4.40195552E-04
  -8.14999962       4.43002122E-04
  -8.14000034       4.45880665E-04
  -8.13000011       4.48835228E-04
  -8.11999989       4.51869972E-04
  -8.10999966       4.54989029E-04
  -8.10000038       4.58196591E-04
  -8.09000015       4.61496762E-04
  -8.07999992       4.64893616E-04
  -8.06999969       4.68391372E-04
  -8.06000042       4.71993699E-04
  -8.05000019       4.75704466E-04
  -8.03999996       4.79527254E-04
  -8.02999973       4.83465614E-04
  -8.02000046       4.87522397E-04
  -8.01000023       4.91700834E-04
  -8.00000000       4.96003544E-04
  -7.98999977       5.00432739E-04
  -7.98000002       5.04990516E-04
  -7.96999979       5.09678619E-04
  -7.96000004       5.14498388E-04
  -7.94999981       5.19450754E-04
  -7.94000006       5.24536357E-04
  -7.92999983       5.29755605E-04
  -7.92000008       5.35108440E-04
  -7.90999985       5.40594163E-04
  -7.90000010       5.46211901E-04
  -7.88999987       5.51960722E-04
  -7.88000011       5.57838765E-04
  -7.86999989       5.63844340E-04
  -7.86000013       5.69975120E-04
  -7.84999990       5.76228544E-04
  -7.84000015       5.82601933E-04
  -7.82999992       5.89092437E-04
  -7.82000017       5.95696678E-04
  -7.80999994       6.02411630E-04
  -7.80000019       6.09233626E-04
  -7.78999996       6.16159232E-04
  -7.78000021       6.23184606E-04
  -7.76999998       6.30306255E-04
  -7.76000023       6.37520396E-04
  -7.75000000       6.44823303E-04
  -7.73999977       6.52211427E-04
  -7.73000002       6.59681100E-04
  -7.71999979       6.67229237E-04
  -7.71000004       6.74852170E-04
  -7.69999981       6.82546932E-04
  -7.69000006       6.90310320E-04
  -7.67999983       6.98139891E-04
  -7.67000008       7.06032966E-04
  -7.65999985       7.13987043E-04
  -7.65000010       7.22000143E-04
  -7.63999987       7.30070577E-04
  -7.63000011       7.38196482E-04
  -7.61999989       7.46376929E-04
  -7.61000013       7.54610635E-04
  -7.59999990       7.62897078E-04
  -7.59000015       7.71235907E-04
  -7.57999992       7.79626775E-04
  -7.57000017       7.88070378E-04
  -7.55999994       7.96567067E-04
  -7.55000019       8.05118121E-04
  -7.53999996       8.13724822E-04
  -7.53000021       8.22388625E-04
  -7.51999998       8.31111567E-04
  -7.51000023       8.39896034E-04
  -7.50000000       8.48744414E-04
  -7.48999977       8.57659616E-04
  -7.48000002       8.66644667E-04
  -7.46999979       8.75703117E-04
  -7.46000004       8.84838169E-04
  -7.44999981       8.94053606E-04
  -7.44000006       9.03353444E-04