  -16.0000000       0.00000000    
  -15.9899998       0.00000000    
  -15.9799995       0.00000000    
  -15.9700003       0.00000000    
  -15.9600000       0.00000000    
  -15.9499998       0.00000000    
  -15.9399996       0.00000000    
  -15.9300003       0.00000000    
  -15.9200001       0.00000000    
  -15.9099998       0.00000000    
  -15.8999996       0.00000000    
  -15.8900003       0.00000000    
  -15.8800001       0.00000000    
  -15.8699999       0.00000000    
  -15.8599997       0.00000000    
  -15.8500004      -0.00000000    
  -15.8400002      -2.80259693E-45
  -15.8299999      -2.24207754E-44
  -15.8199997      -1.94780487E-43
  -15.8100004      -1.35785821E-42
  -15.8000002      -7.92434282E-42
  -15.7900000      -3.95376362E-41
  -15.7799997      -1.71265297E-40
  -15.7700005      -6.52454374E-40
  -15.7600002      -2.20965710E-39
  -15.7500000      -6.70948711E-39
  -15.7399998      -1.83833585E-38
  -15.7299995      -4.56460447E-38
  -15.7200003      -1.02923377E-37
  -15.7100000      -2.10592671E-37
  -15.6999998      -3.89203945E-37
  -15.6899996      -6.42544044E-37
  -15.6800003      -9.25217423E-37
  -15.6700001      -1.09840213E-36
  -15.6599998      -8.96588335E-37
  -15.6499996       4.06239340E-38
  -15.6400003       1.98504882E-36
  -15.6300001       4.69542480E-36
  -15.6199999       6.74929123E-36
  -15.6099997       4.87606271E-36
  -15.6000004      -6.02296644E-36
  -15.5900002      -3.09691534E-35
  -15.5799999      -6.97561823E-35
  -15.5699997      -1.08178484E-34
  -15.5600004      -1.08339747E-34
  -15.5500002      -6.21295830E-36
  -15.5400000       2.69263006E-34
  -15.5299997       7.39845675E-34
  -15.5200005       1.28089974E-33
  -15.5100002       1.51466956E-33
  -15.5000000       7.81363309E-34
  -15.4899998      -1.67000480E-33
  -15.4799995      -6.13259444E-33
  -15.4700003      -1.15364448E-32
  -15.4600000      -1.45225818E-32
  -15.4499998      -9.30826810E-33
  -15.4399996       1.04791494E-32
  -15.4300003       4.70474981E-32
  -15.4200001       9.11813277E-32
  -15.4099998       1.15628137E-31
  -15.3999996       7.56350857E-32
  -15.3900003      -7.50469742E-32
  -15.3800001      -3.47532178E-31
  -15.3699999      -6.66654209E-31
  -15.3599997      -8.30682455E-31
  -15.3500004      -5.27513575E-31
  -15.3400002       5.41480517E-31
  -15.3299999       2.40875080E-30
  -15.3199997       4.51783443E-30
  -15.3100004       5.50915044E-30
  -15.3000002       3.39927914E-30
  -15.2900000      -3.56625463E-30
  -15.2799997      -1.53345040E-29
  -15.2700005      -2.81916602E-29
  -15.2600002      -3.37552927E-29
  -15.2500000      -2.04275279E-29
  -15.2399998       2.13040006E-29
  -15.2299995       8.98176689E-29
  -15.2200003       1.62521982E-28
  -15.2100000       1.91630607E-28
  -15.1999998       1.13998189E-28
  -15.1899996      -1.18661624E-28
  -15.1800003      -4.91506229E-28
  -15.1700001      -8.77561438E-28
  -15.1599998      -1.02176130E-27
  -15.1499996      -5.99446803E-28
  -15.1400003       6.23633883E-28
  -15.1300001       2.54869018E-27
  -15.1199999       4.51089270E-27
  -15.1099997       5.22281694E-27
  -15.1000004       3.08709949E-27
  -15.0900002      -3.01044055E-27
  -15.0799999      -1.25411296E-26
  -15.0699997      -2.22603467E-26
  -15.0600004      -2.59979835E-26
  -15.0500002      -1.61727887E-26
  -15.0400000       1.25157659E-26
  -15.0299997       5.77941316E-26
  -15.0200005       1.04984222E-25
  -15.0100002       1.26063177E-25
  -15.0000000       8.63181895E-26
  -14.9899998      -3.95252748E-26
  -14.9799995      -2.44228945E-25
  -14.9700003      -4.66772547E-25
  -14.9600000      -5.87230917E-25
  -14.9499998      -4.53209120E-25
  -14.9399996       5.41870281E-26
  -14.9300003       9.24566083E-25
  -14.9200001       1.92720100E-24
  -14.9099998       2.58161239E-24
  -14.8999996       2.25165239E-24
  -14.8900003       3.97385600E-25
  -14.8800001      -3.04769922E-24
  -14.8699999      -7.30103863E-24
  -14.8599997      -1.05708048E-23
  -14.8500004      -1.03499647E-23
  -14.8400002      -4.31065232E-24
  -14.8299999       8.29143614E-24
  -14.8199997       2.51353362E-23
  -14.8100004       4.00359531E-23
  -14.8000002       4.37114486E-23
  -14.7900000       2.67204039E-23
  -14.7799997      -1.56115542E-23
  -14.7700005      -7.76363203E-23
  -14.7600002      -1.39748830E-22
  -14.7500000      -1.69791039E-22
  -14.7399998      -1.31881754E-22
  -14.7299995      -2.63474809E-24
  -14.7200003       2.09132239E-22
  -14.7100000       4.47230112E-22
  -14.6999998       6.07930848E-22
  -14.6899996       5.63758827E-22
  -14.6800003       2.13260026E-22
  -14.6700001      -4.53141041E-22
  -14.6599998      -1.29478696E-21
  -14.6499996      -2.00312347E-21
  -14.6400003      -2.15639402E-21
  -14.6300001      -1.36036516E-21
  -14.6199999       5.45718323E-22
  -14.6099997       3.28173286E-21
  -14.6000004       6.01665813E-21
  -14.5900002       7.46095102E-21
  -14.5799999       6.22534271E-21
  -14.5699997       1.41775960E-21
  -14.5600004      -6.67677653E-21
  -14.5500002      -1.61066282E-20
  -14.5400000      -2.32786170E-20
  -14.5299997      -2.37475896E-20
  -14.5200005      -1.37947101E-20
  -14.5100002       7.52845429E-21
  -14.5000000       3.65814422E-20
  -14.4899998       6.44666248E-20
  -14.4799995       7.83640087E-20
  -14.4700003       6.52380547E-20
  -14.4600000       1.74125655E-20
  -14.4499998      -6.15418498E-20
  -14.4399996      -1.53013136E-19
  -14.4300003      -2.24238945E-19
  -14.4200001      -2.35629687E-19
  -14.4099998      -1.54304107E-19
  -14.3999996       2.91113001E-20
  -14.3900003       2.86021090E-19
  -14.3800001       5.44770036E-19
  -14.3699999       7.01051958E-19
  -14.3599997       6.46134971E-19
  -14.3500004       3.08880976E-19
  -14.3400002      -2.99720571E-19
  -14.3299999      -1.05637716E-18
  -14.3199997      -1.72755409E-18
  -14.3100004      -2.01587700E-18
  -14.3000002      -1.65018407E-18
  -14.2900000      -5.01087972E-19
  -14.2799997       1.31296187E-18
  -14.2700005       3.37366357E-18
  -14.2600002       5.00523101E-18
  -14.2500000       5.43021862E-18
  -14.2399998       4.02173890E-18
  -14.2299995       5.92494480E-19
  -14.2200003      -4.37379690E-18
  -14.2100000      -9.65467509E-18
  -14.1999998      -1.34670554E-17
  -14.1899996      -1.39112109E-17
  -14.1800003      -9.61047966E-18
  -14.1700001      -3.82498577E-19
  -14.1599998       1.22873379E-17
  -14.1499996       2.52029641E-17
  -14.1400003       3.39997304E-17
  -14.1300001       3.42685608E-17
  -14.1199999       2.30552872E-17
  -14.1099997       3.34369410E-19
  -14.1000004      -3.00551179E-17
  -14.0900002      -6.04924924E-17
  -14.0799999      -8.09528247E-17
  -14.0699997      -8.15974764E-17
  -14.0600004      -5.60666063E-17
  -14.0500002      -4.58568955E-18
  -14.0400000       6.41868796E-17
  -14.0299997       1.33522939E-16
  -14.0200005       1.81686648E-16
  -14.0100002       1.87437618E-16
  -14.0000000       1.36866495E-16
  -13.9899998       2.97412955E-17
  -13.9799995      -1.16761480E-16
  -13.9700003      -2.68774910E-16
  -13.9600000      -3.81799598E-16
  -13.9499998      -4.11542975E-16
  -13.9399996      -3.27373920E-16
  -13.9300003      -1.24908944E-16
  -13.9200001       1.66289085E-16
  -13.9099998       4.83348552E-16
  -13.8999996       7.40766841E-16
  -13.8900003       8.50186398E-16
  -13.8800001       7.45418851E-16
  -13.8699999       4.06482297E-16
  -13.8599997      -1.24580454E-16
  -13.8500004      -7.42399708E-16
  -13.8400002      -1.29481543E-15
  -13.8299999      -1.61602843E-15
  -13.8199997      -1.57012846E-15
  -13.8100004      -1.09459114E-15
  -13.8000002      -2.31447227E-16
  -13.7900000       8.64841550E-16
  -13.7799997       1.94906686E-15
  -13.7700005       2.73550561E-15
  -13.7600002       2.96748782E-15
  -13.7500000       2.49021927E-15
  -13.7399998       1.30746343E-15
  -13.7299995      -3.95721696E-16
  -13.7200003      -2.27505003E-15
  -13.7100000      -3.89388415E-15
  -13.6999998      -4.82259225E-15
  -13.6899996      -4.74772004E-15
  -13.6800003      -3.56308899E-15
  -13.6700001      -1.41696214E-15
  -13.6599998       1.30107204E-15
  -13.6499996       4.03489438E-15
  -13.6400003       6.18302754E-15
  -13.6300001       7.23734342E-15
  -13.6199999       6.90402833E-15
  -13.6099997       5.17497108E-15
  -13.6000004       2.33051904E-15
  -13.5900002      -1.12660909E-15
  -13.5799999      -4.58682868E-15
  -13.5699997      -7.46513091E-15
  -13.5600004      -9.31121550E-15
  -13.5500002      -9.86928739E-15
  -13.5400000      -9.07703291E-15
  -13.5299997      -7.01574563E-15
  -13.5200005      -3.84243452E-15
  -13.5100002       2.57391237E-16
  -13.5000000       5.06565174E-15
  -13.4899998       1.02682120E-14
  -13.4799995       1.53549269E-14
  -13.4700003       1.95348092E-14
  -13.4600000       2.17316535E-14
  -13.4499998       2.07161762E-14
  -13.4399996       1.53944105E-14
  -13.4300003       5.21670228E-15
  -13.4200001      -9.38925519E-15
  -13.4099998      -2.67026595E-14
  -13.3999996      -4.36630204E-14
  -13.3900003      -5.62059351E-14
  -13.3800001      -6.00090791E-14
  -13.3699999      -5.15569710E-14
  -13.3599997      -2.93110500E-14
  -13.3500004       5.31760762E-15
  -13.3400002       4.75175082E-14
  -13.3299999       8.94055947E-14
  -13.3199997       1.21237100E-13
  -13.3100004       1.33380476E-13
  -13.3000002       1.18708225E-13
  -13.2900000       7.48717291E-14
  -13.2799997       5.85266055E-15
  -13.2700005      -7.77442753E-14
  -13.2600002      -1.59965208E-13
  -13.2500000      -2.22309001E-13
  -13.2399998      -2.47620961E-13
  -13.2299995      -2.24301155E-13
  -13.2200003      -1.49847149E-13
  -13.2100000      -3.27742153E-14
  -13.1999998       1.07775971E-13
  -13.1899996       2.44953065E-13
  -13.1800003       3.49262448E-13
  -13.1700001       3.94830680E-13
  -13.1599998       3.65531092E-13
  -13.1499996       2.59516475E-13
  -13.1400003       9.09562885E-14
  -13.1300001      -1.11664279E-13
  -13.1199999      -3.10555862E-13
  -13.1099997      -4.66015789E-13
  -13.1000004      -5.44648419E-13
  -13.0900002      -5.26580624E-13
  -13.0799999      -4.10008453E-13
  -13.0699997      -2.11987342E-13
  -13.0600004       3.47385457E-14
  -13.0500002       2.88129384E-13
  -13.0400000       5.04960548E-13
  -13.0299997       6.48764300E-13
  -13.0200005       6.95839382E-13
  -13.0100002       6.38173271E-13
  -13.0000000       4.83005671E-13
  -12.9899998       2.49708837E-13
  -12.9799995      -3.46520264E-14
  -12.9700003      -3.39511188E-13
  -12.9600000      -6.33507244E-13
  -12.9499998      -8.85265711E-13
  -12.9399996      -1.06281477E-12
  -12.9300003      -1.13302401E-12
  -12.9200001      -1.06281737E-12
  -12.9099998      -8.23568481E-13
  -12.8999996      -3.99058038E-13
  -12.8900003       2.04090163E-13
  -12.8800001       9.46065166E-13
  -12.8699999       1.74716643E-12
  -12.8599997       2.48836021E-12
  -12.8500004       3.02165172E-12
  -12.8400002       3.19075365E-12
  -12.8299999       2.85988789E-12
  -12.8199997       1.94598504E-12
  -12.8100004       4.47804852E-13
  -12.8000002      -1.53487151E-12
  -12.7900000      -3.79753477E-12
  -12.7799997      -6.04557680E-12
  -12.7700005      -7.92647892E-12
  -12.7600002      -9.07520760E-12
  -12.7500000      -9.16570986E-12
  -12.7399998      -7.96036848E-12
  -12.7299995      -5.34992320E-12
  -12.7200003      -1.37881395E-12
  -12.7100000       3.74584218E-12
  -12.6999998       9.66023355E-12
  -12.6899996       1.58612203E-11
  -12.6800003       2.17309868E-11
  -12.6700001       2.65663238E-11
  -12.6599998       2.96124861E-11
  -12.6499996       3.01047694E-11
  -12.6400003       2.73228228E-11
  -12.6300001       2.06632385E-11
  -12.6199999       9.73302428E-12
  -12.6099997      -5.53852320E-12
  -12.6000004      -2.47789497E-11
  -12.5900002      -4.70599323E-11
  -12.5799999      -7.08151107E-11
  -12.5699997      -9.38140954E-11
  -12.5600004      -1.13215513E-10
  -12.5500002      -1.25715952E-10
  -12.5400000      -1.27799882E-10
  -12.5299997      -1.16082137E-10
  -12.5200005      -8.77212122E-11
  -12.5100002      -4.08687285E-11
  -12.5000000       2.48864800E-11
  -12.4899998       1.08124711E-10
  -12.4799995       2.05292519E-10
  -12.4700003       3.10523968E-10
  -12.4600000       4.15609297E-10
  -12.4499998       5.10118614E-10
  -12.4399996       5.81681758E-10
  -12.4300003       6.16414420E-10
  -12.4200001       5.99474803E-10
  -12.4099998       5.15735399E-10
  -12.3999996       3.50550255E-10
  -12.3900003       9.05993683E-11
  -12.3800001      -2.75213352E-10
  -12.3699999      -7.54842466E-10
  -12.3599997      -1.35219602E-09
  -12.3500004      -2.06630890E-09
  -12.3400002      -2.89064506E-09
  -12.3299999      -3.81260357E-09
  -12.3199997      -4.81329820E-09
  -12.3100004      -5.86765481E-09
  -12.3000002      -6.94488778E-09
  -12.2900000      -8.00932032E-09
  -12.2799997      -9.02155417E-09
  -12.2700005      -9.93989602E-09
  -12.2600002      -1.07219558E-08
  -12.2500000      -1.13263194E-08
  -12.2399998      -1.17141568E-08
  -12.2299995      -1.18506955E-08
  -12.2200003      -1.17064651E-08
  -12.2100000      -1.12582894E-08
  -12.1999998      -1.04899769E-08
  -12.1899996      -9.39276124E-09
  -12.1800003      -7.96549671E-09
  -12.1700001      -6.21460838E-09
  -12.1599998      -4.15389589E-09
  -12.1499996      -1.80409210E-09
  -12.1400003       8.07746925E-10
  -12.1300001       3.64902752E-09
  -12.1199999       6.68256739E-09
  -12.1099997       9.86767557E-09
  -12.1000004       1.31613129E-08
  -12.0900002       1.65191985E-08
  -12.0799999       1.98968113E-08
  -12.0699997       2.32501947E-08
  -12.0600004       2.65364708E-08
  -12.0500002       2.97140872E-08
  -12.0400000       3.27427756E-08
  -12.0299997       3.55833585E-08
  -12.0200005       3.81974274E-08
  -12.0100002       4.05471887E-08
  -12.0000000       4.25952642E-08
  -11.9899998       4.43049544E-08
  -11.9799995       4.56404727E-08
  -11.9700003       4.65675889E-08
  -11.9600000       4.70542396E-08
  -11.9499998       4.70712180E-08
  -11.9399996       4.65927883E-08
  -11.9300003       4.55972291E-08
  -11.9200001       4.40671677E-08
  -11.9099998       4.19898925E-08
  -11.8999996       3.93576194E-08
  -11.8900003       3.61676769E-08
  -11.8800001       3.24227862E-08
  -11.8699999       2.81314048E-08
  -11.8599997       2.33078552E-08
  -11.8500004       1.79725390E-08
  -11.8400002       1.21519586E-08
  -11.8299999       5.87828897E-09
  -11.8199997      -8.10992329E-10
  -11.8100004      -7.87392995E-09
  -11.8000002      -1.52648418E-08
  -11.7900000      -2.29351631E-08
  -11.7799997      -3.08341406E-08
  -11.7700005      -3.89091888E-08
  -11.7600002      -4.71061234E-08
  -11.7500000      -5.53689539E-08
  -11.7399998      -6.36397033E-08
  -11.7299995      -7.18579685E-08
  -11.7200003      -7.99606781E-08
  -11.7100000      -8.78819009E-08
  -11.6999998      -9.55530197E-08
  -11.6899996      -1.02902909E-07
  -11.6800003      -1.09858391E-07
  -11.6700001      -1.16344978E-07
  -11.6599998      -1.22287588E-07
  -11.6499996      -1.27611372E-07
  -11.6400003      -1.32242505E-07
  -11.6300001      -1.36109179E-07
  -11.6199999      -1.39142358E-07
  -11.6099997      -1.41276800E-07
  -11.6000004      -1.42451881E-07
  -11.5900002      -1.42612166E-07
  -11.5799999      -1.41708483E-07
  -11.5699997      -1.39697832E-07
  -11.5600004      -1.36544159E-07
  -11.5500002      -1.32218091E-07
  -11.5400000      -1.26697330E-07
  -11.5299997      -1.19966302E-07
  -11.5200005      -1.12016458E-07
  -11.5100002      -1.02846329E-07
  -11.5000000      -9.24614625E-08
  -11.4899998      -8.08748624E-08
  -11.4799995      -6.81067505E-08
  -11.4700003      -5.41849836E-08
  -11.4600000      -3.91445134E-08
  -11.4499998      -2.30274875E-08
  -11.4399996      -5.88260018E-09
  -11.4300003       1.22355264E-08
  -11.4200001       3.12669606E-08
  -11.4099998       5.11468841E-08
  -11.3999996       7.18072357E-08
  -11.3900003       9.31771069E-08
  -11.3800001       1.15183909E-07
  -11.3699999       1.37754810E-07
  -11.3599997       1.60817706E-07
  -11.3500004       1.84302493E-07
  -11.3400002       2.08141955E-07
  -11.3299999       2.32272356E-07
  -11.3199997       2.56633825E-07
  -11.3100004       2.81169861E-07
  -11.3000002       3.05827513E-07
  -11.2900000       3.30556560E-07
  -11.2799997       3.55309027E-07
  -11.2700005       3.80039069E-07
  -11.2600002       4.04702575E-07
  -11.2500000       4.29256772E-07
  -11.2399998       4.53660562E-07
  -11.2299995       4.77873300E-07
  -11.2200003       5.01855141E-07
  -11.2100000       5.25565611E-07
  -11.1999998       5.48963214E-07
  -11.1899996       5.72005206E-07
  -11.1800003       5.94647304E-07
  -11.1700001       6.16843863E-07
  -11.1599998       6.38549295E-07
  -11.1499996       6.59719888E-07
  -11.1400003       6.80315111E-07
  -11.1300001       7.00298528E-07
  -11.1199999       7.19641264E-07
  -11.1099997       7.38320978E-07
  -11.1000004       7.56322720E-07
  -11.0900002       7.73639727E-07
  -11.0799999       7.90271940E-07
  -11.0699997       8.06227945E-07
  -11.0600004       8.21521610E-07
  -11.0500002       8.36176071E-07
  -11.0400000       8.50218555E-07
  -11.0299997       8.63684249E-07
  -11.0200005       8.76610898E-07
  -11.0100002       8.89039882E-07
  -11.0000000       9.01011504E-07
  -10.9899998       9.12562768E-07
  -10.9799995       9.23725281E-07
  -10.9700003       9.34522575E-07
  -10.9600000       9.44971987E-07
  -10.9499998       9.55077780E-07
  -10.9399996       9.64838023E-07
  -10.9300003       9.74242653E-07
  -10.9200001       9.83275413E-07
  -10.9099998       9.91913339E-07
  -10.8999996       1.00013017E-06
  -10.8900003       1.00789646E-06
  -10.8800001       1.01518117E-06
  -10.8699999       1.02195111E-06
  -10.8599997       1.02817182E-06
  -10.8500004       1.03381024E-06
  -10.8400002       1.03883303E-06
  -10.8299999       1.04320543E-06
  -10.8199997       1.04689263E-06
  -10.8100004       1.04985804E-06
  -10.8000002       1.05206232E-06
  -10.7900000       1.05346237E-06
  -10.7799997       1.05401500E-06
  -10.7700005       1.05367599E-06
  -10.7600002       1.05240679E-06
  -10.7500000       1.05017511E-06
  -10.7399998       1.04695994E-06
  -10.7299995       1.04275705E-06
  -10.7200003       1.03757679E-06
  -10.7100000       1.03144487E-06
  -10.6999998       1.02440038E-06
  -10.6899996       1.01649027E-06
  -10.6800003       1.00776606E-06
  -10.6700001       9.98283667E-07
  -10.6599998       9.88091983E-07
  -10.6499996       9.77240234E-07
  -10.6400003       9.65766048E-07
  -10.6300001       9.53700351E-07
  -10.6199999       9.41067697E-07
  -10.6099997       9.27886845E-07
  -10.6000004       9.14174962E-07
  -10.5900002       8.99946087E-07
  -10.5799999       8.85223130E-07
  -10.5699997       8.70035024E-07
  -10.5600004       8.54420421E-07
  -10.5500002       8.38435312E-07
  -10.5400000       8.22146376E-07
  -10.5299997       8.05634215E-07
  -10.5200005       7.88983755E-07
  -10.5100002       7.72287990E-07
  -10.5000000       7.55630822E-07
  -10.4899998       7.39091831E-07
  -10.4799995       7.22736445E-07
  -10.4700003       7.06622700E-07
  -10.4600000       6.90793627E-07
  -10.4499998       6.75281171E-07
  -10.4399996       6.60109038E-07
  -10.4300003       6.45292459E-07
  -10.4200001       6.30834961E-07
  -10.4099998       6.16733416E-07
  -10.3999996       6.02967816E-07
  -10.3900003       5.89504907E-07
  -10.3800001       5.76299328E-07
  -10.3699999       5.63295771E-07
  -10.3599997       5.50430400E-07
  -10.3500004       5.37636879E-07
  -10.3400002       5.24854386E-07
  -10.3299999       5.12027782E-07
  -10.3199997       4.99108864E-07
  -10.3100004       4.86061708E-07
  -10.3000002       4.72853401E-07
  -10.2900000       4.59457738E-07
  -10.2799997       4.45856301E-07
  -10.2700005       4.32033602E-07
  -10.2600002       4.17981994E-07
  -10.2500000       4.03705940E-07
  -10.2399998       3.89217149E-07
  -10.2299995       3.74540605E-07
  -10.2200003       3.59707855E-07
  -10.2100000       3.44758547E-07
  -10.1999998       3.29733922E-07
  -10.1899996       3.14666835E-07
  -10.1800003       2.99589686E-07
  -10.1700001       2.84526664E-07
  -10.1599998       2.69499878E-07
  -10.1499996       2.54531670E-07
  -10.1400003       2.39648330E-07
  -10.1300001       2.24889064E-07
  -10.1199999       2.10304890E-07
  -10.1099997       1.95958833E-07
  -10.1000004       1.81932450E-07
  -10.0900002       1.68311956E-07
  -10.0799999       1.55193760E-07
  -10.0699997       1.42676242E-07
  -10.0600004       1.30855568E-07
  -10.0500002       1.19821493E-07
  -10.0400000       1.09655588E-07
  -10.0299997       1.00426512E-07
  -10.0200005       9.21870011E-08
  -10.0100002       8.49768824E-08
  -10.0000000       7.88207331E-08
  -9.98999977       7.37335952E-08
  -9.97999954       6.97242157E-08
  -9.97000027       6.67984423E-08
  -9.96000004       6.49692424E-08
  -9.94999981       6.42572289E-08
  -9.93999958       6.46932889E-08
  -9.93000031       6.63196928E-08
  -9.92000008       6.91855746E-08
  -9.90999985       7.33448076E-08
  -9.89999962       7.88502064E-08
  -9.89000034       8.57509050E-08
  -9.88000011       9.40901117E-08
  -9.86999989       1.03903780E-07
  -9.85999966       1.15220125E-07
  -9.85000038       1.28057351E-07
  -9.84000015       1.42423673E-07
  -9.82999992       1.58312957E-07
  -9.81999969       1.75700634E-07
  -9.81000042       1.94539368E-07
  -9.80000019       2.14756326E-07
  -9.78999996       2.36253626E-07
  -9.77999973       2.58910063E-07
  -9.77000046       2.82586001E-07
  -9.76000023       3.07133035E-07
  -9.75000000       3.32398628E-07
  -9.73999977       3.58235695E-07
  -9.72999954       3.84504489E-07
  -9.72000027       4.11077309E-07
  -9.71000004       4.37835354E-07
  -9.69999981       4.64667124E-07
  -9.68999958       4.91465869E-07
  -9.68000031       5.18127138E-07
  -9.67000008       5.44548129E-07
  -9.65999985       5.70630959E-07
  -9.64999962       5.96285076E-07
  -9.64000034       6.21433458E-07
  -9.63000011       6.46015337E-07
  -9.61999989       6.69993312E-07
  -9.60999966       6.93356071E-07
  -9.60000038       7.16118620E-07
  -9.59000015       7.38323365E-07
  -9.57999992       7.60037835E-07
  -9.56999969       7.81351218E-07
  -9.56000042       8.02371687E-07
  -9.55000019       8.23220205E-07
  -9.53999996       8.44026999E-07
  -9.52999973       8.64928211E-07
  -9.52000046       8.86059581E-07
  -9.51000023       9.07557137E-07
  -9.50000000       9.29549856E-07
  -9.48999977       9.52160065E-07
  -9.47999954       9.75499802E-07
  -9.47000027       9.99666440E-07
  -9.46000004       1.02474201E-06
  -9.44999981       1.05078709E-06
  -9.43999958       1.07783683E-06
  -9.43000031       1.10589804E-06
  -9.42000008       1.13494264E-06
  -9.40999985       1.16490537E-06
  -9.39999962       1.19568108E-06
  -9.39000034       1.22712470E-06
  -9.38000011       1.25904887E-06
  -9.36999989       1.29123066E-06
  -9.35999966       1.32341211E-06
  -9.35000038       1.35530843E-06
  -9.34000015       1.38661267E-06
  -9.32999992       1.41700275E-06
  -9.31999969       1.44614671E-06
  -9.31000042       1.47370667E-06
  -9.30000019       1.49934249E-06
  -9.28999996       1.52271309E-06
  -9.27999973       1.54347754E-06
  -9.27000046       1.56129431E-06
  -9.26000023       1.57582656E-06
  -9.25000000       1.58674197E-06
  -9.23999977       1.59371950E-06
  -9.22999954       1.59645276E-06
  -9.22000027       1.59466026E-06
  -9.21000004       1.58809087E-06
  -9.19999981       1.57652983E-06
  -9.18999958       1.55980320E-06
  -9.18000031       1.53778331E-06
  -9.17000008       1.51038637E-06
  -9.15999985       1.47757589E-06
  -9.14999962       1.43936120E-06
  -9.14000034       1.39579424E-06
  -9.13000011       1.34696859E-06
  -9.11999989       1.29301952E-06
  -9.10999966       1.23412042E-06
  -9.10000038       1.17048455E-06
  -9.09000015       1.10236476E-06
  -9.07999992       1.03005345E-06
  -9.06999969       9.53884410E-07
  -9.06000042       8.74237173E-07
  -9.05000019       7.91534774E-07
  -9.03999996       7.06249807E-07
  -9.02999973       6.18899548E-07
  -9.02000046       5.30046691E-07
  -9.01000023       4.40291927E-07
  -9.00000000       3.50268294E-07
  -8.98999977       2.60634692E-07
  -8.97999954       1.72068795E-07
  -8.97000027       8.52600550E-08
  -8.96000004       9.08278230E-10
  -8.94999981      -8.02783546E-08
  -8.93999958      -1.57583372E-07
  -8.93000031      -2.30283050E-07
  -8.92000008      -2.97648313E-07
  -8.90999985      -3.58946807E-07
  -8.89999962      -4.13449953E-07
  -8.89000034      -4.60440873E-07
  -8.88000011      -4.99220732E-07
  -8.86999989      -5.29118040E-07
  -8.85999966      -5.49495439E-07
  -8.85000038      -5.59754199E-07
  -8.84000015      -5.59338844E-07
  -8.82999992      -5.47740683E-07
  -8.81999969      -5.24501729E-07
  -8.81000042      -4.89217143E-07
  -8.80000019      -4.41539413E-07
  -8.78999996      -3.81181678E-07
  -8.77999973      -3.07919805E-07
  -8.77000046      -2.21591833E-07
  -8.76000023      -1.22098314E-07
  -8.75000000      -9.39661149E-09
  -8.73999977       1.16497311E-07
  -8.72999954       2.55515118E-07
  -8.72000027       4.07538039E-07
  -8.71000004       5.72396118E-07
  -8.69999981       7.49869628E-07
  -8.68999958       9.39691859E-07
  -8.68000031       1.14155978E-06
  -8.67000008       1.35513392E-06
  -8.65999985       1.58005173E-06
  -8.64999962       1.81593362E-06
  -8.64000034       2.06239201E-06
  -8.63000011       2.31903164E-06
  -8.61999989       2.58545015E-06
  -8.60999966       2.86123122E-06
  -8.60000038       3.14594263E-06
  -8.59000015       3.43913098E-06
  -8.57999992       3.74031401E-06
  -8.56999969       4.04898674E-06
  -8.56000042       4.36463142E-06
  -8.55000019       4.68671124E-06
  -8.53999996       5.01469049E-06
  -8.52999973       5.34803439E-06
  -8.52000046       5.68621772E-06
  -8.51000023       6.02871432E-06
  -8.50000000       6.37500489E-06
  -8.48999977       6.72456463E-06
  -8.47999954       7.07687786E-06
  -8.47000027       7.43142209E-06
  -8.46000004       7.78768572E-06
  -8.44999981       8.14516079E-06
  -8.43999958       8.50334800E-06
  -8.43000031       8.86176804E-06
  -8.42000008       9.21994979E-06
  -8.40999985       9.57743123E-06
  -8.39999962       9.93376580E-06
  -8.39000034       1.02885169E-05
  -8.38000011       1.06412563E-05
  -8.36999989       1.09915791E-05
  -8.35999966       1.13390988E-05
  -8.35000038       1.16834672E-05
  -8.34000015       1.20243549E-05
  -8.32999992       1.23614627E-05
  -8.31999969       1.26945133E-05
  -8.31000042       1.30232411E-05
  -8.30000019       1.33473677E-05
  -8.28999996       1.36666213E-05
  -8.27999973       1.39807053E-05
  -8.27000046       1.42893095E-05
  -8.26000023       1.45921158E-05
  -8.25000000       1.48887775E-05
  -8.23999977       1.51789536E-05
  -8.22999954       1.54622703E-05
  -8.22000027       1.57383547E-05
  -8.21000004       1.60067957E-05
  -8.19999981       1.62671731E-05
  -8.18999958       1.65190377E-05
  -8.18000031       1.67619055E-05
  -8.17000008       1.69953037E-05
  -8.15999985       1.72187320E-05
  -8.14999962       1.74317083E-05
  -8.14000034       1.76337398E-05
  -8.13000011       1.78243499E-05
  -8.11999989       1.80030565E-05
  -8.10999966       1.81693813E-05
  -8.10000038       1.83228567E-05
  -8.09000015       1.84630007E-05
  -8.07999992       1.85893496E-05
  -8.06999969       1.87014430E-05
  -8.06000042       1.87988426E-05
  -8.05000019       1.88811464E-05
  -8.03999996       1.89479797E-05
  -8.02999973       1.89989951E-05
  -8.02000046       1.90338906E-05
  -8.01000023       1.90523806E-05
  -8.00000000       1.90542160E-05
  -7.98999977       1.90391802E-05
  -7.98000002       1.90070878E-05
  -7.96999979       1.89578041E-05
  -7.96000004       1.88912381E-05
  -7.94999981       1.88073573E-05
  -7.94000006       1.87061905E-05
  -7.92999983       1.85878616E-05
  -7.92000008       1.84525234E-05
  -7.90999985       1.83004122E-05
  -7.90000010       1.81318319E-05
  -7.88999987       1.79471281E-05
  -7.88000011       1.77467427E-05
  -7.86999989       1.75311652E-05
  -7.86000013       1.73009666E-05
  -7.84999990       1.70567873E-05
  -7.84000015       1.67993458E-05
  -7.82999992       1.65294350E-05
  -7.82000017       1.62479046E-05
  -7.80999994       1.59556785E-05
  -7.80000019       1.56537280E-05
  -7.78999996       1.53430701E-05
  -7.78000021       1.50247624E-05
  -7.76999998       1.46999118E-05
  -7.76000023       1.43696579E-05
  -7.75000000       1.40351822E-05
  -7.73999977       1.36976851E-05
  -7.73000002       1.33583872E-05
  -7.71999979       1.30184826E-05
  -7.71000004       1.26792129E-05
  -7.69999981       1.23417640E-05
  -7.69000006       1.20073155E-05
  -7.67999983       1.16769806E-05
  -7.67000008       1.13518572E-05
  -7.65999985       1.10329856E-05
  -7.65000010       1.07213691E-05
  -7.63999987       1.04179526E-05
  -7.63000011       1.01236283E-05
  -7.61999989       9.83922655E-06
  -7.61000013       9.56551776E-06
  -7.59999990       9.30317947E-06
  -7.59000015       9.05283196E-06
  -7.57999992       8.81500728E-06
  -7.57000017       8.59017382E-06
  -7.55999994       8.37874268E-06
  -7.55000019       8.18105036E-06
  -7.53999996       7.99738518E-06
  -7.53000021       7.82800453E-06
  -7.51999998       7.67309575E-06
  -7.51000023       7.53283712E-06
  -7.50000000       7.40733230E-06
  -7.48999977       7.29667045E-06
  -7.48000002       7.20089793E-06
  -7.46999979       7.12002748E-06
  -7.46000004       7.05405682E-06
  -7.44999981       7.00294868E-06
  -7.44000006       6.96666939E-06