  -16.0000000       0.00000000    
  -15.9899998       0.00000000    
  -15.9799995       0.00000000    
  -15.9700003       0.00000000    
  -15.9600000       0.00000000    
  -15.9499998       0.00000000    
  -15.9399996       0.00000000    
  -15.9300003       0.00000000    
  -15.9200001       0.00000000    
  -15.9099998       0.00000000    
  -15.8999996       0.00000000    
  -15.8900003       0.00000000    
  -15.8800001       0.00000000    
  -15.8699999       0.00000000    
  -15.8599997       0.00000000    
  -15.8500004      -0.00000000    
  -15.8400002      -2.80259693E-45
  -15.8299999      -2.94272678E-44
  -15.8199997      -1.87773994E-43
  -15.8100004      -1.01033619E-42
  -15.8000002      -4.61307454E-42
  -15.7900000      -1.81692359E-41
  -15.7799997      -6.23549791E-41
  -15.7700005      -1.87261119E-40
  -15.7600002      -4.90965936E-40
  -15.7500000      -1.10927067E-39
  -15.7399998      -2.08368037E-39
  -15.7299995      -2.91834558E-39
  -15.7200003      -1.56495611E-39
  -15.7100000       7.29371647E-39
  -15.6999998       3.41393917E-38
  -15.6899996       9.46901541E-38
  -15.6800003       2.03971099E-37
  -15.6700001       3.58634361E-37
  -15.6599998       5.03846616E-37
  -15.6499996       4.91060631E-37
  -15.6400003       5.36548886E-38
  -15.6300001      -1.14555912E-36
  -15.6199999      -3.32555631E-36
  -15.6099997      -6.21744317E-36
  -15.6000004      -8.58810620E-36
  -15.5900002      -7.94222715E-36
  -15.5799999      -9.34141968E-37
  -15.5699997       1.48816466E-35
  -15.5600004       3.76948322E-35
  -15.5500002       5.73616735E-35
  -15.5400000       5.34851709E-35
  -15.5299997       7.07742627E-37
  -15.5200005      -1.13255173E-34
  -15.5100002      -2.55667128E-34
  -15.5000000      -3.14135850E-34
  -15.4899998      -9.10779222E-35
  -15.4799995       6.20420546E-34
  -15.4700003       1.82811412E-33
  -15.4600000       3.00456999E-33
  -15.4499998       2.76999825E-33
  -15.4399996      -1.04564732E-33
  -15.4300003      -1.04219461E-32
  -15.4200001      -2.48046411E-32
  -15.4099998      -3.76487301E-32
  -15.3999996      -3.35907532E-32
  -15.3900003       1.00148049E-32
  -15.3800001       1.12205156E-31
  -15.3699999       2.64938606E-31
  -15.3599997       4.01158794E-31
  -15.3500004       3.72208978E-31
  -15.3400002      -3.16793318E-32
  -15.3299999      -9.77662225E-31
  -15.3199997      -2.38447543E-30
  -15.3100004      -3.66148435E-30
  -15.3000002      -3.54808732E-30
  -15.2900000      -3.19124076E-31
  -15.2799997       7.35887901E-30
  -15.2700005       1.88334824E-29
  -15.2600002       2.95531693E-29
  -15.2500000       3.00117182E-29
  -15.2399998       7.40695955E-30
  -15.2299995      -4.81587720E-29
  -15.2200003      -1.32614312E-28
  -15.2100000      -2.15087904E-28
  -15.1999998      -2.31157479E-28
  -15.1899996      -9.39122321E-29
  -15.1800003       2.66278039E-28
  -15.1700001       8.32169581E-28
  -15.1599998       1.41973402E-27
  -15.1499996       1.63478057E-27
  -15.1400003       9.34019786E-28
  -15.1300001      -1.14780725E-27
  -15.1199999      -4.59853407E-27
  -15.1099997      -8.46334584E-27
  -15.1000004      -1.05661493E-26
  -15.0900002      -7.78105742E-27
  -15.0799999       2.81247325E-27
  -15.0699997       2.18344665E-26
  -15.0600004       4.50741285E-26
  -15.0500002       6.17574119E-26
  -15.0400000       5.54173553E-26
  -15.0299997       9.09176445E-27
  -15.0200005      -8.46548578E-26
  -15.0100002      -2.10945794E-25
  -15.0000000      -3.22502337E-25
  -14.9899998      -3.40552066E-25
  -14.9799995      -1.75171876E-25
  -14.9700003       2.31273630E-25
  -14.9600000       8.44593041E-25
  -14.9499998       1.48491223E-24
  -14.9399996       1.81372434E-24
  -14.9300003       1.40046407E-24
  -14.9200001      -1.08747878E-25
  -14.9099998      -2.73790112E-24
  -14.8999996      -5.92077620E-24
  -14.8900003      -8.37039165E-24
  -14.8800001      -8.24179155E-24
  -14.8699999      -3.70851676E-24
  -14.8599997       6.06423174E-24
  -14.8500004       1.97880946E-23
  -14.8400002       3.32437913E-23
  -14.8299999       3.94321022E-23
  -14.8199997       3.02425511E-23
  -14.8100004      -2.13234600E-25
  -14.8000002      -5.12044312E-23
  -14.7900000      -1.11435691E-22
  -14.7799997      -1.57790697E-22
  -14.7700005      -1.59055311E-22
  -14.7600002      -8.58685508E-23
  -14.7500000       7.41220964E-23
  -14.7399998       3.00038159E-22
  -14.7299995       5.27551349E-22
  -14.7200003       6.52985635E-22
  -14.7100000       5.58077464E-22
  -14.6999998       1.55669545E-22
  -14.6899996      -5.52916774E-22
  -14.6800003      -1.42852618E-21
  -14.6700001      -2.17956094E-21
  -14.6599998      -2.40743728E-21
  -14.6499996      -1.72385126E-21
  -14.6400003       7.42453480E-23
  -14.6300001       2.81880757E-21
  -14.6199999       5.84938549E-21
  -14.6099997       8.04137089E-21
  -14.6000004       8.04621200E-21
  -14.5900002       4.74550650E-21
  -14.5799999      -2.16930075E-21
  -14.5699997      -1.16747787E-20
  -14.5600004      -2.11955952E-20
  -14.5500002      -2.69183700E-20
  -14.5400000      -2.47551731E-20
  -14.5299997      -1.18577375E-20
  -14.5200005       1.16851370E-20
  -14.5100002       4.15684107E-20
  -14.5000000       6.91015504E-20
  -14.4899998       8.26895881E-20
  -14.4799995       7.10755200E-20
  -14.4700003       2.78062805E-20
  -14.4600000      -4.43115193E-20
  -14.4499998      -1.30487380E-19
  -14.4399996      -2.04681668E-19
  -14.4300003      -2.34865889E-19
  -14.4200001      -1.92555950E-19
  -14.4099998      -6.46537938E-20
  -14.3999996       1.35958753E-19
  -14.3900003       3.65450023E-19
  -14.3800001       5.53535617E-19
  -14.3699999       6.19139467E-19
  -14.3599997       4.95403018E-19
  -14.3500004       1.58207688E-19
  -14.3400002      -3.50831855E-19
  -14.3299999      -9.16906962E-19
  -14.3199997      -1.36773591E-18
  -14.3100004      -1.51427405E-18
  -14.3000002      -1.20994903E-18
  -14.2900000      -4.13486831E-19
  -14.2799997       7.65285634E-19
  -14.2700005       2.05736403E-18
  -14.2600002       3.07777921E-18
  -14.2500000       3.41984982E-18
  -14.2399998       2.78269493E-18
  -14.2299995       1.09819424E-18
  -14.2200003      -1.38511197E-18
  -14.2100000      -4.10006215E-18
  -14.1999998      -6.26209969E-18
  -14.1899996      -7.06571889E-18
  -14.1800003      -5.93474999E-18
  -14.1700001      -2.75768223E-18
  -14.1599998       1.97155707E-18
  -14.1499996       7.17366100E-18
  -14.1400003       1.13931383E-17
  -14.1300001       1.31695781E-17
  -14.1199999       1.14859711E-17
  -14.1099997       6.16724482E-18
  -14.1000004      -1.90656983E-18
  -14.0900002      -1.08744257E-17
  -14.0799999      -1.82847083E-17
  -14.0699997      -2.17356761E-17
  -14.0600004      -1.96084620E-17
  -14.0500002      -1.16792749E-17
  -14.0400000       5.99580471E-19
  -14.0299997       1.42893118E-17
  -14.0200005       2.56376888E-17
  -14.0100002       3.10977129E-17
  -14.0000000       2.84247713E-17
  -13.9899998       1.75216938E-17
  -13.9799995       7.33906538E-19
  -13.9700003      -1.75713461E-17
  -13.9600000      -3.21043983E-17
  -13.9499998      -3.81751397E-17
  -13.9399996      -3.32146302E-17
  -13.9300003      -1.78186102E-17
  -13.9200001       4.07537908E-18
  -13.9099998       2.60416375E-17
  -13.8999996       4.09111256E-17
  -13.8900003       4.29699880E-17
  -13.8800001       2.99768037E-17
  -13.8699999       4.34146778E-18
  -13.8599997      -2.70113745E-17
  -13.8500004      -5.42207296E-17
  -13.8400002      -6.72053080E-17
  -13.8299999      -5.88248500E-17
  -13.8199997      -2.75739218E-17
  -13.8100004       2.10723566E-17
  -13.8000002       7.52394618E-17
  -13.7900000       1.19232262E-16
  -13.7799997       1.37598451E-16
  -13.7700005       1.19671171E-16
  -13.7600002       6.33376364E-17
  -13.7500000      -2.31286912E-17
  -13.7399998      -1.21901263E-16
  -13.7299995      -2.09149124E-16
  -13.7200003      -2.60600301E-16
  -13.7100000      -2.57804827E-16
  -13.6999998      -1.93488226E-16
  -13.6899996      -7.45104377E-17
  -13.6800003       7.85141507E-17
  -13.6700001       2.35054687E-16
  -13.6599998       3.61177152E-16
  -13.6499996       4.27218166E-16
  -13.6400003       4.14747803E-16
  -13.6300001       3.21076838E-16
  -13.6199999       1.60162747E-16
  -13.6099997      -4.03207370E-17
  -13.6000004      -2.44994248E-16
  -13.5900002      -4.18319318E-16
  -13.5799999      -5.31761937E-16
  -13.5699997      -5.68812747E-16
  -13.5600004      -5.26755443E-16
  -13.5500002      -4.15033889E-16
  -13.5400000      -2.51062868E-16
  -13.5299997      -5.50526649E-17
  -13.5200005       1.54350711E-16
  -13.5100002       3.62169371E-16
  -13.5000000       5.56355115E-16
  -13.4899998       7.24732772E-16
  -13.4799995       8.51155139E-16
  -13.4700003       9.12956251E-16
  -13.4600000       8.81658437E-16
  -13.4499998       7.28016030E-16
  -13.4399996       4.31056973E-16
  -13.4300003      -1.08025760E-17
  -13.4200001      -5.69760947E-16
  -13.4099998      -1.18341917E-15
  -13.3999996      -1.75743942E-15
  -13.3900003      -2.17752287E-15
  -13.3800001      -2.32976412E-15
  -13.3699999      -2.12592649E-15
  -13.3599997      -1.52819651E-15
  -13.3500004      -5.67198196E-16
  -13.3400002       6.52183182E-16
  -13.3299999       1.96030571E-15
  -13.3199997       3.14736564E-15
  -13.3100004       3.99918898E-15
  -13.3000002       4.33731310E-15
  -13.2900000       4.05497796E-15
  -13.2799997       3.14109717E-15
  -13.2700005       1.68672657E-15
  -13.2600002      -1.27616221E-16
  -13.2500000      -2.06113397E-15
  -13.2399998      -3.85209874E-15
  -13.2299995      -5.25901708E-15
  -13.2200003      -6.09525290E-15
  -13.2100000      -6.25095619E-15
  -13.1999998      -5.69968894E-15
  -13.1899996      -4.49116816E-15
  -13.1800003      -2.73485255E-15
  -13.1700001      -5.80700801E-16
  -13.1599998       1.79704054E-15
  -13.1499996       4.20950557E-15
  -13.1400003       6.45634135E-15
  -13.1300001       8.32578838E-15
  -13.1199999       9.59737372E-15
  -13.1099997       1.00531503E-14
  -13.1000004       9.50118297E-15
  -13.0900002       7.81101427E-15
  -13.0799999       4.95598639E-15
  -13.0699997       1.05303295E-15
  -13.0600004      -3.61167395E-15
  -13.0500002      -8.58226149E-15
  -13.0400000      -1.32650628E-14
  -13.0299997      -1.69939678E-14
  -13.0200005      -1.91227310E-14
  -13.0100002      -1.91307406E-14
  -13.0000000      -1.67241929E-14
  -12.9899998      -1.19131745E-14
  -12.9799995      -5.04809995E-15
  -12.9700003       3.19496487E-15
  -12.9600000       1.18815971E-14
  -12.9499998       1.99313290E-14
  -12.9399996       2.62592411E-14
  -12.9300003       2.99259552E-14
  -12.9200001       3.02736047E-14
  -12.9099998       2.70279167E-14
  -12.8999996       2.03518639E-14
  -12.8900003       1.08439403E-14
  -12.8800001      -5.18213381E-16
  -12.8699999      -1.24813693E-14
  -12.8599997      -2.36549621E-14
  -12.8500004      -3.26686954E-14
  -12.8400002      -3.83333027E-14
  -12.8299999      -3.97885562E-14
  -12.8199997      -3.66236006E-14
  -12.8100004      -2.89565294E-14
  -12.8000002      -1.74615893E-14
  -12.7900000      -3.33582454E-15
  -12.7799997       1.17990029E-14
  -12.7700005       2.60566139E-14
  -12.7600002       3.74984298E-14
  -12.7500000       4.43781195E-14
  -12.7399998       4.53909303E-14
  -12.7299995       3.98944963E-14
  -12.7200003       2.80666502E-14
  -12.7100000       1.09705971E-14
  -12.6999998      -9.49199436E-15
  -12.6899996      -3.07442263E-14
  -12.6800003      -4.98012208E-14
  -12.6700001      -6.36126080E-14
  -12.6599998      -6.94404725E-14
  -12.6499996      -6.52265920E-14
  -12.6400003      -4.99057142E-14
  -12.6300001      -2.36280823E-14
  -12.6199999       1.21324629E-14
  -12.6099997       5.45953561E-14
  -12.6000004       9.98139559E-14
  -12.5900002       1.42929397E-13
  -12.5799999       1.78521708E-13
  -12.5699997       2.01038825E-13
  -12.5600004       2.05281796E-13
  -12.5500002       1.86921293E-13
  -12.5400000       1.43014222E-13
  -12.5299997       7.24842210E-14
  -12.5200005      -2.34786115E-14
  -12.5100002      -1.41144041E-13
  -12.5000000      -2.74139245E-13
  -12.4899998      -4.13545988E-13
  -12.4799995      -5.48212842E-13
  -12.4700003      -6.65270790E-13
  -12.4600000      -7.50813149E-13
  -12.4499998      -7.90685226E-13
  -12.4399996      -7.71316442E-13
  -12.4300003      -6.80524593E-13
  -12.4200001      -5.08230665E-13
  -12.4099998      -2.47060510E-13
  -12.3999996       1.07195997E-13
  -12.3900003       5.55255440E-13
  -12.3800001       1.09411915E-12
  -12.3699999       1.71695850E-12
  -12.3599997       2.41308514E-12
  -12.3500004       3.16800622E-12
  -12.3400002       3.96360332E-12
  -12.3299999       4.77845801E-12
  -12.3199997       5.58833362E-12
  -12.3100004       6.36681810E-12
  -12.3000002       7.08615371E-12
  -12.2900000       7.71815771E-12
  -12.2799997       8.23516342E-12
  -12.2700005       8.61095570E-12
  -12.2600002       8.82156240E-12
  -12.2500000       8.84584073E-12
  -12.2399998       8.66593602E-12
  -12.2299995       8.26744142E-12
  -12.2200003       7.63952183E-12
  -12.2100000       6.77489271E-12
  -12.1999998       5.66978452E-12
  -12.1899996       4.32409100E-12
  -12.1800003       2.74145398E-12
  -12.1700001       9.29530216E-13
  -12.1599998      -1.09976253E-12
  -12.1499996      -3.33004371E-12
  -12.1400003      -5.74032792E-12
  -12.1300001      -8.30507798E-12
  -12.1199999      -1.09943912E-11
  -12.1099997      -1.37743974E-11
  -12.1000004      -1.66077586E-11
  -12.0900002      -1.94542056E-11
  -12.0799999      -2.22710947E-11
  -12.0699997      -2.50139128E-11
  -12.0600004      -2.76367176E-11
  -12.0500002      -3.00925534E-11
  -12.0400000      -3.23338752E-11
  -12.0299997      -3.43131738E-11
  -12.0200005      -3.59836293E-11
  -12.0100002      -3.73001872E-11
  -12.0000000      -3.82205483E-11
  -11.9899998      -3.87065067E-11
  -11.9799995      -3.87251689E-11
  -11.9700003      -3.82500698E-11
  -11.9600000      -3.72621274E-11
  -11.9499998      -3.57499412E-11
  -11.9399996      -3.37100799E-11
  -11.9300003      -3.11466547E-11
  -11.9200001      -2.80707541E-11
  -11.9099998      -2.44995430E-11
  -11.8999996      -2.04553128E-11
  -11.8900003      -1.59646064E-11
  -11.8800001      -1.10573174E-11
  -11.8699999      -5.76604736E-12
  -11.8599997      -1.25729776E-13
  -11.8500004       5.82695697E-12
  -11.8400002       1.20533757E-11
  -11.8299999       1.85131632E-11
  -11.8199997       2.51640739E-11
  -11.8100004       3.19618186E-11
  -11.8000002       3.88596620E-11
  -11.7900000       4.58078991E-11
  -11.7799997       5.27534127E-11
  -11.7700005       5.96393213E-11
  -11.7600002       6.64043959E-11
  -11.7500000       7.29830710E-11
  -11.7399998       7.93055968E-11
  -11.7299995       8.52987611E-11
  -11.7200003       9.08868536E-11
  -11.7100000       9.59935118E-11
  -11.6999998       1.00543240E-10
  -11.6899996       1.04463445E-10
  -11.6800003       1.07686401E-10
  -11.6700001       1.10150729E-10
  -11.6599998       1.11802526E-10
  -11.6499996       1.12595912E-10
  -11.6400003       1.12493147E-10
  -11.6300001       1.11464164E-10
  -11.6199999       1.09486351E-10
  -11.6099997       1.06543371E-10
  -11.6000004       1.02624978E-10
  -11.5900002       9.77270001E-11
  -11.5799999       9.18504162E-11
  -11.5699997       8.50020748E-11
  -11.5600004       7.71951392E-11
  -11.5500002       6.84482124E-11
  -11.5400000       5.87860247E-11
  -11.5299997       4.82391696E-11
  -11.5200005       3.68432472E-11
  -11.5100002       2.46379705E-11
  -11.5000000       1.16673138E-11
  -11.4899998      -2.02169336E-12
  -11.4799995      -1.63787525E-11
  -11.4700003      -3.13504014E-11
  -11.4600000      -4.68792609E-11
  -11.4499998      -6.29035296E-11
  -11.4399996      -7.93565769E-11
  -11.4300003      -9.61668800E-11
  -11.4200001      -1.13257959E-10
  -11.4099998      -1.30548711E-10
  -11.3999996      -1.47954995E-10
  -11.3900003      -1.65390965E-10
  -11.3800001      -1.82770563E-10
  -11.3699999      -2.00009273E-10
  -11.3599997      -2.17024718E-10
  -11.3500004      -2.33738445E-10
  -11.3400002      -2.50075793E-10
  -11.3299999      -2.65966471E-10
  -11.3199997      -2.81344253E-10
  -11.3100004      -2.96148134E-10
  -11.3000002      -3.10321657E-10
  -11.2900000      -3.23813948E-10
  -11.2799997      -3.36580291E-10
  -11.2700005      -3.48582191E-10
  -11.2600002      -3.59787727E-10
  -11.2500000      -3.70171366E-10
  -11.2399998      -3.79713511E-10
  -11.2299995      -3.88398702E-10
  -11.2200003      -3.96215394E-10
  -11.2100000      -4.03153538E-10
  -11.1999998      -4.09205642E-10
  -11.1899996      -4.14365015E-10
  -11.1800003      -4.18626356E-10
  -11.1700001      -4.21986890E-10
  -11.1599998      -4.24447283E-10
  -11.1499996      -4.26012781E-10
  -11.1400003      -4.26692237E-10
  -11.1300001      -4.26500946E-10
  -11.1199999      -4.25456531E-10
  -11.1099997      -4.23581559E-10
  -11.1000004      -4.20898982E-10
  -11.0900002      -4.17434670E-10
  -11.0799999      -4.13212797E-10
  -11.0699997      -4.08258594E-10
  -11.0600004      -4.02597317E-10
  -11.0500002      -3.96255945E-10
  -11.0400000      -3.89266064E-10
  -11.0299997      -3.81661092E-10
  -11.0200005      -3.73481301E-10
  -11.0100002      -3.64768354E-10
  -11.0000000      -3.55571517E-10
  -10.9899998      -3.45939916E-10
  -10.9799995      -3.35923206E-10
  -10.9700003      -3.25573901E-10
  -10.9600000      -3.14936188E-10
  -10.9499998      -3.04052145E-10
  -10.9399996      -2.92959268E-10
  -10.9300003      -2.81684287E-10
  -10.9200001      -2.70252626E-10
  -10.9099998      -2.58678273E-10
  -10.8999996      -2.46967918E-10
  -10.8900003      -2.35127667E-10
  -10.8800001      -2.23153690E-10
  -10.8699999      -2.11040532E-10
  -10.8599997      -1.98776939E-10
  -10.8500004      -1.86345411E-10
  -10.8400002      -1.73731932E-10
  -10.8299999      -1.60914226E-10
  -10.8199997      -1.47873866E-10
  -10.8100004      -1.34593850E-10
  -10.8000002      -1.21061050E-10
  -10.7900000      -1.07265641E-10
  -10.7799997      -9.32154978E-11
  -10.7700005      -7.89234025E-11
  -10.7600002      -6.44125864E-11
  -10.7500000      -4.97259456E-11
  -10.7399998      -3.49126110E-11
  -10.7299995      -2.00385888E-11
  -10.7200003      -5.17341682E-12
  -10.7100000       9.60428351E-12
  -10.6999998       2.42156278E-11
  -10.6899996       3.85793515E-11
  -10.6800003       5.26167512E-11
  -10.6700001       6.62451899E-11
  -10.6599998       7.93958232E-11
  -10.6499996       9.19994705E-11
  -10.6400003       1.03987680E-10
  -10.6300001       1.15300630E-10
  -10.6199999       1.25883429E-10
  -10.6099997       1.35683270E-10
  -10.6000004       1.44653012E-10
  -10.5900002       1.52748314E-10
  -10.5799999       1.59934135E-10
  -10.5699997       1.66174990E-10
  -10.5600004       1.71443318E-10
  -10.5500002       1.75715678E-10
  -10.5400000       1.78971740E-10
  -10.5299997       1.81186344E-10
  -10.5200005       1.82342405E-10
  -10.5100002       1.82421647E-10
  -10.5000000       1.81400908E-10
  -10.4899998       1.79274109E-10
  -10.4799995       1.76030870E-10
  -10.4700003       1.71671066E-10
  -10.4600000       1.66214847E-10
  -10.4499998       1.59677105E-10
  -10.4399996       1.52095184E-10
  -10.4300003       1.43513423E-10
  -10.4200001       1.33978759E-10
  -10.4099998       1.23554611E-10
  -10.3999996       1.12294708E-10
  -10.3900003       1.00262749E-10
  -10.3800001       8.75170561E-11
  -10.3699999       7.41217712E-11
  -10.3599997       6.01385955E-11
  -10.3500004       4.56366889E-11
  -10.3400002       3.06955399E-11
  -10.3299999       1.53840725E-11
  -10.3199997      -2.11368778E-13
  -10.3100004      -1.60082694E-11
  -10.3000002      -3.19176352E-11
  -10.2900000      -4.78527391E-11
  -10.2799997      -6.37396039E-11
  -10.2700005      -7.95149918E-11
  -10.2600002      -9.51106277E-11
  -10.2500000      -1.10480479E-10
  -10.2399998      -1.25579658E-10
  -10.2299995      -1.40376807E-10
  -10.2200003      -1.54840585E-10
  -10.2100000      -1.68949105E-10
  -10.1999998      -1.82687074E-10
  -10.1899996      -1.96037131E-10
  -10.1800003      -2.08991269E-10
  -10.1700001      -2.21549237E-10
  -10.1599998      -2.33718045E-10
  -10.1499996      -2.45520798E-10
  -10.1400003      -2.56979854E-10
  -10.1300001      -2.68132072E-10
  -10.1199999      -2.79014534E-10
  -10.1099997      -2.89682195E-10
  -10.1000004      -3.00191844E-10
  -10.0900002      -3.10595605E-10
  -10.0799999      -3.20963700E-10
  -10.0699997      -3.31365629E-10
  -10.0600004      -3.41879247E-10
  -10.0500002      -3.52589680E-10
  -10.0400000      -3.63591546E-10
  -10.0299997      -3.74982739E-10
  -10.0200005      -3.86867233E-10
  -10.0100002      -3.99344086E-10
  -10.0000000      -4.12509749E-10
  -9.98999977      -4.26458202E-10
  -9.97999954      -4.41278319E-10
  -9.97000027      -4.57048982E-10
  -9.96000004      -4.73841910E-10
  -9.94999981      -4.91708674E-10
  -9.93999958      -5.10716747E-10
  -9.93000031      -5.30920696E-10
  -9.92000008      -5.52376256E-10
  -9.90999985      -5.75141434E-10
  -9.89999962      -5.99270966E-10
  -9.89000034      -6.24813812E-10
  -9.88000011      -6.51808829E-10
  -9.86999989      -6.80308865E-10
  -9.85999966      -7.10341730E-10
  -9.85000038      -7.41941508E-10
  -9.84000015      -7.75114584E-10
  -9.82999992      -8.09886880E-10
  -9.81999969      -8.46252457E-10
  -9.81000042      -8.84209927E-10
  -9.80000019      -9.23756183E-10
  -9.78999996      -9.64878066E-10
  -9.77999973      -1.00757847E-09
  -9.77000046      -1.05183007E-09
  -9.76000023      -1.09762643E-09
  -9.75000000      -1.14493071E-09
  -9.73999977      -1.19371402E-09
  -9.72999954      -1.24390498E-09
  -9.72000027      -1.29543232E-09
  -9.71000004      -1.34820877E-09
  -9.69999981      -1.40212220E-09
  -9.68999958      -1.45704127E-09
  -9.68000031      -1.51283186E-09
  -9.67000008      -1.56933377E-09
  -9.65999985      -1.62638303E-09
  -9.64999962      -1.68380587E-09
  -9.64000034      -1.74142922E-09
  -9.63000011      -1.79904991E-09
  -9.61999989      -1.85649585E-09
  -9.60999966      -1.91354310E-09
  -9.60000038      -1.97001593E-09
  -9.59000015      -2.02570827E-09
  -9.57999992      -2.08041695E-09
  -9.56999969      -2.13391926E-09
  -9.56000042      -2.18602003E-09
  -9.55000019      -2.23650165E-09
  -9.53999996      -2.28514629E-09
  -9.52999973      -2.33174657E-09
  -9.52000046      -2.37607489E-09
  -9.51000023      -2.41790743E-09
  -9.50000000      -2.45701703E-09
  -9.48999977      -2.49319143E-09
  -9.47999954      -2.52623766E-09
  -9.47000027      -2.55598609E-09
  -9.46000004      -2.58226862E-09
  -9.44999981      -2.60500288E-09
  -9.43999958      -2.62412292E-09
  -9.43000031      -2.63965871E-09
  -9.42000008      -2.65170153E-09
  -9.40999985      -2.66040834E-09
  -9.39999962      -2.66599409E-09
  -9.39000034      -2.66872391E-09
  -9.38000011      -2.66892042E-09
  -9.36999989      -2.66695754E-09
  -9.35999966      -2.66320033E-09
  -9.35000038      -2.65807731E-09
  -9.34000015      -2.65204969E-09
  -9.32999992      -2.64555933E-09
  -9.31999969      -2.63911648E-09
  -9.31000042      -2.63324207E-09
  -9.30000019      -2.62843702E-09
  -9.28999996      -2.62527888E-09
  -9.27999973      -2.62432476E-09
  -9.27000046      -2.62612643E-09
  -9.26000023      -2.63126942E-09
  -9.25000000      -2.64029398E-09
  -9.23999977      -2.65374855E-09
  -9.22999954      -2.67217581E-09
  -9.22000027      -2.69605693E-09
  -9.21000004      -2.72587464E-09
  -9.19999981      -2.76200729E-09
  -9.18999958      -2.80488588E-09
  -9.18000031      -2.85477242E-09
  -9.17000008      -2.91197089E-09
  -9.15999985      -2.97659675E-09
  -9.14999962      -3.04876346E-09
  -9.14000034      -3.12850612E-09
  -9.13000011      -3.21573457E-09
  -9.11999989      -3.31034578E-09
  -9.10999966      -3.41207373E-09
  -9.10000038      -3.52063934E-09
  -9.09000015      -3.63569619E-09
  -9.07999992      -3.75676201E-09
  -9.06999969      -3.88335275E-09
  -9.06000042      -4.01484979E-09
  -9.05000019      -4.15062695E-09
  -9.03999996      -4.28998881E-09
  -9.02999973      -4.43217330E-09
  -9.02000046      -4.57636240E-09
  -9.01000023      -4.72174033E-09
  -9.00000000      -4.86743712E-09
  -8.98999977      -5.01254860E-09
  -8.97999954      -5.15616971E-09
  -8.97000027      -5.29741184E-09
  -8.96000004      -5.43538592E-09
  -8.94999981      -5.56919355E-09
  -8.93999958      -5.69796210E-09
  -8.93000031      -5.82090731E-09
  -8.92000008      -5.93721428E-09
  -8.90999985      -6.04615868E-09
  -8.89999962      -6.14700646E-09
  -8.89000034      -6.23915763E-09
  -8.88000011      -6.32202468E-09
  -8.86999989      -6.39509512E-09
  -8.85999966      -6.45796661E-09
  -8.85000038      -6.51022347E-09
  -8.84000015      -6.55164234E-09
  -8.82999992      -6.58200516E-09
  -8.81999969      -6.60118094E-09
  -8.81000042      -6.60909993E-09
  -8.80000019      -6.60581190E-09
  -8.78999996      -6.59145671E-09
  -8.77999973      -6.56619736E-09
  -8.77000046      -6.53027721E-09
  -8.76000023      -6.48404352E-09
  -8.75000000      -6.42787734E-09
  -8.73999977      -6.36225694E-09
  -8.72999954      -6.28767927E-09
  -8.72000027      -6.20464791E-09
  -8.71000004      -6.11379303E-09
  -8.69999981      -6.01570882E-09
  -8.68999958      -5.91103744E-09
  -8.68000031      -5.80041970E-09
  -8.67000008      -5.68453284E-09
  -8.65999985      -5.56401236E-09
  -8.64999962      -5.43956569E-09
  -8.64000034      -5.31189670E-09
  -8.63000011      -5.18160581E-09
  -8.61999989      -5.04933917E-09
  -8.60999966      -4.91576868E-09
  -8.60000038      -4.78150008E-09
  -8.59000015      -4.64705563E-09
  -8.57999992      -4.51299664E-09
  -8.56999969      -4.37983960E-09
  -8.56000042      -4.24801838E-09
  -8.55000019      -4.11803214E-09
  -8.53999996      -3.99021571E-09
  -8.52999973      -3.86491861E-09
  -8.52000046      -3.74246145E-09
  -8.51000023      -3.62317087E-09
  -8.50000000      -3.50716234E-09
  -8.48999977      -3.39478845E-09
  -8.47999954      -3.28622929E-09
  -8.47000027      -3.18161342E-09
  -8.46000004      -3.08106274E-09
  -8.44999981      -2.98475533E-09
  -8.43999958      -2.89279356E-09
  -8.43000031      -2.80520807E-09
  -8.42000008      -2.72210099E-09
  -8.40999985      -2.64342526E-09
  -8.39999962      -2.56918886E-09
  -8.39000034      -2.49939958E-09
  -8.38000011      -2.43401521E-09
  -8.36999989      -2.37294584E-09
  -8.35999966      -2.31616992E-09
  -8.35000038      -2.26365082E-09
  -8.34000015      -2.21536678E-09
  -8.32999992      -2.17121565E-09
  -8.31999969      -2.13113482E-09
  -8.31000042      -2.09514761E-09
  -8.30000019      -2.06325979E-09
  -8.28999996      -2.03548933E-09
  -8.27999973      -2.01179562E-09
  -8.27000046      -1.99219130E-09
  -8.26000023      -1.97690175E-09
  -8.25000000      -1.96592009E-09
  -8.23999977      -1.95934757E-09
  -8.22999954      -1.95738048E-09
  -8.22000027      -1.96016736E-09
  -8.21000004      -1.96782368E-09
  -8.19999981      -1.98052885E-09
  -8.18999958      -1.99849892E-09
  -8.18000031      -2.02199701E-09
  -8.17000008      -2.05115680E-09
  -8.15999985      -2.08620188E-09
  -8.14999962      -2.12744689E-09
  -8.14000034      -2.17503127E-09
  -8.13000011      -2.22918639E-09
  -8.11999989      -2.28999664E-09
  -8.10999966      -2.35774511E-09
  -8.10000038      -2.43246401E-09
  -8.09000015      -2.51422216E-09
  -8.07999992      -2.60304978E-09
  -8.06999969      -2.69889511E-09
  -8.06000042      -2.80175350E-09
  -8.05000019      -2.91148794E-09
  -8.03999996      -3.02798653E-09
  -8.02999973      -3.15098636E-09
  -8.02000046      -3.28030714E-09
  -8.01000023      -3.41561868E-09
  -8.00000000      -3.55662610E-09
  -7.98999977      -3.70284425E-09
  -7.98000002      -3.85395671E-09
  -7.96999979      -4.00952604E-09
  -7.96000004      -4.16906376E-09
  -7.94999981      -4.33210445E-09
  -7.94000006      -4.49804505E-09
  -7.92999983      -4.66642591E-09
  -7.92000008      -4.83669016E-09
  -7.90999985      -5.00831510E-09
  -7.90000010      -5.18059862E-09
  -7.88999987      -5.35305844E-09
  -7.88000011      -5.52516699E-09
  -7.86999989      -5.69628966E-09
  -7.86000013      -5.86598814E-09
  -7.84999990      -6.03381878E-09
  -7.84000015      -6.19932017E-09
  -7.82999992      -6.36215125E-09
  -7.82000017      -6.52186616E-09
  -7.80999994      -6.67815625E-09
  -7.80000019      -6.83075285E-09
  -7.78999996      -6.97938463E-09
  -7.78000021      -7.12388726E-09
  -7.76999998      -7.26395788E-09
  -7.76000023      -7.39973727E-09
  -7.75000000      -7.53082752E-09
  -7.73999977      -7.65734054E-09
  -7.73000002      -7.77926612E-09
  -7.71999979      -7.89659893E-09
  -7.71000004      -8.00932476E-09
  -7.69999981      -8.11756617E-09
  -7.69000006      -8.22142354E-09
  -7.67999983      -8.32101943E-09
  -7.67000008      -8.41663272E-09
  -7.65999985      -8.50842063E-09
  -7.65000010      -8.59664340E-09
  -7.63999987      -8.68155503E-09
  -7.63000011      -8.76364137E-09
  -7.61999989      -8.84302320E-09
  -7.61000013      -8.92022189E-09
  -7.59999990      -8.99563890E-09
  -7.59000015      -9.06966235E-09
  -7.57999992      -9.14270615E-09
  -7.57000017      -9.21535914E-09
  -7.55999994      -9.28810717E-09
  -7.55000019      -9.36141742E-09
  -7.53999996      -9.43580414E-09
  -7.53000021      -9.51190948E-09
  -7.51999998      -9.59021396E-09
  -7.51000023      -9.67122737E-09
  -7.50000000      -9.75546222E-09
  -7.48999977      -9.84341142E-09
  -7.48000002      -9.93564964E-09
  -7.46999979      -1.00325650E-08
  -7.46000004      -1.01344853E-08
  -7.44999981      -1.02420223E-08
  -7.44000006      -1.03553823E-08