  -16.0000000       0.00000000    
  -15.9899998       0.00000000    
  -15.9799995       0.00000000    
  -15.9700003       0.00000000    
  -15.9600000       0.00000000    
  -15.9499998       0.00000000    
  -15.9399996       0.00000000    
  -15.9300003       0.00000000    
  -15.9200001       0.00000000    
  -15.9099998       0.00000000    
  -15.8999996       0.00000000    
  -15.8900003       0.00000000    
  -15.8800001       0.00000000    
  -15.8699999       0.00000000    
  -15.8599997       0.00000000    
  -15.8500004       9.80908925E-45
  -15.8400002       1.35925951E-43
  -15.8299999       1.30881277E-42
  -15.8199997       9.84131911E-42
  -15.8100004       6.05192781E-41
  -15.8000002       3.13895060E-40
  -15.7900000       1.40519828E-39
  -15.7799997       5.52316185E-39
  -15.7700005       1.93078021E-38
  -15.7600002       6.06105138E-38
  -15.7500000       1.72048387E-37
  -15.7399998       4.43634682E-37
  -15.7299995       1.04142681E-36
  -15.7200003       2.22449714E-36
  -15.7100000       4.30531335E-36
  -15.6999998       7.47374774E-36
  -15.6899996       1.13862505E-35
  -15.6800003       1.44710443E-35
  -15.6700001       1.30893836E-35
  -15.6599998       1.07300943E-36
  -15.6499996      -2.93374290E-35
  -15.6400003      -8.37914471E-35
  -15.6300001      -1.58419835E-34
  -15.6199999      -2.29661796E-34
  -15.6099997      -2.45967486E-34
  -15.6000004      -1.30614113E-34
  -15.5900002       1.92590790E-34
  -15.5799999       7.43378679E-34
  -15.5699997       1.40760848E-33
  -15.5600004       1.87479814E-33
  -15.5500002       1.65561914E-33
  -15.5400000       2.50478607E-34
  -15.5299997      -2.50639346E-33
  -15.5200005      -6.01865230E-33
  -15.5100002      -8.66541522E-33
  -15.5000000      -8.06542600E-33
  -15.4899998      -2.14858400E-33
  -15.4799995       9.07506545E-33
  -15.4700003       2.18296942E-32
  -15.4600000       2.84002256E-32
  -15.4499998       1.99454619E-32
  -15.4399996      -7.39346935E-33
  -15.4300003      -4.52994381E-32
  -15.4200001      -7.01733041E-32
  -15.4099998      -5.05335206E-32
  -15.3999996       3.18598671E-32
  -15.3900003       1.53037704E-31
  -15.3800001       2.28597775E-31
  -15.3699999       1.33467051E-31
  -15.3599997      -2.20053318E-31
  -15.3500004      -7.57548745E-31
  -15.3400002      -1.13656762E-30
  -15.3299999      -7.76327455E-31
  -15.3199997       8.58049280E-31
  -15.3100004       3.69673902E-30
  -15.3000002       6.43086214E-30
  -15.2900000       6.28007951E-30
  -15.2799997      -1.91661439E-31
  -15.2700005      -1.47595281E-29
  -15.2600002      -3.40379831E-29
  -15.2500000      -4.64403189E-29
  -15.2399998      -3.26332007E-29
  -15.2299995       2.70432613E-29
  -15.2200003       1.36587084E-28
  -15.2100000       2.63273877E-28
  -15.1999998       3.22754322E-28
  -15.1899996       1.88721803E-28
  -15.1800003      -2.53909259E-28
  -15.1700001      -1.00676630E-27
  -15.1599998      -1.83273920E-27
  -15.1499996      -2.17836158E-27
  -15.1400003      -1.25247086E-27
  -15.1300001       1.63444796E-27
  -15.1199999       6.45136111E-27
  -15.1099997       1.17157546E-26
  -15.1000004       1.40695191E-26
  -15.0900002       8.77869915E-27
  -15.0799999      -8.27641354E-27
  -15.0699997      -3.70598718E-26
  -15.0600004      -6.92660735E-26
  -15.0500002      -8.59613593E-26
  -15.0400000      -6.03119784E-26
  -15.0299997       3.16379291E-26
  -15.0200005       1.91928256E-25
  -15.0100002       3.78609970E-25
  -15.0000000       4.92705314E-25
  -14.9899998       3.91147682E-25
  -14.9799995      -5.94508566E-26
  -14.9700003      -8.87130886E-25
  -14.9600000      -1.90242110E-24
  -14.9499998      -2.62778284E-24
  -14.9399996      -2.34970721E-24
  -14.9300003      -3.64702575E-25
  -14.9200001       3.57271712E-24
  -14.9099998       8.71210726E-24
  -14.8999996       1.29387136E-23
  -14.8900003       1.29387080E-23
  -14.8800001       5.22566076E-24
  -14.8699999      -1.19094142E-23
  -14.8599997      -3.59695992E-23
  -14.8500004      -5.84191574E-23
  -14.8400002      -6.49835530E-23
  -14.8299999      -3.95215653E-23
  -14.8199997       2.81050630E-23
  -14.8100004       1.31740642E-22
  -14.8000002       2.40332748E-22
  -14.7900000       2.97115486E-22
  -14.7799997       2.32602794E-22
  -14.7700005      -6.10201738E-24
  -14.7600002      -4.14513942E-22
  -14.7500000      -8.92976105E-22
  -14.7399998      -1.23452435E-21
  -14.7299995      -1.16230044E-21
  -14.7200003      -4.29501921E-22
  -14.7100000       1.03011976E-21
  -14.6999998       2.94779463E-21
  -14.6899996       4.63983256E-21
  -14.6800003       5.09147923E-21
  -14.6700001       3.26452241E-21
  -14.6599998      -1.38961254E-21
  -14.6499996      -8.34574751E-21
  -14.6400003      -1.56018380E-20
  -14.6300001      -1.97682709E-20
  -14.6199999      -1.68987361E-20
  -14.6099997      -4.08932932E-21
  -14.6000004       1.84909877E-20
  -14.5900002       4.58788457E-20
  -14.5799999       6.79121551E-20
  -14.5699997       7.10793005E-20
  -14.5600004       4.29955202E-20
  -14.5500002      -2.11636551E-20
  -14.5400000      -1.12227704E-19
  -14.5299997      -2.03592517E-19
  -14.5200005      -2.53962026E-19
  -14.5100002      -2.18256981E-19
  -14.5000000      -6.59588198E-20
  -14.4899998       1.97600123E-19
  -14.4799995       5.15070323E-19
  -14.4700003       7.75820606E-19
  -14.4600000       8.37510237E-19
  -14.4499998       5.72175616E-19
  -14.4399996      -7.14383873E-20
  -14.4300003      -1.00855961E-18
  -14.4200001      -1.98901596E-18
  -14.4099998      -2.62427620E-18
  -14.3999996      -2.48535535E-18
  -14.3900003      -1.26253921E-18
  -14.3800001       1.05212731E-18
  -14.3699999       4.02521223E-18
  -14.3599997       6.76129699E-18
  -14.3500004       8.06110585E-18
  -14.3400002       6.77013003E-18
  -14.3299999       2.25722452E-18
  -14.3199997      -5.11446434E-18
  -14.3100004      -1.37142749E-17
  -14.3000002      -2.07557367E-17
  -14.2900000      -2.29023349E-17
  -14.2799997      -1.73255047E-17
  -14.2700005      -2.98162753E-18
  -14.2600002       1.82972087E-17
  -14.2500000       4.13825689E-17
  -14.2399998       5.85054392E-17
  -14.2299995       6.11345566E-17
  -14.2200003       4.28188257E-17
  -14.2100000       2.28689445E-18
  -14.1999998      -5.42400989E-17
  -14.1899996      -1.12630553E-16
  -14.1800003      -1.53108643E-16
  -14.1700001      -1.55285306E-16
  -14.1599998      -1.05072624E-16
  -14.1499996      -1.65503745E-18
  -14.1400003       1.37896752E-16
  -14.1300001       2.78698536E-16
  -14.1199999       3.74215450E-16
  -14.1099997       3.78243410E-16
  -14.1000004       2.60375016E-16
  -14.0900002       2.07783634E-17
  -14.0799999      -3.00815731E-16
  -14.0699997      -6.26494526E-16
  -14.0600004      -8.54298214E-16
  -14.0500002      -8.83960037E-16
  -14.0400000      -6.49041960E-16
  -14.0299997      -1.46894532E-16
  -14.0200005       5.43558142E-16
  -14.0100002       1.26479553E-15
  -14.0000000       1.80856040E-15
  -13.9899998       1.96598168E-15
  -13.9799995       1.58990805E-15
  -13.9700003       6.53451561E-16
  -13.9600000      -7.13576924E-16
  -13.9499998      -2.22595388E-15
  -13.9399996      -3.48974758E-15
  -13.9300003      -4.09038690E-15
  -13.9200001      -3.70525796E-15
  -13.9099998      -2.21369710E-15
  -13.8999996       2.27123335E-16
  -13.8900003       3.16808131E-15
  -13.8800001       5.93119194E-15
  -13.8699999       7.74668636E-15
  -13.8599997       7.94010972E-15
  -13.8500004       6.12795854E-15
  -13.8400002       2.37139748E-15
  -13.8299999      -2.75922719E-15
  -13.8199997      -8.24017792E-15
  -13.8100004      -1.27748095E-14
  -13.8000002      -1.50717231E-14
  -13.7900000      -1.41648363E-14
  -13.7799997      -9.70148424E-15
  -13.7700005      -2.12294832E-15
  -13.7600002       7.32102774E-15
  -13.7500000       1.67487043E-14
  -13.7399998       2.39952711E-14
  -13.7299995       2.70723029E-14
  -13.7200003       2.46429820E-14
  -13.7100000       1.64053680E-14
  -13.6999998       3.28717838E-15
  -13.6899996      -1.26094076E-14
  -13.6800003      -2.83228844E-14
  -13.6700001      -4.05602303E-14
  -13.6599998      -4.63410540E-14
  -13.6499996      -4.36316090E-14
  -13.6400003      -3.18395009E-14
  -13.6300001      -1.20642191E-14
  -13.6199999       1.29546955E-14
  -13.6099997       3.91930310E-14
  -13.6000004       6.19467314E-14
  -13.5900002       7.65903657E-14
  -13.5799999       7.93717441E-14
  -13.5699997       6.81241901E-14
  -13.5600004       4.27934530E-14
  -13.5500002       5.69999175E-15
  -13.5400000      -3.85167599E-14
  -13.5299997      -8.32995104E-14
  -13.5200005      -1.20920336E-13
  -13.5100002      -1.43539382E-13
  -13.5000000      -1.44492803E-13
  -13.4899998      -1.19665196E-13
  -13.4799995      -6.87365746E-14
  -13.4700003       3.96030763E-15
  -13.4600000       8.92470166E-14
  -13.4499998       1.73795548E-13
  -13.4399996       2.41809150E-13
  -13.4300003       2.77586114E-13
  -13.4200001       2.68631580E-13
  -13.4099998       2.08765649E-13
  -13.3999996       1.00544932E-13
  -13.3900003      -4.36785075E-14
  -13.3800001      -2.02558673E-13
  -13.3699999      -3.48577449E-13
  -13.3599997      -4.52608843E-13
  -13.3500004      -4.89501289E-13
  -13.3400002      -4.43614899E-13
  -13.3299999      -3.13116801E-13
  -13.3199997      -1.11964406E-13
  -13.3100004       1.31099843E-13
  -13.3000002       3.76637577E-13
  -13.2900000       5.81122444E-13
  -13.2799997       7.04924996E-13
  -13.2700005       7.20153104E-13
  -13.2600002       6.16760278E-13
  -13.2500000       4.05588540E-13
  -13.2399998       1.17554919E-13
  -13.2299995      -2.01086272E-13
  -13.2200003      -4.96710203E-13
  -13.2100000      -7.18160665E-13
  -13.1999998      -8.26668486E-13
  -13.1899996      -8.03920298E-13
  -13.1800003      -6.56564972E-13
  -13.1700001      -4.15968475E-13
  -13.1599998      -1.32827289E-13
  -13.1499996       1.32790927E-13
  -13.1400003       3.24442106E-13
  -13.1300001       4.02959675E-13
  -13.1199999       3.57876868E-13
  -13.1099997       2.13722825E-13
  -13.1000004       2.88800762E-14
  -13.0900002      -1.14113553E-13
  -13.0799999      -1.26222275E-13
  -13.0699997       6.49839815E-14
  -13.0600004       4.91063733E-13
  -13.0500002       1.12270946E-12
  -13.0400000       1.85962747E-12
  -13.0299997       2.53478835E-12
  -13.0200005       2.93529328E-12
  -13.0100002       2.83883355E-12
  -13.0000000       2.06122185E-12
  -12.9899998       5.07308171E-13
  -12.9799995      -1.78452728E-12
  -12.9700003      -4.61433973E-12
  -12.9600000      -7.61764003E-12
  -12.9499998      -1.02926062E-11
  -12.9399996      -1.20579597E-11
  -12.9300003      -1.23367020E-11
  -12.9200001      -1.06558590E-11
  -12.9099998      -6.74857479E-12
  -12.8999996      -6.42632052E-13
  -12.8900003       7.28056677E-12
  -12.8800001       1.62703098E-11
  -12.8699999       2.52436214E-11
  -12.8599997       3.28783112E-11
  -12.8500004       3.77577761E-11
  -12.8400002       3.85552146E-11
  -12.8299999       3.42370264E-11
  -12.8199997       2.42592647E-11
  -12.8100004       8.72749269E-12
  -12.8000002      -1.15083871E-11
  -12.7900000      -3.48468442E-11
  -12.7799997      -5.90268390E-11
  -12.7700005      -8.13166479E-11
  -12.7600002      -9.87806364E-11
  -12.7500000      -1.08591497E-10
  -12.7399998      -1.08346485E-10
  -12.7299995      -9.63449182E-11
  -12.7200003      -7.17928147E-11
  -12.7100000      -3.49155149E-11
  -12.6999998       1.30199627E-11
  -12.6899996       6.97523983E-11
  -12.6800003       1.32110017E-10
  -12.6700001       1.96095667E-10
  -12.6599998       2.56950766E-10
  -12.6499996       3.09198528E-10
  -12.6400003       3.46697948E-10
  -12.6300001       3.62766955E-10
  -12.6199999       3.50450363E-10
  -12.6099997       3.03004954E-10
  -12.6000004       2.14648480E-10
  -12.5900002       8.15718465E-11
  -12.5799999      -9.68500627E-11
  -12.5699997      -3.16776494E-10
  -12.5600004      -5.68732006E-10
  -12.5500002      -8.36767600E-10
  -12.5400000      -1.09816745E-09
  -12.5299997      -1.32388611E-09
  -12.5200005      -1.47984502E-09
  -12.5100002      -1.52912549E-09
  -12.5000000      -1.43501699E-09
  -12.4899998      -1.16478871E-09
  -12.4799995      -6.93977098E-10
  -12.4700003      -1.09268098E-11
  -12.4600000       8.78720152E-10
  -12.4499998       1.94792027E-09
  -12.4399996       3.14483950E-09
  -12.4300003       4.39052661E-09
  -12.4200001       5.57793101E-09
  -12.4099998       6.57255494E-09
  -12.3999996       7.21488869E-09
  -12.3900003       7.32471106E-09
  -12.3800001       6.70722278E-09
  -12.3699999       5.16080156E-09
  -12.3599997       2.48607934E-09
  -12.3500004      -1.50412105E-09
  -12.3400002      -6.97442992E-09
  -12.3299999      -1.40567984E-08
  -12.3199997      -2.28410215E-08
  -12.3100004      -3.33664580E-08
  -12.3000002      -4.56153444E-08
  -12.2900000      -5.95081282E-08
  -12.2799997      -7.49009104E-08
  -12.2700005      -9.15853278E-08
  -12.2600002      -1.09290859E-07
  -12.2500000      -1.27689404E-07
  -12.2399998      -1.46402101E-07
  -12.2299995      -1.65007776E-07
  -12.2200003      -1.83052919E-07
  -12.2100000      -2.00062061E-07
  -12.1999998      -2.15548383E-07
  -12.1899996      -2.29023911E-07
  -12.1800003      -2.40008717E-07
  -12.1700001      -2.48038901E-07
  -12.1599998      -2.52673743E-07
  -12.1499996      -2.53502037E-07
  -12.1400003      -2.50147679E-07
  -12.1300001      -2.42275462E-07
  -12.1199999      -2.29596836E-07
  -12.1099997      -2.11875843E-07
  -12.1000004      -1.88934820E-07
  -12.0900002      -1.60659823E-07
  -12.0799999      -1.27004910E-07
  -12.0699997      -8.79946711E-08
  -12.0600004      -4.37255387E-08
  -12.0500002       5.63507507E-09
  -12.0400000       5.98504712E-08
  -12.0299997       1.18617336E-07
  -12.0200005       1.81567970E-07
  -12.0100002       2.48272045E-07
  -12.0000000       3.18237369E-07
  -11.9899998       3.90909264E-07
  -11.9799995       4.65670183E-07
  -11.9700003       5.41839199E-07
  -11.9600000       6.18672857E-07
  -11.9499998       6.95368215E-07
  -11.9399996       7.71068073E-07
  -11.9300003       8.44869817E-07
  -11.9200001       9.15835017E-07
  -11.9099998       9.83002224E-07
  -11.8999996       1.04539959E-06
  -11.8900003       1.10205758E-06
  -11.8800001       1.15202056E-06
  -11.8699999       1.19435845E-06
  -11.8599997       1.22817607E-06
  -11.8500004       1.25262250E-06
  -11.8400002       1.26689918E-06
  -11.8299999       1.27026863E-06
  -11.8199997       1.26206248E-06
  -11.8100004       1.24168957E-06
  -11.8000002       1.20864433E-06
  -11.7900000       1.16251454E-06
  -11.7799997       1.10298743E-06
  -11.7700005       1.02985564E-06
  -11.7600002       9.43021575E-07
  -11.7500000       8.42501152E-07
  -11.7399998       7.28425221E-07
  -11.7299995       6.01041336E-07
  -11.7200003       4.60713437E-07
  -11.7100000       3.07921226E-07
  -11.6999998       1.43259072E-07
  -11.6899996      -3.25656941E-08
  -11.6800003      -2.18734755E-07
  -11.6700001      -4.14321534E-07
  -11.6599998      -6.18293200E-07
  -11.6499996      -8.29514363E-07
  -11.6400003      -1.04674996E-06
  -11.6300001      -1.26867030E-06
  -11.6199999      -1.49385710E-06
  -11.6099997      -1.72081172E-06
  -11.6000004      -1.94796485E-06
  -11.5900002      -2.17368620E-06
  -11.5799999      -2.39629821E-06
  -11.5699997      -2.61408627E-06
  -11.5600004      -2.82530846E-06
  -11.5500002      -3.02820399E-06
  -11.5400000      -3.22099572E-06
  -11.5299997      -3.40189376E-06
  -11.5200005      -3.56909459E-06
  -11.5100002      -3.72078239E-06
  -11.5000000      -3.85512749E-06
  -11.4899998      -3.97029453E-06
  -11.4799995      -4.06444633E-06
  -11.4700003      -4.13576436E-06
  -11.4600000      -4.18246054E-06
  -11.4499998      -4.20279957E-06
  -11.4399996      -4.19512298E-06
  -11.4300003      -4.15786553E-06
  -11.4200001      -4.08957112E-06
  -11.4099998      -3.98890597E-06
  -11.3999996      -3.85466410E-06
  -11.3900003      -3.68576821E-06
  -11.3800001      -3.48126423E-06
  -11.3699999      -3.24032089E-06
  -11.3599997      -2.96221606E-06
  -11.3500004      -2.64633400E-06
  -11.3400002      -2.29215766E-06
  -11.3299999      -1.89926220E-06
  -11.3199997      -1.46731338E-06
  -11.3100004      -9.96063477E-07
  -11.3000002      -4.85353951E-07
  -11.2900000       6.48875300E-08
  -11.2799997       6.54643770E-07
  -11.2700005       1.28380498E-06
  -11.2600002       1.95216944E-06
  -11.2500000       2.65943959E-06
  -11.2399998       3.40522479E-06
  -11.2299995       4.18903983E-06
  -11.2200003       5.01031172E-06
  -11.2100000       5.86837905E-06
  -11.1999998       6.76250374E-06
  -11.1899996       7.69187500E-06
  -11.1800003       8.65561651E-06
  -11.1700001       9.65279014E-06
  -11.1599998       1.06824082E-05
  -11.1499996       1.17434347E-05
  -11.1400003       1.28347892E-05
  -11.1300001       1.39553558E-05
  -11.1199999       1.51039912E-05
  -11.1099997       1.62795259E-05
  -11.1000004       1.74807756E-05
  -11.0900002       1.87065525E-05
  -11.0799999       1.99556616E-05
  -11.0699997       2.12269169E-05
  -11.0600004       2.25191379E-05
  -11.0500002       2.38311513E-05
  -11.0400000       2.51617912E-05
  -11.0299997       2.65098934E-05
  -11.0200005       2.78742973E-05
  -11.0100002       2.92538425E-05
  -11.0000000       3.06473703E-05
  -10.9899998       3.20537183E-05
  -10.9799995       3.34717406E-05
  -10.9700003       3.49002839E-05
  -10.9600000       3.63382169E-05
  -10.9499998       3.77844008E-05
  -10.9399996       3.92377042E-05
  -10.9300003       4.06969921E-05
  -10.9200001       4.21611112E-05
  -10.9099998       4.36288901E-05
  -10.8999996       4.50991211E-05
  -10.8900003       4.65705634E-05
  -10.8800001       4.80419367E-05
  -10.8699999       4.95119384E-05
  -10.8599997       5.09792189E-05
  -10.8500004       5.24424104E-05
  -10.8400002       5.39001485E-05
  -10.8299999       5.53510472E-05
  -10.8199997       5.67937495E-05
  -10.8100004       5.82268767E-05
  -10.8000002       5.96490790E-05
  -10.7900000       6.10590214E-05
  -10.7799997       6.24553431E-05
  -10.7700005       6.38367201E-05
  -10.7600002       6.52018207E-05
  -10.7500000       6.65492917E-05
  -10.7399998       6.78778015E-05
  -10.7299995       6.91860187E-05
  -10.7200003       7.04726117E-05
  -10.7100000       7.17363073E-05
  -10.6999998       7.29758613E-05
  -10.6899996       7.41900585E-05
  -10.6800003       7.53777786E-05
  -10.6700001       7.65379591E-05
  -10.6599998       7.76696397E-05
  -10.6499996       7.87719327E-05
  -10.6400003       7.98440669E-05
  -10.6300001       8.08853438E-05
  -10.6199999       8.18952176E-05
  -10.6099997       8.28731936E-05
  -10.6000004       8.38189007E-05
  -10.5900002       8.47320844E-05
  -10.5799999       8.56126135E-05
  -10.5699997       8.64604663E-05
  -10.5600004       8.72757373E-05
  -10.5500002       8.80586522E-05
  -10.5400000       8.88095383E-05
  -10.5299997       8.95288176E-05
  -10.5200005       9.02170577E-05
  -10.5100002       9.08748843E-05
  -10.5000000       9.15030032E-05
  -10.4899998       9.21021638E-05
  -10.4799995       9.26732537E-05
  -10.4700003       9.32171461E-05
  -10.4600000       9.37347941E-05
  -10.4499998       9.42271872E-05
  -10.4399996       9.46953078E-05
  -10.4300003       9.51402253E-05
  -10.4200001       9.55629512E-05
  -10.4099998       9.59645040E-05
  -10.3999996       9.63458879E-05
  -10.3900003       9.67080923E-05
  -10.3800001       9.70520996E-05
  -10.3699999       9.73788774E-05
  -10.3599997       9.76893716E-05
  -10.3500004       9.79845790E-05
  -10.3400002       9.82654528E-05
  -10.3299999       9.85330189E-05
  -10.3199997       9.87882813E-05
  -10.3100004       9.90322296E-05
  -10.3000002       9.92658752E-05
  -10.2900000       9.94901784E-05
  -10.2799997       9.97060415E-05
  -10.2700005       9.99143376E-05
  -10.2600002       1.00115845E-04
  -10.2500000       1.00311292E-04
  -10.2399998       1.00501304E-04
  -10.2299995       1.00686470E-04
  -10.2200003       1.00867284E-04
  -10.2100000       1.01044214E-04
  -10.1999998       1.01217716E-04
  -10.1899996       1.01388148E-04
  -10.1800003       1.01555939E-04
  -10.1700001       1.01721445E-04
  -10.1599998       1.01885111E-04
  -10.1499996       1.02047328E-04
  -10.1400003       1.02208549E-04
  -10.1300001       1.02369260E-04
  -10.1199999       1.02529964E-04
  -10.1099997       1.02691105E-04
  -10.1000004       1.02853264E-04
  -10.0900002       1.03016944E-04
  -10.0799999       1.03182698E-04
  -10.0699997       1.03351034E-04
  -10.0600004       1.03522529E-04
  -10.0500002       1.03697777E-04
  -10.0400000       1.03877326E-04
  -10.0299997       1.04061801E-04
  -10.0200005       1.04251900E-04
  -10.0100002       1.04448314E-04
  -10.0000000       1.04651888E-04
  -9.98999977       1.04863473E-04
  -9.97999954       1.05084058E-04
  -9.97000027       1.05314670E-04
  -9.96000004       1.05556501E-04
  -9.94999981       1.05810723E-04
  -9.93999958       1.06078616E-04
  -9.93000031       1.06361491E-04
  -9.92000008       1.06660627E-04
  -9.90999985       1.06977328E-04
  -9.89999962       1.07312859E-04
  -9.89000034       1.07668500E-04
  -9.88000011       1.08045439E-04
  -9.86999989       1.08444830E-04
  -9.85999966       1.08867804E-04
  -9.85000038       1.09315471E-04
  -9.84000015       1.09788889E-04
  -9.82999992       1.10289096E-04
  -9.81999969       1.10817142E-04
  -9.81000042       1.11374007E-04
  -9.80000019       1.11960733E-04
  -9.78999996       1.12578273E-04
  -9.77999973       1.13227674E-04
  -9.77000046       1.13909955E-04
  -9.76000023       1.14626127E-04
  -9.75000000       1.15377290E-04
  -9.73999977       1.16164520E-04
  -9.72999954       1.16988922E-04
  -9.72000027       1.17851603E-04
  -9.71000004       1.18753655E-04
  -9.69999981       1.19696197E-04
  -9.68999958       1.20680277E-04
  -9.68000031       1.21706988E-04
  -9.67000008       1.22777332E-04
  -9.65999985       1.23892372E-04
  -9.64999962       1.25053062E-04
  -9.64000034       1.26260362E-04
  -9.63000011       1.27515159E-04
  -9.61999989       1.28818298E-04
  -9.60999966       1.30170549E-04
  -9.60000038       1.31572509E-04
  -9.59000015       1.33024761E-04
  -9.57999992       1.34527683E-04
  -9.56999969       1.36081580E-04
  -9.56000042       1.37686569E-04
  -9.55000019       1.39342694E-04
  -9.53999996       1.41049808E-04
  -9.52999973       1.42807650E-04
  -9.52000046       1.44615798E-04
  -9.51000023       1.46473743E-04
  -9.50000000       1.48380743E-04
  -9.48999977       1.50335982E-04
  -9.47999954       1.52338398E-04
  -9.47000027       1.54386798E-04
  -9.46000004       1.56479917E-04
  -9.44999981       1.58616327E-04
  -9.43999958       1.60794472E-04
  -9.43000031       1.63012766E-04
  -9.42000008       1.65269550E-04
  -9.40999985       1.67563179E-04
  -9.39999962       1.69891995E-04
  -9.39000034       1.72254338E-04
  -9.38000011       1.74648783E-04
  -9.36999989       1.77073860E-04
  -9.35999966       1.79528390E-04
  -9.35000038       1.82011354E-04
  -9.34000015       1.84521938E-04
  -9.32999992       1.87059602E-04
  -9.31999969       1.89624086E-04
  -9.31000042       1.92215390E-04
  -9.30000019       1.94833774E-04
  -9.28999996       1.97479822E-04
  -9.27999973       2.00154420E-04
  -9.27000046       2.02858660E-04
  -9.26000023       2.05593926E-04
  -9.25000000       2.08361875E-04
  -9.23999977       2.11164443E-04
  -9.22999954       2.14003710E-04
  -9.22000027       2.16882065E-04
  -9.21000004       2.19802052E-04
  -9.19999981       2.22766335E-04
  -9.18999958       2.25777738E-04
  -9.18000031       2.28839141E-04
  -9.17000008       2.31953600E-04
  -9.15999985       2.35124098E-04
  -9.14999962       2.38353721E-04
  -9.14000034       2.41645408E-04
  -9.13000011       2.45002215E-04
  -9.11999989       2.48426950E-04
  -9.10999966       2.51922233E-04
  -9.10000038       2.55490682E-04
  -9.09000015       2.59134569E-04
  -9.07999992       2.62855989E-04
  -9.06999969       2.66656891E-04
  -9.06000042       2.70538847E-04
  -9.05000019       2.74503313E-04
  -9.03999996       2.78551452E-04
  -9.02999973       2.82684137E-04
  -9.02000046       2.86902068E-04
  -9.01000023       2.91205564E-04
  -9.00000000       2.95594713E-04
  -8.98999977       3.00069310E-04
  -8.97999954       3.04628658E-04
  -8.97000027       3.09271796E-04
  -8.96000004       3.13997589E-04
  -8.94999981       3.18804203E-04
  -8.93999958       3.23689688E-04
  -8.93000031       3.28651891E-04
  -8.92000008       3.33688135E-04
  -8.90999985       3.38795624E-04
  -8.89999962       3.43971187E-04
  -8.89000034       3.49211536E-04
  -8.88000011       3.54512973E-04
  -8.86999989       3.59871628E-04
  -8.85999966       3.65283486E-04
  -8.85000038       3.70744412E-04
  -8.84000015       3.76249984E-04
  -8.82999992       3.81795777E-04
  -8.81999969       3.87377222E-04
  -8.81000042       3.92989838E-04
  -8.80000019       3.98628967E-04
  -8.78999996       4.04290215E-04
  -8.77999973       4.09969012E-04
  -8.77000046       4.15661052E-04
  -8.76000023       4.21362318E-04
  -8.75000000       4.27068793E-04
  -8.73999977       4.32776724E-04
  -8.72999954       4.38482646E-04
  -8.72000027       4.44183388E-04
  -8.71000004       4.49876010E-04
  -8.69999981       4.55558125E-04
  -8.68999958       4.61227435E-04
  -8.68000031       4.66882047E-04
  -8.67000008       4.72520536E-04
  -8.65999985       4.78141767E-04
  -8.64999962       4.83744952E-04
  -8.64000034       4.89329686E-04
  -8.63000011       4.94895969E-04
  -8.61999989       5.00444148E-04
  -8.60999966       5.05974924E-04
  -8.60000038       5.11489168E-04
  -8.59000015       5.16988279E-04
  -8.57999992       5.22473652E-04
  -8.56999969       5.27947093E-04
  -8.56000042       5.33410115E-04
  -8.55000019       5.38864813E-04
  -8.53999996       5.44313225E-04
  -8.52999973       5.49757038E-04
  -8.52000046       5.55198407E-04
  -8.51000023       5.60639368E-04
  -8.50000000       5.66081842E-04
  -8.48999977       5.71527751E-04
  -8.47999954       5.76979131E-04
  -8.47000027       5.82437846E-04
  -8.46000004       5.87905699E-04
  -8.44999981       5.93384844E-04
  -8.43999958       5.98876912E-04
  -8.43000031       6.04383880E-04
  -8.42000008       6.09907554E-04
  -8.40999985       6.15449739E-04
  -8.39999962       6.21012412E-04
  -8.39000034       6.26597437E-04
  -8.38000011       6.32206618E-04
  -8.36999989       6.37842168E-04
  -8.35999966       6.43506006E-04
  -8.35000038       6.49200403E-04
  -8.34000015       6.54927397E-04
  -8.32999992       6.60689431E-04
  -8.31999969       6.66489068E-04
  -8.31000042       6.72328810E-04
  -8.30000019       6.78211509E-04
  -8.28999996       6.84140017E-04
  -8.27999973       6.90117187E-04
  -8.27000046       6.96146279E-04
  -8.26000023       7.02230318E-04
  -8.25000000       7.08372681E-04
  -8.23999977       7.14576745E-04
  -8.22999954       7.20845885E-04
  -8.22000027       7.27183593E-04
  -8.21000004       7.33593304E-04
  -8.19999981       7.40078802E-04
  -8.18999958       7.46643171E-04
  -8.18000031       7.53290195E-04
  -8.17000008       7.60023016E-04
  -8.15999985       7.66845129E-04
  -8.14999962       7.73760024E-04
  -8.14000034       7.80770904E-04
  -8.13000011       7.87881145E-04
  -8.11999989       7.95094005E-04
  -8.10999966       8.02412746E-04
  -8.10000038       8.09840276E-04
  -8.09000015       8.17379914E-04
  -8.07999992       8.25034513E-04
  -8.06999969       8.32806749E-04
  -8.06000042       8.40699417E-04
  -8.05000019       8.48715019E-04
  -8.03999996       8.56856117E-04
  -8.02999973       8.65124806E-04
  -8.02000046       8.73523008E-04
  -8.01000023       8.82052525E-04
  -8.00000000       8.90715164E-04
  -7.98999977       8.99512030E-04
  -7.98000002       9.08444170E-04
  -7.96999979       9.17512516E-04
  -7.96000004       9.26717301E-04
  -7.94999981       9.36059048E-04
  -7.94000006       9.45537467E-04
  -7.92999983       9.55152325E-04
  -7.92000008       9.64902691E-04
  -7.90999985       9.74787574E-04
  -7.90000010       9.84805403E-04
  -7.88999987       9.94954491E-04
  -7.88000011       1.00523268E-03
  -7.86999989       1.01563754E-03
  -7.86000013       1.02616625E-03
  -7.84999990       1.03681604E-03
  -7.84000015       1.04758376E-03
  -7.82999992       1.05846580E-03
  -7.82000017       1.06945902E-03
  -7.80999994       1.08055933E-03
  -7.80000019       1.09176326E-03
  -7.78999996       1.10306649E-03
  -7.78000021       1.11446565E-03
  -7.76999998       1.12595654E-03
  -7.76000023       1.13753532E-03
  -7.75000000       1.14919781E-03
  -7.73999977       1.16094062E-03
  -7.73000002       1.17276039E-03
  -7.71999979       1.18465303E-03
  -7.71000004       1.19661575E-03
  -7.69999981       1.20864529E-03
  -7.69000006       1.22073863E-03
  -7.67999983       1.23289297E-03
  -7.67000008       1.24510576E-03
  -7.65999985       1.25737453E-03
  -7.65000010       1.26969698E-03
  -7.63999987       1.28207169E-03
  -7.63000011       1.29449693E-03
  -7.61999989       1.30697119E-03
  -7.61000013       1.31949387E-03
  -7.59999990       1.33206416E-03
  -7.59000015       1.34468160E-03
  -7.57999992       1.35734654E-03
  -7.57000017       1.37005944E-03
  -7.55999994       1.38282112E-03
  -7.55000019       1.39563321E-03
  -7.53999996       1.40849722E-03
  -7.53000021       1.42141525E-03
  -7.51999998       1.43439008E-03
  -7.51000023       1.44742441E-03
  -7.50000000       1.46052206E-03
  -7.48999977       1.47368654E-03
  -7.48000002       1.48692157E-03
  -7.46999979       1.50023145E-03
  -7.46000004       1.51362177E-03
  -7.44999981       1.52709708E-03
  -7.44000006       1.54066249E-03