  -16.0000000       0.00000000    
  -15.9899998       0.00000000    
  -15.9799995       0.00000000    
  -15.9700003       0.00000000    
  -15.9600000       0.00000000    
  -15.9499998       0.00000000    
  -15.9399996       0.00000000    
  -15.9300003       0.00000000    
  -15.9200001       0.00000000    
  -15.9099998       0.00000000    
  -15.8999996       0.00000000    
  -15.8900003       0.00000000    
  -15.8800001      -7.00649232E-45
  -15.8699999       2.10194770E-44
  -15.8599997       4.13943566E-42
  -15.8500004       8.15457615E-41
  -15.8400002       9.19743648E-40
  -15.8299999       7.43481321E-39
  -15.8199997       4.73559680E-38
  -15.8100004       2.50275202E-37
  -15.8000002       1.13236942E-36
  -15.7900000       4.47418412E-36
  -15.7799997       1.56369505E-35
  -15.7700005       4.87297223E-35
  -15.7600002       1.36012812E-34
  -15.7500000       3.40459072E-34
  -15.7399998       7.62506635E-34
  -15.7299995       1.51655311E-33
  -15.7200003       2.63356212E-33
  -15.7100000       3.84071914E-33
  -15.6999998       4.21097341E-33
  -15.6899996       1.79997187E-33
  -15.6800003      -6.40835072E-33
  -15.6700001      -2.37392730E-32
  -15.6599998      -5.17721919E-32
  -15.6499996      -8.69830261E-32
  -15.6400003      -1.16973443E-31
  -15.6300001      -1.18085719E-31
  -15.6199999      -5.63967336E-32
  -15.6099997       1.06748182E-31
  -15.6000004       4.04207933E-31
  -15.5900002       8.44942424E-31
  -15.5799999       1.37908207E-30
  -15.5699997       1.83085897E-30
  -15.5600004       1.79590372E-30
  -15.5500002       5.54074528E-31
  -15.5400000      -2.84509224E-30
  -15.5299997      -9.06147556E-30
  -15.5200005      -1.72845848E-29
  -15.5100002      -2.35621188E-29
  -15.5000000      -1.96529686E-29
  -15.4899998       5.53839524E-30
  -15.4799995       5.95332812E-29
  -15.4700003       1.34134051E-28
  -15.4600000       1.91616560E-28
  -15.4499998       1.60377326E-28
  -15.4399996      -4.35976162E-29
  -15.4300003      -4.57005698E-28
  -15.4200001      -9.79200947E-28
  -15.4099998      -1.29687356E-27
  -15.3999996      -9.07105493E-28
  -15.3900003       6.70257276E-28
  -15.3800001       3.46448951E-27
  -15.3699999       6.53958603E-27
  -15.3599997       7.73097939E-27
  -15.3500004       4.10788185E-27
  -15.3400002      -6.48134514E-27
  -15.3299999      -2.29442151E-26
  -15.3199997      -3.86079713E-26
  -15.3100004      -4.09436467E-26
  -15.3000002      -1.54692804E-26
  -15.2900000       4.53156586E-26
  -15.2799997       1.30129447E-25
  -15.2700005       2.00390823E-25
  -15.2600002       1.93944141E-25
  -15.2500000       4.86121266E-26
  -15.2399998      -2.54729448E-25
  -15.2299995      -6.43733080E-25
  -15.2200003      -9.29697722E-25
  -15.2100000      -8.41111403E-25
  -15.1999998      -1.37431057E-25
  -15.1899996       1.21197178E-24
  -15.1800003       2.85162094E-24
  -15.1700001       3.97966758E-24
  -15.1599998       3.52063889E-24
  -15.1499996       5.82474234E-25
  -15.1400003      -4.88858523E-24
  -15.1300001      -1.15106237E-23
  -15.1199999      -1.63002802E-23
  -15.1099997      -1.52866713E-23
  -15.1000004      -5.02445114E-24
  -15.0900002       1.52778092E-23
  -15.0799999       4.17417544E-23
  -15.0699997       6.49263007E-23
  -15.0600004       7.10050040E-23
  -15.0500002       4.54916299E-23
  -15.0400000      -2.07777537E-23
  -15.0299997      -1.24537938E-22
  -15.0200005      -2.43716519E-22
  -15.0100002      -3.34211033E-22
  -15.0000000      -3.32805320E-22
  -14.9899998      -1.69734973E-22
  -14.9799995       2.05719854E-22
  -14.9700003       7.85581162E-22
  -14.9600000       1.45503786E-21
  -14.9499998       1.95334057E-21
  -14.9399996       1.87609309E-21
  -14.9300003       7.61042666E-22
  -14.9200001      -1.70913851E-21
  -14.9099998      -5.39454359E-21
  -14.8999996      -9.36123369E-21
  -14.8900003      -1.17020579E-20
  -14.8800001      -9.76722266E-21
  -14.8699999      -1.02914910E-21
  -14.8599997       1.53858066E-20
  -14.8500004       3.68405985E-20
  -14.8400002       5.58213078E-20
  -14.8299999       6.02409791E-20
  -14.8199997       3.65422578E-20
  -14.8100004      -2.40190987E-20
  -14.8000002      -1.17049598E-19
  -14.7900000      -2.17769022E-19
  -14.7799997      -2.79580404E-19
  -14.7700005      -2.43318951E-19
  -14.7600002      -5.95593370E-20
  -14.7500000       2.79082984E-19
  -14.7399998       7.06084318E-19
  -14.7299995       1.06655024E-18
  -14.7200003       1.13881863E-18
  -14.7100000       7.03738227E-19
  -14.6999998      -3.44208620E-19
  -14.6899996      -1.87472855E-18
  -14.6800003      -3.44328654E-18
  -14.6700001      -4.32143388E-18
  -14.6599998      -3.68421985E-18
  -14.6499996      -9.52632272E-19
  -14.6400003       3.78857489E-18
  -14.6300001       9.45835536E-18
  -14.6199999       1.39393879E-17
  -14.6099997       1.45084766E-17
  -14.6000004       8.78418661E-18
  -14.5900002      -3.98325433E-18
  -14.5799999      -2.17077604E-17
  -14.5699997      -3.89558526E-17
  -14.5600004      -4.77175713E-17
  -14.5500002      -3.97479243E-17
  -14.5400000      -1.01826827E-17
  -14.5299997       3.85983120E-17
  -14.5200005       9.44954191E-17
  -14.5100002       1.36385129E-16
  -14.5000000       1.39178233E-16
  -14.4899998       8.30230527E-17
  -14.4799995      -3.55168723E-17
  -14.4700003      -1.94350995E-16
  -14.4600000      -3.43765092E-16
  -14.4499998      -4.15407827E-16
  -14.4399996      -3.43375669E-16
  -14.4300003      -9.35789890E-17
  -14.4200001       3.07665051E-16
  -14.4099998       7.58412231E-16
  -14.3999996       1.09144896E-15
  -14.3900003       1.11664152E-15
  -14.3800001       6.90786073E-16
  -14.3699999      -2.03001928E-16
  -14.3599997      -1.39561161E-15
  -14.3500004      -2.52479812E-15
  -14.3400002      -3.10464447E-15
  -14.3299999      -2.67355531E-15
  -14.3199997      -9.91193402E-16
  -14.3100004       1.77667659E-15
  -14.3000002       4.96483830E-15
  -14.2900000       7.47927636E-15
  -14.2799997       8.06545789E-15
  -14.2700005       5.74142903E-15
  -14.2600002       2.85273073E-16
  -14.2500000      -7.39481532E-15
  -14.2399998      -1.51948919E-14
  -14.2299995      -2.01881765E-14
  -14.2200003      -1.94470294E-14
  -14.2100000      -1.11546108E-14
  -14.1999998       4.31872284E-15
  -14.1899996       2.37948275E-14
  -14.1800003       4.15099948E-14
  -14.1700001       5.03750145E-14
  -14.1599998       4.41416109E-14
  -14.1499996       1.99629741E-14
  -14.1400003      -1.94707142E-14
  -14.1300001      -6.51370911E-14
  -14.1199999      -1.02928652E-13
  -14.1099997      -1.17107970E-13
  -14.1000004      -9.53838652E-14
  -14.0900002      -3.42644444E-14
  -14.0799999       5.71401040E-14
  -14.0699997       1.56651114E-13
  -14.0600004       2.32982877E-13
  -14.0500002       2.53950723E-13
  -14.0400000       1.97200221E-13
  -14.0299997       6.03972574E-14
  -14.0200005      -1.32776833E-13
  -14.0100002      -3.33940503E-13
  -14.0000000      -4.79986764E-13
  -13.9899998      -5.10409206E-13
  -13.9799995      -3.87837928E-13
  -13.9700003      -1.15591266E-13
  -13.9600000       2.54321629E-13
  -13.9499998       6.27513829E-13
  -13.9399996       8.88782266E-13
  -13.9300003       9.34891162E-13
  -13.9200001       7.09949352E-13
  -13.9099998       2.32161946E-13
  -13.8999996      -3.98518702E-13
  -13.8900003      -1.01787415E-12
  -13.8800001      -1.43870744E-12
  -13.8699999      -1.50637911E-12
  -13.8599997      -1.15256958E-12
  -13.8500004      -4.29150015E-13
  -13.8400002       4.92204368E-13
  -13.8299999       1.35968233E-12
  -13.8199997       1.91268724E-12
  -13.8100004       1.96520859E-12
  -13.8000002       1.47439428E-12
  -13.7900000       5.68605818E-13
  -13.7799997      -4.80403315E-13
  -13.7700005      -1.33904801E-12
  -13.7600002      -1.72547751E-12
  -13.7500000      -1.51841625E-12
  -13.7399998      -8.20307364E-13
  -13.7299995       5.62214087E-14
  -13.7200003       6.86491445E-13
  -13.7100000       6.94209501E-13
  -13.6999998      -7.56611570E-14
  -13.6899996      -1.43603976E-12
  -13.6800003      -2.84709474E-12
  -13.6700001      -3.54516698E-12
  -13.6599998      -2.79525166E-12
  -13.6499996      -2.02049694E-13
  -13.6400003       4.02142469E-12
  -13.6300001       8.93635513E-12
  -13.6199999       1.29917145E-11
  -13.6099997       1.43867123E-11
  -13.6000004       1.16185924E-11
  -13.5900002       4.07643233E-12
  -13.5799999      -7.50387426E-12
  -13.5699997      -2.09012078E-11
  -13.5600004      -3.27011647E-11
  -13.5500002      -3.90190796E-11
  -13.5400000      -3.65240199E-11
  -13.5299997      -2.35194052E-11
  -13.5200005      -7.77735135E-13
  -13.5100002       2.81496632E-11
  -13.5000000       5.73211964E-11
  -13.4899998       7.94940364E-11
  -13.4799995       8.77268327E-11
  -13.4700003       7.71482531E-11
  -13.4600000       4.64655571E-11
  -13.4499998      -1.18918861E-12
  -13.4399996      -5.83439339E-11
  -13.4300003      -1.14265729E-10
  -13.4200001      -1.56865368E-10
  -13.4099998      -1.75065643E-10
  -13.3999996      -1.61158975E-10
  -13.3900003      -1.12678498E-10
  -13.3800001      -3.34077141E-11
  -13.3699999       6.66732641E-11
  -13.3599997       1.72511533E-10
  -13.3500004       2.66005218E-10
  -13.3400002       3.28637728E-10
  -13.3299999       3.44372392E-10
  -13.3199997       3.02449371E-10
  -13.3100004       1.99744901E-10
  -13.3000002       4.23789441E-11
  -13.2900000      -1.53714375E-10
  -13.2799997      -3.63500618E-10
  -13.2700005      -5.55007595E-10
  -13.2600002      -6.92953195E-10
  -13.2500000      -7.43645645E-10
  -13.2399998      -6.80674905E-10
  -13.2299995      -4.90656016E-10
  -13.2200003      -1.78071516E-10
  -13.2100000       2.31802272E-10
  -13.1999998       6.92764845E-10
  -13.1899996       1.14092691E-09
  -13.1800003       1.50139234E-09
  -13.1700001       1.69792491E-09
  -13.1599998       1.66459679E-09
  -13.1499996       1.35799305E-09
  -13.1400003       7.68264452E-10
  -13.1300001      -7.27521515E-11
  -13.1199999      -1.08802589E-09
  -13.1099997      -2.15779794E-09
  -13.1000004      -3.12888493E-09
  -13.0900002      -3.83090626E-09
  -13.0799999      -4.09856815E-09
  -13.0699997      -3.79795306E-09
  -13.0600004      -2.85358448E-09
  -13.0500002      -1.27202926E-09
  -13.0400000       8.42606873E-10
  -13.0299997       3.28560534E-09
  -13.0200005       5.76389025E-09
  -13.0100002       7.92424615E-09
  -13.0000000       9.39524014E-09
  -12.9899998       9.83778392E-09
  -12.9799995       8.99721364E-09
  -12.9700003       6.74904355E-09
  -12.9600000       3.13156923E-09
  -12.9499998      -1.63917768E-09
  -12.9399996      -7.17341653E-09
  -12.9300003      -1.29290463E-08
  -12.9200001      -1.82473290E-08
  -12.9099998      -2.23998295E-08
  -12.8999996      -2.46452831E-08
  -12.8900003      -2.42972860E-08
  -12.8800001      -2.08049986E-08
  -12.8699999      -1.38475311E-08
  -12.8599997      -3.43789197E-09
  -12.8500004       9.97557859E-09
  -12.8400002       2.54314916E-08
  -12.8299999       4.14293950E-08
  -12.8199997       5.59845574E-08
  -12.8100004       6.67848354E-08
  -12.8000002       7.14539681E-08
  -12.7900000       6.79008565E-08
  -12.7799997       5.47087176E-08
  -12.7700005       3.14960431E-08
  -12.7600002      -8.26190005E-10
  -12.7500000      -3.99681390E-08
  -12.7399998      -8.23843180E-08
  -12.7299995      -1.23604082E-07
  -12.7200003      -1.58721278E-07
  -12.7100000      -1.82957521E-07
  -12.6999998      -1.92196453E-07
  -12.6899996      -1.83395144E-07
  -12.6800003      -1.54816448E-07
  -12.6700001      -1.06080059E-07
  -12.6599998      -3.80879150E-08
  -12.6499996       4.70783270E-08
  -12.6400003       1.46180128E-07
  -12.6300001       2.54687166E-07
  -12.6199999       3.66473131E-07
  -12.6099997       4.73418339E-07
  -12.6000004       5.65079745E-07
  -12.5900002       6.28642965E-07
  -12.5799999       6.49373533E-07
  -12.5699997       6.11723181E-07
  -12.5600004       5.01129932E-07
  -12.5500002       3.06401461E-07
  -12.5400000       2.24139978E-08
  -12.5299997      -3.47249113E-07
  -12.5200005      -7.88156456E-07
  -12.5100002      -1.27378621E-06
  -12.5000000      -1.76548383E-06
  -12.4899998      -2.21376308E-06
  -12.4799995      -2.56091266E-06
  -12.4700003      -2.74470835E-06
  -12.4600000      -2.70291207E-06
  -12.4499998      -2.37817153E-06
  -12.4399996      -1.72293778E-06
  -12.4300003      -7.04027741E-07
  -12.4200001       6.93449806E-07
  -12.4099998       2.46308400E-06
  -12.3999996       4.57526448E-06
  -12.3900003       6.97657833E-06
  -12.3800001       9.59064710E-06
  -12.3699999       1.23204918E-05
  -12.3599997       1.50523811E-05
  -12.3500004       1.76610738E-05
  -12.3400002       2.00161430E-05
  -12.3299999       2.19889607E-05
  -12.3199997       2.34598810E-05
  -12.3100004       2.43250088E-05
  -12.3000002       2.45021420E-05
  -12.2900000       2.39353976E-05
  -12.2799997       2.25983458E-05
  -12.2700005       2.04955068E-05
  -12.2600002       1.76622034E-05
  -12.2500000       1.41629071E-05
  -12.2399998       1.00881225E-05
  -12.2299995       5.55003680E-06
  -12.2200003       6.76969250E-07
  -12.2100000      -4.39303994E-06
  -12.1999998      -9.51929724E-06
  -12.1899996      -1.45656859E-05
  -12.1800003      -1.94075528E-05
  -12.1700001      -2.39376332E-05
  -12.1599998      -2.80704753E-05
  -12.1499996      -3.17449230E-05
  -12.1400003      -3.49245056E-05
  -12.1300001      -3.75958334E-05
  -12.1199999      -3.97653967E-05
  -12.1099997      -4.14552269E-05
  -12.1000004      -4.26980951E-05
  -12.0900002      -4.35326256E-05
  -12.0799999      -4.39987452E-05
  -12.0699997      -4.41335760E-05
  -12.0600004      -4.39676442E-05
  -12.0500002      -4.35216862E-05
  -12.0400000      -4.28038256E-05
  -12.0299997      -4.18077470E-05
  -12.0200005      -4.05120045E-05
  -12.0100002      -3.88813023E-05
  -12.0000000      -3.68699111E-05
  -11.9899998      -3.44274340E-05
  -11.9799995      -3.15064462E-05
  -11.9700003      -2.80710756E-05
  -11.9600000      -2.41053076E-05
  -11.9499998      -1.96193778E-05
  -11.9399996      -1.46531647E-05
  -11.9300003      -9.27559267E-06
  -11.9200001      -3.58016405E-06
  -11.9099998       2.32281172E-06
  -11.8999996       8.31589841E-06
  -11.8900003       1.42845047E-05
  -11.8800001       2.01254898E-05
  -11.8699999       2.57532301E-05
  -11.8599997       3.11025287E-05
  -11.8500004       3.61284801E-05
  -11.8400002       4.08037886E-05
  -11.8299999       4.51146552E-05
  -11.8199997       4.90559978E-05
  -11.8100004       5.26269177E-05
  -11.8000002       5.58267129E-05
  -11.7900000       5.86517017E-05
  -11.7799997       6.10927746E-05
  -11.7700005       6.31337243E-05
  -11.7600002       6.47504203E-05
  -11.7500000       6.59111247E-05
  -11.7399998       6.65781918E-05
  -11.7299995       6.67112981E-05
  -11.7200003       6.62720850E-05
  -11.7100000       6.52296148E-05
  -11.6999998       6.35657852E-05
  -11.6899996       6.12794174E-05
  -11.6800003       5.83882793E-05
  -11.6700001       5.49282340E-05
  -11.6599998       5.09496276E-05
  -11.6499996       4.65116536E-05
  -11.6400003       4.16759067E-05
  -11.6300001       3.65004635E-05
  -11.6199999       3.10358628E-05
  -11.6099997       2.53236885E-05
  -11.6000004       1.93976957E-05
  -11.5900002       1.32869845E-05
  -11.5799999       7.02009038E-06
  -11.5699997       6.28688611E-07
  -11.5600004      -5.84983172E-06
  -11.5500002      -1.23715672E-05
  -11.5400000      -1.88867452E-05
  -11.5299997      -2.53414455E-05
  -11.5200005      -3.16794394E-05
  -11.5100002      -3.78436926E-05
  -11.5000000      -4.37772032E-05
  -11.4899998      -4.94234118E-05
  -11.4799995      -5.47265809E-05
  -11.4700003      -5.96329119E-05
  -11.4600000      -6.40927028E-05
  -11.4499998      -6.80634184E-05
  -11.4399996      -7.15133719E-05
  -11.4300003      -7.44249337E-05
  -11.4200001      -7.67963502E-05
  -11.4099998      -7.86415621E-05
  -11.3999996      -7.99876361E-05
  -11.3900003      -8.08703262E-05
  -11.3800001      -8.13287697E-05
  -11.3699999      -8.14005252E-05
  -11.3599997      -8.11179634E-05
  -11.3500004      -8.05068266E-05
  -11.3400002      -7.95870073E-05
  -11.3299999      -7.83746582E-05
  -11.3199997      -7.68849859E-05
  -11.3100004      -7.51342959E-05
  -11.3000002      -7.31405162E-05
  -11.2900000      -7.09219676E-05
  -11.2799997      -6.84947590E-05
  -11.2700005      -6.58694044E-05
  -11.2600002      -6.30482173E-05
  -11.2500000      -6.00241983E-05
  -11.2399998      -5.67822026E-05
  -11.2299995      -5.33024104E-05
  -11.2200003      -4.95657769E-05
  -11.2100000      -4.55601912E-05
  -11.1999998      -4.12867521E-05
  -11.1899996      -3.67647663E-05
  -11.1800003      -3.20349354E-05
  -11.1700001      -2.71603003E-05
  -11.1599998      -2.22249764E-05
  -11.1499996      -1.73306271E-05
  -11.1400003      -1.25911556E-05
  -11.1300001      -8.12571216E-06
  -11.1199999      -4.05051742E-06
  -11.1099997      -4.69874891E-07
  -11.1000004       2.53297367E-06
  -11.0900002       4.90419689E-06
  -11.0799999       6.62571529E-06
  -11.0699997       7.71842497E-06
  -11.0600004       8.24127164E-06
  -11.0500002       8.28560951E-06
  -11.0400000       7.96513814E-06
  -11.0299997       7.40253427E-06
  -11.0200005       6.71453063E-06
  -11.0100002       5.99797249E-06
  -11.0000000       5.31915339E-06
  -10.9899998       4.70834675E-06
  -10.9799995       4.16055582E-06
  -10.9700003       3.64219181E-06
  -10.9600000       3.10215364E-06
  -10.9499998       2.48496167E-06
  -10.9399996       1.74306706E-06
  -10.9300003       8.45851673E-07
  -10.9200001      -2.16307427E-07
  -10.9099998      -1.43324451E-06
  -10.8999996      -2.78041534E-06
  -10.8900003      -4.22646099E-06
  -10.8800001      -5.74038586E-06
  -10.8699999      -7.29609837E-06
  -10.8599997      -8.87309579E-06
  -10.8500004      -1.04533046E-05
  -10.8400002      -1.20154073E-05
  -10.8299999      -1.35288183E-05
  -10.8199997      -1.49496173E-05
  -10.8100004      -1.62200831E-05
  -10.8000002      -1.72722648E-05
  -10.7900000      -1.80347706E-05
  -10.7799997      -1.84407563E-05
  -10.7700005      -1.84348210E-05
  -10.7600002      -1.79768303E-05
  -10.7500000      -1.70418643E-05
  -10.7399998      -1.56167844E-05
  -10.7299995      -1.36951367E-05
  -10.7200003      -1.12727939E-05
  -10.7100000      -8.34631373E-06
  -10.6999998      -4.91519631E-06
  -10.6899996      -9.87554358E-07
  -10.6800003       3.41240775E-06
  -10.6700001       8.23767459E-06
  -10.6599998       1.34148459E-05
  -10.6499996       1.88453050E-05
  -10.6400003       2.44113653E-05
  -10.6300001       2.99861276E-05
  -10.6199999       3.54450385E-05
  -10.6099997       4.06767867E-05
  -10.6000004       4.55918234E-05
  -10.5900002       5.01278482E-05
  -10.5799999       5.42522248E-05
  -10.5699997       5.79622974E-05
  -10.5600004       6.12840595E-05
  -10.5500002       6.42692539E-05
  -10.5400000       6.69901856E-05
  -10.5299997       6.95313065E-05
  -10.5200005       7.19768141E-05
  -10.5100002       7.43949058E-05
  -10.5000000       7.68208774E-05
  -10.4899998       7.92427309E-05
  -10.4799995       8.15934472E-05
  -10.4700003       8.37533589E-05
  -10.4600000       8.55638064E-05
  -10.4499998       8.68506104E-05
  -10.4399996       8.74520993E-05
  -10.4300003       8.72458040E-05
  -10.4200001       8.61666849E-05
  -10.4099998       8.42127411E-05
  -10.3999996       8.14368177E-05
  -10.3900003       7.79273178E-05
  -10.3800001       7.37840164E-05
  -10.3699999       6.90960151E-05
  -10.3599997       6.39275386E-05
  -10.3500004       5.83149085E-05
  -10.3400002       5.22734554E-05
  -10.3299999       4.58102222E-05
  -10.3199997       3.89367742E-05
  -10.3100004       3.16768164E-05
  -10.3000002       2.40663612E-05
  -10.2900000       1.61473145E-05
  -10.2799997       7.95895085E-06
  -10.2700005      -4.67517822E-07
  -10.2600002      -9.10665221E-06
  -10.2500000      -1.79274266E-05
  -10.2399998      -2.68753574E-05
  -10.2299995      -3.58540492E-05
  -10.2200003      -4.47132988E-05
  -10.2100000      -5.32499471E-05
  -10.1999998      -6.12237054E-05
  -10.1899996      -6.83857361E-05
  -10.1800003      -7.45133657E-05
  -10.1700001      -7.94420121E-05
  -10.1599998      -8.30861609E-05
  -10.1499996      -8.54443861E-05
  -10.1400003      -8.65881375E-05
  -10.1300001      -8.66389237E-05
  -10.1199999      -8.57411724E-05
  -10.1099997      -8.40388602E-05
  -10.1000004      -8.16615648E-05
  -10.0900002      -7.87214522E-05
  -10.0799999      -7.53190398E-05
  -10.0699997      -7.15526403E-05
  -10.0600004      -6.75254269E-05
  -10.0500002      -6.33465024E-05
  -10.0400000      -5.91245807E-05
  -10.0299997      -5.49566576E-05
  -10.0200005      -5.09161619E-05
  -10.0100002      -4.70446794E-05
  -10.0000000      -4.33507012E-05
  -9.98999977      -3.98151387E-05
  -9.97999954      -3.64015687E-05
  -9.97000027      -3.30675502E-05
  -9.96000004      -2.97731131E-05
  -9.94999981      -2.64849896E-05
  -9.93999958      -2.31766462E-05
  -9.93000031      -1.98264861E-05
  -9.92000008      -1.64168923E-05
  -9.90999985      -1.29361415E-05
  -9.89999962      -9.38303219E-06
  -9.89000034      -5.77218998E-06
  -9.88000011      -2.13690919E-06
  -9.86999989       1.47372236E-06
  -9.85999966       5.00406168E-06
  -9.85000038       8.40657867E-06
  -9.84000015       1.16578185E-05
  -9.82999992       1.47710844E-05
  -9.81999969       1.78021237E-05
  -9.81000042       2.08459787E-05
  -9.80000019       2.40269528E-05
  -9.78999996       2.74854756E-05
  -9.77999973       3.13667588E-05
  -9.77000046       3.58149919E-05
  -9.76000023       4.09739914E-05
  -9.75000000       4.69915722E-05
  -9.73999977       5.40227666E-05
  -9.72999954       6.22263033E-05
  -9.72000027       7.17506555E-05
  -9.71000004       8.27091862E-05
  -9.69999981       9.51488255E-05
  -9.68999958       1.09019333E-04
  -9.68000031       1.24151309E-04
  -9.67000008       1.40250238E-04
  -9.65999985       1.56908951E-04
  -9.64999962       1.73636945E-04
  -9.64000034       1.89900995E-04
  -9.63000011       2.05167526E-04
  -9.61999989       2.18939967E-04
  -9.60999966       2.30783815E-04
  -9.60000038       2.40337919E-04
  -9.59000015       2.47313408E-04
  -9.57999992       2.51484220E-04
  -9.56999969       2.52674741E-04
  -9.56000042       2.50749436E-04
  -9.55000019       2.45607051E-04
  -9.53999996       2.37180633E-04
  -9.52999973       2.25442098E-04
  -9.52000046       2.10409315E-04
  -9.51000023       1.92153559E-04
  -9.50000000       1.70804939E-04
  -9.48999977       1.46554201E-04
  -9.47999954       1.19650795E-04
  -9.47000027       9.03960026E-05
  -9.46000004       5.91332864E-05
  -9.44999981       2.62363992E-05
  -9.43999958      -7.90153535E-06
  -9.43000031      -4.28755484E-05
  -9.42000008      -7.82709831E-05
  -9.40999985      -1.13659182E-04
  -9.39999962      -1.48588428E-04
  -9.39000034      -1.82573582E-04
  -9.38000011      -2.15089138E-04
  -9.36999989      -2.45570962E-04
  -9.35999966      -2.73429730E-04
  -9.35000038      -2.98076222E-04
  -9.34000015      -3.18954990E-04
  -9.32999992      -3.35579825E-04
  -9.31999969      -3.47564579E-04
  -9.31000042      -3.54642136E-04
  -9.30000019      -3.56669101E-04
  -9.28999996      -3.53616895E-04
  -9.27999973      -3.45553271E-04
  -9.27000046      -3.32619995E-04
  -9.26000023      -3.15012498E-04
  -9.25000000      -2.92964134E-04
  -9.23999977      -2.66736024E-04
  -9.22999954      -2.36610722E-04
  -9.22000027      -2.02888055E-04
  -9.21000004      -1.65880949E-04
  -9.19999981      -1.25913488E-04
  -9.18999958      -8.33226586E-05
  -9.18000031      -3.84670930E-05
  -9.17000008       8.25802908E-06
  -9.15999985       5.64012662E-05
  -9.14999962       1.05438608E-04
  -9.14000034       1.54767433E-04
  -9.13000011       2.03718664E-04
  -9.11999989       2.51588674E-04
  -9.10999966       2.97687395E-04
  -9.10000038       3.41391598E-04
  -9.09000015       3.82190745E-04
  -9.07999992       4.19710908E-04
  -9.06999969       4.53711982E-04
  -9.06000042       4.84057615E-04
  -9.05000019       5.10668964E-04
  -9.03999996       5.33477170E-04
  -9.02999973       5.52389596E-04
  -9.02000046       5.67279581E-04
  -9.01000023       5.78001374E-04
  -9.00000000       5.84422378E-04
  -8.98999977       5.86458598E-04
  -8.97999954       5.84100839E-04
  -8.97000027       5.77420986E-04
  -8.96000004       5.66560368E-04
  -8.94999981       5.51706296E-04
  -8.93999958       5.33068785E-04
  -8.93000031       5.10869664E-04
  -8.92000008       4.85346769E-04
  -8.90999985       4.56771726E-04
  -8.89999962       4.25467588E-04
  -8.89000034       3.91813548E-04
  -8.88000011       3.56227887E-04
  -8.86999989       3.19126964E-04
  -8.85999966       2.80871755E-04
  -8.85000038       2.41719448E-04
  -8.84000015       2.01799936E-04
  -8.82999992       1.61130956E-04
  -8.81999969       1.19671815E-04
  -8.81000042       7.74040018E-05
  -8.80000019       3.44137916E-05
  -8.78999996      -9.04872468E-06
  -8.77999973      -5.25535070E-05
  -8.77000046      -9.55237410E-05
  -8.76000023      -1.37307259E-04
  -8.75000000      -1.77263544E-04
  -8.73999977      -2.14838743E-04
  -8.72999954      -2.49606179E-04
  -8.72000027      -2.81263405E-04
  -8.71000004      -3.09593219E-04
  -8.69999981      -3.34407872E-04
  -8.68999958      -3.55501921E-04
  -8.68000031      -3.72633745E-04
  -8.67000008      -3.85544408E-04
  -8.65999985      -3.94006929E-04
  -8.64999962      -3.97887547E-04
  -8.64000034      -3.97195632E-04
  -8.63000011      -3.92104586E-04
  -8.61999989      -3.82936531E-04
  -8.60999966      -3.70117574E-04
  -8.60000038      -3.54122167E-04
  -8.59000015      -3.35426856E-04
  -8.57999992      -3.14489007E-04
  -8.56999969      -2.91756063E-04
  -8.56000042      -2.67695112E-04
  -8.55000019      -2.42826776E-04
  -8.53999996      -2.17743218E-04
  -8.52999973      -1.93097323E-04
  -8.52000046      -1.69561405E-04
  -8.51000023      -1.47766725E-04
  -8.50000000      -1.28241751E-04
  -8.48999977      -1.11369773E-04
  -8.47999954      -9.73778078E-05
  -8.47000027      -8.63574533E-05
  -8.46000004      -7.83069263E-05
  -8.44999981      -7.31750260E-05
  -8.43999958      -7.08891966E-05
  -8.43000031      -7.13561894E-05
  -8.42000008      -7.44368881E-05
  -8.40999985      -7.99077388E-05
  -8.39999962      -8.74276084E-05
  -8.39000034      -9.65296858E-05
  -8.38000011      -1.06646992E-04
  -8.36999989      -1.17171418E-04
  -8.35999966      -1.27529973E-04
  -8.35000038      -1.37259281E-04
  -8.34000015      -1.46056118E-04
  -8.32999992      -1.53792367E-04
  -8.31999969      -1.60491662E-04
  -8.31000042      -1.66280050E-04
  -8.30000019      -1.71326974E-04
  -8.28999996      -1.75795969E-04
  -8.27999973      -1.79817434E-04
  -8.27000046      -1.83485303E-04
  -8.26000023      -1.86871184E-04
  -8.25000000      -1.90041450E-04
  -8.23999977      -1.93065149E-04
  -8.22999954      -1.96003617E-04
  -8.22000027      -1.98883819E-04
  -8.21000004      -2.01664836E-04
  -8.19999981      -2.04211319E-04
  -8.18999958      -2.06286946E-04
  -8.18000031      -2.07573859E-04
  -8.17000008      -2.07715013E-04
  -8.15999985      -2.06367098E-04
  -8.14999962      -2.03247866E-04
  -8.14000034      -1.98163034E-04
  -8.13000011      -1.91004874E-04
  -8.11999989      -1.81724972E-04
  -8.10999966      -1.70292973E-04
  -8.10000038      -1.56658163E-04
  -8.09000015      -1.40730146E-04
  -8.07999992      -1.22387297E-04
  -8.06999969      -1.01511920E-04
  -8.06000042      -7.80406117E-05
  -8.05000019      -5.20122667E-05
  -8.03999996      -2.35961488E-05
  -8.02999973       6.91024070E-06
  -8.02000046       3.91141148E-05
  -8.01000023       7.25804275E-05
  -8.00000000       1.06887084E-04
  -7.98999977       1.41664481E-04
  -7.98000002       1.76606278E-04
  -7.96999979       2.11449820E-04
  -7.96000004       2.45936011E-04
  -7.94999981       2.79764732E-04
  -7.94000006       3.12566175E-04
  -7.92999983       3.43900028E-04
  -7.92000008       3.73285846E-04
  -7.90999985       4.00255551E-04
  -7.90000010       4.24410740E-04
  -7.88999987       4.45465033E-04
  -7.88000011       4.63258475E-04
  -7.86999989       4.77738795E-04
  -7.86000013       4.88920487E-04
  -7.84999990       4.96837252E-04
  -7.84000015       5.01508533E-04
  -7.82999992       5.02933050E-04
  -7.82000017       5.01113071E-04
  -7.80999994       4.96097666E-04
  -7.80000019       4.88027814E-04
  -7.78999996       4.77161026E-04
  -7.78000021       4.63862176E-04
  -7.76999998       4.48557985E-04
  -7.76000023       4.31668275E-04
  -7.75000000       4.13535483E-04
  -7.73999977       3.94374889E-04
  -7.73000002       3.74265015E-04
  -7.71999979       3.53179610E-04
  -7.71000004       3.31049348E-04
  -7.69999981       3.07832379E-04
  -7.69000006       2.83567177E-04
  -7.67999983       2.58391723E-04
  -7.67000008       2.32522943E-04
  -7.65999985       2.06209384E-04
  -7.65000010       1.79676659E-04
  -7.63999987       1.53091605E-04
  -7.63000011       1.26559273E-04
  -7.61999989       1.00154808E-04
  -7.61000013       7.39783136E-05
  -7.59999990       4.82079195E-05
  -7.59000015       2.31286394E-05
  -7.57999992      -8.79259687E-07
  -7.57000017      -2.33900519E-05
  -7.55999994      -4.40057811E-05
  -7.55000019      -6.24256572E-05
  -7.53999996      -7.84866788E-05
  -7.53000021      -9.21600804E-05
  -7.51999998      -1.03504492E-04
  -7.51000023      -1.12595109E-04
  -7.50000000      -1.19455923E-04
  -7.48999977      -1.24022859E-04
  -7.48000002      -1.26154031E-04
  -7.46999979      -1.25685285E-04
  -7.46000004      -1.22511876E-04
  -7.44999981      -1.16667070E-04
  -7.44000006      -1.08367953E-04