  -16.0000000       0.00000000    
  -15.9899998       0.00000000    
  -15.9799995       0.00000000    
  -15.9700003       0.00000000    
  -15.9600000       0.00000000    
  -15.9499998       0.00000000    
  -15.9399996       0.00000000    
  -15.9300003       0.00000000    
  -15.9200001       0.00000000    
  -15.9099998       0.00000000    
  -15.8999996       0.00000000    
  -15.8900003       0.00000000    
  -15.8800001       0.00000000    
  -15.8699999       0.00000000    
  -15.8599997      -0.00000000    
  -15.8500004      -0.00000000    
  -15.8400002      -2.80259693E-45
  -15.8299999      -1.82168800E-44
  -15.8199997      -1.09301280E-43
  -15.8100004      -5.54914192E-43
  -15.8000002      -2.34297103E-42
  -15.7900000      -8.35454144E-42
  -15.7799997      -2.53396801E-41
  -15.7700005      -6.49866176E-41
  -15.7600002      -1.36688257E-40
  -15.7500000      -2.12666660E-40
  -15.7399998      -1.28840986E-40
  -15.7299995       6.24555923E-40
  -15.7200003       3.23544121E-39
  -15.7100000       9.90268898E-39
  -15.6999998       2.37480713E-38
  -15.6899996       4.74333196E-38
  -15.6800003       7.92055931E-38
  -15.6700001       1.05288836E-37
  -15.6599998       8.92851217E-38
  -15.6499996      -3.63296828E-38
  -15.6400003      -3.64014091E-37
  -15.6300001      -9.69188779E-37
  -15.6199999      -1.80937541E-36
  -15.6099997      -2.56054206E-36
  -15.6000004      -2.44640506E-36
  -15.5900002      -2.25408746E-37
  -15.5799999       5.37538127E-36
  -15.5699997       1.44683122E-35
  -15.5600004       2.40414581E-35
  -15.5500002       2.60544133E-35
  -15.5400000       7.79183361E-36
  -15.5299997      -4.21467530E-35
  -15.5200005      -1.19574764E-34
  -15.5100002      -1.84569626E-34
  -15.5000000      -1.48567735E-34
  -15.4899998       1.04874759E-34
  -15.4799995       6.34443826E-34
  -15.4700003       1.28216431E-33
  -15.4600000       1.50123862E-33
  -15.4499998       3.39593752E-34
  -15.4399996      -3.15952274E-33
  -15.4300003      -8.92703985E-33
  -15.4200001      -1.43410223E-32
  -15.4099998      -1.30517548E-32
  -15.3999996       4.11491422E-33
  -15.3900003       4.40683693E-32
  -15.3800001       1.01247491E-31
  -15.3699999       1.45065172E-31
  -15.3599997       1.13794542E-31
  -15.3500004      -7.06067441E-32
  -15.3400002      -4.52561563E-31
  -15.3299999      -9.57322129E-31
  -15.3199997      -1.30059742E-30
  -15.3100004      -9.66878804E-31
  -15.3000002       6.39361252E-31
  -15.2900000       3.78743452E-30
  -15.2799997       7.79409028E-30
  -15.2700005       1.04352369E-29
  -15.2600002       7.91934870E-30
  -15.2500000      -3.91450715E-30
  -15.2399998      -2.67455577E-29
  -15.2299995      -5.56630467E-29
  -15.2200003      -7.55923832E-29
  -15.2100000      -6.15388242E-29
  -15.1999998       1.35072539E-29
  -15.1899996       1.60886169E-28
  -15.1800003       3.51691997E-28
  -15.1700001       4.96038809E-28
  -15.1599998       4.44705361E-28
  -15.1499996       3.38722959E-29
  -15.1400003      -8.16540756E-28
  -15.1300001      -1.96735458E-27
  -15.1199999      -2.94425808E-27
  -15.1099997      -2.93706647E-27
  -15.1000004      -1.01919375E-27
  -15.0900002       3.35864887E-27
  -15.0799999       9.67682576E-27
  -15.0699997       1.57259683E-26
  -15.0600004       1.75092192E-26
  -15.0500002       1.01712651E-26
  -15.0400000      -9.76161521E-27
  -15.0299997      -4.11180127E-26
  -15.0200005      -7.49329360E-26
  -15.0100002      -9.33877082E-26
  -15.0000000      -7.31148458E-26
  -14.9899998       5.66181418E-27
  -14.9799995       1.44955780E-25
  -14.9700003       3.14118841E-25
  -14.9600000       4.42124095E-25
  -14.9499998       4.26669916E-25
  -14.9399996       1.67303125E-25
  -14.9300003      -3.78403363E-25
  -14.9200001      -1.12990027E-24
  -14.9099998      -1.83887204E-24
  -14.8999996      -2.10250522E-24
  -14.8900003      -1.46736520E-24
  -14.8800001       3.69672719E-25
  -14.8699999       3.30349664E-24
  -14.8599997       6.60134938E-24
  -14.8500004       8.85881172E-24
  -14.8400002       8.26532090E-24
  -14.8299999       3.24092518E-24
  -14.8199997      -6.64133082E-24
  -14.8100004      -1.97262448E-23
  -14.8000002      -3.17894505E-23
  -14.7900000      -3.64913013E-23
  -14.7799997      -2.71076557E-23
  -14.7700005       5.43074724E-25
  -14.7600002       4.46692077E-23
  -14.7500000       9.48858999E-23
  -14.7399998       1.32067899E-22
  -14.7299995       1.32098596E-22
  -14.7200003       7.39217825E-23
  -14.7100000      -4.94336436E-23
  -14.6999998      -2.20206571E-22
  -14.6899996      -3.90537241E-22
  -14.6800003      -4.87426627E-22
  -14.6700001      -4.31063134E-22
  -14.6599998      -1.65252804E-22
  -14.6499996       3.07118596E-22
  -14.6400003       8.96161538E-22
  -14.6300001       1.41986673E-21
  -14.6199999       1.63454413E-21
  -14.6099997       1.30460650E-21
  -14.6000004       3.00992390E-22
  -14.5900002      -1.29883593E-21
  -14.5799999      -3.14865270E-21
  -14.5699997      -4.64990090E-21
  -14.5600004      -5.07354460E-21
  -14.5500002      -3.78361177E-21
  -14.5400000      -5.17640631E-22
  -14.5299997       4.36032104E-21
  -14.5200005       9.74066887E-21
  -14.5100002       1.38793491E-20
  -14.5000000       1.47849568E-20
  -14.4899998       1.08418967E-20
  -14.4799995       1.52895400E-21
  -14.4700003      -1.19911987E-20
  -14.4600000      -2.66661445E-20
  -14.4499998      -3.79347905E-20
  -14.4399996      -4.07579741E-20
  -14.4300003      -3.11557965E-20
  -14.4200001      -7.88967534E-21
  -14.4099998       2.62303609E-20
  -14.3999996       6.39596729E-20
  -14.3900003       9.45523016E-20
  -14.3800001       1.06090773E-19
  -14.3699999       8.88587916E-20
  -14.3599997       3.89830028E-20
  -14.3500004      -3.87095776E-20
  -14.3400002      -1.29688569E-19
  -14.3299999      -2.11330003E-19
  -14.3199997      -2.57294013E-19
  -14.3100004      -2.44057262E-19
  -14.3000002      -1.58242831E-19
  -14.2900000      -2.89967396E-21
  -14.2799997       1.99191295E-19
  -14.2700005       4.06684899E-19
  -14.2600002       5.65918770E-19
  -14.2500000       6.21717013E-19
  -14.2399998       5.31006216E-19
  -14.2299995       2.76559256E-19
  -14.2200003      -1.22327631E-19
  -14.2100000      -6.05318623E-19
  -14.1999998      -1.07508871E-18
  -14.1899996      -1.41101813E-18
  -14.1800003      -1.49182375E-18
  -14.1700001      -1.22444486E-18
  -14.1599998      -5.74310931E-19
  -14.1499996       4.09513650E-19
  -14.1400003       1.58180322E-18
  -14.1300001       2.70819036E-18
  -14.1199999       3.49633074E-18
  -14.1099997       3.65126042E-18
  -14.1000004       2.94876716E-18
  -14.0900002       1.31364450E-18
  -14.0799999      -1.11637919E-18
  -14.0699997      -3.96259466E-18
  -14.0600004      -6.63228369E-18
  -14.0500002      -8.41027037E-18
  -14.0400000      -8.60972760E-18
  -14.0299997      -6.75824428E-18
  -14.0200005      -2.77808236E-18
  -14.0100002       2.89039447E-18
  -14.0000000       9.27121649E-18
  -13.9899998       1.49731900E-17
  -13.9799995       1.84492230E-17
  -13.9700003       1.83568004E-17
  -13.9600000       1.39443725E-17
  -13.9499998       5.36487590E-18
  -13.9399996      -6.18325532E-18
  -13.9300003      -1.85592893E-17
  -13.9200001      -2.90448127E-17
  -13.9099998      -3.49180995E-17
  -13.8999996      -3.41200687E-17
  -13.8900003      -2.58493693E-17
  -13.8800001      -1.09195252E-17
  -13.8699999       8.24650102E-18
  -13.8599997       2.80254780E-17
  -13.8500004       4.43415362E-17
  -13.8400002       5.35864442E-17
  -13.8299999       5.34825933E-17
  -13.8199997       4.36543873E-17
  -13.8100004       2.57382012E-17
  -13.8000002       2.98119677E-18
  -13.7900000      -2.05739687E-17
  -13.7799997      -4.10916792E-17
  -13.7700005      -5.58364582E-17
  -13.7600002      -6.36768731E-17
  -13.7500000      -6.50308817E-17
  -13.7399998      -6.12612013E-17
  -13.7299995      -5.37237231E-17
  -13.7200003      -4.28231767E-17
  -13.7100000      -2.74784767E-17
  -13.6999998      -5.31434882E-18
  -13.6899996       2.63158132E-17
  -13.6800003       6.86614304E-17
  -13.6700001       1.19731681E-16
  -13.6599998       1.72934918E-16
  -13.6499996       2.16864800E-16
  -13.6400003       2.36687316E-16
  -13.6300001       2.17182570E-16
  -13.6199999       1.46987414E-16
  -13.6099997       2.31101607E-17
  -13.6000004      -1.45515866E-16
  -13.5900002      -3.36671721E-16
  -13.5799999      -5.16572148E-16
  -13.5699997      -6.44893934E-16
  -13.5600004      -6.82506009E-16
  -13.5500002      -6.00489185E-16
  -13.5400000      -3.88478453E-16
  -13.5299997      -6.02379921E-17
  -13.5200005       3.45213280E-16
  -13.5100002       7.67739281E-16
  -13.5000000       1.13511552E-15
  -13.4899998       1.37542279E-15
  -13.4799995       1.43036484E-15
  -13.4700003       1.26676710E-15
  -13.4600000       8.83836635E-16
  -13.4499998       3.14716547E-16
  -13.4399996      -3.77795726E-16
  -13.4300003      -1.11017125E-15
  -13.4200001      -1.78954684E-15
  -13.4099998      -2.32512026E-15
  -13.3999996      -2.63752063E-15
  -13.3900003      -2.66519933E-15
  -13.3800001      -2.36819401E-15
  -13.3699999      -1.73073787E-15
  -13.3599997      -7.64554438E-16
  -13.3500004       4.85837187E-16
  -13.3400002       1.93598613E-15
  -13.3299999       3.45468571E-15
  -13.3199997       4.86146386E-15
  -13.3100004       5.93328961E-15
  -13.3000002       6.42475295E-15
  -13.2900000       6.10346488E-15
  -13.2799997       4.79832094E-15
  -13.2700005       2.45348874E-15
  -13.2600002      -8.23244292E-16
  -13.2500000      -4.73145786E-15
  -13.2399998      -8.78119734E-15
  -13.2299995      -1.23366131E-14
  -13.2200003      -1.47007498E-14
  -13.2100000      -1.52326882E-14
  -13.1999998      -1.34787718E-14
  -13.1899996      -9.29309408E-15
  -13.1800003      -2.92024498E-15
  -13.1700001       4.98277253E-15
  -13.1599998       1.33988161E-14
  -13.1499996       2.10767988E-14
  -13.1400003       2.67161442E-14
  -13.1300001       2.91804375E-14
  -13.1199999       2.77029545E-14
  -13.1099997       2.20458976E-14
  -13.1000004       1.25819528E-14
  -13.0900002       2.80566826E-16
  -13.0799999      -1.34011725E-14
  -13.0699997      -2.67059324E-14
  -13.0600004      -3.78107749E-14
  -13.0500002      -4.50715108E-14
  -13.0400000      -4.72399965E-14
  -13.0299997      -4.36263439E-14
  -13.0200005      -3.41903121E-14
  -13.0100002      -1.95600897E-14
  -13.0000000      -9.86869722E-16
  -12.9899998       1.97507060E-14
  -12.9799995       4.04793996E-14
  -12.9700003       5.87939189E-14
  -12.9600000       7.22486849E-14
  -12.9499998       7.85820316E-14
  -12.9399996       7.59742611E-14
  -12.9300003       6.33315015E-14
  -12.9200001       4.05704557E-14
  -12.9099998       8.86157230E-15
  -12.8999996      -2.92281390E-14
  -12.8900003      -6.97549996E-14
  -12.8800001      -1.07634909E-13
  -12.8699999      -1.37120580E-13
  -12.8599997      -1.52504176E-13
  -12.8500004      -1.48977876E-13
  -12.8400002      -1.23539945E-13
  -12.8299999      -7.57984509E-14
  -12.8199997      -8.51636063E-15
  -12.8100004       7.22385341E-14
  -12.8000002       1.57426820E-13
  -12.7900000       2.35868562E-13
  -12.7799997       2.95507135E-13
  -12.7700005       3.24961900E-13
  -12.7600002       3.15168112E-13
  -12.7500000       2.60878748E-13
  -12.7399998       1.61810967E-13
  -12.7299995       2.32648068E-14
  -12.7200003      -1.43887736E-13
  -12.7100000      -3.23865609E-13
  -12.6999998      -4.97237451E-13
  -12.6899996      -6.42655254E-13
  -12.6800003      -7.38904597E-13
  -12.6700001      -7.67091414E-13
  -12.6599998      -7.12789474E-13
  -12.6499996      -5.67980775E-13
  -12.6400003      -3.32636262E-13
  -12.6300001      -1.57943862E-14
  -12.6199999       3.63998030E-13
  -12.6099997       7.79006417E-13
  -12.6000004       1.19348921E-12
  -12.5900002       1.56578992E-12
  -12.5799999       1.85131879E-12
  -12.5699997       2.00629227E-12
  -12.5600004       1.99198167E-12
  -12.5500002       1.77911310E-12
  -12.5400000       1.35195392E-12
  -12.5299997       7.11609591E-13
  -12.5200005      -1.21924633E-13
  -12.5100002      -1.10929354E-12
  -12.5000000      -2.19304219E-12
  -12.4899998      -3.30055276E-12
  -12.4799995      -4.34836455E-12
  -12.4700003      -5.24741275E-12
  -12.4600000      -5.90858786E-12
  -12.4499998      -6.24803811E-12
  -12.4399996      -6.19166957E-12
  -12.4300003      -5.67851972E-12
  -12.4200001      -4.66281918E-12
  -12.4099998      -3.11485451E-12
  -12.3999996      -1.02084411E-12
  -12.3900003       1.61779834E-12
  -12.3800001       4.78542640E-12
  -12.3699999       8.45304556E-12
  -12.3599997       1.25788789E-11
  -12.3500004       1.71085385E-11
  -12.3400002       2.19748924E-11
  -12.3299999       2.70976939E-11
  -12.3199997       3.23831795E-11
  -12.3100004       3.77237790E-11
  -12.3000002       4.29980669E-11
  -12.2900000       4.80709951E-11
  -12.2799997       5.27944737E-11
  -12.2700005       5.70083078E-11
  -12.2600002       6.05417730E-11
  -12.2500000       6.32156966E-11
  -12.2399998       6.48456636E-11
  -12.2299995       6.52463431E-11
  -12.2200003       6.42372266E-11
  -12.2100000       6.16498588E-11
  -12.1999998       5.73362989E-11
  -12.1899996       5.11784989E-11
  -12.1800003       4.30977511E-11
  -12.1700001       3.30634235E-11
  -12.1599998       2.10998649E-11
  -12.1499996       7.29081552E-12
  -12.1400003      -8.21955698E-12
  -12.1300001      -2.52292458E-11
  -12.1199999      -4.34843307E-11
  -12.1099997      -6.26879659E-11
  -12.1000004      -8.25114491E-11
  -12.0900002      -1.02606278E-10
  -12.0799999      -1.22616306E-10
  -12.0699997      -1.42188747E-10
  -12.0600004      -1.60983851E-10
  -12.0500002      -1.78682485E-10
  -12.0400000      -1.94991648E-10
  -12.0299997      -2.09648715E-10
  -12.0200005      -2.22423288E-10
  -12.0100002      -2.33119052E-10
  -12.0000000      -2.41574011E-10
  -11.9899998      -2.47660503E-10
  -11.9799995      -2.51284049E-10
  -11.9700003      -2.52382032E-10
  -11.9600000      -2.50921256E-10
  -11.9499998      -2.46894422E-10
  -11.9399996      -2.40316711E-10
  -11.9300003      -2.31221473E-10
  -11.9200001      -2.19655807E-10
  -11.9099998      -2.05677447E-10
  -11.8999996      -1.89351743E-10
  -11.8900003      -1.70750289E-10
  -11.8800001      -1.49950330E-10
  -11.8699999      -1.27035812E-10
  -11.8599997      -1.02098691E-10
  -11.8500004      -7.52405777E-11
  -11.8400002      -4.65749453E-11
  -11.8299999      -1.62279964E-11
  -11.8199997       1.56599438E-11
  -11.8100004       4.89338604E-11
  -11.8000002       8.34239067E-11
  -11.7900000       1.18944854E-10
  -11.7799997       1.55295915E-10
  -11.7700005       1.92260055E-10
  -11.7600002       2.29603211E-10
  -11.7500000       2.67073946E-10
  -11.7399998       3.04403752E-10
  -11.7299995       3.41307482E-10
  -11.7200003       3.77486514E-10
  -11.7100000       4.12631734E-10
  -11.6999998       4.46428922E-10
  -11.6899996       4.78564632E-10
  -11.6800003       5.08733167E-10
  -11.6700001       5.36642786E-10
  -11.6599998       5.62022540E-10
  -11.6499996       5.84627013E-10
  -11.6400003       6.04240380E-10
  -11.6300001       6.20679064E-10
  -11.6199999       6.33792852E-10
  -11.6099997       6.43464004E-10
  -11.6000004       6.49606313E-10
  -11.5900002       6.52160992E-10
  -11.5799999       6.51093235E-10
  -11.5699997       6.46387388E-10
  -11.5600004       6.38039677E-10
  -11.5500002       6.26051599E-10
  -11.5400000       6.10423545E-10
  -11.5299997       5.91146188E-10
  -11.5200005       5.68194214E-10
  -11.5100002       5.41521383E-10
  -11.5000000       5.11055698E-10
  -11.4899998       4.76698514E-10
  -11.4799995       4.38325459E-10
  -11.4700003       3.95788124E-10
  -11.4600000       3.48920087E-10
  -11.4499998       2.97543240E-10
  -11.4399996       2.41474618E-10
  -11.4300003       1.80534893E-10
  -11.4200001       1.14554775E-10
  -11.4099998       4.33809516E-11
  -11.3999996      -3.31172693E-11
  -11.3900003      -1.15045154E-10
  -11.3800001      -2.02479436E-10
  -11.3699999      -2.95466596E-10
  -11.3599997      -3.94022454E-10
  -11.3500004      -4.98132924E-10
  -11.3400002      -6.07756179E-10
  -11.3299999      -7.22825133E-10
  -11.3199997      -8.43252912E-10
  -11.3100004      -9.68937375E-10
  -11.3000002      -1.09976950E-09
  -11.2900000      -1.23563892E-09
  -11.2799997      -1.37644318E-09
  -11.2700005      -1.52209234E-09
  -11.2600002      -1.67251635E-09
  -11.2500000      -1.82766580E-09
  -11.2399998      -1.98751349E-09
  -11.2299995      -2.15205298E-09
  -11.2200003      -2.32128916E-09
  -11.2100000      -2.49523491E-09
  -11.1999998      -2.67390177E-09
  -11.1899996      -2.85728707E-09
  -11.1800003      -3.04536751E-09
  -11.1700001      -3.23808869E-09
  -11.1599998      -3.43535889E-09
  -11.1499996      -3.63703867E-09
  -11.1400003      -3.84294374E-09
  -11.1300001      -4.05283274E-09
  -11.1199999      -4.26641655E-09
  -11.1099997      -4.48335058E-09
  -11.1000004      -4.70324002E-09
  -11.0900002      -4.92564656E-09
  -11.0799999      -5.15008924E-09
  -11.0699997      -5.37606093E-09
  -11.0600004      -5.60302826E-09
  -11.0500002      -5.83044857E-09
  -11.0400000      -6.05777961E-09
  -11.0299997      -6.28448760E-09
  -11.0200005      -6.51005871E-09
  -11.0100002      -6.73400402E-09
  -11.0000000      -6.95586877E-09
  -10.9899998      -7.17523019E-09
  -10.9799995      -7.39169526E-09
  -10.9700003      -7.60490870E-09
  -10.9600000      -7.81453213E-09
  -10.9499998      -8.02025912E-09
  -10.9399996      -8.22179391E-09
  -10.9300003      -8.41885406E-09
  -10.9200001      -8.61116156E-09
  -10.9099998      -8.79844375E-09
  -10.8999996      -8.98042707E-09
  -10.8900003      -9.15682818E-09
  -10.8800001      -9.32735222E-09
  -10.8699999      -9.49170875E-09
  -10.8599997      -9.64958069E-09
  -10.8500004      -9.80064385E-09
  -10.8400002      -9.94457494E-09
  -10.8299999      -1.00810400E-08
  -10.8199997      -1.02097033E-08
  -10.8100004      -1.03302451E-08
  -10.8000002      -1.04423536E-08
  -10.7900000      -1.05457403E-08
  -10.7799997      -1.06401510E-08
  -10.7700005      -1.07253593E-08
  -10.7600002      -1.08011893E-08
  -10.7500000      -1.08675051E-08
  -10.7399998      -1.09242126E-08
  -10.7299995      -1.09712852E-08
  -10.7200003      -1.10087335E-08
  -10.7100000      -1.10366249E-08
  -10.6999998      -1.10550804E-08
  -10.6899996      -1.10642659E-08
  -10.6800003      -1.10644063E-08
  -10.6700001      -1.10557510E-08
  -10.6599998      -1.10386189E-08
  -10.6499996      -1.10133485E-08
  -10.6400003      -1.09803180E-08
  -10.6300001      -1.09399378E-08
  -10.6199999      -1.08926397E-08
  -10.6099997      -1.08388649E-08
  -10.6000004      -1.07790674E-08
  -10.5900002      -1.07137161E-08
  -10.5799999      -1.06432543E-08
  -10.5699997      -1.05681401E-08
  -10.5600004      -1.04888151E-08
  -10.5500002      -1.04056985E-08
  -10.5400000      -1.03192086E-08
  -10.5299997      -1.02297424E-08
  -10.5200005      -1.01376729E-08
  -10.5100002      -1.00433661E-08
  -10.5000000      -9.94715244E-09
  -10.4899998      -9.84934179E-09
  -10.4799995      -9.75021042E-09
  -10.4700003      -9.65001146E-09
  -10.4600000      -9.54895096E-09
  -10.4499998      -9.44721634E-09
  -10.4399996      -9.34495681E-09
  -10.4300003      -9.24229493E-09
  -10.4200001      -9.13935949E-09
  -10.4099998      -9.03623132E-09
  -10.3999996      -8.93301877E-09
  -10.3900003      -8.82982487E-09
  -10.3800001      -8.72676953E-09
  -10.3699999      -8.62399308E-09
  -10.3599997      -8.52166959E-09
  -10.3500004      -8.41998915E-09
  -10.3400002      -8.31916935E-09
  -10.3299999      -8.21944646E-09
  -10.3199997      -8.12107803E-09
  -10.3100004      -8.02432343E-09
  -10.3000002      -7.92947663E-09
  -10.2900000      -7.83681919E-09
  -10.2799997      -7.74664777E-09
  -10.2700005      -7.65925812E-09
  -10.2600002      -7.57496554E-09
  -10.2500000      -7.49408890E-09
  -10.2399998      -7.41695283E-09
  -10.2299995      -7.34389172E-09
  -10.2200003      -7.27523819E-09
  -10.2100000      -7.21131954E-09
  -10.1999998      -7.15248305E-09
  -10.1899996      -7.09903158E-09
  -10.1800003      -7.05127601E-09
  -10.1700001      -7.00949965E-09
  -10.1599998      -6.97397384E-09
  -10.1499996      -6.94493707E-09
  -10.1400003      -6.92262070E-09
  -10.1300001      -6.90724100E-09
  -10.1199999      -6.89899426E-09
  -10.1099997      -6.89807722E-09
  -10.1000004      -6.90464708E-09
  -10.0900002      -6.91887436E-09
  -10.0799999      -6.94091051E-09
  -10.0699997      -6.97087366E-09
  -10.0600004      -7.00887570E-09
  -10.0500002      -7.05499037E-09
  -10.0400000      -7.10926251E-09
  -10.0299997      -7.17171211E-09
  -10.0200005      -7.24232674E-09
  -10.0100002      -7.32104377E-09
  -10.0000000      -7.40777883E-09
  -9.98999977      -7.50242712E-09
  -9.97999954      -7.60483143E-09
  -9.97000027      -7.71484299E-09
  -9.96000004      -7.83228327E-09
  -9.94999981      -7.95696842E-09
  -9.93999958      -8.08869771E-09
  -9.93000031      -8.22729973E-09
  -9.92000008      -8.37259240E-09
  -9.90999985      -8.52440163E-09
  -9.89999962      -8.68258443E-09
  -9.89000034      -8.84700135E-09
  -9.88000011      -9.01754582E-09
  -9.86999989      -9.19411480E-09
  -9.85999966      -9.37663369E-09
  -9.85000038      -9.56503587E-09
  -9.84000015      -9.75926451E-09
  -9.82999992      -9.95926097E-09
  -9.81999969      -1.01649871E-08
  -9.81000042      -1.03763833E-08
  -9.80000019      -1.05933786E-08
  -9.78999996      -1.08159188E-08
  -9.77999973      -1.10439116E-08
  -9.77000046      -1.12772920E-08
  -9.76000023      -1.15159811E-08
  -9.75000000      -1.17599139E-08
  -9.73999977      -1.20090577E-08
  -9.72999954      -1.22633796E-08
  -9.72000027      -1.25228903E-08
  -9.71000004      -1.27876065E-08
  -9.69999981      -1.30575719E-08
  -9.68999958      -1.33328424E-08
  -9.68000031      -1.36135014E-08
  -9.67000008      -1.38995881E-08
  -9.65999985      -1.41911807E-08
  -9.64999962      -1.44883332E-08
  -9.64000034      -1.47910644E-08
  -9.63000011      -1.50994328E-08
  -9.61999989      -1.54134536E-08
  -9.60999966      -1.57331463E-08
  -9.60000038      -1.60585341E-08
  -9.59000015      -1.63896345E-08
  -9.57999992      -1.67264691E-08
  -9.56999969      -1.70690413E-08
  -9.56000042      -1.74173298E-08
  -9.55000019      -1.77713328E-08
  -9.53999996      -1.81309794E-08
  -9.52999973      -1.84961948E-08
  -9.52000046      -1.88668725E-08
  -9.51000023      -1.92428562E-08
  -9.50000000      -1.96239398E-08
  -9.48999977      -2.00098906E-08
  -9.47999954      -2.04004476E-08
  -9.47000027      -2.07952908E-08
  -9.46000004      -2.11940794E-08
  -9.44999981      -2.15964739E-08
  -9.43999958      -2.20020997E-08
  -9.43000031      -2.24106387E-08
  -9.42000008      -2.28217338E-08
  -9.40999985      -2.32350761E-08
  -9.39999962      -2.36503759E-08
  -9.39000034      -2.40673934E-08
  -9.38000011      -2.44859049E-08
  -9.36999989      -2.49057432E-08
  -9.35999966      -2.53267487E-08
  -9.35000038      -2.57488235E-08
  -9.34000015      -2.61718665E-08
  -9.32999992      -2.65958526E-08
  -9.31999969      -2.70207554E-08
  -9.31000042      -2.74466050E-08
  -9.30000019      -2.78734706E-08
  -9.28999996      -2.83014110E-08
  -9.27999973      -2.87305806E-08
  -9.27000046      -2.91611109E-08
  -9.26000023      -2.95931812E-08
  -9.25000000      -3.00269605E-08
  -9.23999977      -3.04626830E-08
  -9.22999954      -3.09005515E-08
  -9.22000027      -3.13407895E-08
  -9.21000004      -3.17836211E-08
  -9.19999981      -3.22293019E-08
  -9.18999958      -3.26780629E-08
  -9.18000031      -3.31301386E-08
  -9.17000008      -3.35857138E-08
  -9.15999985      -3.40449873E-08
  -9.14999962      -3.45080871E-08
  -9.14000034      -3.49751410E-08
  -9.13000011      -3.54462451E-08
  -9.11999989      -3.59214489E-08
  -9.10999966      -3.64007420E-08
  -9.10000038      -3.68841704E-08
  -9.09000015      -3.73716844E-08
  -9.07999992      -3.78632201E-08
  -9.06999969      -3.83587029E-08
  -9.06000042      -3.88580439E-08
  -9.05000019      -3.93610939E-08
  -9.03999996      -3.98676789E-08
  -9.02999973      -4.03776106E-08
  -9.02000046      -4.08906509E-08
  -9.01000023      -4.14065262E-08
  -9.00000000      -4.19249595E-08
  -8.98999977      -4.24456204E-08
  -8.97999954      -4.29682068E-08
  -8.97000027      -4.34923813E-08
  -8.96000004      -4.40178383E-08
  -8.94999981      -4.45442190E-08
  -8.93999958      -4.50712392E-08
  -8.93000031      -4.55986182E-08
  -8.92000008      -4.61260861E-08
  -8.90999985      -4.66534260E-08
  -8.89999962      -4.71804462E-08
  -8.89000034      -4.77070330E-08
  -8.88000011      -4.82330584E-08
  -8.86999989      -4.87585154E-08
  -8.85999966      -4.92834502E-08
  -8.85000038      -4.98080013E-08
  -8.84000015      -5.03323143E-08
  -8.82999992      -5.08566593E-08
  -8.81999969      -5.13813951E-08
  -8.81000042      -5.19069197E-08
  -8.80000019      -5.24337125E-08
  -8.78999996      -5.29623527E-08
  -8.77999973      -5.34934301E-08
  -8.77000046      -5.40276304E-08
  -8.76000023      -5.45656960E-08
  -8.75000000      -5.51084263E-08
  -8.73999977      -5.56565958E-08
  -8.72999954      -5.62111246E-08
  -8.72000027      -5.67728513E-08
  -8.71000004      -5.73426355E-08
  -8.69999981      -5.79213975E-08
  -8.68999958      -5.85100146E-08
  -8.68000031      -5.91092970E-08
  -8.67000008      -5.97200440E-08
  -8.65999985      -6.03430266E-08
  -8.64999962      -6.09789552E-08
  -8.64000034      -6.16283842E-08
  -8.63000011      -6.22919103E-08
  -8.61999989      -6.29700239E-08
  -8.60999966      -6.36631086E-08
  -8.60000038      -6.43714770E-08
  -8.59000015      -6.50953780E-08
  -8.57999992      -6.58350103E-08
  -8.56999969      -6.65904807E-08
  -8.56000042      -6.73618104E-08
  -8.55000019      -6.81489851E-08
  -8.53999996      -6.89519482E-08
  -8.52999973      -6.97706426E-08
  -8.52000046      -7.06048837E-08
  -8.51000023      -7.14545507E-08
  -8.50000000      -7.23194660E-08
  -8.48999977      -7.31994945E-08
  -8.47999954      -7.40944444E-08
  -8.47000027      -7.50042091E-08
  -8.46000004      -7.59286678E-08
  -8.44999981      -7.68675932E-08
  -8.43999958      -7.78208644E-08
  -8.43000031      -7.87883465E-08
  -8.42000008      -7.97699187E-08
  -8.40999985      -8.07653890E-08
  -8.39999962      -8.17746155E-08
  -8.39000034      -8.27974560E-08
  -8.38000011      -8.38337471E-08
  -8.36999989      -8.48833253E-08
  -8.35999966      -8.59461196E-08
  -8.35000038      -8.70220020E-08
  -8.34000015      -8.81108591E-08
  -8.32999992      -8.92125627E-08
  -8.31999969      -9.03271342E-08
  -8.31000042      -9.14544174E-08
  -8.30000019      -9.25944690E-08
  -8.28999996      -9.37471683E-08
  -8.27999973      -9.49125152E-08
  -8.27000046      -9.60904245E-08
  -8.26000023      -9.72809175E-08
  -8.25000000      -9.84839446E-08
  -8.23999977      -9.96994629E-08
  -8.22999954      -1.00927402E-07
  -8.22000027      -1.02167704E-07
  -8.21000004      -1.03420327E-07
  -8.19999981      -1.04685121E-07
  -8.18999958      -1.05961924E-07
  -8.18000031      -1.07250607E-07
  -8.17000008      -1.08551021E-07
  -8.15999985      -1.09862974E-07
  -8.14999962      -1.11186168E-07
  -8.14000034      -1.12520212E-07
  -8.13000011      -1.13864829E-07
  -8.11999989      -1.15219592E-07
  -8.10999966      -1.16583990E-07
  -8.10000038      -1.17957548E-07
  -8.09000015      -1.19339660E-07
  -8.07999992      -1.20729680E-07
  -8.06999969      -1.22126906E-07
  -8.06000042      -1.23530612E-07
  -8.05000019      -1.24939916E-07
  -8.03999996      -1.26354152E-07
  -8.02999973      -1.27772111E-07
  -8.02000046      -1.29193126E-07
  -8.01000023      -1.30616073E-07
  -8.00000000      -1.32040114E-07
  -7.98999977      -1.33464141E-07
  -7.98000002      -1.34887287E-07
  -7.96999979      -1.36308500E-07
  -7.96000004      -1.37726872E-07
  -7.94999981      -1.39141434E-07
  -7.94000006      -1.40551293E-07
  -7.92999983      -1.41955496E-07
  -7.92000008      -1.43353205E-07
  -7.90999985      -1.44743638E-07
  -7.90000010      -1.46125970E-07
  -7.88999987      -1.47499648E-07
  -7.88000011      -1.48863990E-07
  -7.86999989      -1.50218355E-07
  -7.86000013      -1.51562332E-07
  -7.84999990      -1.52895552E-07
  -7.84000015      -1.54217702E-07
  -7.82999992      -1.55528511E-07
  -7.82000017      -1.56828051E-07
  -7.80999994      -1.58116251E-07
  -7.80000019      -1.59393338E-07
  -7.78999996      -1.60659425E-07
  -7.78000021      -1.61914983E-07
  -7.76999998      -1.63160465E-07
  -7.76000023      -1.64396539E-07
  -7.75000000      -1.65623902E-07
  -7.73999977      -1.66843250E-07
  -7.73000002      -1.68055621E-07
  -7.71999979      -1.69261753E-07
  -7.71000004      -1.70462883E-07
  -7.69999981      -1.71659977E-07
  -7.69000006      -1.72854328E-07
  -7.67999983      -1.74047202E-07
  -7.67000008      -1.75239947E-07
  -7.65999985      -1.76433872E-07
  -7.65000010      -1.77630469E-07
  -7.63999987      -1.78831129E-07
  -7.63000011      -1.80037446E-07
  -7.61999989      -1.81250883E-07
  -7.61000013      -1.82473002E-07
  -7.59999990      -1.83705353E-07
  -7.59000015      -1.84949641E-07
  -7.57999992      -1.86207316E-07
  -7.57000017      -1.87480111E-07
  -7.55999994      -1.88769718E-07
  -7.55000019      -1.90077770E-07
  -7.53999996      -1.91405903E-07
  -7.53000021      -1.92755863E-07
  -7.51999998      -1.94129299E-07
  -7.51000023      -1.95527846E-07
  -7.50000000      -1.96953025E-07
  -7.48999977      -1.98406454E-07
  -7.48000002      -1.99889598E-07
  -7.46999979      -2.01404163E-07
  -7.46000004      -2.02951526E-07
  -7.44999981      -2.04532952E-07
  -7.44000006      -2.06150006E-07