  -16.0000000       0.00000000    
  -15.9899998       0.00000000    
  -15.9799995       0.00000000    
  -15.9700003       0.00000000    
  -15.9600000       0.00000000    
  -15.9499998       0.00000000    
  -15.9399996       0.00000000    
  -15.9300003       0.00000000    
  -15.9200001       0.00000000    
  -15.9099998       0.00000000    
  -15.8999996       0.00000000    
  -15.8900003       0.00000000    
  -15.8800001       0.00000000    
  -15.8699999       0.00000000    
  -15.8599997       0.00000000    
  -15.8500004      -0.00000000    
  -15.8400002      -1.40129846E-44
  -15.8299999      -1.72359711E-43
  -15.8199997      -1.58346726E-42
  -15.8100004      -1.14542136E-41
  -15.8000002      -6.87378936E-41
  -15.7900000      -3.53376644E-40
  -15.7799997      -1.58945501E-39
  -15.7700005      -6.34700623E-39
  -15.7600002      -2.27385633E-38
  -15.7500000      -7.36540297E-38
  -15.7399998      -2.16947078E-37
  -15.7299995      -5.83437768E-37
  -15.7200003      -1.43613865E-36
  -15.7100000      -3.23809161E-36
  -15.6999998      -6.67801110E-36
  -15.6899996      -1.25378655E-35
  -15.6800003      -2.12087248E-35
  -15.6700001      -3.16213347E-35
  -15.6599998      -3.94542539E-35
  -15.6499996      -3.48474870E-35
  -15.6400003      -5.91264009E-37
  -15.6300001       8.71478795E-35
  -15.6199999       2.52378706E-34
  -15.6099997       5.03545643E-34
  -15.6000004       8.06593275E-34
  -15.5900002       1.05030163E-33
  -15.5799999       1.01774053E-33
  -15.5699997       3.92328081E-34
  -15.5600004      -1.15958679E-33
  -15.5500002      -3.78838577E-33
  -15.5400000      -7.13703893E-33
  -15.5299997      -9.97655647E-33
  -15.5200005      -1.00276236E-32
  -15.5100002      -4.34046073E-33
  -15.5000000       9.37377546E-33
  -15.4899998       3.03557633E-32
  -15.4799995       5.19993150E-32
  -15.4700003       6.04168009E-32
  -15.4600000       3.71321973E-32
  -15.4499998      -3.15444673E-32
  -15.4399996      -1.38583496E-31
  -15.4300003      -2.39592691E-31
  -15.4200001      -2.48663205E-31
  -15.4099998      -6.43440276E-32
  -15.3999996       3.62253458E-31
  -15.3900003       9.27487894E-31
  -15.3800001       1.29211957E-30
  -15.3699999       9.04009793E-31
  -15.3599997      -7.74625481E-31
  -15.3500004      -3.79770439E-30
  -15.3400002      -7.14360368E-30
  -15.3299999      -8.35005961E-30
  -15.3199997      -3.91461436E-30
  -15.3100004       9.03897528E-30
  -15.3000002       2.97982349E-29
  -15.2900000       5.07467554E-29
  -15.2799997       5.58730694E-29
  -15.2700005       2.40968774E-29
  -15.2600002      -6.02115215E-29
  -15.2500000      -1.90120546E-28
  -15.2399998      -3.18446185E-28
  -15.2299995      -3.51702950E-28
  -15.2200003      -1.71222647E-28
  -15.2100000       3.07685485E-28
  -15.1999998       1.04427350E-27
  -15.1899996       1.78214156E-27
  -15.1800003       2.02357536E-27
  -15.1700001       1.14464921E-27
  -15.1599998      -1.30033176E-27
  -15.1499996      -5.12141480E-27
  -15.1400003      -9.05351163E-27
  -15.1300001      -1.06422536E-26
  -15.1199999      -6.81159898E-27
  -15.1099997       4.67549847E-27
  -15.1000004       2.30582964E-26
  -15.0900002       4.25340950E-26
  -15.0799999       5.17417750E-26
  -15.0699997       3.63646358E-26
  -15.0600004      -1.42566579E-26
  -15.0500002      -9.74468906E-26
  -15.0400000      -1.88101997E-25
  -15.0299997      -2.36355497E-25
  -15.0200005      -1.78805814E-25
  -15.0100002       3.30552595E-26
  -15.0000000       3.91443801E-25
  -14.9899998       7.93414753E-25
  -14.9799995       1.03026102E-24
  -14.9700003       8.33047470E-25
  -14.9600000      -1.11740969E-26
  -14.9499998      -1.48991508E-24
  -14.9399996      -3.20487522E-24
  -14.9300003      -4.32289978E-24
  -14.9200001      -3.74806749E-24
  -14.9099998      -5.72401959E-25
  -14.8999996       5.26044282E-24
  -14.8900003       1.23147940E-23
  -14.8800001       1.74328983E-23
  -14.8699999       1.63318425E-23
  -14.8599997       5.25371897E-24
  -14.8500004      -1.65527441E-23
  -14.8400002      -4.43605107E-23
  -14.8299999      -6.68959601E-23
  -14.8199997      -6.81960471E-23
  -14.8100004      -3.32745790E-23
  -14.8000002       4.30548260E-23
  -14.7900000       1.47000519E-22
  -14.7799997       2.41018691E-22
  -14.7700005       2.68783969E-22
  -14.7600002       1.73295083E-22
  -14.7500000      -7.34499995E-23
  -14.7399998      -4.37869299E-22
  -14.7299995      -8.04677756E-22
  -14.7200003      -9.87169884E-22
  -14.7100000      -7.80496657E-22
  -14.6999998      -5.55656140E-23
  -14.6899996       1.13107498E-21
  -14.6800003       2.45814935E-21
  -14.6700001       3.34876296E-21
  -14.6599998       3.11246254E-21
  -14.6499996       1.22292787E-21
  -14.6400003      -2.33217758E-21
  -14.6300001      -6.76251655E-21
  -14.6199999      -1.04217325E-20
  -14.6099997      -1.11402488E-20
  -14.6000004      -6.98593367E-21
  -14.5900002       2.69070443E-21
  -14.5799999       1.62796883E-20
  -14.5699997       2.95014127E-20
  -14.5600004       3.60415744E-20
  -14.5500002       2.94537400E-20
  -14.5400000       6.06772199E-21
  -14.5299997      -3.19516768E-20
  -14.5200005      -7.47295774E-20
  -14.5100002      -1.05410217E-19
  -14.5000000      -1.04387557E-19
  -14.4899998      -5.67626587E-20
  -14.4799995       3.88248239E-20
  -14.4700003       1.63295806E-19
  -14.4600000       2.76084764E-19
  -14.4499998       3.23020414E-19
  -14.4399996       2.53634591E-19
  -14.4300003       4.45079327E-20
  -14.4200001      -2.78797607E-19
  -14.4099998      -6.31208291E-19
  -14.3999996      -8.78294584E-19
  -14.3900003      -8.71453283E-19
  -14.3800001      -5.03677565E-19
  -14.3699999       2.28922907E-19
  -14.3599997       1.18297705E-18
  -14.3500004       2.06612243E-18
  -14.3400002       2.49506190E-18
  -14.3299999       2.11310112E-18
  -14.3199997       7.42717045E-19
  -14.3100004      -1.47448935E-18
  -14.3000002      -4.01064062E-18
  -14.2900000      -6.01054166E-18
  -14.2799997      -6.49968664E-18
  -14.2700005      -4.71428843E-18
  -14.2600002      -4.69641409E-19
  -14.2500000       5.56051860E-18
  -14.2399998       1.17904050E-17
  -14.2299995       1.59915701E-17
  -14.2200003       1.58935178E-17
  -14.2100000       1.00028759E-17
  -14.1999998      -1.58865620E-18
  -14.1899996      -1.67063104E-17
  -14.1800003      -3.11836271E-17
  -14.1700001      -3.96959509E-17
  -14.1599998      -3.72688773E-17
  -14.1499996      -2.11342430E-17
  -14.1400003       7.61369130E-18
  -14.1300001       4.31991634E-17
  -14.1199999       7.57123378E-17
  -14.1099997       9.32315136E-17
  -14.1000004       8.52474340E-17
  -14.0900002       4.65993323E-17
  -14.0799999      -1.92556248E-17
  -14.0699997      -9.89115114E-17
  -14.0600004      -1.70586586E-16
  -14.0500002      -2.08861847E-16
  -14.0400000      -1.91878956E-16
  -14.0299997      -1.09313294E-16
  -14.0200005       3.12353756E-17
  -14.0100002       2.01872833E-16
  -14.0000000       3.57820651E-16
  -13.9899998       4.46972510E-16
  -13.9799995       4.24125755E-16
  -13.9700003       2.66615452E-16
  -13.9600000      -1.31232758E-17
  -13.9499998      -3.62634551E-16
  -13.9399996      -6.95447984E-16
  -13.9300003      -9.08734109E-16
  -13.9200001      -9.09978189E-16
  -13.9099998      -6.46757777E-16
  -13.8999996      -1.31482820E-16
  -13.8900003       5.47322674E-16
  -13.8800001       1.23345128E-15
  -13.8699999       1.73295646E-15
  -13.8599997       1.86149149E-15
  -13.8500004       1.49901252E-15
  -13.8400002       6.37629462E-16
  -13.8299999      -5.92512146E-16
  -13.8199997      -1.93111717E-15
  -13.8100004      -3.03384798E-15
  -13.8000002      -3.55104312E-15
  -13.7900000      -3.22313358E-15
  -13.7799997      -1.96914514E-15
  -13.7700005       5.76455154E-17
  -13.7600002       2.46821674E-15
  -13.7500000       4.70032728E-15
  -13.7399998       6.13872729E-15
  -13.7299995       6.26968578E-15
  -13.7200003       4.83324538E-15
  -13.7100000       1.93163915E-15
  -13.6999998      -1.94184971E-15
  -13.6899996      -5.97265081E-15
  -13.6800003      -9.18815940E-15
  -13.6700001      -1.06833394E-14
  -13.6599998      -9.85692410E-15
  -13.6499996      -6.59759849E-15
  -13.6400003      -1.36633371E-15
  -13.6300001       4.85673107E-15
  -13.6199999       1.07594216E-14
  -13.6099997       1.49817089E-14
  -13.6000004       1.64315481E-14
  -13.5900002       1.45544875E-14
  -13.5799999       9.48703328E-15
  -13.5699997       2.05138166E-15
  -13.5600004      -6.41024751E-15
  -13.5500002      -1.43208978E-14
  -13.5400000      -2.02006855E-14
  -13.5299997      -2.29600613E-14
  -13.5200005      -2.20823217E-14
  -13.5100002      -1.76577841E-14
  -13.5000000      -1.02787380E-14
  -13.4899998      -8.48019317E-16
  -13.4799995       9.61954989E-15
  -13.4700003       2.01253249E-14
  -13.4600000       2.96987979E-14
  -13.4499998       3.73013388E-14
  -13.4399996       4.16886679E-14
  -13.4300003       4.13415436E-14
  -13.4200001       3.45811602E-14
  -13.4099998       1.99446342E-14
  -13.3999996      -3.18833641E-15
  -13.3900003      -3.38384479E-14
  -13.3800001      -6.87648790E-14
  -13.3699999      -1.02185770E-13
  -13.3599997      -1.26152818E-13
  -13.3500004      -1.31740037E-13
  -13.3400002      -1.11008425E-13
  -13.3299999      -5.94566307E-14
  -13.3199997       2.15734667E-14
  -13.3100004       1.23225025E-13
  -13.3000002       2.28880283E-13
  -13.2900000       3.15842377E-13
  -13.2799997       3.59061983E-13
  -13.2700005       3.36510008E-13
  -13.2600002       2.35258048E-13
  -13.2500000       5.69107546E-14
  -13.2399998      -1.79123995E-13
  -13.2299995      -4.35837103E-13
  -13.2200003      -6.63012343E-13
  -13.2100000      -8.05641903E-13
  -13.1999998      -8.15166077E-13
  -13.1899996      -6.61431522E-13
  -13.1800003      -3.42719966E-13
  -13.1700001       1.08777204E-13
  -13.1599998       6.27988113E-13
  -13.1499996       1.12520843E-12
  -13.1400003       1.50071112E-12
  -13.1300001       1.66332399E-12
  -13.1199999       1.54944471E-12
  -13.1099997       1.13856017E-12
  -13.1000004       4.61800628E-13
  -13.0900002      -3.98651706E-13
  -13.0799999      -1.31966855E-12
  -13.0699997      -2.15523042E-12
  -13.0600004      -2.75928672E-12
  -13.0500002      -3.00940588E-12
  -13.0400000      -2.82721286E-12
  -13.0299997      -2.19244371E-12
  -13.0200005      -1.14875796E-12
  -13.0100002       1.99046590E-13
  -13.0000000       1.69560915E-12
  -12.9899998       3.15180195E-12
  -12.9799995       4.36593903E-12
  -12.9700003       5.14760283E-12
  -12.9600000       5.34227827E-12
  -12.9499998       4.85467829E-12
  -12.9399996       3.66805935E-12
  -12.9300003       1.85611530E-12
  -12.9200001      -4.16162791E-13
  -12.9099998      -2.90562366E-12
  -12.8999996      -5.31895144E-12
  -12.8900003      -7.35315801E-12
  -12.8800001      -8.74231850E-12
  -12.8699999      -9.30099574E-12
  -12.8599997      -8.95344389E-12
  -12.8500004      -7.73926756E-12
  -12.8400002      -5.79129366E-12
  -12.8299999      -3.28909794E-12
  -12.8199997      -4.00161973E-13
  -12.8100004       2.77266946E-12
  -12.8000002       6.21648783E-12
  -12.7900000       9.98966274E-12
  -12.7799997       1.41531890E-11
  -12.7700005       1.86616157E-11
  -12.7600002       2.32395700E-11
  -12.7500000       2.72823604E-11
  -12.7399998       2.98231023E-11
  -12.7299995       2.96008773E-11
  -12.7200003       2.52449919E-11
  -12.7100000       1.55621592E-11
  -12.6999998      -1.16652348E-13
  -12.6899996      -2.15975033E-11
  -12.6800003      -4.75721372E-11
  -12.6700001      -7.55271123E-11
  -12.6599998      -1.01862137E-10
  -12.6499996      -1.22228339E-10
  -12.6400003      -1.32054548E-10
  -12.6300001      -1.27190355E-10
  -12.6199999      -1.04571331E-10
  -12.6099997      -6.28070720E-11
  -12.6000004      -2.60861298E-12
  -12.5900002       7.29972610E-11
  -12.5799999       1.58682192E-10
  -12.5699997       2.47042969E-10
  -12.5600004       3.29003796E-10
  -12.5500002       3.94356409E-10
  -12.5400000       4.32412967E-10
  -12.5299997       4.32764963E-10
  -12.5200005       3.86158189E-10
  -12.5100002       2.85497292E-10
  -12.5000000       1.26972391E-10
  -12.4899998      -8.87365806E-11
  -12.4799995      -3.55272867E-10
  -12.4700003      -6.59579336E-10
  -12.4600000      -9.81217330E-10
  -12.4499998      -1.29221622E-09
  -12.4399996      -1.55760949E-09
  -12.4300003      -1.73674097E-09
  -12.4200001      -1.78535187E-09
  -12.4099998      -1.65833547E-09
  -12.3999996      -1.31297040E-09
  -12.3900003      -7.12369441E-10
  -12.3800001       1.71153994E-10
  -12.3699999       1.35310463E-09
  -12.3599997       2.83445578E-09
  -12.3500004       4.60012917E-09
  -12.3400002       6.61843158E-09
  -12.3299999       8.84146445E-09
  -12.3199997       1.12064873E-08
  -12.3100004       1.36380942E-08
  -12.3000002       1.60510520E-08
  -12.2900000       1.83536066E-08
  -12.2799997       2.04510133E-08
  -12.2700005       2.22490950E-08
  -12.2600002       2.36576891E-08
  -12.2500000       2.45937777E-08
  -12.2399998       2.49842778E-08
  -12.2299995       2.47684095E-08
  -12.2200003       2.38998314E-08
  -12.2100000       2.23482726E-08
  -12.1999998       2.01008099E-08
  -12.1899996       1.71626962E-08
  -12.1800003       1.35575018E-08
  -12.1700001       9.32645250E-09
  -12.1599998       4.52678917E-09
  -12.1499996      -7.71005315E-10
  -12.1400003      -6.48691012E-09
  -12.1300001      -1.25358319E-08
  -12.1199999      -1.88323011E-08
  -12.1099997      -2.52948364E-08
  -12.1000004      -3.18492361E-08
  -12.0900002      -3.84303362E-08
  -12.0799999      -4.49817783E-08
  -12.0699997      -5.14541121E-08
  -12.0600004      -5.78010813E-08
  -12.0500002      -6.39752429E-08
  -12.0400000      -6.99234022E-08
  -12.0299997      -7.55828324E-08
  -12.0200005      -8.08789693E-08
  -12.0100002      -8.57246718E-08
  -12.0000000      -9.00215369E-08
  -11.9899998      -9.36625497E-08
  -11.9799995      -9.65357358E-08
  -11.9700003      -9.85283322E-08
  -11.9600000      -9.95308866E-08
  -11.9499998      -9.94413512E-08
  -11.9399996      -9.81682717E-08
  -11.9300003      -9.56342348E-08
  -11.9200001      -9.17787375E-08
  -11.9099998      -8.65610801E-08
  -11.8999996      -7.99628026E-08
  -11.8900003      -7.19894544E-08
  -11.8800001      -6.26714822E-08
  -11.8699999      -5.20638466E-08
  -11.8599997      -4.02437443E-08
  -11.8500004      -2.73072853E-08
  -11.8400002      -1.33644349E-08
  -11.8299999       1.46597212E-09
  -11.8199997       1.70614296E-08
  -11.8100004       3.32997168E-08
  -11.8000002       5.00614483E-08
  -11.7900000       6.72310989E-08
  -11.7799997       8.46961825E-08
  -11.7700005       1.02345467E-07
  -11.7600002       1.20066289E-07
  -11.7500000       1.37741836E-07
  -11.7399998       1.55248600E-07
  -11.7299995       1.72454477E-07
  -11.7200003       1.89217189E-07
  -11.7100000       2.05383756E-07
  -11.6999998       2.20790824E-07
  -11.6899996       2.35265858E-07
  -11.6800003       2.48629561E-07
  -11.6700001       2.60699892E-07
  -11.6599998       2.71297267E-07
  -11.6499996       2.80250873E-07
  -11.6400003       2.87405157E-07
  -11.6300001       2.92625572E-07
  -11.6199999       2.95802892E-07
  -11.6099997       2.96854324E-07
  -11.6000004       2.95721492E-07
  -11.5900002       2.92366110E-07
  -11.5799999       2.86762344E-07
  -11.5699997       2.78889672E-07
  -11.5600004       2.68725984E-07
  -11.5500002       2.56243851E-07
  -11.5400000       2.41409765E-07
  -11.5299997       2.24188071E-07
  -11.5200005       2.04547845E-07
  -11.5100002       1.82470899E-07
  -11.5000000       1.57960415E-07
  -11.4899998       1.31046832E-07
  -11.4799995       1.01790498E-07
  -11.4700003       7.02801870E-08
  -11.4600000       3.66283004E-08
  -11.4499998       9.62931734E-10
  -11.4399996      -3.65809214E-08
  -11.4300003      -7.58691030E-08
  -11.4200001      -1.16773641E-07
  -11.4099998      -1.59175116E-07
  -11.3999996      -2.02961616E-07
  -11.3900003      -2.48024492E-07
  -11.3800001      -2.94253169E-07
  -11.3699999      -3.41529500E-07
  -11.3599997      -3.89722146E-07
  -11.3500004      -4.38684168E-07
  -11.3400002      -4.88252624E-07
  -11.3299999      -5.38250617E-07
  -11.3199997      -5.88492128E-07
  -11.3100004      -6.38788379E-07
  -11.3000002      -6.88954401E-07
  -11.2900000      -7.38816311E-07
  -11.2799997      -7.88216653E-07
  -11.2700005      -8.37018035E-07
  -11.2600002      -8.85104043E-07
  -11.2500000      -9.32378214E-07
  -11.2399998      -9.78760568E-07
  -11.2299995      -1.02418232E-06
  -11.2200003      -1.06858045E-06
  -11.2100000      -1.11189320E-06
  -11.1999998      -1.15405635E-06
  -11.1899996      -1.19500044E-06
  -11.1800003      -1.23465338E-06
  -11.1700001      -1.27293958E-06
  -11.1599998      -1.30978640E-06
  -11.1499996      -1.34512482E-06
  -11.1400003      -1.37889106E-06
  -11.1300001      -1.41103101E-06
  -11.1199999      -1.44149624E-06
  -11.1099997      -1.47024730E-06
  -11.1000004      -1.49725224E-06
  -11.0900002      -1.52248720E-06
  -11.0799999      -1.54594056E-06
  -11.0699997      -1.56761496E-06
  -11.0600004      -1.58753267E-06
  -11.0500002      -1.60573745E-06
  -11.0400000      -1.62229423E-06
  -11.0299997      -1.63728350E-06
  -11.0200005      -1.65079882E-06
  -11.0100002      -1.66293376E-06
  -11.0000000      -1.67376970E-06
  -10.9899998      -1.68336771E-06
  -10.9799995      -1.69175576E-06
  -10.9700003      -1.69892780E-06
  -10.9600000      -1.70484145E-06
  -10.9499998      -1.70942712E-06
  -10.9399996      -1.71259342E-06
  -10.9300003      -1.71424495E-06
  -10.9200001      -1.71429133E-06
  -10.9099998      -1.71265879E-06
  -10.8999996      -1.70930264E-06
  -10.8900003      -1.70420594E-06
  -10.8800001      -1.69738530E-06
  -10.8699999      -1.68888755E-06
  -10.8599997      -1.67878386E-06
  -10.8500004      -1.66715290E-06
  -10.8400002      -1.65407857E-06
  -10.8299999      -1.63963489E-06
  -10.8199997      -1.62387335E-06
  -10.8100004      -1.60681304E-06
  -10.8000002      -1.58843216E-06
  -10.7900000      -1.56867873E-06
  -10.7799997      -1.54745601E-06
  -10.7700005      -1.52465691E-06
  -10.7600002      -1.50016092E-06
  -10.7500000      -1.47385572E-06
  -10.7399998      -1.44565388E-06
  -10.7299995      -1.41549856E-06
  -10.7200003      -1.38337271E-06
  -10.7100000      -1.34928916E-06
  -10.6999998      -1.31328363E-06
  -10.6899996      -1.27541182E-06
  -10.6800003      -1.23571090E-06
  -10.6700001      -1.19421838E-06
  -10.6599998      -1.15095065E-06
  -10.6499996      -1.10590759E-06
  -10.6400003      -1.05909101E-06
  -10.6300001      -1.01050023E-06
  -10.6199999      -9.60157195E-07
  -10.6099997      -9.08114657E-07
  -10.6000004      -8.54452708E-07
  -10.5900002      -7.99287022E-07
  -10.5799999      -7.42751070E-07
  -10.5699997      -6.84991846E-07
  -10.5600004      -6.26152712E-07
  -10.5500002      -5.66362303E-07
  -10.5400000      -5.05737205E-07
  -10.5299997      -4.44368879E-07
  -10.5200005      -3.82338015E-07
  -10.5100002      -3.19718026E-07
  -10.5000000      -2.56579540E-07
  -10.4899998      -1.93016135E-07
  -10.4799995      -1.29132644E-07
  -10.4700003      -6.50590266E-08
  -10.4600000      -9.54078372E-10
  -10.4499998       6.29951842E-08
  -10.4399996       1.26580716E-07
  -10.4300003       1.89574862E-07
  -10.4200001       2.51732416E-07
  -10.4099998       3.12800381E-07
  -10.3999996       3.72532639E-07
  -10.3900003       4.30683428E-07
  -10.3800001       4.87034015E-07
  -10.3699999       5.41386896E-07
  -10.3599997       5.93578704E-07
  -10.3500004       6.43480917E-07
  -10.3400002       6.91001219E-07
  -10.3299999       7.36082086E-07
  -10.3199997       7.78690719E-07
  -10.3100004       8.18809724E-07
  -10.3000002       8.56441090E-07
  -10.2900000       8.91581465E-07
  -10.2799997       9.24230164E-07
  -10.2700005       9.54372126E-07
  -10.2600002       9.81978701E-07
  -10.2500000       1.00700981E-06
  -10.2399998       1.02941090E-06
  -10.2299995       1.04911976E-06
  -10.2200003       1.06607479E-06
  -10.2100000       1.08022778E-06
  -10.1999998       1.09155542E-06
  -10.1899996       1.10007363E-06
  -10.1800003       1.10584938E-06
  -10.1700001       1.10900464E-06
  -10.1599998       1.10971337E-06
  -10.1499996       1.10820008E-06
  -10.1400003       1.10471922E-06
  -10.1300001       1.09954601E-06
  -10.1199999       1.09295217E-06
  -10.1099997       1.08519771E-06
  -10.1000004       1.07651954E-06
  -10.0900002       1.06712537E-06
  -10.0799999       1.05719778E-06
  -10.0699997       1.04689695E-06
  -10.0600004       1.03636648E-06
  -10.0500002       1.02573699E-06
  -10.0400000       1.01513035E-06
  -10.0299997       1.00465934E-06
  -10.0200005       9.94426159E-07
  -10.0100002       9.84528128E-07
  -10.0000000       9.75056764E-07
  -9.98999977       9.66105858E-07
  -9.97999954       9.57777388E-07
  -9.97000027       9.50187541E-07
  -9.96000004       9.43470297E-07
  -9.94999981       9.37774871E-07
  -9.93999958       9.33260594E-07
  -9.93000031       9.30084298E-07
  -9.92000008       9.28387351E-07
  -9.90999985       9.28282930E-07
  -9.89999962       9.29845669E-07
  -9.89000034       9.33106890E-07
  -9.88000011       9.38055052E-07
  -9.86999989       9.44641158E-07
  -9.85999966       9.52788071E-07
  -9.85000038       9.62400918E-07
  -9.84000015       9.73380111E-07
  -9.82999992       9.85629640E-07
  -9.81999969       9.99071062E-07
  -9.81000042       1.01364981E-06
  -9.80000019       1.02934575E-06
  -9.78999996       1.04617970E-06
  -9.77999973       1.06421760E-06
  -9.77000046       1.08357233E-06
  -9.76000023       1.10440112E-06
  -9.75000000       1.12689702E-06
  -9.73999977       1.15128182E-06
  -9.72999954       1.17779439E-06
  -9.72000027       1.20667687E-06
  -9.71000004       1.23816324E-06
  -9.69999981       1.27247540E-06
  -9.68999958       1.30981016E-06
  -9.68000031       1.35033576E-06
  -9.67000008       1.39418182E-06
  -9.65999985       1.44143064E-06
  -9.64999962       1.49210757E-06
  -9.64000034       1.54617135E-06
  -9.63000011       1.60349907E-06
  -9.61999989       1.66388679E-06
  -9.60999966       1.72703722E-06
  -9.60000038       1.79256278E-06
  -9.59000015       1.85998772E-06
  -9.57999992       1.92875177E-06
  -9.56999969       1.99821557E-06
  -9.56000042       2.06766708E-06
  -9.55000019       2.13631597E-06
  -9.53999996       2.20331390E-06
  -9.52999973       2.26775046E-06
  -9.52000046       2.32867160E-06
  -9.51000023       2.38508710E-06
  -9.50000000       2.43599175E-06
  -9.48999977       2.48038646E-06
  -9.47999954       2.51730535E-06
  -9.47000027       2.54582551E-06
  -9.46000004       2.56510475E-06
  -9.44999981       2.57439888E-06
  -9.43999958       2.57308989E-06
  -9.43000031       2.56071894E-06
  -9.42000008       2.53699818E-06
  -9.40999985       2.50184326E-06
  -9.39999962       2.45539331E-06
  -9.39000034       2.39801784E-06
  -9.38000011       2.33032256E-06
  -9.36999989       2.25313192E-06
  -9.35999966       2.16749686E-06
  -9.35000038       2.07465064E-06
  -9.34000015       1.97600275E-06
  -9.32999992       1.87309979E-06
  -9.31999969       1.76761580E-06
  -9.31000042       1.66131622E-06
  -9.30000019       1.55605187E-06
  -9.28999996       1.45371700E-06
  -9.27999973       1.35624089E-06
  -9.27000046       1.26556210E-06
  -9.26000023       1.18359935E-06
  -9.25000000       1.11221493E-06
  -9.23999977       1.05320953E-06
  -9.22999954       1.00827026E-06
  -9.22000027       9.78969979E-07
  -9.21000004       9.66724770E-07
  -9.19999981       9.72793373E-07
  -9.18999958       9.98249675E-07
  -9.18000031       1.04398589E-06
  -9.17000008       1.11067970E-06
  -9.15999985       1.19883146E-06
  -9.14999962       1.30872115E-06
  -9.14000034       1.44043224E-06
  -9.13000011       1.59383421E-06
  -9.11999989       1.76860215E-06
  -9.10999966       1.96418750E-06
  -9.10000038       2.17982893E-06
  -9.09000015       2.41455541E-06
  -9.07999992       2.66718052E-06
  -9.06999969       2.93630342E-06
  -9.06000042       3.22031883E-06
  -9.05000019       3.51743461E-06
  -9.03999996       3.82568851E-06
  -9.02999973       4.14295710E-06
  -9.02000046       4.46698550E-06
  -9.01000023       4.79537675E-06
  -9.00000000       5.12564020E-06
  -8.98999977       5.45518515E-06
  -8.97999954       5.78137315E-06
  -8.97000027       6.10152165E-06
  -8.96000004       6.41295583E-06
  -8.94999981       6.71302450E-06
  -8.93999958       6.99914972E-06
  -8.93000031       7.26884036E-06
  -8.92000008       7.51973812E-06
  -8.90999985       7.74958335E-06
  -8.89999962       7.95629785E-06
  -8.89000034       8.13793940E-06
  -8.88000011       8.29276087E-06
  -8.86999989       8.41921246E-06
  -8.85999966       8.51596269E-06
  -8.85000038       8.58190924E-06
  -8.84000015       8.61615445E-06
  -8.82999992       8.61803801E-06
  -8.81999969       8.58710519E-06
  -8.81000042       8.52306221E-06
  -8.80000019       8.42579266E-06
  -8.78999996       8.29529745E-06
  -8.77999973       8.13167298E-06
  -8.77000046       7.93516119E-06
  -8.76000023       7.70609586E-06
  -8.75000000       7.44495037E-06
  -8.73999977       7.15230362E-06
  -8.72999954       6.82885275E-06
  -8.72000027       6.47539855E-06
  -8.71000004       6.09284007E-06
  -8.69999981       5.68213181E-06
  -8.68999958       5.24425741E-06
  -8.68000031       4.78028460E-06
  -8.67000008       4.29129750E-06
  -8.65999985       3.77847391E-06
  -8.64999962       3.24302800E-06
  -8.64000034       2.68624922E-06
  -8.63000011       2.10945495E-06
  -8.61999989       1.51402401E-06
  -8.60999966       9.01364956E-07
  -8.60000038       2.72871290E-07
  -8.59000015      -3.70070694E-07
  -8.57999992      -1.02607373E-06
  -8.56999969      -1.69376949E-06
  -8.56000042      -2.37176732E-06
  -8.55000019      -3.05871208E-06
  -8.53999996      -3.75322952E-06
  -8.52999973      -4.45396608E-06
  -8.52000046      -5.15966212E-06
  -8.51000023      -5.86906799E-06
  -8.50000000      -6.58103136E-06
  -8.48999977      -7.29450903E-06
  -8.47999954      -8.00851467E-06
  -8.47000027      -8.72215242E-06
  -8.46000004      -9.43453506E-06
  -8.44999981      -1.01448559E-05
  -8.43999958      -1.08523036E-05
  -8.43000031      -1.15561033E-05
  -8.42000008      -1.22554929E-05
  -8.40999985      -1.29497603E-05
  -8.39999962      -1.36382014E-05
  -8.39000034      -1.43201369E-05
  -8.38000011      -1.49948937E-05
  -8.36999989      -1.56618116E-05
  -8.35999966      -1.63201948E-05
  -8.35000038      -1.69693449E-05
  -8.34000015      -1.76085960E-05
  -8.32999992      -1.82372296E-05
  -8.31999969      -1.88545946E-05
  -8.31000042      -1.94600325E-05
  -8.30000019      -2.00529539E-05
  -8.28999996      -2.06327477E-05
  -8.27999973      -2.11988463E-05
  -8.27000046      -2.17506349E-05
  -8.26000023      -2.22875060E-05
  -8.25000000      -2.28088265E-05
  -8.23999977      -2.33139417E-05
  -8.22999954      -2.38021839E-05
  -8.22000027      -2.42728383E-05
  -8.21000004      -2.47252356E-05
  -8.19999981      -2.51586680E-05
  -8.18999958      -2.55724008E-05
  -8.18000031      -2.59656863E-05
  -8.17000008      -2.63377169E-05
  -8.15999985      -2.66876559E-05
  -8.14999962      -2.70145865E-05
  -8.14000034      -2.73175756E-05
  -8.13000011      -2.75956445E-05
  -8.11999989      -2.78477910E-05
  -8.10999966      -2.80730164E-05
  -8.10000038      -2.82703131E-05
  -8.09000015      -2.84387024E-05
  -8.07999992      -2.85772276E-05
  -8.06999969      -2.86849736E-05
  -8.06000042      -2.87610965E-05
  -8.05000019      -2.88048686E-05
  -8.03999996      -2.88156443E-05
  -8.02999973      -2.87929088E-05
  -8.02000046      -2.87363218E-05
  -8.01000023      -2.86456980E-05
  -8.00000000      -2.85210099E-05
  -7.98999977      -2.83623976E-05
  -7.98000002      -2.81701832E-05
  -7.96999979      -2.79448377E-05
  -7.96000004      -2.76870032E-05
  -7.94999981      -2.73974783E-05
  -7.94000006      -2.70772271E-05
  -7.92999983      -2.67273590E-05
  -7.92000008      -2.63491638E-05
  -7.90999985      -2.59440567E-05
  -7.90000010      -2.55136110E-05
  -7.88999987      -2.50595313E-05
  -7.88000011      -2.45836400E-05
  -7.86999989      -2.40878508E-05
  -7.86000013      -2.35741645E-05
  -7.84999990      -2.30446403E-05
  -7.84000015      -2.25013737E-05
  -7.82999992      -2.19464782E-05
  -7.82000017      -2.13820695E-05
  -7.80999994      -2.08102374E-05
  -7.80000019      -2.02330684E-05
  -7.78999996      -1.96525980E-05
  -7.78000021      -1.90708288E-05
  -7.76999998      -1.84897053E-05
  -7.76000023      -1.79111103E-05
  -7.75000000      -1.73368462E-05
  -7.73999977      -1.67686285E-05
  -7.73000002      -1.62080705E-05
  -7.71999979      -1.56567094E-05
  -7.71000004      -1.51159884E-05
  -7.69999981      -1.45872755E-05
  -7.69000006      -1.40718621E-05
  -7.67999983      -1.35709843E-05
  -7.67000008      -1.30857934E-05
  -7.65999985      -1.26173654E-05
  -7.65000010      -1.21666853E-05
  -7.63999987      -1.17346326E-05
  -7.63000011      -1.13219658E-05
  -7.61999989      -1.09293433E-05
  -7.61000013      -1.05573135E-05
  -7.59999990      -1.02063259E-05
  -7.59000015      -9.87672411E-06
  -7.57999992      -9.56874101E-06
  -7.57000017      -9.28248573E-06
  -7.55999994      -9.01792464E-06
  -7.55000019      -8.77486855E-06
  -7.53999996      -8.55296184E-06
  -7.53000021      -8.35168703E-06
  -7.51999998      -8.17038563E-06
  -7.51000023      -8.00827092E-06
  -7.50000000      -7.86447526E-06
  -7.48999977      -7.73805823E-06
  -7.48000002      -7.62803757E-06
  -7.46999979      -7.53338509E-06
  -7.46000004      -7.45303669E-06
  -7.44999981      -7.38589279E-06
  -7.44000006      -7.33082607E-06