  -16.0000000       0.00000000    
  -15.9899998       0.00000000    
  -15.9799995       0.00000000    
  -15.9700003       0.00000000    
  -15.9600000       0.00000000    
  -15.9499998       0.00000000    
  -15.9399996       0.00000000    
  -15.9300003       0.00000000    
  -15.9200001       0.00000000    
  -15.9099998       0.00000000    
  -15.8999996       0.00000000    
  -15.8900003       0.00000000    
  -15.8800001       0.00000000    
  -15.8699999       0.00000000    
  -15.8599997       0.00000000    
  -15.8500004      -0.00000000    
  -15.8400002       0.00000000    
  -15.8299999      -0.00000000    
  -15.8199997      -5.60519386E-45
  -15.8100004      -2.94272678E-44
  -15.8000002      -1.55544130E-43
  -15.7900000      -7.04853128E-43
  -15.7799997      -2.81520861E-42
  -15.7700005      -9.98705416E-42
  -15.7600002      -3.16987726E-41
  -15.7500000      -9.05463016E-41
  -15.7399998      -2.33523586E-40
  -15.7299995      -5.44031708E-40
  -15.7200003      -1.14091339E-39
  -15.7100000      -2.13256327E-39
  -15.6999998      -3.47183325E-39
  -15.6899996      -4.64814905E-39
  -15.6800003      -4.19349776E-39
  -15.6700001       8.77114748E-40
  -15.6599998       1.52760002E-38
  -15.6499996       4.44682085E-38
  -15.6400003       9.13237756E-38
  -15.6300001       1.49400680E-37
  -15.6199999       1.93364144E-37
  -15.6099997       1.70620711E-37
  -15.6000004       3.82048192E-39
  -15.5900002      -3.80842520E-37
  -15.5799999      -9.85614059E-37
  -15.5699997      -1.63631178E-36
  -15.5600004      -1.88462115E-36
  -15.5500002      -1.02359602E-36
  -15.5400000       1.62634763E-36
  -15.5299997       6.03517411E-36
  -15.5200005       1.04711385E-35
  -15.5100002       1.07375102E-35
  -15.5000000       7.64091776E-37
  -15.4899998      -2.40077000E-35
  -15.4799995      -5.97116921E-35
  -15.4700003      -8.53929434E-35
  -15.4600000      -5.87772086E-35
  -15.4499998       7.27626411E-35
  -15.4399996       3.34884565E-34
  -15.4300003       6.61518675E-34
  -15.4200001       8.26802870E-34
  -15.4099998       4.34404213E-34
  -15.3999996      -9.46882648E-34
  -15.3900003      -3.43030594E-33
  -15.3800001      -6.27753142E-33
  -15.3699999      -7.43298359E-33
  -15.3599997      -3.63121188E-33
  -15.3500004       8.29374153E-33
  -15.3400002       2.85478560E-32
  -15.3299999       5.05390866E-32
  -15.3199997       5.81603513E-32
  -15.3100004       2.78088168E-32
  -15.3000002      -6.10300151E-32
  -15.2900000      -2.05547836E-31
  -15.2799997      -3.55348134E-31
  -15.2700005      -3.99260653E-31
  -15.2600002      -1.85898178E-31
  -15.2500000       4.01937677E-31
  -15.2399998       1.32013827E-30
  -15.2299995       2.22706903E-30
  -15.2200003       2.43391409E-30
  -15.2100000       1.06803470E-30
  -15.1999998      -2.45984813E-30
  -15.1899996      -7.73403888E-30
  -15.1800003      -1.26474766E-29
  -15.1700001      -1.32955581E-29
  -15.1599998      -5.08868382E-30
  -15.1499996       1.45691138E-29
  -15.1400003       4.25088699E-29
  -15.1300001       6.66448136E-29
  -15.1199999       6.62936022E-29
  -15.1099997       1.89391106E-29
  -15.1000004      -8.54768334E-29
  -15.0900002      -2.26026175E-28
  -15.0799999      -3.37256670E-28
  -15.0699997      -3.14595914E-28
  -15.0600004      -5.17944312E-29
  -15.0500002       4.87140772E-28
  -15.0400000       1.18057464E-27
  -15.0299997       1.69246506E-27
  -15.0200005       1.51093615E-27
  -15.0100002       1.38196861E-28
  -15.0000000      -2.56555940E-27
  -14.9899998      -5.98074163E-27
  -14.9799995      -8.48326920E-27
  -14.9700003      -7.64403983E-27
  -14.9600000      -1.11055832E-27
  -14.9499998       1.18333242E-26
  -14.9399996       2.84632324E-26
  -14.9300003       4.14937169E-26
  -14.9200001       3.98723890E-26
  -14.9099998       1.25014139E-26
  -14.8999996      -4.50978591E-26
  -14.8900003      -1.22914156E-25
  -14.8800001      -1.91120906E-25
  -14.8699999      -2.02326133E-25
  -14.8599997      -1.05696132E-25
  -14.8500004       1.26489323E-25
  -14.8400002       4.65997294E-25
  -14.8299999       8.03562117E-25
  -14.8199997       9.51070330E-25
  -14.8100004       6.88818847E-25
  -14.8000002      -1.36994756E-25
  -14.7900000      -1.48532924E-24
  -14.7799997      -3.00816664E-24
  -14.7700005      -4.02621235E-24
  -14.7600002      -3.66295018E-24
  -14.7500000      -1.16955492E-24
  -14.7399998       3.60574988E-24
  -14.7299995       9.75413256E-24
  -14.7200003       1.50885362E-23
  -14.7100000       1.64339322E-23
  -14.6999998       1.05897098E-23
  -14.6899996      -4.10957325E-24
  -14.6800003      -2.60485121E-23
  -14.6700001      -4.91450183E-23
  -14.6599998      -6.31236904E-23
  -14.6499996      -5.59527239E-23
  -14.6400003      -1.85055361E-23
  -14.6300001       4.95142242E-23
  -14.6199999       1.34466605E-22
  -14.6099997       2.07306979E-22
  -14.6000004       2.28384825E-22
  -14.5900002       1.59634473E-22
  -14.5799999      -1.75094383E-23
  -14.5699997      -2.83580324E-22
  -14.5600004      -5.69889173E-22
  -14.5500002      -7.63310496E-22
  -14.5400000      -7.32850115E-22
  -14.5299997      -3.77054460E-22
  -14.5200005       3.18194051E-22
  -14.5100002       1.23132923E-21
  -14.5000000       2.09116065E-21
  -14.4899998       2.51906647E-21
  -14.4799995       2.13514017E-21
  -14.4700003       7.12874794E-22
  -14.4600000      -1.65988603E-21
  -14.4499998      -4.47663847E-21
  -14.4399996      -6.83090435E-21
  -14.4300003      -7.60198047E-21
  -14.4200001      -5.80282144E-21
  -14.4099998      -1.01860618E-21
  -14.3999996       6.19934549E-21
  -14.3900003       1.41545014E-20
  -14.3800001       2.01923948E-20
  -14.3699999       2.13211877E-20
  -14.3599997       1.51917164E-20
  -14.3500004       1.20082765E-21
  -14.3400002      -1.86473587E-20
  -14.3299999      -3.95231194E-20
  -14.3199997      -5.44947686E-20
  -14.3100004      -5.62477324E-20
  -14.3000002      -3.95099395E-20
  -14.2900000      -3.55107264E-21
  -14.2799997       4.60962132E-20
  -14.2700005       9.75247687E-20
  -14.2600002       1.34463870E-19
  -14.2500000       1.40339204E-19
  -14.2399998       1.03591893E-19
  -14.2299995       2.28352562E-20
  -14.2200003      -8.98780139E-20
  -14.2100000      -2.09207716E-19
  -14.1999998      -3.00876815E-19
  -14.1899996      -3.29835012E-19
  -14.1800003      -2.70564238E-19
  -14.1700001      -1.16856322E-19
  -14.1599998       1.11958392E-19
  -14.1499996       3.70828843E-19
  -14.1400003       5.95990559E-19
  -14.1300001       7.18419390E-19
  -14.1199999       6.81093589E-19
  -14.1099997       4.56069856E-19
  -14.1000004       5.70039370E-20
  -14.0900002      -4.56504178E-19
  -14.0799999      -9.84679317E-19
  -14.0699997      -1.40323550E-18
  -14.0600004      -1.58665763E-18
  -14.0500002      -1.43533000E-18
  -14.0400000      -9.02000857E-19
  -14.0299997      -1.29896065E-20
  -14.0200005       1.12016519E-18
  -14.0100002       2.30250749E-18
  -14.0000000       3.27419014E-18
  -13.9899998       3.74779323E-18
  -13.9799995       3.46398156E-18
  -13.9700003       2.26068420E-18
  -13.9600000       1.44963816E-19
  -13.9499998      -2.64978355E-18
  -13.9399996      -5.64320522E-18
  -13.9300003      -8.14550557E-18
  -13.9200001      -9.36652425E-18
  -13.9099998      -8.59339410E-18
  -13.8999996      -5.41077947E-18
  -13.8900003       8.62022429E-20
  -13.8800001       7.15284169E-18
  -13.8699999       1.43969363E-17
  -13.8599997       1.99684411E-17
  -13.8500004       2.19397184E-17
  -13.8400002       1.88209215E-17
  -13.8299999       1.00965087E-17
  -13.8199997      -3.37097524E-18
  -13.8100004      -1.92255998E-17
  -13.8000002      -3.39006805E-17
  -13.7900000      -4.33159514E-17
  -13.7799997      -4.38844561E-17
  -13.7700005      -3.36065450E-17
  -13.7600002      -1.29514150E-17
  -13.7500000       1.47747974E-17
  -13.7399998       4.37858925E-17
  -13.7299995       6.69361765E-17
  -13.7200003       7.74245289E-17
  -13.7100000       7.06962815E-17
  -13.6999998       4.60292427E-17
  -13.6899996       7.29556591E-18
  -13.6800003      -3.74509761E-17
  -13.6700001      -7.76215236E-17
  -13.6599998      -1.02677599E-16
  -13.6499996      -1.05037869E-16
  -13.6400003      -8.25032524E-17
  -13.6300001      -3.94264455E-17
  -13.6199999       1.38822728E-17
  -13.6099997       6.35620009E-17
  -13.6000004       9.59319936E-17
  -13.5900002       1.01590108E-16
  -13.5799999       7.86809699E-17
  -13.5699997       3.42244953E-17
  -13.5600004      -1.71658556E-17
  -13.5500002      -5.71386324E-17
  -13.5400000      -6.92004080E-17
  -13.5299997      -4.45584792E-17
  -13.5200005       1.35863365E-17
  -13.5100002       8.88960747E-17
  -13.5000000       1.54789395E-16
  -13.4899998       1.81173426E-16
  -13.4799995       1.43617507E-16
  -13.4700003       3.26059377E-17
  -13.4600000      -1.39912465E-16
  -13.4499998      -3.39130975E-16
  -13.4399996      -5.12504008E-16
  -13.4300003      -6.01082161E-16
  -13.4200001      -5.54940306E-16
  -13.4099998      -3.49082130E-16
  -13.3999996       4.50504275E-18
  -13.3900003       4.52577698E-16
  -13.3800001       9.06547600E-16
  -13.3699999       1.25858805E-15
  -13.3599997       1.40523327E-15
  -13.3500004       1.27343304E-15
  -13.3400002       8.42751460E-16
  -13.3299999       1.57643089E-16
  -13.3199997      -6.74403080E-16
  -13.3100004      -1.49989630E-15
  -13.3000002      -2.14887282E-15
  -13.2900000      -2.47086816E-15
  -13.2799997      -2.36919605E-15
  -13.2700005      -1.82526516E-15
  -13.2600002      -9.06652102E-16
  -13.2500000       2.43616972E-16
  -13.2399998       1.43455247E-15
  -13.2299995       2.46519347E-15
  -13.2200003       3.16412101E-15
  -13.2100000       3.42110361E-15
  -13.1999998       3.20361921E-15
  -13.1899996       2.55513164E-15
  -13.1800003       1.57703908E-15
  -13.1700001       4.00704368E-16
  -13.1599998      -8.41470905E-16
  -13.1499996      -2.03711657E-15
  -13.1400003      -3.10132919E-15
  -13.1300001      -3.96968428E-15
  -13.1199999      -4.58151693E-15
  -13.1099997      -4.86234774E-15
  -13.1000004      -4.71571575E-15
  -13.0900002      -4.03242740E-15
  -13.0799999      -2.71979738E-15
  -13.0699997      -7.46056244E-16
  -13.0600004       1.81180326E-15
  -13.0500002       4.73294313E-15
  -13.0400000       7.64635192E-15
  -13.0299997       1.00640863E-14
  -13.0200005       1.14554142E-14
  -13.0100002       1.13516137E-14
  -13.0000000       9.46076256E-15
  -12.9899998       5.76549069E-15
  -12.9799995       5.76946116E-16
  -12.9700003      -5.47437817E-15
  -12.9600000      -1.15169918E-14
  -12.9499998      -1.65757741E-14
  -12.9399996      -1.97431759E-14
  -12.9300003      -2.03493499E-14
  -12.9200001      -1.80946532E-14
  -12.9099998      -1.31155166E-14
  -12.8999996      -5.96937533E-15
  -12.8900003       2.45693934E-15
  -12.8800001       1.10933652E-14
  -12.8699999       1.88535948E-14
  -12.8599997       2.47865828E-14
  -12.8500004       2.81832578E-14
  -12.8400002       2.86242723E-14
  -12.8299999       2.59728914E-14
  -12.8199997       2.03332631E-14
  -12.8100004       1.20032768E-14
  -12.8000002       1.44936877E-15
  -12.7900000      -1.06815632E-14
  -12.7799997      -2.35172735E-14
  -12.7700005      -3.59076104E-14
  -12.7600002      -4.64042426E-14
  -12.7500000      -5.33159976E-14
  -12.7399998      -5.48711196E-14
  -12.7299995      -4.94919589E-14
  -12.7200003      -3.61528908E-14
  -12.7100000      -1.47583751E-14
  -12.6999998       1.35469681E-14
  -12.6899996       4.62287780E-14
  -12.6800003       7.94494407E-14
  -12.6700001       1.08425760E-13
  -12.6599998       1.28037582E-13
  -12.6499996       1.33609622E-13
  -12.6400003       1.21739790E-13
  -12.6300001       9.10241866E-14
  -12.6199999       4.25341084E-14
  -12.6099997      -2.00611978E-14
  -12.6000004      -9.07686198E-14
  -12.5900002      -1.61911934E-13
  -12.5799999      -2.25037531E-13
  -12.5699997      -2.71937231E-13
  -12.5600004      -2.95622874E-13
  -12.5500002      -2.91105302E-13
  -12.5400000      -2.55881931E-13
  -12.5299997      -1.90102857E-13
  -12.5200005      -9.64512758E-14
  -12.5100002       2.01720846E-14
  -12.5000000       1.53052023E-13
  -12.4899998       2.94049263E-13
  -12.4799995       4.33915843E-13
  -12.4700003       5.62530328E-13
  -12.4600000       6.69095042E-13
  -12.4499998       7.42373665E-13
  -12.4399996       7.71049511E-13
  -12.4300003       7.44257087E-13
  -12.4200001       6.52284270E-13
  -12.4099998       4.87376415E-13
  -12.3999996       2.44524561E-13
  -12.3900003      -7.79191639E-14
  -12.3800001      -4.77931442E-13
  -12.3699999      -9.49908988E-13
  -12.3599997      -1.48516247E-12
  -12.3500004      -2.07273651E-12
  -12.3400002      -2.70039048E-12
  -12.3299999      -3.35553547E-12
  -12.3199997      -4.02591589E-12
  -12.3100004      -4.69988024E-12
  -12.3000002      -5.36620661E-12
  -12.2900000      -6.01347661E-12
  -12.2799997      -6.62919199E-12
  -12.2700005      -7.19883571E-12
  -12.2600002      -7.70509698E-12
  -12.2500000      -8.12749260E-12
  -12.2399998      -8.44248976E-12
  -12.2299995      -8.62415001E-12
  -12.2200003      -8.64527026E-12
  -12.2100000      -8.47880273E-12
  -12.1999998      -8.09941697E-12
  -12.1899996      -7.48503343E-12
  -12.1800003      -6.61819861E-12
  -12.1700001      -5.48721355E-12
  -12.1599998      -4.08702152E-12
  -12.1499996      -2.41993535E-12
  -12.1400003      -4.96125005E-13
  -12.1300001       1.66605976E-12
  -12.1199999       4.03999577E-12
  -12.1099997       6.59105669E-12
  -12.1000004       9.27732891E-12
  -12.0900002       1.20508594E-11
  -12.0799999       1.48594331E-11
  -12.0699997       1.76488633E-11
  -12.0600004       2.03654541E-11
  -12.0500002       2.29585049E-11
  -12.0400000       2.53824062E-11
  -12.0299997       2.75981234E-11
  -12.0200005       2.95737809E-11
  -12.0100002       3.12843987E-11
  -12.0000000       3.27109069E-11
  -11.9899998       3.38385292E-11
  -11.9799995       3.46551815E-11
  -11.9700003       3.51499801E-11
  -11.9600000       3.53123156E-11
  -11.9499998       3.51314360E-11
  -11.9399996       3.45968393E-11
  -11.9300003       3.36989325E-11
  -11.9200001       3.24299337E-11
  -11.9099998       3.07846457E-11
  -11.8999996       2.87609155E-11
  -11.8900003       2.63596003E-11
  -11.8800001       2.35841624E-11
  -11.8699999       2.04402311E-11
  -11.8599997       1.69348285E-11
  -11.8500004       1.30764869E-11
  -11.8400002       8.87512026E-12
  -11.8299999       4.34322890E-12
  -11.8199997      -5.03071760E-13
  -11.8100004      -5.64280046E-12
  -11.8000002      -1.10488025E-11
  -11.7900000      -1.66872419E-11
  -11.7799997      -2.25176405E-11
  -11.7700005      -2.84936727E-11
  -11.7600002      -3.45646810E-11
  -11.7500000      -4.06772949E-11
  -11.7399998      -4.67773702E-11
  -11.7299995      -5.28110264E-11
  -11.7200003      -5.87253093E-11
  -11.7100000      -6.44679726E-11
  -11.6999998      -6.99868011E-11
  -11.6899996      -7.52283305E-11
  -11.6800003      -8.01369526E-11
  -11.6700001      -8.46544501E-11
  -11.6599998      -8.87202464E-11
  -11.6499996      -9.22726964E-11
  -11.6400003      -9.52513832E-11
  -11.6300001      -9.75997755E-11
  -11.6199999      -9.92681909E-11
  -11.6099997      -1.00216259E-10
  -11.6000004      -1.00415010E-10
  -11.5900002      -9.98474081E-11
  -11.5799999      -9.85082294E-11
  -11.5699997      -9.64025457E-11
  -11.5600004      -9.35439504E-11
  -11.5500002      -8.99516503E-11
  -11.5400000      -8.56481205E-11
  -11.5299997      -8.06570505E-11
  -11.5200005      -7.50006168E-11
  -11.5100002      -6.86991228E-11
  -11.5000000      -6.17690551E-11
  -11.4899998      -5.42225397E-11
  -11.4799995      -4.60674138E-11
  -11.4700003      -3.73066092E-11
  -11.4600000      -2.79380789E-11
  -11.4499998      -1.79556352E-11
  -11.4399996      -7.34940841E-12
  -11.4300003       3.89248963E-12
  -11.4200001       1.57823910E-11
  -11.4099998       2.83308342E-11
  -11.3999996       4.15442993E-11
  -11.3900003       5.54223403E-11
  -11.3800001       6.99561520E-11
  -11.3699999       8.51266765E-11
  -11.3599997       1.00904035E-10
  -11.3500004       1.17247739E-10
  -11.3400002       1.34107309E-10
  -11.3299999       1.51423110E-10
  -11.3199997       1.69129280E-10
  -11.3100004       1.87154819E-10
  -11.3000002       2.05426134E-10
  -11.2900000       2.23869312E-10
  -11.2799997       2.42412090E-10
  -11.2700005       2.60986205E-10
  -11.2600002       2.79529011E-10
  -11.2500000       2.97985719E-10
  -11.2399998       3.16310617E-10
  -11.2299995       3.34468675E-10
  -11.2200003       3.52435747E-10
  -11.2100000       3.70198955E-10
  -11.1999998       3.87755883E-10
  -11.1899996       4.05113498E-10
  -11.1800003       4.22286317E-10
  -11.1700001       4.39294490E-10
  -11.1599998       4.56161109E-10
  -11.1499996       4.72911765E-10
  -11.1400003       4.89571217E-10
  -11.1300001       5.06162612E-10
  -11.1199999       5.22706489E-10
  -11.1099997       5.39218614E-10
  -11.1000004       5.55709090E-10
  -11.0900002       5.72181913E-10
  -11.0799999       5.88630700E-10
  -11.0699997       6.05040129E-10
  -11.0600004       6.21382779E-10
  -11.0500002       6.37621400E-10
  -11.0400000       6.53702981E-10
  -11.0299997       6.69567568E-10
  -11.0200005       6.85145052E-10
  -11.0100002       7.00360270E-10
  -11.0000000       7.15138559E-10
  -10.9899998       7.29403982E-10
  -10.9799995       7.43089867E-10
  -10.9700003       7.56134766E-10
  -10.9600000       7.68489772E-10
  -10.9499998       7.80114862E-10
  -10.9399996       7.90986832E-10
  -10.9300003       8.01086697E-10
  -10.9200001       8.10410294E-10
  -10.9099998       8.18960955E-10
  -10.8999996       8.26754998E-10
  -10.8900003       8.33814962E-10
  -10.8800001       8.40172765E-10
  -10.8699999       8.45869652E-10
  -10.8599997       8.50954418E-10
  -10.8500004       8.55477356E-10
  -10.8400002       8.59498583E-10
  -10.8299999       8.63076222E-10
  -10.8199997       8.66265504E-10
  -10.8100004       8.69118277E-10
  -10.8000002       8.71681116E-10
  -10.7900000       8.73984773E-10
  -10.7799997       8.76050898E-10
  -10.7700005       8.77887096E-10
  -10.7600002       8.79496476E-10
  -10.7500000       8.80858220E-10
  -10.7399998       8.81958062E-10
  -10.7299995       8.82765694E-10
  -10.7200003       8.83254969E-10
  -10.7100000       8.83394802E-10
  -10.6999998       8.83167095E-10
  -10.6899996       8.82557971E-10
  -10.6800003       8.81571649E-10
  -10.6700001       8.80229112E-10
  -10.6599998       8.78573436E-10
  -10.6499996       8.76669959E-10
  -10.6400003       8.74611772E-10
  -10.6300001       8.72523220E-10
  -10.6199999       8.70537586E-10
  -10.6099997       8.68813521E-10
  -10.6000004       8.67521333E-10
  -10.5900002       8.66836158E-10
  -10.5799999       8.66931471E-10
  -10.5699997       8.67969641E-10
  -10.5600004       8.70108208E-10
  -10.5500002       8.73486838E-10
  -10.5400000       8.78230266E-10
  -10.5299997       8.84438245E-10
  -10.5200005       8.92203034E-10
  -10.5100002       9.01585639E-10
  -10.5000000       9.12640352E-10
  -10.4899998       9.25401145E-10
  -10.4799995       9.39879286E-10
  -10.4700003       9.56067447E-10
  -10.4600000       9.73936709E-10
  -10.4499998       9.93445326E-10
  -10.4399996       1.01454523E-09
  -10.4300003       1.03713738E-09
  -10.4200001       1.06114029E-09
  -10.4099998       1.08643827E-09
  -10.3999996       1.11291043E-09
  -10.3900003       1.14042675E-09
  -10.3800001       1.16883692E-09
  -10.3699999       1.19800214E-09
  -10.3599997       1.22776889E-09
  -10.3500004       1.25799948E-09
  -10.3400002       1.28855882E-09
  -10.3299999       1.31933897E-09
  -10.3199997       1.35023637E-09
  -10.3100004       1.38117096E-09
  -10.3000002       1.41210088E-09
  -10.2900000       1.44298418E-09
  -10.2799997       1.47381329E-09
  -10.2700005       1.50458601E-09
  -10.2600002       1.53530932E-09
  -10.2500000       1.56600111E-09
  -10.2399998       1.59669289E-09
  -10.2299995       1.62740510E-09
  -10.2200003       1.65816449E-09
  -10.2100000       1.68901337E-09
  -10.1999998       1.71998593E-09
  -10.1899996       1.75114279E-09
  -10.1800003       1.78253801E-09
  -10.1700001       1.81424942E-09
  -10.1599998       1.84636317E-09
  -10.1499996       1.87896565E-09
  -10.1400003       1.91214800E-09
  -10.1300001       1.94600669E-09
  -10.1199999       1.98062322E-09
  -10.1099997       2.01608463E-09
  -10.1000004       2.05246686E-09
  -10.0900002       2.08981965E-09
  -10.0799999       2.12820450E-09
  -10.0699997       2.16764273E-09
  -10.0600004       2.20816343E-09
  -10.0500002       2.24978591E-09
  -10.0400000       2.29251684E-09
  -10.0299997       2.33637154E-09
  -10.0200005       2.38134956E-09
  -10.0100002       2.42745068E-09
  -10.0000000       2.47468424E-09
  -9.98999977       2.52307153E-09
  -9.97999954       2.57260391E-09
  -9.97000027       2.62330757E-09
  -9.96000004       2.67519518E-09
  -9.94999981       2.72828804E-09
  -9.93999958       2.78262235E-09
  -9.93000031       2.83822477E-09
  -9.92000008       2.89513702E-09
  -9.90999985       2.95339664E-09
  -9.89999962       3.01303693E-09
  -9.89000034       3.07411097E-09
  -9.88000011       3.13665094E-09
  -9.86999989       3.20071503E-09
  -9.85999966       3.26635607E-09
  -9.85000038       3.33362626E-09
  -9.84000015       3.40260420E-09
  -9.82999992       3.47336537E-09
  -9.81999969       3.54603236E-09
  -9.81000042       3.62068686E-09
  -9.80000019       3.69747077E-09
  -9.78999996       3.77653908E-09
  -9.77999973       3.85806542E-09
  -9.77000046       3.94221633E-09
  -9.76000023       4.02914857E-09
  -9.75000000       4.11902468E-09
  -9.73999977       4.21200319E-09
  -9.72999954       4.30818492E-09
  -9.72000027       4.40771952E-09
  -9.71000004       4.51068605E-09
  -9.69999981       4.61715022E-09
  -9.68999958       4.72716133E-09
  -9.68000031       4.84072249E-09
  -9.67000008       4.95778796E-09
  -9.65999985       5.07830045E-09
  -9.64999962       5.20209964E-09
  -9.64000034       5.32902833E-09
  -9.63000011       5.45883827E-09
  -9.61999989       5.59122704E-09
  -9.60999966       5.72582515E-09
  -9.60000038       5.86221738E-09
  -9.59000015       5.99991479E-09
  -9.57999992       6.13838713E-09
  -9.56999969       6.27707974E-09
  -9.56000042       6.41536912E-09
  -9.55000019       6.55260912E-09
  -9.53999996       6.68812472E-09
  -9.52999973       6.82128132E-09
  -9.52000046       6.95143321E-09
  -9.51000023       7.07787784E-09
  -9.50000000       7.20006144E-09
  -9.48999977       7.31736760E-09
  -9.47999954       7.42927586E-09
  -9.47000027       7.53529861E-09
  -9.46000004       7.63503394E-09
  -9.44999981       7.72815678E-09
  -9.43999958       7.81443710E-09
  -9.43000031       7.89371146E-09
  -9.42000008       7.96592836E-09
  -9.40999985       8.03116418E-09
  -9.39999962       8.08956102E-09
  -9.39000034       8.14147416E-09
  -9.38000011       8.18732815E-09
  -9.36999989       8.22769941E-09
  -9.35999966       8.26324964E-09
  -9.35000038       8.29485725E-09
  -9.34000015       8.32345126E-09
  -9.32999992       8.35012770E-09
  -9.31999969       8.37605540E-09
  -9.31000042       8.40251690E-09
  -9.30000019       8.43090397E-09
  -9.28999996       8.46262882E-09
  -9.27999973       8.49916493E-09
  -9.27000046       8.54207993E-09
  -9.26000023       8.59291038E-09
  -9.25000000       8.65313510E-09
  -9.23999977       8.72425154E-09
  -9.22999954       8.80767992E-09
  -9.22000027       8.90477647E-09
  -9.21000004       9.01678820E-09
  -9.19999981       9.14486176E-09
  -9.18999958       9.29002741E-09
  -9.18000031       9.45313072E-09
  -9.17000008       9.63487512E-09
  -9.15999985       9.83581838E-09
  -9.14999962       1.00562367E-08
  -9.14000034       1.02962918E-08
  -9.13000011       1.05559304E-08
  -9.11999989       1.08348672E-08
  -9.10999966       1.11325669E-08
  -9.10000038       1.14483729E-08
  -9.09000015       1.17814025E-08
  -9.07999992       1.21305241E-08
  -9.06999969       1.24944837E-08
  -9.06000042       1.28718236E-08
  -9.05000019       1.32609674E-08
  -9.03999996       1.36602214E-08
  -9.02999973       1.40677185E-08
  -9.02000046       1.44816088E-08
  -9.01000023       1.48998733E-08
  -9.00000000       1.53205733E-08
  -8.98999977       1.57416817E-08
  -8.97999954       1.61610689E-08
  -8.97000027       1.65767027E-08
  -8.96000004       1.69864958E-08
  -8.94999981       1.73883592E-08
  -8.93999958       1.77802342E-08
  -8.93000031       1.81600885E-08
  -8.92000008       1.85259506E-08
  -8.90999985       1.88759905E-08
  -8.89999962       1.92082759E-08
  -8.89000034       1.95210887E-08
  -8.88000011       1.98128021E-08
  -8.86999989       2.00818135E-08
  -8.85999966       2.03267767E-08
  -8.85000038       2.05464126E-08
  -8.84000015       2.07396909E-08
  -8.82999992       2.09055955E-08
  -8.81999969       2.10434798E-08
  -8.81000042       2.11526441E-08
  -8.80000019       2.12328555E-08
  -8.78999996       2.12838369E-08
  -8.77999973       2.13055902E-08
  -8.77000046       2.12982947E-08
  -8.76000023       2.12621618E-08
  -8.75000000       2.11976321E-08
  -8.73999977       2.11054090E-08
  -8.72999954       2.09861941E-08
  -8.72000027       2.08409112E-08
  -8.71000004       2.06706154E-08
  -8.69999981       2.04765733E-08
  -8.68999958       2.02599626E-08
  -8.68000031       2.00221297E-08
  -8.67000008       1.97645420E-08
  -8.65999985       1.94886240E-08
  -8.64999962       1.91958716E-08
  -8.64000034       1.88877447E-08
  -8.63000011       1.85658173E-08
  -8.61999989       1.82315745E-08
  -8.60999966       1.78864852E-08
  -8.60000038       1.75320025E-08
  -8.59000015       1.71694658E-08
  -8.57999992       1.68002554E-08
  -8.56999969       1.64255489E-08
  -8.56000042       1.60465508E-08
  -8.55000019       1.56643072E-08
  -8.53999996       1.52797863E-08
  -8.52999973       1.48940620E-08
  -8.52000046       1.45079015E-08
  -8.51000023       1.41220546E-08
  -8.50000000       1.37372167E-08
  -8.48999977       1.33541764E-08
  -8.47999954       1.29732856E-08
  -8.47000027       1.25951027E-08
  -8.46000004       1.22198198E-08
  -8.44999981       1.18477841E-08
  -8.43999958       1.14792016E-08
  -8.43000031       1.11143725E-08
  -8.42000008       1.07534843E-08
  -8.40999985       1.03966498E-08
  -8.39999962       1.00441273E-08
  -8.39000034       9.69620739E-09
  -8.38000011       9.35304012E-09
  -8.36999989       9.01505270E-09
  -8.35999966       8.68240502E-09
  -8.35000038       8.35559355E-09
  -8.34000015       8.03513345E-09
  -8.32999992       7.72161535E-09
  -8.31999969       7.41563033E-09
  -8.31000042       7.11798442E-09
  -8.30000019       6.82944279E-09
  -8.28999996       6.55094423E-09
  -8.27999973       6.28333208E-09
  -8.27000046       6.02757044E-09
  -8.26000023       5.78470694E-09
  -8.25000000       5.55584023E-09
  -8.23999977       5.34198774E-09
  -8.22999954       5.14428100E-09
  -8.22000027       4.96410824E-09
  -8.21000004       4.80273243E-09
  -8.19999981       4.66126870E-09
  -8.18999958       4.54106797E-09
  -8.18000031       4.44344961E-09
  -8.17000008       4.36955627E-09
  -8.15999985       4.32065539E-09
  -8.14999962       4.29786784E-09
  -8.14000034       4.30236202E-09
  -8.13000011       4.33519176E-09
  -8.11999989       4.39731851E-09
  -8.10999966       4.48979076E-09
  -8.10000038       4.61344962E-09
  -8.09000015       4.76912598E-09
  -8.07999992       4.95748198E-09
  -8.06999969       5.17911181E-09
  -8.06000042       5.43448531E-09
  -8.05000019       5.72391512E-09
  -8.03999996       6.04773964E-09
  -8.02999973       6.40599174E-09
  -8.02000046       6.79874201E-09
  -8.01000023       7.22599358E-09
  -8.00000000       7.68739383E-09
  -7.98999977       8.18254708E-09
  -7.98000002       8.71092620E-09
  -7.96999979       9.27182775E-09
  -7.96000004       9.86437776E-09
  -7.94999981       1.04875326E-08
  -7.94000006       1.11400817E-08
  -7.92999983       1.18207231E-08
  -7.92000008       1.25279369E-08
  -7.90999985       1.32604328E-08
  -7.90000010       1.40165399E-08
  -7.88999987       1.47946997E-08
  -7.88000011       1.55930806E-08
  -7.86999989       1.64099028E-08
  -7.86000013       1.72433321E-08
  -7.84999990       1.80915425E-08
  -7.84000015       1.89525124E-08
  -7.82999992       1.98243768E-08
  -7.82000017       2.07052189E-08
  -7.80999994       2.15934666E-08
  -7.80000019       2.24871961E-08
  -7.78999996       2.33847750E-08
  -7.78000021       2.42846063E-08
  -7.76999998       2.51852228E-08
  -7.76000023       2.60851003E-08
  -7.75000000       2.69830984E-08
  -7.73999977       2.78775900E-08
  -7.73000002       2.87676833E-08
  -7.71999979       2.96522060E-08
  -7.71000004       3.05301349E-08
  -7.69999981       3.14006492E-08
  -7.69000006       3.22628289E-08
  -7.67999983       3.31159917E-08
  -7.67000008       3.39594735E-08
  -7.65999985       3.47925244E-08
  -7.65000010       3.56145478E-08
  -7.63999987       3.64250745E-08
  -7.63000011       3.72234048E-08
  -7.61999989       3.80094001E-08
  -7.61000013       3.87826944E-08
  -7.59999990       3.95427513E-08
  -7.59000015       4.02895743E-08
  -7.57999992       4.10232381E-08
  -7.57000017       4.17434798E-08
  -7.55999994       4.24505089E-08
  -7.55000019       4.31445812E-08
  -7.53999996       4.38258247E-08
  -7.53000021       4.44947972E-08
  -7.51999998       4.51517543E-08
  -7.51000023       4.57976803E-08
  -7.50000000       4.64329517E-08
  -7.48999977       4.70585242E-08
  -7.48000002       4.76755169E-08
  -7.46999979       4.82846723E-08
  -7.46000004       4.88870455E-08
  -7.44999981       4.94838304E-08
  -7.44000006       5.00760891E-08