  -16.0000000       0.00000000    
  -15.9899998       0.00000000    
  -15.9799995       0.00000000    
  -15.9700003       0.00000000    
  -15.9600000       0.00000000    
  -15.9499998       0.00000000    
  -15.9399996       0.00000000    
  -15.9300003       0.00000000    
  -15.9200001       0.00000000    
  -15.9099998       0.00000000    
  -15.8999996       0.00000000    
  -15.8900003       0.00000000    
  -15.8800001      -0.00000000    
  -15.8699999       2.55036321E-43
  -15.8599997       1.46029313E-41
  -15.8500004       3.11109279E-40
  -15.8400002       4.03309393E-39
  -15.8299999       3.68974413E-38
  -15.8199997       2.60012948E-37
  -15.8100004       1.48969273E-36
  -15.8000002       7.18343493E-36
  -15.7900000       2.98661804E-35
  -15.7799997       1.08902343E-34
  -15.7700005       3.52496800E-34
  -15.7600002       1.02114028E-33
  -15.7500000       2.66028992E-33
  -15.7399998       6.24177949E-33
  -15.7299995       1.31540668E-32
  -15.7200003       2.46795744E-32
  -15.7100000       4.03853192E-32
  -15.6999998       5.48809101E-32
  -15.6899996       5.30958691E-32
  -15.6800003       6.09544183E-33
  -15.6700001      -1.27468021E-31
  -15.6599998      -3.86159698E-31
  -15.6499996      -7.68881263E-31
  -15.6400003      -1.17644829E-30
  -15.6300001      -1.35164763E-30
  -15.6199999      -8.66803422E-31
  -15.6099997       7.68012573E-31
  -15.6000004       3.81235463E-30
  -15.5900002       7.82903613E-30
  -15.5799999       1.12093712E-29
  -15.5699997       1.10477375E-29
  -15.5600004       3.83931765E-30
  -15.5500002      -1.26624507E-29
  -15.5400000      -3.66254880E-29
  -15.5299997      -5.94698218E-29
  -15.5200005      -6.54109244E-29
  -15.5100002      -3.55817483E-29
  -15.5000000       4.20270173E-29
  -15.4899998       1.58573404E-28
  -15.4799995       2.72338916E-28
  -15.4700003       3.08276721E-28
  -15.4600000       1.78694870E-28
  -15.4499998      -1.71789123E-28
  -15.4399996      -7.06593893E-28
  -15.4300003      -1.24776244E-27
  -15.4200001      -1.47156860E-27
  -15.4099998      -9.80124815E-28
  -15.3999996       5.41140381E-28
  -15.3900003       3.10162370E-27
  -15.3800001       6.16887302E-27
  -15.3699999       8.48165758E-27
  -15.3599997       7.99187742E-27
  -15.3500004       2.07042361E-27
  -15.3400002      -1.17544096E-26
  -15.3299999      -3.40901834E-26
  -15.3199997      -6.06151229E-26
  -15.3100004      -7.79587969E-26
  -15.3000002      -6.06351032E-26
  -15.2900000       2.60983383E-26
  -15.2799997       2.10298731E-25
  -15.2700005       4.78754605E-25
  -15.2600002       7.27891818E-25
  -15.2500000       7.24543498E-25
  -15.2399998       1.26947071E-25
  -15.2299995      -1.36895884E-24
  -15.2200003      -3.71801465E-24
  -15.2100000      -6.10401991E-24
  -15.1999998      -6.62982134E-24
  -15.1899996      -2.52513784E-24
  -15.1800003       8.66307561E-24
  -15.1700001       2.66946081E-23
  -15.1599998       4.56121900E-23
  -15.1499996       5.17567633E-23
  -15.1400003       2.55889249E-23
  -15.1300001      -4.98444918E-23
  -15.1199999      -1.73056531E-22
  -15.1099997      -3.05055390E-22
  -15.1000004      -3.58107106E-22
  -15.0900002      -2.08971955E-22
  -15.0799999       2.47975762E-22
  -15.0699997       1.00615950E-21
  -15.0600004       1.83795534E-21
  -15.0500002       2.23555880E-21
  -15.0400000       1.49191656E-21
  -15.0299997      -1.00127800E-21
  -15.0200005      -5.24098486E-21
  -15.0100002      -1.00391567E-20
  -15.0000000      -1.27230686E-20
  -14.9899998      -9.55972149E-21
  -14.9799995       2.73278765E-21
  -14.9700003       2.44312350E-20
  -14.9600000       4.99800007E-20
  -14.9499998       6.64949039E-20
  -14.9399996       5.56910980E-20
  -14.9300003       8.67949348E-22
  -14.9200001      -1.01288350E-19
  -14.9099998      -2.27564159E-19
  -14.8999996      -3.20827610E-19
  -14.8900003      -2.97547180E-19
  -14.8800001      -7.73538725E-20
  -14.8699999       3.66126140E-19
  -14.8599997       9.47351034E-19
  -14.8500004       1.43310437E-18
  -14.8400002       1.46666350E-18
  -14.8299999       6.82348008E-19
  -14.8199997      -1.08986226E-18
  -14.8100004      -3.58228349E-18
  -14.8000002      -5.92204657E-18
  -14.7900000      -6.68646651E-18
  -14.7799997      -4.30684366E-18
  -14.7700005       2.16296625E-18
  -14.7600002       1.20886540E-17
  -14.7500000       2.25089080E-17
  -14.7399998       2.81490919E-17
  -14.7299995       2.26970138E-17
  -14.7200003       1.48316451E-18
  -14.7100000      -3.49499691E-17
  -14.6999998      -7.77109650E-17
  -14.6899996      -1.08785183E-16
  -14.6800003      -1.04517453E-16
  -14.6700001      -4.42082807E-17
  -14.6599998       7.74453407E-17
  -14.6499996       2.38073565E-16
  -14.6400003       3.81847270E-16
  -14.6300001       4.26987429E-16
  -14.6199999       2.90677646E-16
  -14.6099997      -7.07710056E-17
  -14.6000004      -6.17486277E-16
  -14.5900002      -1.19658767E-15
  -14.5799999      -1.55051668E-15
  -14.5699997      -1.38033304E-15
  -14.5600004      -4.64148379E-16
  -14.5500002       1.19531013E-15
  -14.5400000       3.24782099E-15
  -14.5299997       4.96811463E-15
  -14.5200005       5.38719222E-15
  -14.5100002       3.60511368E-15
  -14.5000000      -7.63940656E-16
  -14.4899998      -7.14889794E-15
  -14.4799995      -1.37823746E-14
  -14.4700003      -1.78740198E-14
  -14.4600000      -1.63239360E-14
  -14.4499998      -6.92492421E-15
  -14.4399996       1.02362136E-14
  -14.4300003       3.16960508E-14
  -14.4200001       5.04672869E-14
  -14.4099998       5.73291347E-14
  -14.3999996       4.36688683E-14
  -14.3900003       5.37694143E-15
  -14.3800001      -5.33646952E-14
  -14.3699999      -1.18035437E-13
  -14.3599997      -1.65082764E-13
  -14.3500004      -1.67505712E-13
  -14.3400002      -1.04267723E-13
  -14.3299999       2.86578453E-14
  -14.3199997       2.09384972E-13
  -14.3100004       3.87803288E-13
  -14.3000002       4.93478142E-13
  -14.2900000       4.54762150E-13
  -14.2799997       2.26088964E-13
  -14.2700005      -1.83957762E-13
  -14.2600002      -6.94363133E-13
  -14.2500000      -1.15396386E-12
  -14.2399998      -1.37119894E-12
  -14.2299995      -1.17033651E-12
  -14.2200003      -4.62783837E-13
  -14.2100000       6.87703258E-13
  -14.1999998       2.03221576E-12
  -14.1899996       3.15991569E-12
  -14.1800003       3.58831454E-12
  -14.1700001       2.91091370E-12
  -14.1599998       9.68470638E-13
  -14.1499996      -2.00952362E-12
  -14.1400003      -5.35329203E-12
  -14.1300001      -8.03860017E-12
  -14.1199999      -8.92386252E-12
  -14.1099997      -7.10393766E-12
  -14.1000004      -2.29463041E-12
  -14.0900002       4.87456169E-12
  -14.0799999       1.27868514E-11
  -14.0699997       1.90739560E-11
  -14.0600004       2.11724735E-11
  -14.0500002       1.71084258E-11
  -14.0400000       6.31453136E-12
  -14.0299997      -9.77867613E-12
  -14.0200005      -2.76334875E-11
  -14.0100002      -4.21428864E-11
  -14.0000000      -4.78155501E-11
  -13.9899998      -4.03991042E-11
  -13.9799995      -1.85395831E-11
  -13.9700003       1.50356429E-11
  -13.9600000       5.33012072E-11
  -13.9499998       8.59869745E-11
  -13.9399996       1.01881392E-10
  -13.9300003       9.19784249E-11
  -13.9200001       5.27028872E-11
  -13.9099998      -1.17390125E-11
  -13.8999996      -8.87868737E-11
  -13.8900003      -1.59293981E-10
  -13.8800001      -2.01617029E-10
  -13.8699999      -1.97314498E-10
  -13.8599997      -1.37124478E-10
  -13.8500004      -2.55373847E-11
  -13.8400002       1.17633792E-10
  -13.8299999       2.59726907E-10
  -13.8199997       3.61805974E-10
  -13.8100004       3.88245103E-10
  -13.8000002       3.17155635E-10
  -13.7900000       1.48880852E-10
  -13.7799997      -9.01483679E-11
  -13.7700005      -3.50050378E-10
  -13.7600002      -5.66956093E-10
  -13.7500000      -6.77771894E-10
  -13.7399998      -6.37009334E-10
  -13.7299995      -4.31391645E-10
  -13.7200003      -8.79392045E-11
  -13.7100000       3.27544519E-10
  -13.6999998       7.22444271E-10
  -13.6899996       9.97850136E-10
  -13.6800003       1.07309905E-09
  -13.6700001       9.08204012E-10
  -13.6599998       5.17926813E-10
  -13.6499996      -2.71169632E-11
  -13.6400003      -6.13784523E-10
  -13.6300001      -1.11176013E-09
  -13.6199999      -1.40498702E-09
  -13.6099997      -1.42097800E-09
  -13.6000004      -1.14989296E-09
  -13.5900002      -6.47555842E-10
  -13.5799999      -2.09485432E-11
  -13.5699997       6.00167693E-10
  -13.5600004       1.09752052E-09
  -13.5500002       1.39416267E-09
  -13.5400000       1.47049850E-09
  -13.5299997       1.36101630E-09
  -13.5200005       1.13251319E-09
  -13.5100002       8.51088089E-10
  -13.5000000       5.50048507E-10
  -13.4899998       2.11949125E-10
  -13.4799995      -2.25456362E-10
  -13.4700003      -8.37134528E-10
  -13.4600000      -1.66018066E-09
  -13.4499998      -2.64112776E-09
  -13.4399996      -3.60261931E-09
  -13.4300003      -4.24893765E-09
  -13.4200001      -4.22105240E-09
  -13.4099998      -3.19694715E-09
  -13.3999996      -1.01619113E-09
  -13.3900003       2.20596297E-09
  -13.3800001       6.01535710E-09
  -13.3699999       9.64077707E-09
  -13.3599997       1.21169403E-08
  -13.3500004       1.24975488E-08
  -13.3400002       1.01179358E-08
  -13.3299999       4.84351448E-09
  -13.3199997      -2.76937873E-09
  -13.3100004      -1.14626477E-08
  -13.3000002      -1.94488798E-08
  -13.2900000      -2.47548435E-08
  -13.2799997      -2.56755612E-08
  -13.2700005      -2.12380815E-08
  -13.2600002      -1.15560752E-08
  -13.2500000       2.03279615E-09
  -13.2399998       1.71126988E-08
  -13.2299995       3.06187893E-08
  -13.2200003       3.94769266E-08
  -13.2100000       4.13173602E-08
  -13.1999998       3.50912686E-08
  -13.1899996       2.14277716E-08
  -13.1800003       2.61812461E-09
  -13.1700001      -1.77986710E-08
  -13.1599998      -3.57751553E-08
  -13.1499996      -4.76563358E-08
  -13.1400003      -5.10245677E-08
  -13.1300001      -4.52733211E-08
  -13.1199999      -3.17503925E-08
  -13.1099997      -1.34189779E-08
  -13.1000004       5.89099347E-09
  -13.0900002       2.24527064E-08
  -13.0799999       3.35746044E-08
  -13.0699997       3.82352709E-08
  -13.0600004       3.72301159E-08
  -13.0500002       3.27706857E-08
  -13.0400000       2.76333996E-08
  -13.0299997       2.40964901E-08
  -13.0200005       2.29885764E-08
  -13.0100002       2.31682939E-08
  -13.0000000       2.16586997E-08
  -12.9899998       1.44850834E-08
  -12.9799995      -1.94083949E-09
  -12.9700003      -2.92380431E-08
  -12.9600000      -6.57319319E-08
  -12.9499998      -1.05843228E-07
  -12.9399996      -1.40511986E-07
  -12.9300003      -1.58742566E-07
  -12.9200001      -1.50058696E-07
  -12.9099998      -1.07383229E-07
  -12.8999996      -2.96714422E-08
  -12.8900003       7.64087460E-08
  -12.8800001       1.96319490E-07
  -12.8699999       3.09283877E-07
  -12.8599997       3.91590561E-07
  -12.8500004       4.21030421E-07
  -12.8400002       3.81627189E-07
  -12.8299999       2.67662841E-07
  -12.8199997       8.60815987E-08
  -12.8100004      -1.43360211E-07
  -12.8000002      -3.90364448E-07
  -12.7900000      -6.18455829E-07
  -12.7799997      -7.90636648E-07
  -12.7700005      -8.75264561E-07
  -12.7600002      -8.51021639E-07
  -12.7500000      -7.10084748E-07
  -12.7399998      -4.59004070E-07
  -12.7299995      -1.17368401E-07
  -12.7200003       2.85221887E-07
  -12.7100000       7.12973701E-07
  -12.6999998       1.12754742E-06
  -12.6899996       1.49081393E-06
  -12.6800003       1.76636877E-06
  -12.6700001       1.92002972E-06
  -12.6599998       1.92001016E-06
  -12.6499996       1.73769297E-06
  -12.6400003       1.34986612E-06
  -12.6300001       7.42934731E-07
  -12.6199999      -8.11619643E-08
  -12.6099997      -1.09817279E-06
  -12.6000004      -2.25551958E-06
  -12.5900002      -3.46884372E-06
  -12.5799999      -4.62281378E-06
  -12.5699997      -5.57729163E-06
  -12.5600004      -6.17893056E-06
  -12.5500002      -6.27720283E-06
  -12.5400000      -5.74293836E-06
  -12.5299997      -4.48678975E-06
  -12.5200005      -2.47511616E-06
  -12.5100002       2.58935472E-07
  -12.5000000       3.61014963E-06
  -12.4899998       7.40192536E-06
  -12.4799995       1.13919959E-05
  -12.4700003       1.52816065E-05
  -12.4600000       1.87266305E-05
  -12.4499998       2.13495005E-05
  -12.4399996       2.27512865E-05
  -12.4300003       2.25245949E-05
  -12.4200001       2.02681513E-05
  -12.4099998       1.56039805E-05
  -12.3999996       8.19800971E-06
  -12.3900003      -2.21620530E-06
  -12.3800001      -1.58125404E-05
  -12.3699999      -3.26472546E-05
  -12.3599997      -5.26388576E-05
  -12.3500004      -7.55538495E-05
  -12.3400002      -1.01002137E-04
  -12.3299999      -1.28441607E-04
  -12.3199997      -1.57193266E-04
  -12.3100004      -1.86462814E-04
  -12.3000002      -2.15367923E-04
  -12.2900000      -2.42968425E-04
  -12.2799997      -2.68292380E-04
  -12.2700005      -2.90364667E-04
  -12.2600002      -3.08230374E-04
  -12.2500000      -3.20971099E-04
  -12.2399998      -3.27730464E-04
  -12.2299995      -3.27727175E-04
  -12.2200003      -3.20276478E-04
  -12.2100000      -3.04808840E-04
  -12.1999998      -2.80892244E-04
  -12.1899996      -2.48249911E-04
  -12.1800003      -2.06779863E-04
  -12.1700001      -1.56571943E-04
  -12.1599998      -9.79174365E-05
  -12.1499996      -3.13174569E-05
  -12.1400003       4.25234284E-05
  -12.1300001       1.22703350E-04
  -12.1199999       2.08146754E-04
  -12.1099997       2.97634513E-04
  -12.1000004       3.89844936E-04
  -12.0900002       4.83401411E-04
  -12.0799999       5.76926046E-04
  -12.0699997       6.69089844E-04
  -12.0600004       7.58652866E-04
  -12.0500002       8.44499969E-04
  -12.0400000       9.25645931E-04
  -12.0299997       1.00123417E-03
  -12.0200005       1.07050699E-03
  -12.0100002       1.13277091E-03
  -12.0000000       1.18734513E-03
  -11.9899998       1.23352325E-03
  -11.9799995       1.27053424E-03
  -11.9700003       1.29753072E-03
  -11.9600000       1.31358672E-03
  -11.9499998       1.31771853E-03
  -11.9399996       1.30892359E-03
  -11.9300003       1.28622563E-03
  -11.9200001       1.24872872E-03
  -11.9099998       1.19565986E-03
  -11.8999996       1.12641673E-03
  -11.8900003       1.04059675E-03
  -11.8800001       9.38017794E-04
  -11.8699999       8.18731729E-04
  -11.8599997       6.83026330E-04
  -11.8500004       5.31428901E-04
  -11.8400002       3.64693959E-04
  -11.8299999       1.83799071E-04
  -11.8199997      -1.00701081E-05
  -11.8100004      -2.15537497E-04
  -11.8000002      -4.31048305E-04
  -11.7900000      -6.54895615E-04
  -11.7799997      -8.85233399E-04
  -11.7700005      -1.12010736E-03
  -11.7600002      -1.35747844E-03
  -11.7500000      -1.59524905E-03
  -11.7399998      -1.83129229E-03
  -11.7299995      -2.06349278E-03
  -11.7200003      -2.28976295E-03
  -11.7100000      -2.50808499E-03
  -11.6999998      -2.71652220E-03
  -11.6899996      -2.91324127E-03
  -11.6800003      -3.09650972E-03
  -11.6700001      -3.26468889E-03
  -11.6599998      -3.41622066E-03
  -11.6499996      -3.54961748E-03
  -11.6400003      -3.66344885E-03
  -11.6300001      -3.75634758E-03
  -11.6199999      -3.82700539E-03
  -11.6099997      -3.87420924E-03
  -11.6000004      -3.89684970E-03
  -11.5900002      -3.89393931E-03
  -11.5799999      -3.86461942E-03
  -11.5699997      -3.80813144E-03
  -11.5600004      -3.72379855E-03
  -11.5500002      -3.61095998E-03
  -11.5400000      -3.46894469E-03
  -11.5299997      -3.29702254E-03
  -11.5200005      -3.09441891E-03
  -11.5100002      -2.86033726E-03
  -11.5000000      -2.59405351E-03
  -11.4899998      -2.29499745E-03
  -11.4799995      -1.96288642E-03
  -11.4700003      -1.59780739E-03
  -11.4600000      -1.20029517E-03
  -11.4499998      -7.71337189E-04
  -11.4399996      -3.12338991E-04
  -11.4300003       1.74978020E-04
  -11.4200001       6.88705884E-04
  -11.4099998       1.22687593E-03
  -11.3999996       1.78759138E-03
  -11.3900003       2.36910768E-03
  -11.3800001       2.96985661E-03
  -11.3699999       3.58846388E-03
  -11.3599997       4.22366336E-03
  -11.3500004       4.87425085E-03
  -11.3400002       5.53899631E-03
  -11.3299999       6.21660147E-03
  -11.3199997       6.90564979E-03
  -11.3100004       7.60461995E-03
  -11.3000002       8.31188913E-03
  -11.2900000       9.02579073E-03
  -11.2799997       9.74463671E-03
  -11.2700005       1.04667563E-02
  -11.2600002       1.11905327E-02
  -11.2500000       1.19144227E-02
  -11.2399998       1.26369633E-02
  -11.2299995       1.33567899E-02
  -11.2200003       1.40726380E-02
  -11.2100000       1.47833601E-02
  -11.1999998       1.54879158E-02
  -11.1899996       1.61853768E-02
  -11.1800003       1.68749169E-02
  -11.1700001       1.75557658E-02
  -11.1599998       1.82272177E-02
  -11.1499996       1.88885927E-02
  -11.1400003       1.95391886E-02
  -11.1300001       2.01783367E-02
  -11.1199999       2.08053365E-02
  -11.1099997       2.14195158E-02
  -11.1000004       2.20202394E-02
  -11.0900002       2.26069149E-02
  -11.0799999       2.31790431E-02
  -11.0699997       2.37361621E-02
  -11.0600004       2.42778920E-02
  -11.0500002       2.48038732E-02
  -11.0400000       2.53137928E-02
  -11.0299997       2.58073881E-02
  -11.0200005       2.62844022E-02
  -11.0100002       2.67446563E-02
  -11.0000000       2.71880534E-02
  -10.9899998       2.76145991E-02
  -10.9799995       2.80243605E-02
  -10.9700003       2.84175500E-02
  -10.9600000       2.87943631E-02
  -10.9499998       2.91550178E-02
  -10.9399996       2.94996332E-02
  -10.9300003       2.98281740E-02
  -10.9200001       3.01403776E-02
  -10.9099998       3.04358117E-02
  -10.8999996       3.07137836E-02
  -10.8900003       3.09734438E-02
  -10.8800001       3.12137883E-02
  -10.8699999       3.14338431E-02
  -10.8599997       3.16325985E-02
  -10.8500004       3.18092182E-02
  -10.8400002       3.19630094E-02
  -10.8299999       3.20934989E-02
  -10.8199997       3.22004221E-02
  -10.8100004       3.22836936E-02
  -10.8000002       3.23434323E-02
  -10.7900000       3.23798805E-02
  -10.7799997       3.23933847E-02
  -10.7700005       3.23843583E-02
  -10.7600002       3.23533341E-02
  -10.7500000       3.23009305E-02
  -10.7399998       3.22279260E-02
  -10.7299995       3.21352631E-02
  -10.7200003       3.20240967E-02
  -10.7100000       3.18958350E-02
  -10.6999998       3.17520462E-02
  -10.6899996       3.15944590E-02
  -10.6800003       3.14249024E-02
  -10.6700001       3.12452037E-02
  -10.6599998       3.10570858E-02
  -10.6499996       3.08620781E-02
  -10.6400003       3.06616127E-02
  -10.6300001       3.04569080E-02
  -10.6199999       3.02491058E-02
  -10.6099997       3.00392900E-02
  -10.6000004       2.98286006E-02
  -10.5900002       2.96183061E-02
  -10.5799999       2.94098202E-02
  -10.5699997       2.92047616E-02
  -10.5600004       2.90049184E-02
  -10.5500002       2.88122073E-02
  -10.5400000       2.86288001E-02
  -10.5299997       2.84567978E-02
  -10.5200005       2.82984674E-02
  -10.5100002       2.81560142E-02
  -10.5000000       2.80315895E-02
  -10.4899998       2.79271901E-02
  -10.4799995       2.78445464E-02
  -10.4700003       2.77850665E-02
  -10.4600000       2.77497377E-02
  -10.4499998       2.77389660E-02
  -10.4399996       2.77526081E-02
  -10.4300003       2.77900025E-02
  -10.4200001       2.78498922E-02
  -10.4099998       2.79307105E-02
  -10.3999996       2.80305594E-02
  -10.3900003       2.81473715E-02
  -10.3800001       2.82791927E-02
  -10.3699999       2.84241401E-02
  -10.3599997       2.85805780E-02
  -10.3500004       2.87471917E-02
  -10.3400002       2.89229546E-02
  -10.3299999       2.91070696E-02
  -10.3199997       2.92990785E-02
  -10.3100004       2.94984430E-02
  -10.3000002       2.97047999E-02
  -10.2900000       2.99175978E-02
  -10.2799997       3.01362015E-02
  -10.2700005       3.03597301E-02
  -10.2600002       3.05871814E-02
  -10.2500000       3.08173764E-02
  -10.2399998       3.10491547E-02
  -10.2299995       3.12813260E-02
  -10.2200003       3.15129831E-02
  -10.2100000       3.17434967E-02
  -10.1999998       3.19723748E-02
  -10.1899996       3.21996659E-02
  -10.1800003       3.24256793E-02
  -10.1700001       3.26509960E-02
  -10.1599998       3.28766070E-02
  -10.1499996       3.31037045E-02
  -10.1400003       3.33337635E-02
  -10.1300001       3.35686132E-02
  -10.1199999       3.38102765E-02
  -10.1099997       3.40609848E-02
  -10.1000004       3.43231857E-02
  -10.0900002       3.45992669E-02
  -10.0799999       3.48915085E-02
  -10.0699997       3.52018476E-02
  -10.0600004       3.55319344E-02
  -10.0500002       3.58828977E-02
  -10.0400000       3.62555645E-02
  -10.0299997       3.66503298E-02
  -10.0200005       3.70674096E-02
  -10.0100002       3.75068225E-02
  -10.0000000       3.79687548E-02
  -9.98999977       3.84532660E-02
  -9.97999954       3.89604345E-02
  -9.97000027       3.94904464E-02
  -9.96000004       4.00434360E-02
  -9.94999981       4.06193770E-02
  -9.93999958       4.12184224E-02
  -9.93000031       4.18405719E-02
  -9.92000008       4.24862020E-02
  -9.90999985       4.31556329E-02
  -9.89999962       4.38496321E-02
  -9.89000034       4.45691161E-02
  -9.88000011       4.53151464E-02
  -9.86999989       4.60887514E-02
  -9.85999966       4.68909554E-02
  -9.85000038       4.77224253E-02
  -9.84000015       4.85835895E-02
  -9.82999992       4.94747572E-02
  -9.81999969       5.03961965E-02
  -9.81000042       5.13481013E-02
  -9.80000019       5.23311011E-02
  -9.78999996       5.33461049E-02
  -9.77999973       5.43942153E-02
  -9.77000046       5.54771759E-02
  -9.76000023       5.65967821E-02
  -9.75000000       5.77548146E-02
  -9.73999977       5.89533523E-02
  -9.72999954       6.01941384E-02
  -9.72000027       6.14790246E-02
  -9.71000004       6.28096759E-02
  -9.69999981       6.41876236E-02
  -9.68999958       6.56140372E-02
  -9.68000031       6.70899451E-02
  -9.67000008       6.86156005E-02
  -9.65999985       7.01904297E-02
  -9.64999962       7.18127862E-02
  -9.64000034       7.34797940E-02
  -9.63000011       7.51875341E-02
  -9.61999989       7.69305527E-02
  -9.60999966       7.87029937E-02
  -9.60000038       8.04979205E-02
  -9.59000015       8.23083594E-02
  -9.57999992       8.41271579E-02
  -9.56999969       8.59474242E-02
  -9.56000042       8.77622440E-02
  -9.55000019       8.95652771E-02
  -9.53999996       9.13500860E-02
  -9.52999973       9.31106955E-02
  -9.52000046       9.48409140E-02
  -9.51000023       9.65349674E-02
  -9.50000000       9.81871337E-02
  -9.48999977       9.97921452E-02
  -9.47999954      0.101345047    
  -9.47000027      0.102841690    
  -9.46000004      0.104278155    
  -9.44999981      0.105651990    
  -9.43999958      0.106960908    
  -9.43000031      0.108204171    
  -9.42000008      0.109381594    
  -9.40999985      0.110494621    
  -9.39999962      0.111545734    
  -9.39000034      0.112538777    
  -9.38000011      0.113479160    
  -9.36999989      0.114373334    
  -9.35999966      0.115229487    
  -9.35000038      0.116056792    
  -9.34000015      0.116865829    
  -9.32999992      0.117667973    
  -9.31999969      0.118475400    
  -9.31000042      0.119301185    
  -9.30000019      0.120158717    
  -9.28999996      0.121062160    
  -9.27999973      0.122025706    
  -9.27000046      0.123063564    
  -9.26000023      0.124189675    
  -9.25000000      0.125417754    
  -9.23999977      0.126760855    
  -9.22999954      0.128231019    
  -9.22000027      0.129839450    
  -9.21000004      0.131596297    
  -9.19999981      0.133510008    
  -9.18999958      0.135587797    
  -9.18000031      0.137835428    
  -9.17000008      0.140256464    
  -9.15999985      0.142852649    
  -9.14999962      0.145623848    
  -9.14000034      0.148567289    
  -9.13000011      0.151678354    
  -9.11999989      0.154950246    
  -9.10999966      0.158374175    
  -9.10000038      0.161940262    
  -9.09000015      0.165636882    
  -9.07999992      0.169451877    
  -9.06999969      0.173372149    
  -9.06000042      0.177384019    
  -9.05000019      0.181473196    
  -9.03999996      0.185624823    
  -9.02999973      0.189823344    
  -9.02000046      0.194052607    
  -9.01000023      0.198295757    
  -9.00000000      0.202535972    
  -8.98999977      0.206755817    
  -8.97999954      0.210938275    
  -8.97000027      0.215066850    
  -8.96000004      0.219125152    
  -8.94999981      0.223098144    
  -8.93999958      0.226970956    
  -8.93000031      0.230729371    
  -8.92000008      0.234360188    
  -8.90999985      0.237850606    
  -8.89999962      0.241188541    
  -8.89000034      0.244362876    
  -8.88000011      0.247363001    
  -8.86999989      0.250179768    
  -8.85999966      0.252804577    
  -8.85000038      0.255229890    
  -8.84000015      0.257449210    
  -8.82999992      0.259457052    
  -8.81999969      0.261248946    
  -8.81000042      0.262821019    
  -8.80000019      0.264171094    
  -8.78999996      0.265298009    
  -8.77999973      0.266202778    
  -8.77000046      0.266886771    
  -8.76000023      0.267354727    
  -8.75000000      0.267612666    
  -8.73999977      0.267667741    
  -8.72999954      0.267529130    
  -8.72000027      0.267208427    
  -8.71000004      0.266716957    
  -8.69999981      0.266068488    
  -8.68999958      0.265277356    
  -8.68000031      0.264359027    
  -8.67000008      0.263329446    
  -8.65999985      0.262205005    
  -8.64999962      0.261002302    
  -8.64000034      0.259737432    
  -8.63000011      0.258426279    
  -8.61999989      0.257083446    
  -8.60999966      0.255723238    
  -8.60000038      0.254357934    
  -8.59000015      0.252999157    
  -8.57999992      0.251656592    
  -8.56999969      0.250339538    
  -8.56000042      0.249054953    
  -8.55000019      0.247809127    
  -8.53999996      0.246607453    
  -8.52999973      0.245453909    
  -8.52000046      0.244352072    
  -8.51000023      0.243304536    
  -8.50000000      0.242314234    
  -8.48999977      0.241383255    
  -8.47999954      0.240513429    
  -8.47000027      0.239707038    
  -8.46000004      0.238966048    
  -8.44999981      0.238291398    
  -8.43999958      0.237685561    
  -8.43000031      0.237149715    
  -8.42000008      0.236685902    
  -8.40999985      0.236296460    
  -8.39999962      0.235984713    
  -8.39000034      0.235754669    
  -8.38000011      0.235610709    
  -8.36999989      0.235559016    
  -8.35999966      0.235605553    
  -8.35000038      0.235757619    
  -8.34000015      0.236021444    
  -8.32999992      0.236404538    
  -8.31999969      0.236913010    
  -8.31000042      0.237554595    
  -8.30000019      0.238334849    
  -8.28999996      0.239261225    
  -8.27999973      0.240340188    
  -8.27000046      0.241577715    
  -8.26000023      0.242980823    
  -8.25000000      0.244553909    
  -8.23999977      0.246302024    
  -8.22999954      0.248228788    
  -8.22000027      0.250337601    
  -8.21000004      0.252631098    
  -8.19999981      0.255110472    
  -8.18999958      0.257778406    
  -8.18000031      0.260635644    
  -8.17000008      0.263684571    
  -8.15999985      0.266927332    
  -8.14999962      0.270366222    
  -8.14000034      0.274004489    
  -8.13000011      0.277845681    
  -8.11999989      0.281892508    
  -8.10999966      0.286148399    
  -8.10000038      0.290616214    
  -8.09000015      0.295299172    
  -8.07999992      0.300198734    
  -8.06999969      0.305317849    
  -8.06000042      0.310657114    
  -8.05000019      0.316217154    
  -8.03999996      0.321997911    
  -8.02999973      0.327998847    
  -8.02000046      0.334217846    
  -8.01000023      0.340653062    
  -8.00000000      0.347300261    
  -7.98999977      0.354155958    
  -7.98000002      0.361213207    
  -7.96999979      0.368467242    
  -7.96000004      0.375909328    
  -7.94999981      0.383530915    
  -7.94000006      0.391321898    
  -7.92999983      0.399271518    
  -7.92000008      0.407367289    
  -7.90999985      0.415597260    
  -7.90000010      0.423947364    
  -7.88999987      0.432403207    
  -7.88000011      0.440952003    
  -7.86999989      0.449578106    
  -7.86000013      0.458267421    
  -7.84999990      0.467004508    
  -7.84000015      0.475774229    
  -7.82999992      0.484562039    
  -7.82000017      0.493353069    
  -7.80999994      0.502132654    
  -7.80000019      0.510887802    
  -7.78999996      0.519604266    
  -7.78000021      0.528271735    
  -7.76999998      0.536879122    
  -7.76000023      0.545416176    
  -7.75000000      0.553874195    
  -7.73999977      0.562244833    
  -7.73000002      0.570520103    
  -7.71999979      0.578694701    
  -7.71000004      0.586762488    
  -7.69999981      0.594719946    
  -7.69000006      0.602562368    
  -7.67999983      0.610289276    
  -7.67000008      0.617899537    
  -7.65999985      0.625394225    
  -7.65000010      0.632775962    
  -7.63999987      0.640046597    
  -7.63000011      0.647211850    
  -7.61999989      0.654275954    
  -7.61000013      0.661245883    
  -7.59999990      0.668127954    
  -7.59000015      0.674933136    
  -7.57999992      0.681670666    
  -7.57000017      0.688350618    
  -7.55999994      0.694984436    
  -7.55000019      0.701584399    
  -7.53999996      0.708162427    
  -7.53000021      0.714730382    
  -7.51999998      0.721300840    
  -7.51000023      0.727885008    
  -7.50000000      0.734494984    
  -7.48999977      0.741145372    
  -7.48000002      0.747846305    
  -7.46999979      0.754612803    
  -7.46000004      0.761456549    
  -7.44999981      0.768389940    
  -7.44000006      0.775424778    