  -16.0000000       0.00000000    
  -15.9899998       0.00000000    
  -15.9799995       0.00000000    
  -15.9700003       0.00000000    
  -15.9600000       0.00000000    
  -15.9499998       0.00000000    
  -15.9399996       0.00000000    
  -15.9300003       0.00000000    
  -15.9200001       0.00000000    
  -15.9099998       0.00000000    
  -15.8999996       0.00000000    
  -15.8900003       0.00000000    
  -15.8800001       0.00000000    
  -15.8699999       0.00000000    
  -15.8599997       0.00000000    
  -15.8500004       0.00000000    
  -15.8400002      -4.20389539E-45
  -15.8299999      -1.09301280E-43
  -15.8199997      -1.22473486E-42
  -15.8100004      -9.87214768E-42
  -15.8000002      -6.24586752E-41
  -15.7900000      -3.27234020E-40
  -15.7799997      -1.46646305E-39
  -15.7700005      -5.74273691E-39
  -15.7600002      -1.99401506E-38
  -15.7500000      -6.19878893E-38
  -15.7399998      -1.73516847E-37
  -15.7299995      -4.38227912E-37
  -15.7200003      -9.96346077E-37
  -15.7100000      -2.02257725E-36
  -15.6999998      -3.59728320E-36
  -15.6899996      -5.36493570E-36
  -15.6800003      -5.89587473E-36
  -15.6700001      -1.84966375E-36
  -15.6599998       1.25110395E-35
  -15.6499996       4.42134908E-35
  -15.6400003       9.70870975E-35
  -15.6300001       1.62651558E-34
  -15.6199999       2.08055084E-34
  -15.6099997       1.68632379E-34
  -15.6000004      -4.04511856E-35
  -15.5900002      -4.77413118E-34
  -15.5799999      -1.08946910E-33
  -15.5699997      -1.62411571E-33
  -15.5600004      -1.61870146E-33
  -15.5500002      -5.77184578E-34
  -15.5400000       1.61574270E-33
  -15.5299997       4.18678688E-33
  -15.5200005       5.30776842E-33
  -15.5100002       2.89336620E-33
  -15.5000000      -3.29181875E-33
  -15.4899998      -8.92898750E-33
  -15.4799995      -4.24269009E-33
  -15.4700003       2.14580690E-32
  -15.4600000       6.73739583E-32
  -15.4499998       1.04172157E-31
  -15.4399996       6.52922283E-32
  -15.4300003      -1.31740261E-31
  -15.4200001      -5.15489773E-31
  -15.4099998      -9.50710585E-31
  -15.3999996      -1.04980288E-30
  -15.3900003      -2.24701011E-31
  -15.3800001       1.99150240E-30
  -15.3699999       5.32853169E-30
  -15.3599997       8.09821493E-30
  -15.3500004       7.01519832E-30
  -15.3400002      -1.71832636E-30
  -15.3299999      -1.95842926E-29
  -15.3199997      -4.17330632E-29
  -15.3100004      -5.40146673E-29
  -15.3000002      -3.48101847E-29
  -15.2900000       3.47211495E-29
  -15.2799997       1.51765278E-28
  -15.2700005       2.71230423E-28
  -15.2600002       2.98791444E-28
  -15.2500000       1.17267479E-28
  -15.2399998      -3.41751358E-28
  -15.2299995      -9.94180445E-28
  -15.2200003      -1.51943277E-27
  -15.2100000      -1.38208055E-27
  -15.1999998      -4.34282457E-29
  -15.1899996       2.62221120E-27
  -15.1800003       5.83676605E-27
  -15.1700001       7.66072532E-27
  -15.1599998       5.37945321E-27
  -15.1499996      -3.16963291E-27
  -15.1400003      -1.74682308E-26
  -15.1300001      -3.22403970E-26
  -15.1199999      -3.69902179E-26
  -15.1099997      -1.89030625E-26
  -15.1000004       3.00430126E-26
  -15.0900002       1.03159649E-25
  -15.0799999       1.70849239E-25
  -15.0699997       1.81188950E-25
  -15.0600004       7.61290956E-26
  -15.0500002      -1.74846434E-25
  -15.0400000      -5.31830153E-25
  -15.0299997      -8.52971532E-25
  -15.0200005      -9.03281137E-25
  -15.0100002      -4.28802799E-25
  -15.0000000       7.01279891E-25
  -14.9899998       2.32199748E-24
  -14.9799995       3.85182676E-24
  -14.9700003       4.33187426E-24
  -14.9600000       2.71170108E-24
  -14.9499998      -1.61807698E-24
  -14.9399996      -8.18795810E-24
  -14.9300003      -1.49968706E-23
  -14.9200001      -1.86090505E-23
  -14.9099998      -1.50787370E-23
  -14.8999996      -1.69102373E-24
  -14.8900003       2.09381528E-23
  -14.8800001       4.72983833E-23
  -14.8699999       6.70381255E-23
  -14.8599997       6.74203633E-23
  -14.8500004       3.81111325E-23
  -14.8400002      -2.29841993E-23
  -14.8299999      -1.05207495E-22
  -14.8199997      -1.84616272E-22
  -14.8100004      -2.29133422E-22
  -14.8000002      -2.08798607E-22
  -14.7900000      -1.07805895E-22
  -14.7799997       6.68797664E-23
  -14.7700005       2.85023447E-22
  -14.7600002       5.01838118E-22
  -14.7500000       6.71407367E-22
  -14.7399998       7.55463488E-22
  -14.7299995       7.18341284E-22
  -14.7200003       5.06610209E-22
  -14.7100000       2.68886995E-23
  -14.6999998      -8.49178750E-22
  -14.6899996      -2.21871812E-21
  -14.6800003      -4.00420040E-21
  -14.6700001      -5.76276134E-21
  -14.6599998      -6.54316303E-21
  -14.6499996      -4.94000824E-21
  -14.6400003       5.03234491E-22
  -14.6300001       1.04838955E-20
  -14.6199999       2.38642544E-20
  -14.6099997       3.67403546E-20
  -14.6000004       4.22920419E-20
  -14.5900002       3.20851889E-20
  -14.5799999      -8.13539100E-22
  -14.5699997      -5.72615262E-20
  -14.5600004      -1.27345373E-19
  -14.5500002      -1.87847095E-19
  -14.5400000      -2.04514888E-19
  -14.5299997      -1.41056900E-19
  -14.5200005       2.53010219E-20
  -14.5100002       2.85080509E-19
  -14.5000000       5.81474366E-19
  -14.4899998       8.07904823E-19
  -14.4799995       8.26408491E-19
  -14.4700003       5.10055230E-19
  -14.4600000      -1.96402624E-19
  -14.4499998      -1.21444238E-18
  -14.4399996      -2.29422762E-18
  -14.4300003      -3.02990654E-18
  -14.4200001      -2.94742630E-18
  -14.4099998      -1.66347169E-18
  -14.3999996       9.16200756E-19
  -14.3900003       4.42126176E-18
  -14.3800001       7.94525590E-18
  -14.3699999       1.01527611E-17
  -14.3599997       9.60117140E-18
  -14.3500004       5.24373117E-18
  -14.3400002      -3.00424037E-18
  -14.3299999      -1.38259401E-17
  -14.3199997      -2.44072924E-17
  -14.3100004      -3.08558916E-17
  -14.3000002      -2.91784222E-17
  -14.2900000      -1.66697523E-17
  -14.2799997       6.63678769E-18
  -14.2700005       3.69543369E-17
  -14.2600002       6.66749396E-17
  -14.2500000       8.55997865E-17
  -14.2399998       8.34771748E-17
  -14.2299995       5.34117735E-17
  -14.2200003      -4.72828225E-18
  -14.2100000      -8.20429164E-17
  -14.1999998      -1.60563513E-16
  -14.1899996      -2.16120959E-16
  -14.1800003      -2.24035159E-16
  -14.1700001      -1.66616503E-16
  -14.1599998      -4.06322532E-17
  -14.1499996       1.37569175E-16
  -14.1400003       3.31431604E-16
  -14.1300001       4.89371009E-16
  -14.1199999       5.55657319E-16
  -14.1099997       4.85199425E-16
  -14.1000004       2.58941466E-16
  -14.0900002      -1.04280966E-16
  -14.0799999      -5.43429446E-16
  -14.0699997      -9.61269528E-16
  -14.0600004      -1.24126146E-15
  -14.0500002      -1.27324034E-15
  -14.0400000      -9.83193917E-16
  -14.0299997      -3.60600534E-16
  -14.0200005       5.23801204E-16
  -14.0100002       1.51606616E-15
  -14.0000000       2.39670386E-15
  -13.9899998       2.91810876E-15
  -13.9799995       2.85753510E-15
  -13.9700003       2.07701436E-15
  -13.9600000       5.78037518E-16
  -13.9499998      -1.46303247E-15
  -13.9399996      -3.69215182E-15
  -13.9300003      -5.61682201E-15
  -13.9200001      -6.68942618E-15
  -13.9099998      -6.42660160E-15
  -13.8999996      -4.54518769E-15
  -13.8900003      -1.08523915E-15
  -13.8800001       3.51498238E-15
  -13.8699999       8.42484211E-15
  -13.8599997       1.25288633E-14
  -13.8500004       1.46354503E-14
  -13.8400002       1.37585213E-14
  -13.8299999       9.41624250E-15
  -13.8199997       1.87147207E-15
  -13.8100004      -7.76469597E-15
  -13.8000002      -1.76263779E-14
  -13.7900000      -2.54033719E-14
  -13.7799997      -2.88329609E-14
  -13.7700005      -2.62793225E-14
  -13.7600002      -1.72627602E-14
  -13.7500000      -2.78733555E-15
  -13.7399998       1.46582880E-14
  -13.7299995       3.14842519E-14
  -13.7200003       4.37286112E-14
  -13.7100000       4.79914909E-14
  -13.6999998       4.23546086E-14
  -13.6899996       2.70373933E-14
  -13.6800003       4.57820122E-15
  -13.6700001      -2.05681589E-14
  -13.6599998      -4.29762427E-14
  -13.6499996      -5.75424718E-14
  -13.6400003      -6.08064827E-14
  -13.6300001      -5.19378818E-14
  -13.6199999      -3.30809565E-14
  -13.6099997      -8.89862152E-15
  -13.6000004       1.46279185E-14
  -13.5900002       3.18647628E-14
  -13.5799999       3.92087011E-14
  -13.5699997       3.62850178E-14
  -13.5600004       2.62412078E-14
  -13.5500002       1.49383662E-14
  -13.5400000       9.14877491E-15
  -13.5299997       1.41843494E-14
  -13.5200005       3.16143901E-14
  -13.5100002       5.78051333E-14
  -13.5000000       8.38835566E-14
  -13.4899998       9.74034154E-14
  -13.4799995       8.55390113E-14
  -13.4700003       3.91572693E-14
  -13.4600000      -4.32442608E-14
  -13.4499998      -1.52886520E-13
  -13.4399996      -2.70342288E-13
  -13.4300003      -3.68000877E-13
  -13.4200001      -4.15248185E-13
  -13.4099998      -3.85512477E-13
  -13.3999996      -2.63716701E-13
  -13.3900003      -5.23487503E-14
  -13.3800001       2.25552297E-13
  -13.3699999       5.27664609E-13
  -13.3599997       7.98211649E-13
  -13.3500004       9.77601680E-13
  -13.3400002       1.01416629E-12
  -13.3299999       8.75638429E-13
  -13.3199997       5.57889238E-13
  -13.3100004       8.88703783E-14
  -13.3000002      -4.73330413E-13
  -13.2900000      -1.04819538E-12
  -13.2799997      -1.54489442E-12
  -13.2700005      -1.87655772E-12
  -13.2600002      -1.97407281E-12
  -13.2500000      -1.79702531E-12
  -13.2399998      -1.34018849E-12
  -13.2299995      -6.35007346E-13
  -13.2200003       2.53438628E-13
  -13.2100000       1.23282320E-12
  -13.1999998       2.19197121E-12
  -13.1899996       3.01026109E-12
  -13.1800003       3.56765962E-12
  -13.1700001       3.75567156E-12
  -13.1599998       3.48969725E-12
  -13.1499996       2.72294513E-12
  -13.1400003       1.46105513E-12
  -13.1300001      -2.24852350E-13
  -13.1199999      -2.19024972E-12
  -13.1099997      -4.21860810E-12
  -13.1000004      -6.03584153E-12
  -13.0900002      -7.33960549E-12
  -13.0799999      -7.84213666E-12
  -13.0699997      -7.32160253E-12
  -13.0600004      -5.67359267E-12
  -13.0500002      -2.95215393E-12
  -13.0400000       6.10175376E-13
  -13.0299997       4.61125626E-12
  -13.0200005       8.52039446E-12
  -13.0100002       1.17483280E-11
  -13.0000000       1.37366230E-11
  -12.9899998       1.40519211E-11
  -12.9799995       1.24680327E-11
  -12.9700003       9.01995319E-12
  -12.9600000       4.01853854E-12
  -12.9499998      -1.97869434E-12
  -12.9399996      -8.23662666E-12
  -12.9300003      -1.39404452E-11
  -12.9200001      -1.83060771E-11
  -12.9099998      -2.06854048E-11
  -12.8999996      -2.06506531E-11
  -12.8900003      -1.80475999E-11
  -12.8800001      -1.30140629E-11
  -12.8699999      -5.96656405E-12
  -12.8599997       2.43744196E-12
  -12.8500004       1.13527052E-11
  -12.8400002       1.98078411E-11
  -12.8299999       2.67725321E-11
  -12.8199997       3.12320135E-11
  -12.8100004       3.22739786E-11
  -12.8000002       2.91926448E-11
  -12.7900000       2.16101772E-11
  -12.7799997       9.60732275E-12
  -12.7700005      -6.15561551E-12
  -12.7600002      -2.43557240E-11
  -12.7500000      -4.29963530E-11
  -12.7399998      -5.94991001E-11
  -12.7299995      -7.09198533E-11
  -12.7200003      -7.42892345E-11
  -12.7100000      -6.70534808E-11
  -12.6999998      -4.75649485E-11
  -12.6899996      -1.55495096E-11
  -12.6800003       2.75326983E-11
  -12.6700001       7.83130782E-11
  -12.6599998       1.31589920E-10
  -12.6499996       1.80681678E-10
  -12.6400003       2.18047178E-10
  -12.6300001       2.36118819E-10
  -12.6199999       2.28257344E-10
  -12.6099997       1.89714577E-10
  -12.6000004       1.18482654E-10
  -12.5900002       1.59212244E-11
  -12.5799999      -1.12920902E-10
  -12.5699997      -2.59335053E-10
  -12.5600004      -4.11339796E-10
  -12.5500002      -5.54395085E-10
  -12.5400000      -6.72387646E-10
  -12.5299997      -7.48810625E-10
  -12.5200005      -7.68060004E-10
  -12.5100002      -7.16763482E-10
  -12.5000000      -5.85070159E-10
  -12.4899998      -3.67831016E-10
  -12.4799995      -6.56018712E-11
  -12.4700003       3.14587939E-10
  -12.4600000       7.58761276E-10
  -12.4499998       1.24585964E-09
  -12.4399996       1.74797810E-09
  -12.4300003       2.23097452E-09
  -12.4200001       2.65542566E-09
  -12.4099998       2.97786307E-09
  -12.3999996       3.15219562E-09
  -12.3900003       3.13120396E-09
  -12.3800001       2.86799007E-09
  -12.3699999       2.31727815E-09
  -12.3599997       1.43650658E-09
  -12.3500004       1.86696977E-10
  -12.3400002      -1.46687507E-09
  -12.3299999      -3.55410767E-09
  -12.3199997      -6.09951245E-09
  -12.3100004      -9.12153375E-09
  -12.3000002      -1.26316664E-08
  -12.2900000      -1.66333169E-08
  -12.2799997      -2.11203943E-08
  -12.2700005      -2.60757247E-08
  -12.2600002      -3.14693374E-08
  -12.2500000      -3.72568181E-08
  -12.2399998      -4.33778133E-08
  -12.2299995      -4.97549237E-08
  -12.2200003      -5.62930147E-08
  -12.2100000      -6.28791312E-08
  -12.1999998      -6.93830131E-08
  -12.1899996      -7.56583773E-08
  -12.1800003      -8.15449113E-08
  -12.1700001      -8.68709407E-08
  -12.1599998      -9.14568830E-08
  -12.1499996      -9.51194181E-08
  -12.1400003      -9.76759083E-08
  -12.1300001      -9.89495206E-08
  -12.1199999      -9.87742439E-08
  -12.1099997      -9.69997913E-08
  -12.1000004      -9.34960482E-08
  -12.0900002      -8.81569591E-08
  -12.0799999      -8.09031206E-08
  -12.0699997      -7.16836794E-08
  -12.0600004      -6.04768360E-08
  -12.0500002      -4.72894612E-08
  -12.0400000      -3.21558602E-08
  -12.0299997      -1.51359973E-08
  -12.0200005       3.68663033E-09
  -12.0100002       2.42070097E-08
  -12.0000000       4.63004710E-08
  -11.9899998       6.98242459E-08
  -11.9799995       9.46186134E-08
  -11.9700003       1.20507693E-07
  -11.9600000       1.47300184E-07
  -11.9499998       1.74789804E-07
  -11.9399996       2.02756070E-07
  -11.9300003       2.30964787E-07
  -11.9200001       2.59169099E-07
  -11.9099998       2.87110396E-07
  -11.8999996       3.14519269E-07
  -11.8900003       3.41116532E-07
  -11.8800001       3.66614302E-07
  -11.8699999       3.90716991E-07
  -11.8599997       4.13122478E-07
  -11.8500004       4.33523496E-07
  -11.8400002       4.51609395E-07
  -11.8299999       4.67068503E-07
  -11.8199997       4.79590938E-07
  -11.8100004       4.88872047E-07
  -11.8000002       4.94615961E-07
  -11.7900000       4.96539997E-07
  -11.7799997       4.94378526E-07
  -11.7700005       4.87887121E-07
  -11.7600002       4.76846083E-07
  -11.7500000       4.61063905E-07
  -11.7399998       4.40380290E-07
  -11.7299995       4.14668676E-07
  -11.7200003       3.83838625E-07
  -11.7100000       3.47838494E-07
  -11.6999998       3.06657682E-07
  -11.6899996       2.60328932E-07
  -11.6800003       2.08930459E-07
  -11.6700001       1.52587830E-07
  -11.6599998       9.14752718E-08
  -11.6499996       2.58161599E-08
  -11.6400003      -4.41173711E-08
  -11.6300001      -1.18005893E-07
  -11.6199999      -1.95484844E-07
  -11.6099997      -2.76147972E-07
  -11.6000004      -3.59551251E-07
  -11.5900002      -4.45216784E-07
  -11.5799999      -5.32637500E-07
  -11.5699997      -6.21281231E-07
  -11.5600004      -7.10594406E-07
  -11.5500002      -8.00005580E-07
  -11.5400000      -8.88928071E-07
  -11.5299997      -9.76761612E-07
  -11.5200005      -1.06289406E-06
  -11.5100002      -1.14670092E-06
  -11.5000000      -1.22754579E-06
  -11.4899998      -1.30477872E-06
  -11.4799995      -1.37773497E-06
  -11.4700003      -1.44573323E-06
  -11.4600000      -1.50807341E-06
  -11.4499998      -1.56403553E-06
  -11.4399996      -1.61287824E-06
  -11.4300003      -1.65384029E-06
  -11.4200001      -1.68614076E-06
  -11.4099998      -1.70898261E-06
  -11.3999996      -1.72155717E-06
  -11.3900003      -1.72304931E-06
  -11.3800001      -1.71264617E-06
  -11.3699999      -1.68954239E-06
  -11.3599997      -1.65295194E-06
  -11.3500004      -1.60211403E-06
  -11.3400002      -1.53630390E-06
  -11.3299999      -1.45484000E-06
  -11.3199997      -1.35709183E-06
  -11.3100004      -1.24248697E-06
  -11.3000002      -1.11051565E-06
  -11.2900000      -9.60735406E-07
  -11.2799997      -7.92772028E-07
  -11.2700005      -6.06320611E-07
  -11.2600002      -4.01142131E-07
  -11.2500000      -1.77061040E-07
  -11.2399998       6.60416788E-08
  -11.2299995       3.28235217E-07
  -11.2200003       6.09546703E-07
  -11.2100000       9.09969970E-07
  -11.1999998       1.22947313E-06
  -11.1899996       1.56800638E-06
  -11.1800003       1.92550669E-06
  -11.1700001       2.30190267E-06
  -11.1599998       2.69711700E-06
  -11.1499996       3.11106646E-06
  -11.1400003       3.54366080E-06
  -11.1300001       3.99479904E-06
  -11.1199999       4.46436979E-06
  -11.1099997       4.95224094E-06
  -11.1000004       5.45825969E-06
  -11.0900002       5.98224688E-06
  -11.0799999       6.52398921E-06
  -11.0699997       7.08323796E-06
  -11.0600004       7.65970162E-06
  -11.0500002       8.25304051E-06
  -11.0400000       8.86286489E-06
  -11.0299997       9.48873185E-06
  -11.0200005       1.01301357E-05
  -11.0100002       1.07865180E-05
  -11.0000000       1.14572595E-05
  -10.9899998       1.21416751E-05
  -10.9799995       1.28390438E-05
  -10.9700003       1.35485825E-05
  -10.9600000       1.42694835E-05
  -10.9499998       1.50009055E-05
  -10.9399996       1.57419872E-05
  -10.9300003       1.64918656E-05
  -10.9200001       1.72496821E-05
  -10.9099998       1.80145817E-05
  -10.8999996       1.87857422E-05
  -10.8900003       1.95623652E-05
  -10.8800001       2.03436775E-05
  -10.8699999       2.11289516E-05
  -10.8599997       2.19174890E-05
  -10.8500004       2.27086439E-05
  -10.8400002       2.35017869E-05
  -10.8299999       2.42963397E-05
  -10.8199997       2.50917510E-05
  -10.8100004       2.58874952E-05
  -10.8000002       2.66830793E-05
  -10.7900000       2.74780068E-05
  -10.7799997       2.82718156E-05
  -10.7700005       2.90640328E-05
  -10.7600002       2.98541891E-05
  -10.7500000       3.06418151E-05
  -10.7399998       3.14264253E-05
  -10.7299995       3.22075284E-05
  -10.7200003       3.29846225E-05
  -10.7100000       3.37572019E-05
  -10.6999998       3.45247645E-05
  -10.6899996       3.52868301E-05
  -10.6800003       3.60429185E-05
  -10.6700001       3.67926077E-05
  -10.6599998       3.75355376E-05
  -10.6499996       3.82713915E-05
  -10.6400003       3.89999441E-05
  -10.6300001       3.97210533E-05
  -10.6199999       4.04346683E-05
  -10.6099997       4.11408473E-05
  -10.6000004       4.18397540E-05
  -10.5900002       4.25316393E-05
  -10.5799999       4.32168599E-05
  -10.5699997       4.38958596E-05
  -10.5600004       4.45691985E-05
  -10.5500002       4.52374952E-05
  -10.5400000       4.59014445E-05
  -10.5299997       4.65617995E-05
  -10.5200005       4.72193751E-05
  -10.5100002       4.78750153E-05
  -10.5000000       4.85295750E-05
  -10.4899998       4.91839055E-05
  -10.4799995       4.98388727E-05
  -10.4700003       5.04953023E-05
  -10.4600000       5.11539802E-05
  -10.4499998       5.18156667E-05
  -10.4399996       5.24810421E-05
  -10.4300003       5.31507758E-05
  -10.4200001       5.38254426E-05
  -10.4099998       5.45055664E-05
  -10.3999996       5.51916346E-05
  -10.3900003       5.58840547E-05
  -10.3800001       5.65831651E-05
  -10.3699999       5.72892204E-05
  -10.3599997       5.80024425E-05
  -10.3500004       5.87229842E-05
  -10.3400002       5.94509183E-05
  -10.3299999       6.01862448E-05
  -10.3199997       6.09289054E-05
  -10.3100004       6.16788093E-05
  -10.3000002       6.24357926E-05
  -10.2900000       6.31996518E-05
  -10.2799997       6.39701466E-05
  -10.2700005       6.47470224E-05
  -10.2600002       6.55299664E-05
  -10.2500000       6.63186729E-05
  -10.2399998       6.71128073E-05
  -10.2299995       6.79120203E-05
  -10.2200003       6.87159409E-05
  -10.2100000       6.95241979E-05
  -10.1999998       7.03364276E-05
  -10.1899996       7.11522589E-05
  -10.1800003       7.19713134E-05
  -10.1700001       7.27932638E-05
  -10.1599998       7.36177899E-05
  -10.1499996       7.44446079E-05
  -10.1400003       7.52734923E-05
  -10.1300001       7.61042465E-05
  -10.1199999       7.69367689E-05
  -10.1099997       7.77709647E-05
  -10.1000004       7.86068413E-05
  -10.0900002       7.94444422E-05
  -10.0799999       8.02838695E-05
  -10.0699997       8.11252612E-05
  -10.0600004       8.19688285E-05
  -10.0500002       8.28148186E-05
  -10.0400000       8.36635227E-05
  -10.0299997       8.45152463E-05
  -10.0200005       8.53704114E-05
  -10.0100002       8.62294037E-05
  -10.0000000       8.70926742E-05
  -9.98999977       8.79606960E-05
  -9.97999954       8.88339928E-05
  -9.97000027       8.97130885E-05
  -9.96000004       9.05985216E-05
  -9.94999981       9.14908669E-05
  -9.93999958       9.23907355E-05
  -9.93000031       9.32987095E-05
  -9.92000008       9.42154365E-05
  -9.90999985       9.51415568E-05
  -9.89999962       9.60778052E-05
  -9.89000034       9.70249530E-05
  -9.88000011       9.79838442E-05
  -9.86999989       9.89554173E-05
  -9.85999966       9.99406766E-05
  -9.85000038       1.00940772E-04
  -9.84000015       1.01956946E-04
  -9.82999992       1.02990562E-04
  -9.81999969       1.04043087E-04
  -9.81000042       1.05116102E-04
  -9.80000019       1.06211279E-04
  -9.78999996       1.07330437E-04
  -9.77999973       1.08475353E-04
  -9.77000046       1.09647983E-04
  -9.76000023       1.10850320E-04
  -9.75000000       1.12084439E-04
  -9.73999977       1.13352398E-04
  -9.72999954       1.14656345E-04
  -9.72000027       1.15998409E-04
  -9.71000004       1.17380798E-04
  -9.69999981       1.18805598E-04
  -9.68999958       1.20274912E-04
  -9.68000031       1.21790770E-04
  -9.67000008       1.23355101E-04
  -9.65999985       1.24969767E-04
  -9.64999962       1.26636398E-04
  -9.64000034       1.28356551E-04
  -9.63000011       1.30131521E-04
  -9.61999989       1.31962457E-04
  -9.60999966       1.33850175E-04
  -9.60000038       1.35795344E-04
  -9.59000015       1.37798328E-04
  -9.57999992       1.39859170E-04
  -9.56999969       1.41977682E-04
  -9.56000042       1.44153324E-04
  -9.55000019       1.46385311E-04
  -9.53999996       1.48672494E-04
  -9.52999973       1.51013519E-04
  -9.52000046       1.53406698E-04
  -9.51000023       1.55850168E-04
  -9.50000000       1.58341776E-04
  -9.48999977       1.60879121E-04
  -9.47999954       1.63459670E-04
  -9.47000027       1.66080645E-04
  -9.46000004       1.68739105E-04
  -9.44999981       1.71432024E-04
  -9.43999958       1.74156172E-04
  -9.43000031       1.76908317E-04
  -9.42000008       1.79685099E-04
  -9.40999985       1.82483200E-04
  -9.39999962       1.85299345E-04
  -9.39000034       1.88130318E-04
  -9.38000011       1.90972976E-04
  -9.36999989       1.93824497E-04
  -9.35999966       1.96682100E-04
  -9.35000038       1.99543443E-04
  -9.34000015       2.02406460E-04
  -9.32999992       2.05269389E-04
  -9.31999969       2.08130994E-04
  -9.31000042       2.10990460E-04
  -9.30000019       2.13847481E-04
  -9.28999996       2.16702247E-04
  -9.27999973       2.19555543E-04
  -9.27000046       2.22408737E-04
  -9.26000023       2.25263764E-04
  -9.25000000       2.28123157E-04
  -9.23999977       2.30990088E-04
  -9.22999954       2.33868224E-04
  -9.22000027       2.36761960E-04
  -9.21000004       2.39675981E-04
  -9.19999981       2.42615715E-04
  -9.18999958       2.45586911E-04
  -9.18000031       2.48595694E-04
  -9.17000008       2.51648569E-04
  -9.15999985       2.54752318E-04
  -9.14999962       2.57913984E-04
  -9.14000034       2.61140667E-04
  -9.13000011       2.64439586E-04
  -9.11999989       2.67818017E-04
  -9.10999966       2.71283119E-04
  -9.10000038       2.74841907E-04
  -9.09000015       2.78501189E-04
  -9.07999992       2.82267487E-04
  -9.06999969       2.86146998E-04
  -9.06000042       2.90145457E-04
  -9.05000019       2.94268219E-04
  -9.03999996       2.98519997E-04
  -9.02999973       3.02904838E-04
  -9.02000046       3.07426322E-04
  -9.01000023       3.12087184E-04
  -9.00000000       3.16889462E-04
  -8.98999977       3.21834348E-04
  -8.97999954       3.26922222E-04
  -8.97000027       3.32152675E-04
  -8.96000004       3.37524252E-04
  -8.94999981       3.43034830E-04
  -8.93999958       3.48681264E-04
  -8.93000031       3.54459567E-04
  -8.92000008       3.60364938E-04
  -8.90999985       3.66391672E-04
  -8.89999962       3.72533366E-04
  -8.89000034       3.78782541E-04
  -8.88000011       3.85131367E-04
  -8.86999989       3.91570851E-04
  -8.85999966       3.98091768E-04
  -8.85000038       4.04683757E-04
  -8.84000015       4.11336398E-04
  -8.82999992       4.18038253E-04
  -8.81999969       4.24777885E-04
  -8.81000042       4.31543129E-04
  -8.80000019       4.38321615E-04
  -8.78999996       4.45100857E-04
  -8.77999973       4.51868109E-04
  -8.77000046       4.58610564E-04
  -8.76000023       4.65315505E-04
  -8.75000000       4.71970096E-04
  -8.73999977       4.78561997E-04
  -8.72999954       4.85078781E-04
  -8.72000027       4.91508457E-04
  -8.71000004       4.97839472E-04
  -8.69999981       5.04060416E-04
  -8.68999958       5.10160578E-04
  -8.68000031       5.16129774E-04
  -8.67000008       5.21958165E-04
  -8.65999985       5.27636555E-04
  -8.64999962       5.33156621E-04
  -8.64000034       5.38510387E-04
  -8.63000011       5.43690636E-04
  -8.61999989       5.48690790E-04
  -8.60999966       5.53505030E-04
  -8.60000038       5.58128115E-04
  -8.59000015       5.62555622E-04
  -8.57999992       5.66783478E-04
  -8.56999969       5.70808770E-04
  -8.56000042       5.74628764E-04
  -8.55000019       5.78241656E-04
  -8.53999996       5.81645989E-04
  -8.52999973       5.84841124E-04
  -8.52000046       5.87826944E-04
  -8.51000023       5.90604090E-04
  -8.50000000       5.93173376E-04
  -8.48999977       5.95536607E-04
  -8.47999954       5.97695645E-04
  -8.47000027       5.99653460E-04
  -8.46000004       6.01412728E-04
  -8.44999981       6.02977350E-04
  -8.43999958       6.04351400E-04
  -8.43000031       6.05539361E-04
  -8.42000008       6.06546237E-04
  -8.40999985       6.07377326E-04
  -8.39999962       6.08038448E-04
  -8.39000034       6.08535658E-04
  -8.38000011       6.08875591E-04
  -8.36999989       6.09064999E-04
  -8.35999966       6.09111099E-04
  -8.35000038       6.09021168E-04
  -8.34000015       6.08802889E-04
  -8.32999992       6.08464470E-04
  -8.31999969       6.08014117E-04
  -8.31000042       6.07460272E-04
  -8.30000019       6.06811955E-04
  -8.28999996       6.06078014E-04
  -8.27999973       6.05267764E-04
  -8.27000046       6.04390923E-04
  -8.26000023       6.03456865E-04
  -8.25000000       6.02475891E-04
  -8.23999977       6.01458189E-04
  -8.22999954       6.00414292E-04
  -8.22000027       5.99355029E-04
  -8.21000004       5.98291459E-04
  -8.19999981       5.97235048E-04
  -8.18999958       5.96197147E-04
  -8.18000031       5.95190038E-04
  -8.17000008       5.94226003E-04
  -8.15999985       5.93317556E-04
  -8.14999962       5.92477620E-04
  -8.14000034       5.91719407E-04
  -8.13000011       5.91056363E-04
  -8.11999989       5.90502401E-04
  -8.10999966       5.90071257E-04
  -8.10000038       5.89777366E-04
  -8.09000015       5.89634874E-04
  -8.07999992       5.89658332E-04
  -8.06999969       5.89862233E-04
  -8.06000042       5.90260956E-04
  -8.05000019       5.90868818E-04
  -8.03999996       5.91700140E-04
  -8.02999973       5.92768949E-04
  -8.02000046       5.94088808E-04
  -8.01000023       5.95672987E-04
  -8.00000000       5.97534643E-04
  -7.98999977       5.99686173E-04
  -7.98000002       6.02139509E-04
  -7.96999979       6.04906352E-04
  -7.96000004       6.07997354E-04
  -7.94999981       6.11422642E-04
  -7.94000006       6.15191937E-04
  -7.92999983       6.19313563E-04
  -7.92000008       6.23795902E-04
  -7.90999985       6.28645997E-04
  -7.90000010       6.33870426E-04
  -7.88999987       6.39474543E-04
  -7.88000011       6.45463122E-04
  -7.86999989       6.51840121E-04
  -7.86000013       6.58608682E-04
  -7.84999990       6.65770902E-04
  -7.84000015       6.73328352E-04
  -7.82999992       6.81281323E-04
  -7.82000017       6.89629698E-04
  -7.80999994       6.98372431E-04
  -7.80000019       7.07507832E-04
  -7.78999996       7.17033341E-04
  -7.78000021       7.26945582E-04
  -7.76999998       7.37240363E-04
  -7.76000023       7.47913262E-04
  -7.75000000       7.58958806E-04
  -7.73999977       7.70370825E-04
  -7.73000002       7.82143034E-04
  -7.71999979       7.94268388E-04
  -7.71000004       8.06739088E-04
  -7.69999981       8.19547276E-04
  -7.69000006       8.32684455E-04
  -7.67999983       8.46141600E-04
  -7.67000008       8.59909691E-04
  -7.65999985       8.73978948E-04
  -7.65000010       8.88340233E-04
  -7.63999987       9.02983127E-04
  -7.63000011       9.17897851E-04
  -7.61999989       9.33074218E-04
  -7.61000013       9.48501867E-04
  -7.59999990       9.64170729E-04
  -7.59000015       9.80070792E-04
  -7.57999992       9.96191986E-04
  -7.57000017       1.01252436E-03
  -7.55999994       1.02905871E-03
  -7.55000019       1.04578561E-03
  -7.53999996       1.06269622E-03
  -7.53000021       1.07978203E-03
  -7.51999998       1.09703490E-03
  -7.51000023       1.11444737E-03
  -7.50000000       1.13201211E-03
  -7.48999977       1.14972296E-03
  -7.48000002       1.16757303E-03
  -7.46999979       1.18555757E-03
  -7.46000004       1.20367156E-03
  -7.44999981       1.22191000E-03
  -7.44000006       1.24026998E-03