  -16.0000000       0.00000000    
  -15.9899998       0.00000000    
  -15.9799995       0.00000000    
  -15.9700003       0.00000000    
  -15.9600000       0.00000000    
  -15.9499998       0.00000000    
  -15.9399996       0.00000000    
  -15.9300003       0.00000000    
  -15.9200001       0.00000000    
  -15.9099998       0.00000000    
  -15.8999996       0.00000000    
  -15.8900003       0.00000000    
  -15.8800001       0.00000000    
  -15.8699999       0.00000000    
  -15.8599997      -0.00000000    
  -15.8500004      -0.00000000    
  -15.8400002      -8.40779079E-45
  -15.8299999      -8.96831017E-44
  -15.8199997      -8.07147915E-43
  -15.8100004      -5.79577045E-42
  -15.8000002      -3.47171695E-41
  -15.7900000      -1.77632797E-40
  -15.7799997      -7.91674778E-40
  -15.7700005      -3.12086404E-39
  -15.7600002      -1.10134885E-38
  -15.7500000      -3.51184621E-38
  -15.7399998      -1.01894196E-37
  -15.7299995      -2.70347939E-37
  -15.7200003      -6.57901468E-37
  -15.7100000      -1.46981949E-36
  -15.6999998      -3.00983377E-36
  -15.6899996      -5.62051460E-36
  -15.6800003      -9.46704292E-36
  -15.6700001      -1.40625170E-35
  -15.6599998      -1.74875103E-35
  -15.6499996      -1.54476287E-35
  -15.6400003      -6.79273310E-37
  -15.6300001       3.63151847E-35
  -15.6199999       1.03914929E-34
  -15.6099997       2.02466229E-34
  -15.6000004       3.14381832E-34
  -15.5900002       3.94657764E-34
  -15.5799999       3.68513048E-34
  -15.5699997       1.44529280E-34
  -15.5600004      -3.51120530E-34
  -15.5500002      -1.12269372E-33
  -15.5400000      -2.05161251E-33
  -15.5299997      -2.86857686E-33
  -15.5200005      -3.17514799E-33
  -15.5100002      -2.51833336E-33
  -15.5000000      -4.92652529E-34
  -15.4899998       3.16571649E-33
  -15.4799995       8.48676873E-33
  -15.4700003       1.50768656E-32
  -15.4600000       2.16579192E-32
  -15.4499998       2.52600335E-32
  -15.4399996       2.04144048E-32
  -15.4300003      -5.85902705E-34
  -15.4200001      -4.46827267E-32
  -15.4099998      -1.10984088E-31
  -15.3999996      -1.80549585E-31
  -15.3900003      -2.08258196E-31
  -15.3800001      -1.26747302E-31
  -15.3699999       1.26278115E-31
  -15.3599997       5.53268139E-31
  -15.3500004       1.02911107E-30
  -15.3400002       1.26112338E-30
  -15.3299999       8.36876276E-31
  -15.3199997      -5.89368934E-31
  -15.3100004      -2.97862501E-30
  -15.3000002      -5.56975442E-30
  -15.2900000      -6.74929510E-30
  -15.2799997      -4.40190473E-30
  -15.2700005       3.09450787E-30
  -15.2600002       1.53734996E-29
  -15.2500000       2.86719029E-29
  -15.2399998       3.54687323E-29
  -15.2299995       2.61444418E-29
  -15.2200003      -6.94461900E-30
  -15.2100000      -6.37327233E-29
  -15.1999998      -1.31143937E-28
  -15.1899996      -1.81150274E-28
  -15.1800003      -1.74797474E-28
  -15.1700001      -7.31864333E-29
  -15.1599998       1.45922079E-28
  -15.1499996       4.69084505E-28
  -15.1400003       8.29558212E-28
  -15.1300001       1.09493316E-27
  -15.1199999       1.06562147E-27
  -15.1099997       4.95929416E-28
  -15.1000004      -8.40843199E-28
  -15.0900002      -3.01666978E-27
  -15.0799999      -5.73158523E-27
  -15.0699997      -8.05851228E-27
  -15.0600004      -8.28961771E-27
  -15.0500002      -4.12905783E-27
  -15.0400000       6.48790948E-27
  -15.0299997       2.38151407E-26
  -15.0200005       4.42319641E-26
  -15.0100002       5.86144730E-26
  -15.0000000       5.26910890E-26
  -14.9899998       1.10855896E-26
  -14.9799995      -7.41283348E-26
  -14.9700003      -1.91778717E-25
  -14.9600000      -3.01558080E-25
  -14.9499998      -3.33343579E-25
  -14.9399996      -2.04217230E-25
  -14.9300003       1.42708623E-25
  -14.9200001       6.83779801E-25
  -14.9099998       1.26518705E-24
  -14.8999996       1.59179706E-24
  -14.8900003       1.29030971E-24
  -14.8800001       6.50750404E-26
  -14.8699999      -2.07644934E-24
  -14.8599997      -4.60908905E-24
  -14.8500004      -6.41762643E-24
  -14.8400002      -6.00817922E-24
  -14.8299999      -2.07991145E-24
  -14.8199997       5.61916194E-24
  -14.8100004       1.54407563E-23
  -14.8000002       2.34677899E-23
  -14.7900000       2.41537928E-23
  -14.7799997       1.22795816E-23
  -14.7700005      -1.39889225E-23
  -14.7600002      -4.98995070E-23
  -14.7500000      -8.24130750E-23
  -14.7399998      -9.18726280E-23
  -14.7299995      -5.82715710E-23
  -14.7200003       2.83388625E-23
  -14.7100000       1.56232476E-22
  -14.6999998       2.84530188E-22
  -14.6899996       3.46282245E-22
  -14.6800003       2.66915846E-22
  -14.6700001      -2.17558233E-24
  -14.6599998      -4.42961882E-22
  -14.6499996      -9.39357593E-22
  -14.6400003      -1.27619590E-21
  -14.6300001      -1.18675386E-21
  -14.6199999      -4.53400494E-22
  -14.6099997       9.57417130E-22
  -14.6000004       2.77169180E-21
  -14.5900002       4.36145922E-21
  -14.5799999       4.84019929E-21
  -14.5699997       3.33284741E-21
  -14.5600004      -6.10792810E-22
  -14.5500002      -6.57337815E-21
  -14.5400000      -1.29853656E-20
  -14.5299997      -1.72106397E-20
  -14.5200005      -1.61562575E-20
  -14.5100002      -7.40345631E-21
  -14.5000000       9.37564715E-21
  -14.4899998       3.11937564E-20
  -14.4799995       5.13446677E-20
  -14.4700003       6.03973097E-20
  -14.4600000       4.88407533E-20
  -14.4499998       1.10499059E-20
  -14.4399996      -5.04720407E-20
  -14.4300003      -1.22216957E-19
  -14.4200001      -1.79987251E-19
  -14.4099998      -1.93736388E-19
  -14.3999996      -1.37007088E-19
  -14.3900003       8.01104279E-22
  -14.3800001       2.03020211E-19
  -14.3699999       4.20094376E-19
  -14.3599997       5.74487327E-19
  -14.3500004       5.78681443E-19
  -14.3400002       3.64752245E-19
  -14.3299999      -8.11466249E-20
  -14.3199997      -6.90686764E-19
  -14.3100004      -1.30504678E-18
  -14.3000002      -1.69752186E-18
  -14.2900000      -1.63082204E-18
  -14.2799997      -9.41141182E-19
  -14.2700005       3.72047486E-19
  -14.2600002       2.08168666E-18
  -14.2500000       3.72780275E-18
  -14.2399998       4.69529264E-18
  -14.2299995       4.37727478E-18
  -14.2200003       2.39605789E-18
  -14.2100000      -1.17722649E-18
  -14.1999998      -5.68375031E-18
  -14.1899996      -9.89716061E-18
  -14.1800003      -1.22513348E-17
  -14.1700001      -1.12670883E-17
  -14.1599998      -6.09588023E-18
  -14.1499996       2.97005734E-18
  -14.1400003       1.42097966E-17
  -14.1300001       2.45808597E-17
  -14.1199999       3.03133206E-17
  -14.1099997       2.79442324E-17
  -14.1000004       1.55802215E-17
  -14.0900002      -5.96755060E-18
  -14.0799999      -3.25978545E-17
  -14.0699997      -5.72474761E-17
  -14.0600004      -7.12993226E-17
  -14.0500002      -6.69257871E-17
  -14.0400000      -3.98699368E-17
  -14.0299997       8.12035101E-18
  -14.0200005       6.80981998E-17
  -14.0100002       1.24700468E-16
  -14.0000000       1.59205057E-16
  -13.9899998       1.54504554E-16
  -13.9799995       1.00928019E-16
  -13.9700003       1.28821521E-18
  -13.9600000      -1.26641021E-16
  -13.9499998      -2.51657406E-16
  -13.9399996      -3.35212336E-16
  -13.9300003      -3.41290247E-16
  -13.9200001      -2.47967281E-16
  -13.9099998      -5.75077270E-17
  -13.8999996       1.98431484E-16
  -13.8900003       4.61203246E-16
  -13.8800001       6.56191289E-16
  -13.8699999       7.11070130E-16
  -13.8599997       5.77440836E-16
  -13.8500004       2.50147517E-16
  -13.8400002      -2.21907703E-16
  -13.8299999      -7.38368414E-16
  -13.8199997      -1.16536783E-15
  -13.8100004      -1.36660179E-15
  -13.8000002      -1.24106812E-15
  -13.7900000      -7.57885165E-16
  -13.7799997       2.22495554E-17
  -13.7700005       9.47354788E-16
  -13.7600002       1.79977624E-15
  -13.7500000       2.34403663E-15
  -13.7399998       2.38706759E-15
  -13.7299995       1.83601506E-15
  -13.7200003       7.37389032E-16
  -13.7100000      -7.15656178E-16
  -13.6999998      -2.21395121E-15
  -13.6899996      -3.39714485E-15
  -13.6800003      -3.93917797E-15
  -13.6700001      -3.63377939E-15
  -13.6599998      -2.45736053E-15
  -13.6499996      -5.90875520E-16
  -13.6400003       1.60808686E-15
  -13.6300001       3.67885510E-15
  -13.6199999       5.16023779E-15
  -13.6099997       5.69691956E-15
  -13.6000004       5.12276506E-15
  -13.5900002       3.49986856E-15
  -13.5799999       1.10410374E-15
  -13.5699997      -1.63746260E-15
  -13.5600004      -4.23903652E-15
  -13.5500002      -6.25307504E-15
  -13.5400000      -7.34730778E-15
  -13.5299997      -7.34598217E-15
  -13.5200005      -6.23272084E-15
  -13.5100002      -4.12540960E-15
  -13.5000000      -1.24154500E-15
  -13.4899998       2.12800066E-15
  -13.4799995       5.62771147E-15
  -13.4700003       8.83358125E-15
  -13.4600000       1.12547809E-14
  -13.4499998       1.23648252E-14
  -13.4399996       1.16803506E-14
  -13.4300003       8.88789215E-15
  -13.4200001       3.99382853E-15
  -13.4099998      -2.55015934E-15
  -13.3999996      -9.80496287E-15
  -13.3900003      -1.64341603E-14
  -13.3800001      -2.09434961E-14
  -13.3699999      -2.20385809E-14
  -13.3599997      -1.90182919E-14
  -13.3500004      -1.20863546E-14
  -13.3400002      -2.45956896E-15
  -13.3299999       7.81064751E-15
  -13.3199997       1.63115608E-14
  -13.3100004       2.09492712E-14
  -13.3000002       2.06585881E-14
  -13.2900000       1.59145310E-14
  -13.2799997       8.83132560E-15
  -13.2700005       2.71919811E-15
  -13.2600002       1.11757739E-15
  -13.2500000       6.49662709E-15
  -13.2399998       1.89723996E-14
  -13.2299995       3.54622405E-14
  -13.2200003       4.96743556E-14
  -13.2100000       5.31691424E-14
  -13.1999998       3.74687260E-14
  -13.1899996      -3.12677850E-15
  -13.1800003      -6.86481308E-14
  -13.1700001      -1.51304384E-13
  -13.1599998      -2.34887440E-13
  -13.1499996      -2.96339559E-13
  -13.1400003      -3.09670258E-13
  -13.1300001      -2.51851627E-13
  -13.1199999      -1.09720792E-13
  -13.1099997       1.13564858E-13
  -13.1000004       3.94226806E-13
  -13.0900002       6.87320752E-13
  -13.0799999       9.31039317E-13
  -13.0699997       1.05606713E-12
  -13.0600004       9.99069751E-13
  -13.0500002       7.18230813E-13
  -13.0400000       2.07813638E-13
  -13.0299997      -4.91719621E-13
  -13.0200005      -1.29120857E-12
  -13.0100002      -2.06004723E-12
  -13.0000000      -2.64353968E-12
  -12.9899998      -2.88853251E-12
  -12.9799995      -2.67336197E-12
  -12.9700003      -1.93656376E-12
  -12.9600000      -6.98260785E-13
  -12.9499998       9.31022186E-13
  -12.9399996       2.75725601E-12
  -12.9300003       4.52551581E-12
  -12.9200001       5.95493663E-12
  -12.9099998       6.77981109E-12
  -12.8999996       6.78921893E-12
  -12.8900003       5.85801546E-12
  -12.8800001       3.96436529E-12
  -12.8699999       1.19268625E-12
  -12.8599997      -2.27524184E-12
  -12.8500004      -6.17530549E-12
  -12.8400002      -1.01758003E-11
  -12.8299999      -1.38873383E-11
  -12.8199997      -1.68677329E-11
  -12.8100004      -1.86270183E-11
  -12.8000002      -1.86425875E-11
  -12.7900000      -1.63963496E-11
  -12.7799997      -1.14433645E-11
  -12.7700005      -3.51432013E-12
  -12.7600002       7.35687986E-12
  -12.7500000       2.07014041E-11
  -12.7399998       3.55107818E-11
  -12.7299995       5.01950842E-11
  -12.7200003       6.26360561E-11
  -12.7100000       7.03550343E-11
  -12.6999998       7.07953071E-11
  -12.6899996       6.16954543E-11
  -12.6800003       4.15081025E-11
  -12.6700001       9.80363273E-12
  -12.6599998      -3.24065948E-11
  -12.6499996      -8.24853588E-11
  -12.6400003      -1.36163539E-10
  -12.6300001      -1.87729929E-10
  -12.6199999      -2.30409414E-10
  -12.6099997      -2.56903138E-10
  -12.6000004      -2.60052480E-10
  -12.5900002      -2.33585790E-10
  -12.5799999      -1.72909312E-10
  -12.5699997      -7.59056221E-11
  -12.5600004       5.62974632E-11
  -12.5500002       2.18639551E-10
  -12.5400000       4.01590206E-10
  -12.5299997       5.90859806E-10
  -12.5200005       7.67475694E-10
  -12.5100002       9.08352560E-10
  -12.5000000       9.87472659E-10
  -12.4899998       9.77752213E-10
  -12.4799995       8.53598858E-10
  -12.4700003       5.94083616E-10
  -12.4600000       1.86548749E-10
  -12.4499998      -3.69613090E-10
  -12.4399996      -1.05933651E-09
  -12.4300003      -1.84877691E-09
  -12.4200001      -2.68307265E-09
  -12.4099998      -3.48527651E-09
  -12.3999996      -4.15668788E-09
  -12.3900003      -4.57870053E-09
  -12.3800001      -4.61621763E-09
  -12.3699999      -4.12253387E-09
  -12.3599997      -2.94553026E-09
  -12.3500004      -9.34950783E-10
  -12.3400002       2.04957828E-09
  -12.3299999       6.13010442E-09
  -12.3199997       1.14019247E-08
  -12.3100004       1.79256059E-08
  -12.3000002       2.57198831E-08
  -12.2900000       3.47557965E-08
  -12.2799997       4.49525928E-08
  -12.2700005       5.61755087E-08
  -12.2600002       6.82358205E-08
  -12.2500000       8.08930878E-08
  -12.2399998       9.38596258E-08
  -12.2299995       1.06807178E-07
  -12.2200003       1.19375258E-07
  -12.2100000       1.31181096E-07
  -12.1999998       1.41830668E-07
  -12.1899996       1.50930120E-07
  -12.1800003       1.58097450E-07
  -12.1700001       1.62973450E-07
  -12.1599998       1.65231640E-07
  -12.1499996       1.64586595E-07
  -12.1400003       1.60800013E-07
  -12.1300001       1.53684738E-07
  -12.1199999       1.43106291E-07
  -12.1099997       1.28981995E-07
  -12.1000004       1.11278595E-07
  -12.0900002       9.00083137E-08
  -12.0799999       6.52245475E-08
  -12.0699997       3.70175677E-08
  -12.0600004       5.51096768E-09
  -12.0500002      -2.91406330E-08
  -12.0400000      -6.67524418E-08
  -12.0299997      -1.07108939E-07
  -12.0200005      -1.49961977E-07
  -12.0100002      -1.95027937E-07
  -12.0000000      -2.41984367E-07
  -11.9899998      -2.90466630E-07
  -11.9799995      -3.40064702E-07
  -11.9700003      -3.90321048E-07
  -11.9600000      -4.40729508E-07
  -11.9499998      -4.90735829E-07
  -11.9399996      -5.39739972E-07
  -11.9300003      -5.87100715E-07
  -11.9200001      -6.32142701E-07
  -11.9099998      -6.74165108E-07
  -11.8999996      -7.12453186E-07
  -11.8900003      -7.46291335E-07
  -11.8800001      -7.74976741E-07
  -11.8699999      -7.97833195E-07
  -11.8599997      -8.14224791E-07
  -11.8500004      -8.23567575E-07
  -11.8400002      -8.25339896E-07
  -11.8299999      -8.19089109E-07
  -11.8199997      -8.04437093E-07
  -11.8100004      -7.81082633E-07
  -11.8000002      -7.48801654E-07
  -11.7900000      -7.07446645E-07
  -11.7799997      -6.56943712E-07
  -11.7700005      -5.97290352E-07
  -11.7600002      -5.28551993E-07
  -11.7500000      -4.50859602E-07
  -11.7399998      -3.64407299E-07
  -11.7299995      -2.69451505E-07
  -11.7200003      -1.66311210E-07
  -11.7100000      -5.53693802E-08
  -11.6999998       6.29244141E-08
  -11.6899996       1.88049910E-07
  -11.6800003       3.19412777E-07
  -11.6700001       4.56340757E-07
  -11.6599998       5.98081613E-07
  -11.6499996       7.43802389E-07
  -11.6400003       8.92591231E-07
  -11.6300001       1.04346111E-06
  -11.6199999       1.19535548E-06
  -11.6099997       1.34715526E-06
  -11.6000004       1.49768755E-06
  -11.5900002       1.64573294E-06
  -11.5799999       1.79003462E-06
  -11.5699997       1.92930565E-06
  -11.5600004       2.06223876E-06
  -11.5500002       2.18751461E-06
  -11.5400000       2.30381215E-06
  -11.5299997       2.40981876E-06
  -11.5200005       2.50424318E-06
  -11.5100002       2.58582691E-06
  -11.5000000       2.65335598E-06
  -11.4899998       2.70566875E-06
  -11.4799995       2.74166587E-06
  -11.4700003       2.76031301E-06
  -11.4600000       2.76064270E-06
  -11.4499998       2.74175363E-06
  -11.4399996       2.70280907E-06
  -11.4300003       2.64303230E-06
  -11.4200001       2.56170665E-06
  -11.4099998       2.45817319E-06
  -11.3999996       2.33183209E-06
  -11.3900003       2.18214564E-06
  -11.3800001       2.00864474E-06
  -11.3699999       1.81093230E-06
  -11.3599997       1.58869216E-06
  -11.3500004       1.34169522E-06
  -11.3400002       1.06980463E-06
  -11.3299999       7.72979661E-07
  -11.3199997       4.51279988E-07
  -11.3100004       1.04863382E-07
  -11.3000002      -2.66014467E-07
  -11.2900000      -6.61005913E-07
  -11.2799997      -1.07967662E-06
  -11.2700005      -1.52151404E-06
  -11.2600002      -1.98593693E-06
  -11.2500000      -2.47230173E-06
  -11.2399998      -2.97991460E-06
  -11.2299995      -3.50803452E-06
  -11.2200003      -4.05588071E-06
  -11.2100000      -4.62263642E-06
  -11.1999998      -5.20744561E-06
  -11.1899996      -5.80941924E-06
  -11.1800003      -6.42763007E-06
  -11.1700001      -7.06111405E-06
  -11.1599998      -7.70886891E-06
  -11.1499996      -8.36985691E-06
  -11.1400003      -9.04300578E-06
  -11.1300001      -9.72721773E-06
  -11.1199999      -1.04213650E-05
  -11.1099997      -1.11243089E-05
  -11.1000004      -1.18348999E-05
  -11.0900002      -1.25519900E-05
  -11.0799999      -1.32744417E-05
  -11.0699997      -1.40011362E-05
  -11.0600004      -1.47309811E-05
  -11.0500002      -1.54629251E-05
  -11.0400000      -1.61959524E-05
  -11.0299997      -1.69290925E-05
  -11.0200005      -1.76614212E-05
  -11.0100002      -1.83920492E-05
  -11.0000000      -1.91201216E-05
  -10.9899998      -1.98448088E-05
  -10.9799995      -2.05652941E-05
  -10.9700003      -2.12807627E-05
  -10.9600000      -2.19903959E-05
  -10.9499998      -2.26933607E-05
  -10.9399996      -2.33888077E-05
  -10.9300003      -2.40758818E-05
  -10.9200001      -2.47537100E-05
  -10.9099998      -2.54214319E-05
  -10.8999996      -2.60781726E-05
  -10.8900003      -2.67230953E-05
  -10.8800001      -2.73553724E-05
  -10.8699999      -2.79742071E-05
  -10.8599997      -2.85788301E-05
  -10.8500004      -2.91684955E-05
  -10.8400002      -2.97424795E-05
  -10.8299999      -3.03000725E-05
  -10.8199997      -3.08405652E-05
  -10.8100004      -3.13632481E-05
  -10.8000002      -3.18673920E-05
  -10.7900000      -3.23522254E-05
  -10.7799997      -3.28169845E-05
  -10.7700005      -3.32608288E-05
  -10.7600002      -3.36829216E-05
  -10.7500000      -3.40823717E-05
  -10.7399998      -3.44582913E-05
  -10.7299995      -3.48097710E-05
  -10.7200003      -3.51359049E-05
  -10.7100000      -3.54358090E-05
  -10.6999998      -3.57086064E-05
  -10.6899996      -3.59534533E-05
  -10.6800003      -3.61695129E-05
  -10.6700001      -3.63559629E-05
  -10.6599998      -3.65119959E-05
  -10.6499996      -3.66368076E-05
  -10.6400003      -3.67295943E-05
  -10.6300001      -3.67895627E-05
  -10.6199999      -3.68159272E-05
  -10.6099997      -3.68079418E-05
  -10.6000004      -3.67648790E-05
  -10.5900002      -3.66860695E-05
  -10.5799999      -3.65709129E-05
  -10.5699997      -3.64188636E-05
  -10.5600004      -3.62294559E-05
  -10.5500002      -3.60022968E-05
  -10.5400000      -3.57370809E-05
  -10.5299997      -3.54335752E-05
  -10.5200005      -3.50916271E-05
  -10.5100002      -3.47111672E-05
  -10.5000000      -3.42922176E-05
  -10.4899998      -3.38348946E-05
  -10.4799995      -3.33393982E-05
  -10.4700003      -3.28060341E-05
  -10.4600000      -3.22351880E-05
  -10.4499998      -3.16273508E-05
  -10.4399996      -3.09831230E-05
  -10.4300003      -3.03031939E-05
  -10.4200001      -2.95883692E-05
  -10.4099998      -2.88395586E-05
  -10.3999996      -2.80577860E-05
  -10.3900003      -2.72441830E-05
  -10.3800001      -2.63999882E-05
  -10.3699999      -2.55265368E-05
  -10.3599997      -2.46252384E-05
  -10.3500004      -2.36975829E-05
  -10.3400002      -2.27451146E-05
  -10.3299999      -2.17694142E-05
  -10.3199997      -2.07721077E-05
  -10.3100004      -1.97548397E-05
  -10.3000002      -1.87193000E-05
  -10.2900000      -1.76671911E-05
  -10.2799997      -1.66002519E-05
  -10.2700005      -1.55202360E-05
  -10.2600002      -1.44289215E-05
  -10.2500000      -1.33280928E-05
  -10.2399998      -1.22195479E-05
  -10.2299995      -1.11050786E-05
  -10.2200003      -9.98646101E-06
  -10.2100000      -8.86544512E-06
  -10.1999998      -7.74375349E-06
  -10.1899996      -6.62304183E-06
  -10.1800003      -5.50490176E-06
  -10.1700001      -4.39082987E-06
  -10.1599998      -3.28222018E-06
  -10.1499996      -2.18035120E-06
  -10.1400003      -1.08637528E-06
  -10.1300001      -1.31672573E-09
  -10.1199999       1.07391566E-06
  -10.1099997       2.13853264E-06
  -10.1000004       3.19184369E-06
  -10.0900002       4.23326037E-06
  -10.0799999       5.26227905E-06
  -10.0699997       6.27848613E-06
  -10.0600004       7.28156647E-06
  -10.0500002       8.27128497E-06
  -10.0400000       9.24750293E-06
  -10.0299997       1.02101631E-05
  -10.0200005       1.11592944E-05
  -10.0100002       1.20949926E-05
  -10.0000000       1.30174130E-05
  -9.98999977       1.39267704E-05
  -9.97999954       1.48233312E-05
  -9.97000027       1.57074228E-05
  -9.96000004       1.65794190E-05
  -9.94999981       1.74397810E-05
  -9.93999958       1.82890290E-05
  -9.93000031       1.91277522E-05
  -9.92000008       1.99566221E-05
  -9.90999985       2.07763496E-05
  -9.89999962       2.15876935E-05
  -9.89000034       2.23914321E-05
  -9.88000011       2.31883459E-05
  -9.86999989       2.39791989E-05
  -9.85999966       2.47647313E-05
  -9.85000038       2.55456416E-05
  -9.84000015       2.63225957E-05
  -9.82999992       2.70962009E-05
  -9.81999969       2.78670304E-05
  -9.81000042       2.86356080E-05
  -9.80000019       2.94024321E-05
  -9.78999996       3.01679793E-05
  -9.77999973       3.09327152E-05
  -9.77000046       3.16971273E-05
  -9.76000023       3.24616994E-05
  -9.75000000       3.32269738E-05
  -9.73999977       3.39935177E-05
  -9.72999954       3.47619534E-05
  -9.72000027       3.55329394E-05
  -9.71000004       3.63071813E-05
  -9.69999981       3.70854250E-05
  -9.68999958       3.78684708E-05
  -9.68000031       3.86571301E-05
  -9.67000008       3.94522613E-05
  -9.65999985       4.02547594E-05
  -9.64999962       4.10655230E-05
  -9.64000034       4.18854579E-05
  -9.63000011       4.27154337E-05
  -9.61999989       4.35562761E-05
  -9.60999966       4.44087273E-05
  -9.60000038       4.52734203E-05
  -9.59000015       4.61508571E-05
  -9.57999992       4.70413797E-05
  -9.56999969       4.79451337E-05
  -9.56000042       4.88621008E-05
  -9.55000019       4.97920264E-05
  -9.53999996       5.07344121E-05
  -9.52999973       5.16884975E-05
  -9.52000046       5.26532640E-05
  -9.51000023       5.36273583E-05
  -9.50000000       5.46091505E-05
  -9.48999977       5.55966835E-05
  -9.47999954       5.65877017E-05
  -9.47000027       5.75796657E-05
  -9.46000004       5.85697526E-05
  -9.44999981       5.95549391E-05
  -9.43999958       6.05319947E-05
  -9.43000031       6.14975579E-05
  -9.42000008       6.24481763E-05
  -9.40999985       6.33803866E-05
  -9.39999962       6.42907398E-05
  -9.39000034       6.51759692E-05
  -9.38000011       6.60329461E-05
  -9.36999989       6.68588618E-05
  -9.35999966       6.76512282E-05
  -9.35000038       6.84079860E-05
  -9.34000015       6.91275636E-05
  -9.32999992       6.98088843E-05
  -9.31999969       7.04514823E-05
  -9.31000042       7.10554159E-05
  -9.30000019       7.16214126E-05
  -9.28999996       7.21507749E-05
  -9.27999973       7.26454382E-05
  -9.27000046       7.31079417E-05
  -9.26000023       7.35413996E-05
  -9.25000000       7.39494499E-05
  -9.23999977       7.43362907E-05
  -9.22999954       7.47065787E-05
  -9.22000027       7.50654144E-05
  -9.21000004       7.54182693E-05
  -9.19999981       7.57709495E-05
  -9.18999958       7.61295087E-05
  -9.18000031       7.65002333E-05
  -9.17000008       7.68895261E-05
  -9.15999985       7.73038555E-05
  -9.14999962       7.77497262E-05
  -9.14000034       7.82335628E-05
  -9.13000011       7.87616882E-05
  -9.11999989       7.93403233E-05
  -9.10999966       7.99754125E-05
  -9.10000038       8.06727112E-05
  -9.09000015       8.14376617E-05
  -9.07999992       8.22753573E-05
  -9.06999969       8.31904690E-05
  -9.06000042       8.41872243E-05
  -9.05000019       8.52693120E-05
  -9.03999996       8.64398753E-05
  -9.02999973       8.77014172E-05
  -9.02000046       8.90558804E-05
  -9.01000023       9.05044799E-05
  -9.00000000       9.20477905E-05
  -8.98999977       9.36856741E-05
  -8.97999954       9.54173011E-05
  -8.97000027       9.72410344E-05
  -8.96000004       9.91545166E-05
  -8.94999981       1.01154605E-04
  -8.93999958       1.03237355E-04
  -8.93000031       1.05398132E-04
  -8.92000008       1.07631495E-04
  -8.90999985       1.09931345E-04
  -8.89999962       1.12290960E-04
  -8.89000034       1.14702983E-04
  -8.88000011       1.17159543E-04
  -8.86999989       1.19652228E-04
  -8.85999966       1.22172249E-04
  -8.85000038       1.24710379E-04
  -8.84000015       1.27257154E-04
  -8.82999992       1.29802866E-04
  -8.81999969       1.32337707E-04
  -8.81000042       1.34851813E-04
  -8.80000019       1.37335257E-04
  -8.78999996       1.39778218E-04
  -8.77999973       1.42170946E-04
  -8.77000046       1.44503822E-04
  -8.76000023       1.46767343E-04
  -8.75000000       1.48952255E-04
  -8.73999977       1.51049549E-04
  -8.72999954       1.53050423E-04
  -8.72000027       1.54946465E-04
  -8.71000004       1.56729599E-04
  -8.69999981       1.58392111E-04
  -8.68999958       1.59926713E-04
  -8.68000031       1.61326505E-04
  -8.67000008       1.62584969E-04
  -8.65999985       1.63695950E-04
  -8.64999962       1.64653684E-04
  -8.64000034       1.65452817E-04
  -8.63000011       1.66088328E-04
  -8.61999989       1.66555692E-04
  -8.60999966       1.66850761E-04
  -8.60000038       1.66969810E-04
  -8.59000015       1.66909595E-04
  -8.57999992       1.66667232E-04
  -8.56999969       1.66240250E-04
  -8.56000042       1.65626640E-04
  -8.55000019       1.64824698E-04
  -8.53999996       1.63833218E-04
  -8.52999973       1.62651340E-04
  -8.52000046       1.61278629E-04
  -8.51000023       1.59715113E-04
  -8.50000000       1.57961127E-04
  -8.48999977       1.56017486E-04
  -8.47999954       1.53885208E-04
  -8.47000027       1.51565706E-04
  -8.46000004       1.49060579E-04
  -8.44999981       1.46371676E-04
  -8.43999958       1.43501064E-04
  -8.43000031       1.40450997E-04
  -8.42000008       1.37223949E-04
  -8.40999985       1.33822628E-04
  -8.39999962       1.30249813E-04
  -8.39000034       1.26508487E-04
  -8.38000011       1.22601778E-04
  -8.36999989       1.18532844E-04
  -8.35999966       1.14305018E-04
  -8.35000038       1.09921639E-04
  -8.34000015       1.05386163E-04
  -8.32999992       1.00702127E-04
  -8.31999969       9.58731907E-05
  -8.31000042       9.09030932E-05
  -8.30000019       8.57957421E-05
  -8.28999996       8.05551099E-05
  -8.27999973       7.51853149E-05
  -8.27000046       6.96906282E-05
  -8.26000023       6.40754297E-05
  -8.25000000       5.83442852E-05
  -8.23999977       5.25019823E-05
  -8.22999954       4.65535486E-05
  -8.22000027       4.05042992E-05
  -8.21000004       3.43598476E-05
  -8.19999981       2.81261709E-05
  -8.18999958       2.18096047E-05
  -8.18000031       1.54168065E-05
  -8.17000008       8.95484754E-06
  -8.15999985       2.43117552E-06
  -8.14999962      -4.14632314E-06
  -8.14000034      -1.07693913E-05
  -8.13000011      -1.74292963E-05
  -8.11999989      -2.41169109E-05
  -8.10999966      -3.08226590E-05
  -8.10000038      -3.75366180E-05
  -8.09000015      -4.42484888E-05
  -8.07999992      -5.09476777E-05
  -8.06999969      -5.76233142E-05
  -8.06000042      -6.42643136E-05
  -8.05000019      -7.08594598E-05
  -8.03999996      -7.73973807E-05
  -8.02999973      -8.38666310E-05
  -8.02000046      -9.02557513E-05
  -8.01000023      -9.65533036E-05
  -8.00000000      -1.02747981E-04
  -7.98999977      -1.08828564E-04
  -7.98000002      -1.14784096E-04
  -7.96999979      -1.20603836E-04
  -7.96000004      -1.26277431E-04
  -7.94999981      -1.31794848E-04
  -7.94000006      -1.37146446E-04
  -7.92999983      -1.42323028E-04
  -7.92000008      -1.47315863E-04
  -7.90999985      -1.52116714E-04
  -7.90000010      -1.56717841E-04
  -7.88999987      -1.61112097E-04
  -7.88000011      -1.65292877E-04
  -7.86999989      -1.69254214E-04
  -7.86000013      -1.72990840E-04
  -7.84999990      -1.76498012E-04
  -7.84000015      -1.79771712E-04
  -7.82999992      -1.82808508E-04
  -7.82000017      -1.85605633E-04
  -7.80999994      -1.88160921E-04
  -7.80000019      -1.90472754E-04
  -7.78999996      -1.92540159E-04
  -7.78000021      -1.94362772E-04
  -7.76999998      -1.95940738E-04
  -7.76000023      -1.97274829E-04
  -7.75000000      -1.98366339E-04
  -7.73999977      -1.99217175E-04
  -7.73000002      -1.99829665E-04
  -7.71999979      -2.00206661E-04
  -7.71000004      -2.00351467E-04
  -7.69999981      -2.00267867E-04
  -7.69000006      -1.99959948E-04
  -7.67999983      -1.99432252E-04
  -7.67000008      -1.98689682E-04
  -7.65999985      -1.97737434E-04
  -7.65000010      -1.96581022E-04
  -7.63999987      -1.95226239E-04
  -7.63000011      -1.93679036E-04
  -7.61999989      -1.91945481E-04
  -7.61000013      -1.90031773E-04
  -7.59999990      -1.87944170E-04
  -7.59000015      -1.85688768E-04
  -7.57999992      -1.83271695E-04
  -7.57000017      -1.80699019E-04
  -7.55999994      -1.77976632E-04
  -7.55000019      -1.75110297E-04
  -7.53999996      -1.72105589E-04
  -7.53000021      -1.68967847E-04
  -7.51999998      -1.65702149E-04
  -7.51000023      -1.62313299E-04
  -7.50000000      -1.58805735E-04
  -7.48999977      -1.55183545E-04
  -7.48000002      -1.51450557E-04
  -7.46999979      -1.47610204E-04
  -7.46000004      -1.43665617E-04
  -7.44999981      -1.39619660E-04
  -7.44000006      -1.35474780E-04