  -16.0000000       0.00000000    
  -15.9899998       0.00000000    
  -15.9799995       0.00000000    
  -15.9700003       0.00000000    
  -15.9600000       0.00000000    
  -15.9499998       0.00000000    
  -15.9399996       0.00000000    
  -15.9300003       0.00000000    
  -15.9200001       0.00000000    
  -15.9099998       0.00000000    
  -15.8999996       0.00000000    
  -15.8900003       0.00000000    
  -15.8800001       0.00000000    
  -15.8699999       0.00000000    
  -15.8599997       7.00649232E-45
  -15.8500004       5.04467447E-44
  -15.8400002       3.11088259E-43
  -15.8299999       2.12857237E-42
  -15.8199997       1.49056118E-41
  -15.8100004       8.90244914E-41
  -15.8000002       4.30616215E-40
  -15.7900000       1.70129404E-39
  -15.7799997       5.60039581E-39
  -15.7700005       1.56497923E-38
  -15.7600002       3.77324583E-38
  -15.7500000       7.98520681E-38
  -15.7399998       1.52295707E-37
  -15.7299995       2.75805896E-37
  -15.7200003       5.19946033E-37
  -15.7100000       1.11407120E-36
  -15.6999998       2.66643915E-36
  -15.6899996       6.37313806E-36
  -15.6800003       1.35317265E-35
  -15.6700001       2.24064060E-35
  -15.6599998       1.89412964E-35
  -15.6499996      -4.11716093E-35
  -15.6400003      -2.50801477E-34
  -15.6300001      -7.31436666E-34
  -15.6199999      -1.48671768E-33
  -15.6099997      -2.01269557E-33
  -15.6000004      -6.56931768E-34
  -15.5900002       5.85351334E-33
  -15.5799999       2.14533185E-32
  -15.5699997       4.61971837E-32
  -15.5600004       6.63603295E-32
  -15.5500002       4.14060773E-32
  -15.5400000      -1.00231770E-31
  -15.5299997      -4.30920524E-31
  -15.5200005      -9.26855008E-31
  -15.5100002      -1.29565470E-30
  -15.5000000      -8.01725421E-31
  -15.4899998       1.69212938E-30
  -15.4799995       7.10490227E-30
  -15.4700003       1.46147990E-29
  -15.4600000       1.93994996E-29
  -15.4499998       1.09500613E-29
  -15.4399996      -2.51431087E-29
  -15.4300003      -9.80509833E-29
  -15.4200001      -1.92981455E-28
  -15.4099998      -2.47251729E-28
  -15.3999996      -1.37757327E-28
  -15.3900003       2.89887460E-28
  -15.3800001       1.11668548E-27
  -15.3699999       2.16059738E-27
  -15.3599997       2.76026379E-27
  -15.3500004       1.69714044E-27
  -15.3400002      -2.48030830E-27
  -15.3299999      -1.04762716E-26
  -15.3199997      -2.06052857E-26
  -15.3100004      -2.70527583E-26
  -15.3000002      -1.94027165E-26
  -15.2900000       1.45740203E-26
  -15.2799997       8.11484512E-26
  -15.2700005       1.68157510E-25
  -15.2600002       2.32212473E-25
  -15.2500000       1.95312395E-25
  -15.2399998      -3.56852786E-26
  -15.2299995      -5.15780334E-25
  -15.2200003      -1.17730666E-24
  -15.2100000      -1.74281482E-24
  -15.1999998      -1.69638740E-24
  -15.1899996      -3.95900520E-25
  -15.1800003       2.60707485E-24
  -15.1700001       7.05197079E-24
  -15.1599998       1.14189888E-23
  -15.1499996       1.26859649E-23
  -15.1400003       6.85661254E-24
  -15.1300001      -9.35051740E-24
  -15.1199999      -3.56662001E-23
  -15.1099997      -6.50643324E-23
  -15.1000004      -8.19072132E-23
  -15.0900002      -6.38452898E-23
  -15.0799999       1.03726800E-23
  -15.0699997       1.46833520E-22
  -15.0600004       3.19354043E-22
  -15.0500002       4.57125634E-22
  -15.0400000       4.48526772E-22
  -15.0299997       1.72259959E-22
  -15.0200005      -4.40127436E-22
  -15.0100002      -1.32135802E-21
  -15.0000000      -2.19665284E-21
  -14.9899998      -2.57264298E-21
  -14.9799995      -1.84017535E-21
  -14.9700003       4.79444667E-22
  -14.9600000       4.37274733E-21
  -14.9499998       8.96896590E-21
  -14.9399996       1.23665820E-20
  -14.9300003       1.18829746E-20
  -14.9200001       4.89608730E-21
  -14.9099998      -9.74835502E-21
  -14.8999996      -3.01049282E-20
  -14.8900003      -4.99601451E-20
  -14.8800001      -5.90378643E-20
  -14.8699999      -4.53887379E-20
  -14.8599997      -1.98921665E-22
  -14.8500004       7.58063145E-20
  -14.8400002       1.66501647E-19
  -14.8299999       2.38248334E-19
  -14.8199997       2.44884235E-19
  -14.8100004       1.41780062E-19
  -14.8000002      -9.22391557E-20
  -14.7900000      -4.30753348E-19
  -14.7799997      -7.83373541E-19
  -14.7700005      -9.99242969E-19
  -14.7600002      -9.00193984E-19
  -14.7500000      -3.45196144E-19
  -14.7399998       6.85607203E-19
  -14.7299995       2.01421292E-18
  -14.7200003       3.23352904E-18
  -14.7100000       3.75968064E-18
  -14.6999998       2.98899233E-18
  -14.6899996       5.45849093E-19
  -14.6800003      -3.43878068E-18
  -14.6700001      -8.12173571E-18
  -14.6599998      -1.19384579E-17
  -14.6499996      -1.28903691E-17
  -14.6400003      -9.15223980E-18
  -14.6300001       9.96904180E-20
  -14.6199999       1.38756901E-17
  -14.6099997       2.89152729E-17
  -14.6000004       3.99313798E-17
  -14.5900002       4.07721030E-17
  -14.5799999       2.64418441E-17
  -14.5699997      -4.44497207E-18
  -14.5600004      -4.75563637E-17
  -14.5500002      -9.20489894E-17
  -14.5400000      -1.21939022E-16
  -14.5299997      -1.19992646E-16
  -14.5200005      -7.36601093E-17
  -14.5100002       1.83886039E-17
  -14.5000000       1.41351707E-16
  -14.4899998       2.63457872E-16
  -14.4799995       3.41034470E-16
  -14.4700003       3.29783940E-16
  -14.4600000       2.00379567E-16
  -14.4499998      -4.57503671E-17
  -14.4399996      -3.66077396E-16
  -14.4300003      -6.77617146E-16
  -14.4200001      -8.71995908E-16
  -14.4099998      -8.44328795E-16
  -14.3999996      -5.30191644E-16
  -14.3900003       5.96696330E-17
  -14.3800001       8.19599668E-16
  -14.3699999       1.55554922E-15
  -14.3599997       2.02329426E-15
  -14.3500004       1.99442822E-15
  -14.3400002       1.33558345E-15
  -14.3299999       7.78659257E-17
  -14.3199997      -1.54927472E-15
  -14.3100004      -3.14017158E-15
  -14.3000002      -4.19781228E-15
  -14.2900000      -4.26887199E-15
  -14.2799997      -3.09663916E-15
  -14.2700005      -7.46143118E-16
  -14.2600002       2.34523984E-15
  -14.2500000       5.42414700E-15
  -14.2399998       7.58865542E-15
  -14.2299995       8.03541702E-15
  -14.2200003       6.32284726E-15
  -14.2100000       2.56929593E-15
  -14.1999998      -2.48871176E-15
  -14.1899996      -7.62088587E-15
  -14.1800003      -1.14007458E-14
  -14.1700001      -1.26087317E-14
  -14.1599998      -1.06277351E-14
  -14.1499996      -5.70260612E-15
  -14.1400003       1.03946285E-15
  -14.1300001       7.84672603E-15
  -14.1199999       1.28306620E-14
  -14.1099997       1.45513196E-14
  -14.1000004       1.25158105E-14
  -14.0900002       7.40922843E-15
  -14.0799999       9.44108323E-16
  -14.0699997      -4.66859573E-15
  -14.0600004      -7.49002013E-15
  -14.0500002      -6.62098889E-15
  -14.0400000      -2.68460189E-15
  -14.0299997       2.20242394E-15
  -14.0200005       5.04952296E-15
  -14.0100002       3.08214855E-15
  -14.0000000      -5.01322845E-15
  -13.9899998      -1.81216550E-14
  -13.9799995      -3.24299066E-14
  -13.9700003      -4.21114119E-14
  -13.9600000      -4.09393283E-14
  -13.9499998      -2.44714002E-14
  -13.9399996       7.82090084E-15
  -13.9300003       5.12189236E-14
  -13.9200001       9.58448273E-14
  -13.9099998       1.28455907E-13
  -13.8999996       1.35733371E-13
  -13.8900003       1.08335839E-13
  -13.8800001       4.46114025E-14
  -13.8699999      -4.72310145E-14
  -13.8599997      -1.49426600E-13
  -13.8500004      -2.37777381E-13
  -13.8400002      -2.87146310E-13
  -13.8299999      -2.78107046E-13
  -13.8199997      -2.03019025E-13
  -13.8100004      -6.97303408E-14
  -13.8000002       9.84386726E-14
  -13.7900000       2.66871703E-13
  -13.7799997       3.97297700E-13
  -13.7700005       4.57137149E-13
  -13.7600002       4.28135066E-13
  -13.7500000       3.11836792E-13
  -13.7399998       1.30151776E-13
  -13.7299995      -7.94896308E-14
  -13.7200003      -2.73356966E-13
  -13.7100000      -4.12641357E-13
  -13.6999998      -4.73543459E-13
  -13.6899996      -4.53211877E-13
  -13.6800003      -3.69552343E-13
  -13.6700001      -2.54659141E-13
  -13.6599998      -1.43589798E-13
  -13.6499996      -6.18179011E-14
  -13.6400003      -1.54376650E-14
  -13.6300001       1.22706605E-14
  -13.6199999       5.59655370E-14
  -13.6099997       1.55595331E-13
  -13.6000004       3.39129115E-13
  -13.5900002       6.05823443E-13
  -13.5799999       9.15818528E-13
  -13.5699997       1.19080039E-12
  -13.5600004       1.32778922E-12
  -13.5500002       1.22441618E-12
  -13.5400000       8.10279686E-13
  -13.5299997       7.62781629E-14
  -13.5200005      -9.06923896E-13
  -13.5100002      -1.98841616E-12
  -13.5000000      -2.95771545E-12
  -13.4899998      -3.58434658E-12
  -13.4799995      -3.66874890E-12
  -13.4700003      -3.09291655E-12
  -13.4600000      -1.85804367E-12
  -13.4499998      -9.85045582E-14
  -13.4399996       1.93327862E-12
  -13.4300003       3.90955887E-12
  -13.4200001       5.48887238E-12
  -13.4099998       6.38264485E-12
  -13.3999996       6.41113074E-12
  -13.3900003       5.53542325E-12
  -13.3800001       3.85840969E-12
  -13.3699999       1.59582764E-12
  -13.3599997      -9.73291109E-13
  -13.3500004      -3.56189123E-12
  -13.3400002      -5.91982496E-12
  -13.3299999      -7.85622956E-12
  -13.3199997      -9.23504068E-12
  -13.3100004      -9.94915348E-12
  -13.3000002      -9.88743549E-12
  -13.2900000      -8.91319744E-12
  -13.2799997      -6.87100290E-12
  -13.2700005      -3.63052058E-12
  -13.2600002       8.36734057E-13
  -13.2500000       6.36603400E-12
  -13.2399998       1.25225585E-11
  -13.2299995       1.85717362E-11
  -13.2200003       2.35235113E-11
  -13.2100000       2.62616838E-11
  -13.1999998       2.57472776E-11
  -13.1899996       2.12618690E-11
  -13.1800003       1.26384580E-11
  -13.1700001       4.20985593E-13
  -13.1599998      -1.40988827E-11
  -13.1499996      -2.89967130E-11
  -13.1400003      -4.19785769E-11
  -13.1300001      -5.07536027E-11
  -13.1199999      -5.34473646E-11
  -13.1099997      -4.89722707E-11
  -13.1000004      -3.72749366E-11
  -13.0900002      -1.94037043E-11
  -13.0799999       2.62202716E-12
  -13.0699997       2.61158768E-11
  -13.0600004       4.81383336E-11
  -13.0500002       6.59339389E-11
  -13.0400000       7.73040798E-11
  -13.0299997       8.08488415E-11
  -13.0200005       7.60481123E-11
  -13.0100002       6.31970101E-11
  -13.0000000       4.32463960E-11
  -12.9899998       1.76194250E-11
  -12.9799995      -1.19294392E-11
  -12.9700003      -4.33738323E-11
  -12.9600000      -7.43967318E-11
  -12.9499998      -1.02340150E-10
  -12.9399996      -1.24201482E-10
  -12.9300003      -1.36758591E-10
  -12.9200001      -1.36881395E-10
  -12.9099998      -1.22033425E-10
  -12.8999996      -9.09014808E-11
  -12.8900003      -4.40271118E-11
  -12.8800001       1.57244842E-11
  -12.8699999       8.30227831E-11
  -12.8599997       1.50376545E-10
  -12.8500004       2.08918910E-10
  -12.8400002       2.49600146E-10
  -12.8299999       2.64612193E-10
  -12.8199997       2.48793514E-10
  -12.8100004       2.00741090E-10
  -12.8000002       1.23390784E-10
  -12.7900000       2.39233286E-11
  -12.7799997      -8.70216330E-11
  -12.7700005      -1.96702113E-10
  -12.7600002      -2.91968699E-10
  -12.7500000      -3.61004782E-10
  -12.7399998      -3.94822286E-10
  -12.7299995      -3.88288818E-10
  -12.7200003      -3.40573791E-10
  -12.7100000      -2.55025862E-10
  -12.6999998      -1.38601824E-10
  -12.6899996      -1.03138841E-12
  -12.6800003       1.46093498E-10
  -12.6700001       2.90165281E-10
  -12.6599998       4.18290153E-10
  -12.6499996       5.17938248E-10
  -12.6400003       5.77615344E-10
  -12.6300001       5.87670745E-10
  -12.6199999       5.41307887E-10
  -12.6099997       4.35762038E-10
  -12.6000004       2.73492257E-10
  -12.5900002       6.31268024E-11
  -12.5799999      -1.80154544E-10
  -12.5699997      -4.35083997E-10
  -12.5600004      -6.75787593E-10
  -12.5500002      -8.74269601E-10
  -12.5400000      -1.00366682E-09
  -12.5299997      -1.04183784E-09
  -12.5200005      -9.74731518E-10
  -12.5100002      -7.98951127E-10
  -12.5000000      -5.23033727E-10
  -12.4899998      -1.67174705E-10
  -12.4799995       2.38602971E-10
  -12.4700003       6.57561172E-10
  -12.4600000       1.05013953E-09
  -12.4499998       1.37802081E-09
  -12.4399996       1.60777069E-09
  -12.4300003       1.71359249E-09
  -12.4200001       1.67895564E-09
  -12.4099998       1.49711110E-09
  -12.3999996       1.17071219E-09
  -12.3900003       7.10880965E-10
  -12.3800001       1.36084269E-10
  -12.3699999      -5.28934951E-10
  -12.3599997      -1.25408051E-09
  -12.3500004      -2.00477679E-09
  -12.3400002      -2.74303025E-09
  -12.3299999      -3.42894402E-09
  -12.3199997      -4.02288958E-09
  -12.3100004      -4.48834570E-09
  -12.3000002      -4.79516249E-09
  -12.2900000      -4.92281371E-09
  -12.2799997      -4.86303264E-09
  -12.2700005      -4.62121408E-09
  -12.2600002      -4.21611190E-09
  -12.2500000      -3.67767439E-09
  -12.2399998      -3.04317038E-09
  -12.2299995      -2.35218112E-09
  -12.2200003      -1.64125380E-09
  -12.2100000      -9.39095912E-10
  -12.1999998      -2.63186611E-10
  -12.1899996       3.81704612E-10
  -12.1800003       1.00286990E-09
  -12.1700001       1.61723146E-09
  -12.1599998       2.24763896E-09
  -12.1499996       2.91876101E-09
  -12.1400003       3.65334429E-09
  -12.1300001       4.46945547E-09
  -12.1199999       5.37899636E-09
  -12.1099997       6.38737729E-09
  -12.1000004       7.49401696E-09
  -12.0900002       8.69304273E-09
  -12.0799999       9.97366811E-09
  -12.0699997       1.13198357E-08
  -12.0600004       1.27091102E-08
  -12.0500002       1.41110554E-08
  -12.0400000       1.54857194E-08
  -12.0299997       1.67828098E-08
  -12.0200005       1.79422859E-08
  -12.0100002       1.88966585E-08
  -12.0000000       1.95750633E-08
  -11.9899998       1.99086578E-08
  -11.9799995       1.98366212E-08
  -11.9700003       1.93119440E-08
  -11.9600000       1.83059257E-08
  -11.9499998       1.68109047E-08
  -11.9399996       1.48408148E-08
  -11.9300003       1.24296777E-08
  -11.9200001       9.62836033E-09
  -11.9099998       6.50054144E-09
  -11.8999996       3.11834536E-09
  -11.8900003      -4.41690795E-10
  -11.8800001      -4.10206447E-09
  -11.8699999      -7.78692044E-09
  -11.8599997      -1.14242056E-08
  -11.8500004      -1.49475241E-08
  -11.8400002      -1.82981506E-08
  -11.8299999      -2.14272919E-08
  -11.8199997      -2.42985312E-08
  -11.8100004      -2.68898592E-08
  -11.8000002      -2.91954088E-08
  -11.7900000      -3.12257988E-08
  -11.7799997      -3.30070336E-08
  -11.7700005      -3.45776741E-08
  -11.7600002      -3.59844208E-08
  -11.7500000      -3.72766102E-08
  -11.7399998      -3.85001258E-08
  -11.7299995      -3.96916313E-08
  -11.7200003      -4.08736156E-08
  -11.7100000      -4.20508997E-08
  -11.6999998      -4.32087468E-08
  -11.6899996      -4.43127135E-08
  -11.6800003      -4.53099744E-08
  -11.6700001      -4.61319161E-08
  -11.6599998      -4.66977426E-08
  -11.6499996      -4.69187782E-08
  -11.6400003      -4.67032422E-08
  -11.6300001      -4.59612721E-08
  -11.6199999      -4.46103421E-08
  -11.6099997      -4.25802718E-08
  -11.6000004      -3.98183033E-08
  -11.5900002      -3.62927146E-08
  -11.5799999      -3.19963007E-08
  -11.5699997      -2.69475215E-08
  -11.5600004      -2.11903046E-08
  -11.5500002      -1.47925379E-08
  -11.5400000      -7.84258525E-09
  -11.5299997      -4.44938503E-10
  -11.5200005       7.28531591E-09
  -11.5100002       1.52270534E-08
  -11.5000000       2.32589237E-08
  -11.4899998       3.12636494E-08
  -11.4799995       3.91318871E-08
  -11.4700003       4.67661465E-08
  -11.4600000       5.40830101E-08
  -11.4499998       6.10160313E-08
  -11.4399996       6.75174974E-08
  -11.4300003       7.35594696E-08
  -11.4200001       7.91348285E-08
  -11.4099998       8.42568397E-08
  -11.3999996       8.89571652E-08
  -11.3900003       9.32835178E-08
  -11.3800001       9.72952563E-08
  -11.3699999       1.01058113E-07
  -11.3599997       1.04638396E-07
  -11.3500004       1.08096827E-07
  -11.3400002       1.11482919E-07
  -11.3299999       1.14830350E-07
  -11.3199997       1.18153743E-07
  -11.3100004       1.21447158E-07
  -11.3000002       1.24684234E-07
  -11.2900000       1.27820286E-07
  -11.2799997       1.30794874E-07
  -11.2700005       1.33536190E-07
  -11.2600002       1.35964754E-07
  -11.2500000       1.37998242E-07
  -11.2399998       1.39554700E-07
  -11.2299995       1.40556423E-07
  -11.2200003       1.40932869E-07
  -11.2100000       1.40623129E-07
  -11.1999998       1.39578148E-07
  -11.1899996       1.37762541E-07
  -11.1800003       1.35157109E-07
  -11.1700001       1.31759620E-07
  -11.1599998       1.27585764E-07
  -11.1499996       1.22669050E-07
  -11.1400003       1.17060189E-07
  -11.1300001       1.10825447E-07
  -11.1199999       1.04041476E-07
  -11.1099997       9.67944800E-08
  -11.1000004       8.91728646E-08
  -11.0900002       8.12642753E-08
  -11.0799999       7.31512912E-08
  -11.0699997       6.49089387E-08
  -11.0600004       5.66007792E-08
  -11.0500002       4.82801994E-08
  -11.0400000       3.99867162E-08
  -11.0299997       3.17501794E-08
  -11.0200005       2.35878392E-08
  -11.0100002       1.55069753E-08
  -11.0000000       7.50222728E-09
  -10.9899998      -4.41900211E-10
  -10.9799995      -8.35227709E-09
  -10.9700003      -1.62671050E-08
  -10.9600000      -2.42336728E-08
  -10.9499998      -3.23068896E-08
  -10.9399996      -4.05467233E-08
  -10.9300003      -4.90115752E-08
  -10.9200001      -5.77593013E-08
  -10.9099998      -6.68369466E-08
  -10.8999996      -7.62826460E-08
  -10.8900003      -8.61217586E-08
  -10.8800001      -9.63654756E-08
  -10.8699999      -1.07016199E-07
  -10.8599997      -1.18066502E-07
  -10.8500004      -1.29501416E-07
  -10.8400002      -1.41304128E-07
  -10.8299999      -1.53457449E-07
  -10.8199997      -1.65946645E-07
  -10.8100004      -1.78759095E-07
  -10.8000002      -1.91885022E-07
  -10.7900000      -2.05315487E-07
  -10.7799997      -2.19044182E-07
  -10.7700005      -2.33062678E-07
  -10.7600002      -2.47363459E-07
  -10.7500000      -2.61933167E-07
  -10.7399998      -2.76753411E-07
  -10.7299995      -2.91804895E-07
  -10.7200003      -3.07062066E-07
  -10.7100000      -3.22497300E-07
  -10.6999998      -3.38081321E-07
  -10.6899996      -3.53782127E-07
  -10.6800003      -3.69570643E-07
  -10.6700001      -3.85420009E-07
  -10.6599998      -4.01305016E-07
  -10.6499996      -4.17208639E-07
  -10.6400003      -4.33117719E-07
  -10.6300001      -4.49027510E-07
  -10.6199999      -4.64941479E-07
  -10.6099997      -4.80872529E-07
  -10.6000004      -4.96843143E-07
  -10.5900002      -5.12885606E-07
  -10.5799999      -5.29043461E-07
  -10.5699997      -5.45366561E-07
  -10.5600004      -5.61913566E-07
  -10.5500002      -5.78745869E-07
  -10.5400000      -5.95926281E-07
  -10.5299997      -6.13512725E-07
  -10.5200005      -6.31555281E-07
  -10.5100002      -6.50089930E-07
  -10.5000000      -6.69135829E-07
  -10.4899998      -6.88693262E-07
  -10.4799995      -7.08741311E-07
  -10.4700003      -7.29238479E-07
  -10.4600000      -7.50122581E-07
  -10.4499998      -7.71314376E-07
  -10.4399996      -7.92718538E-07
  -10.4300003      -8.14226212E-07
  -10.4200001      -8.35718708E-07
  -10.4099998      -8.57068358E-07
  -10.3999996      -8.78142032E-07
  -10.3900003      -8.98803592E-07
  -10.3800001      -9.18914509E-07
  -10.3699999      -9.38340122E-07
  -10.3599997      -9.56949975E-07
  -10.3500004      -9.74625323E-07
  -10.3400002      -9.91263164E-07
  -10.3299999      -1.00678085E-06
  -10.3199997      -1.02112267E-06
  -10.3100004      -1.03426419E-06
  -10.3000002      -1.04621381E-06
  -10.2900000      -1.05701429E-06
  -10.2799997      -1.06673951E-06
  -10.2700005      -1.07549056E-06
  -10.2600002      -1.08338736E-06
  -10.2500000      -1.09056293E-06
  -10.2399998      -1.09715631E-06
  -10.2299995      -1.10330325E-06
  -10.2200003      -1.10913254E-06
  -10.2100000      -1.11476857E-06
  -10.1999998      -1.12032649E-06
  -10.1899996      -1.12592079E-06
  -10.1800003      -1.13166448E-06
  -10.1700001      -1.13767419E-06
  -10.1599998      -1.14407192E-06
  -10.1499996      -1.15098442E-06
  -10.1400003      -1.15853561E-06
  -10.1300001      -1.16684259E-06
  -10.1199999      -1.17600848E-06
  -10.1099997      -1.18611717E-06
  -10.1000004      -1.19722290E-06
  -10.0900002      -1.20935033E-06
  -10.0799999      -1.22249207E-06
  -10.0699997      -1.23660982E-06
  -10.0600004      -1.25163933E-06
  -10.0500002      -1.26750092E-06
  -10.0400000      -1.28410227E-06
  -10.0299997      -1.30134129E-06
  -10.0200005      -1.31911622E-06
  -10.0100002      -1.33733067E-06
  -10.0000000      -1.35589244E-06
  -9.98999977      -1.37471272E-06
  -9.97999954      -1.39371332E-06
  -9.97000027      -1.41282248E-06
  -9.96000004      -1.43196883E-06
  -9.94999981      -1.45109243E-06
  -9.93999958      -1.47013293E-06
  -9.93000031      -1.48904212E-06
  -9.92000008      -1.50778192E-06
  -9.90999985      -1.52632788E-06
  -9.89999962      -1.54467307E-06
  -9.89000034      -1.56282329E-06
  -9.88000011      -1.58082480E-06
  -9.86999989      -1.59874037E-06
  -9.85999966      -1.61665935E-06
  -9.85000038      -1.63470565E-06
  -9.84000015      -1.65302765E-06
  -9.82999992      -1.67179587E-06
  -9.81999969      -1.69119949E-06
  -9.81000042      -1.71145882E-06
  -9.80000019      -1.73278499E-06
  -9.78999996      -1.75541015E-06
  -9.77999973      -1.77956781E-06
  -9.77000046      -1.80547318E-06
  -9.76000023      -1.83334055E-06
  -9.75000000      -1.86335421E-06
  -9.73999977      -1.89566856E-06
  -9.72999954      -1.93039705E-06
  -9.72000027      -1.96761061E-06
  -9.71000004      -2.00733530E-06
  -9.69999981      -2.04955063E-06
  -9.68999958      -2.09417931E-06
  -9.68000031      -2.14110878E-06
  -9.67000008      -2.19019466E-06
  -9.65999985      -2.24125392E-06
  -9.64999962      -2.29407897E-06
  -9.64000034      -2.34843151E-06
  -9.63000011      -2.40405461E-06
  -9.61999989      -2.46067043E-06
  -9.60999966      -2.51797428E-06
  -9.60000038      -2.57562920E-06
  -9.59000015      -2.63327865E-06
  -9.57999992      -2.69053430E-06
  -9.56999969      -2.74699892E-06
  -9.56000042      -2.80224799E-06
  -9.55000019      -2.85586930E-06
  -9.53999996      -2.90744742E-06
  -9.52999973      -2.95657901E-06
  -9.52000046      -3.00290708E-06
  -9.51000023      -3.04611171E-06
  -9.50000000      -3.08592712E-06
  -9.48999977      -3.12215843E-06
  -9.47999954      -3.15466332E-06
  -9.47000027      -3.18337743E-06
  -9.46000004      -3.20830986E-06
  -9.44999981      -3.22952974E-06
  -9.43999958      -3.24717644E-06
  -9.43000031      -3.26142322E-06
  -9.42000008      -3.27250609E-06
  -9.40999985      -3.28071496E-06
  -9.39999962      -3.28637384E-06
  -9.39000034      -3.28985311E-06
  -9.38000011      -3.29157569E-06
  -9.36999989      -3.29200952E-06
  -9.35999966      -3.29167187E-06
  -9.35000038      -3.29113027E-06
  -9.34000015      -3.29099248E-06
  -9.32999992      -3.29191016E-06
  -9.31999969      -3.29454269E-06
  -9.31000042      -3.29959562E-06
  -9.30000019      -3.30775788E-06
  -9.28999996      -3.31971819E-06
  -9.27999973      -3.33615981E-06
  -9.27000046      -3.35772165E-06
  -9.26000023      -3.38502650E-06
  -9.25000000      -3.41866212E-06
  -9.23999977      -3.45915237E-06
  -9.22999954      -3.50697746E-06
  -9.22000027      -3.56258306E-06
  -9.21000004      -3.62629771E-06
  -9.19999981      -3.69839199E-06
  -9.18999958      -3.77908464E-06
  -9.18000031      -3.86850070E-06
  -9.17000008      -3.96669475E-06
  -9.15999985      -4.07364269E-06
  -9.14999962      -4.18924992E-06
  -9.14000034      -4.31335138E-06
  -9.13000011      -4.44569605E-06
  -9.11999989      -4.58595287E-06
  -9.10999966      -4.73370937E-06
  -9.10000038      -4.88847490E-06
  -9.09000015      -5.04967511E-06
  -9.07999992      -5.21666470E-06
  -9.06999969      -5.38872064E-06
  -9.06000042      -5.56505938E-06
  -9.05000019      -5.74486148E-06
  -9.03999996      -5.92723336E-06
  -9.02999973      -6.11128144E-06
  -9.02000046      -6.29604165E-06
  -9.01000023      -6.48056812E-06
  -9.00000000      -6.66386859E-06
  -8.98999977      -6.84498036E-06
  -8.97999954      -7.02292846E-06
  -8.97000027      -7.19678292E-06
  -8.96000004      -7.36561333E-06
  -8.94999981      -7.52854157E-06
  -8.93999958      -7.68472546E-06
  -8.93000031      -7.83337055E-06
  -8.92000008      -7.97368557E-06
  -8.90999985      -8.10499205E-06
  -8.89999962      -8.22662059E-06
  -8.89000034      -8.33794911E-06
  -8.88000011      -8.43842827E-06
  -8.86999989      -8.52757148E-06
  -8.85999966      -8.60496675E-06
  -8.85000038      -8.67028666E-06
  -8.84000015      -8.72330111E-06
  -8.82999992      -8.76385820E-06
  -8.81999969      -8.79188974E-06
  -8.81000042      -8.80743937E-06
  -8.80000019      -8.81063170E-06
  -8.78999996      -8.80166590E-06
  -8.77999973      -8.78086394E-06
  -8.77000046      -8.74862599E-06
  -8.76000023      -8.70533950E-06
  -8.75000000      -8.65158017E-06
  -8.73999977      -8.58795011E-06
  -8.72999954      -8.51508230E-06
  -8.72000027      -8.43367707E-06
  -8.71000004      -8.34448474E-06
  -8.69999981      -8.24828385E-06
  -8.68999958      -8.14583109E-06
  -8.68000031      -8.03796775E-06
  -8.67000008      -7.92545961E-06
  -8.65999985      -7.80911796E-06
  -8.64999962      -7.68971859E-06
  -8.64000034      -7.56800091E-06
  -8.63000011      -7.44475392E-06
  -8.61999989      -7.32060016E-06
  -8.60999966      -7.19624859E-06
  -8.60000038      -7.07225445E-06
  -8.59000015      -6.94914570E-06
  -8.57999992      -6.82741893E-06
  -8.56999969      -6.70746931E-06
  -8.56000042      -6.58969793E-06
  -8.55000019      -6.47438310E-06
  -8.53999996      -6.36186951E-06
  -8.52999973      -6.25242228E-06
  -8.52000046      -6.14626242E-06
  -8.51000023      -6.04358911E-06
  -8.50000000      -5.94457242E-06
  -8.48999977      -5.84934924E-06
  -8.47999954      -5.75801550E-06
  -8.47000027      -5.67060079E-06
  -8.46000004      -5.58716101E-06
  -8.44999981      -5.50764616E-06
  -8.43999958      -5.43199894E-06
  -8.43000031      -5.36015250E-06
  -8.42000008      -5.29200270E-06
  -8.40999985      -5.22743267E-06
  -8.39999962      -5.16632281E-06
  -8.39000034      -5.10855807E-06
  -8.38000011      -5.05407706E-06
  -8.36999989      -5.00285432E-06
  -8.35999966      -4.95478116E-06
  -8.35000038      -4.90987304E-06
  -8.34000015      -4.86814952E-06
  -8.32999992      -4.82963105E-06
  -8.31999969      -4.79442588E-06
  -8.31000042      -4.76260857E-06
  -8.30000019      -4.73434557E-06
  -8.28999996      -4.70981604E-06
  -8.27999973      -4.68918961E-06
  -8.27000046      -4.67272912E-06
  -8.26000023      -4.66066740E-06
  -8.25000000      -4.65339826E-06
  -8.23999977      -4.65119410E-06
  -8.22999954      -4.65445191E-06
  -8.22000027      -4.66358961E-06
  -8.21000004      -4.67904283E-06
  -8.19999981      -4.70126133E-06
  -8.18999958      -4.73075079E-06
  -8.18000031      -4.76805644E-06
  -8.17000008      -4.81366942E-06
  -8.15999985      -4.86814224E-06
  -8.14999962      -4.93199605E-06
  -8.14000034      -5.00576516E-06
  -8.13000011      -5.08991252E-06
  -8.11999989      -5.18494016E-06
  -8.10999966      -5.29122917E-06
  -8.10000038      -5.40920792E-06
  -8.09000015      -5.53913833E-06
  -8.07999992      -5.68133601E-06
  -8.06999969      -5.83599513E-06
  -8.06000042      -6.00327803E-06
  -8.05000019      -6.18326430E-06
  -8.03999996      -6.37594530E-06
  -8.02999973      -6.58126646E-06
  -8.02000046      -6.79905725E-06
  -8.01000023      -7.02919533E-06
  -8.00000000      -7.27132056E-06
  -7.98999977      -7.52515734E-06
  -7.98000002      -7.79029051E-06
  -7.96999979      -8.06619028E-06
  -7.96000004      -8.35236187E-06
  -7.94999981      -8.64814956E-06
  -7.94000006      -8.95288667E-06
  -7.92999983      -9.26589837E-06
  -7.92000008      -9.58641158E-06
  -7.90999985      -9.91361230E-06
  -7.90000010      -1.02467620E-05
  -7.88999987      -1.05850659E-05
  -7.88000011      -1.09276625E-05
  -7.86999989      -1.12738535E-05
  -7.86000013      -1.16228612E-05
  -7.84999990      -1.19738952E-05
  -7.84000015      -1.23262835E-05
  -7.82999992      -1.26792611E-05
  -7.82000017      -1.30321978E-05
  -7.80999994      -1.33844187E-05
  -7.80000019      -1.37353027E-05
  -7.78999996      -1.40842258E-05
  -7.78000021      -1.44306005E-05
  -7.76999998      -1.47739347E-05
  -7.76000023      -1.51136319E-05
  -7.75000000      -1.54492736E-05
  -7.73999977      -1.57804370E-05
  -7.73000002      -1.61067346E-05
  -7.71999979      -1.64279281E-05
  -7.71000004      -1.67436574E-05
  -7.69999981      -1.70537860E-05
  -7.69000006      -1.73581902E-05
  -7.67999983      -1.76566919E-05
  -7.67000008      -1.79492818E-05
  -7.65999985      -1.82359345E-05
  -7.65000010      -1.85167337E-05
  -7.63999987      -1.87917922E-05
  -7.63000011      -1.90613082E-05
  -7.61999989      -1.93254473E-05
  -7.61000013      -1.95844968E-05
  -7.59999990      -1.98387497E-05
  -7.59000015      -2.00885916E-05
  -7.57999992      -2.03344334E-05
  -7.57000017      -2.05766573E-05
  -7.55999994      -2.08156689E-05
  -7.55000019      -2.10520120E-05
  -7.53999996      -2.12861905E-05
  -7.53000021      -2.15187647E-05
  -7.51999998      -2.17501929E-05
  -7.51000023      -2.19810427E-05
  -7.50000000      -2.22119015E-05
  -7.48999977      -2.24433552E-05
  -7.48000002      -2.26759676E-05
  -7.46999979      -2.29101788E-05
  -7.46000004      -2.31465619E-05
  -7.44999981      -2.33855480E-05
  -7.44000006      -2.36276665E-05