  -16.0000000       0.00000000    
  -15.9899998       0.00000000    
  -15.9799995       0.00000000    
  -15.9700003       0.00000000    
  -15.9600000       0.00000000    
  -15.9499998       0.00000000    
  -15.9399996       0.00000000    
  -15.9300003       0.00000000    
  -15.9200001       0.00000000    
  -15.9099998       0.00000000    
  -15.8999996       0.00000000    
  -15.8900003       0.00000000    
  -15.8800001       0.00000000    
  -15.8699999       0.00000000    
  -15.8599997       0.00000000    
  -15.8500004       0.00000000    
  -15.8400002      -1.40129846E-45
  -15.8299999      -4.20389539E-45
  -15.8199997      -5.60519386E-45
  -15.8100004      -7.00649232E-45
  -15.8000002      -0.00000000    
  -15.7900000       3.22298647E-44
  -15.7799997       1.62550622E-43
  -15.7700005       6.05360937E-43
  -15.7600002       1.97442954E-42
  -15.7500000       5.94430809E-42
  -15.7399998       1.67076816E-41
  -15.7299995       4.40834484E-41
  -15.7200003       1.09630585E-40
  -15.7100000       2.57848727E-40
  -15.6999998       5.74941550E-40
  -15.6899996       1.21743129E-39
  -15.6800003       2.45063560E-39
  -15.6700001       4.69083820E-39
  -15.6599998       8.53256240E-39
  -15.6499996       1.47209529E-38
  -15.6400003       2.39970400E-38
  -15.6300001       3.67018817E-38
  -15.6199999       5.19797652E-38
  -15.6099997       6.63841942E-38
  -15.6000004       7.16847065E-38
  -15.5900002       5.17284564E-38
  -15.5799999      -2.16401765E-38
  -15.5699997      -1.93327486E-37
  -15.5600004      -5.29730863E-37
  -15.5500002      -1.12229487E-36
  -15.5400000      -2.08818152E-36
  -15.5299997      -3.56594433E-36
  -15.5200005      -5.70398159E-36
  -15.5100002      -8.63996096E-36
  -15.5000000      -1.24704826E-35
  -15.4899998      -1.72121717E-35
  -15.4799995      -2.27579208E-35
  -15.4700003      -2.88350429E-35
  -15.4600000      -3.49748399E-35
  -15.4499998      -4.05048664E-35
  -15.4399996      -4.45752078E-35
  -15.4300003      -4.62269898E-35
  -15.4200001      -4.45053842E-35
  -15.4099998      -3.86098122E-35
  -15.3999996      -2.80619143E-35
  -15.3900003      -1.28592524E-35
  -15.3800001       6.42869567E-36
  -15.3699999       2.86720750E-35
  -15.3599997       5.23480351E-35
  -15.3500004       7.59002353E-35
  -15.3400002       9.83029995E-35
  -15.3299999       1.19807245E-34
  -15.3199997       1.42802119E-34
  -15.3100004       1.72680935E-34
  -15.3000002       2.18559619E-34
  -15.2900000       2.93671251E-34
  -15.2799997       4.15260828E-34
  -15.2700005       6.03836111E-34
  -15.2600002       8.81698640E-34
  -15.2500000       1.27078442E-33
  -15.2399998       1.78997135E-33
  -15.2299995       2.45214973E-33
  -15.2200003       3.26148659E-33
  -15.2100000       4.21140688E-33
  -15.1999998       5.28383756E-33
  -15.1899996       6.45023432E-33
  -15.1800003       7.67474090E-33
  -15.1700001       8.91960852E-33
  -15.1599998       1.01526845E-32
  -15.1499996       1.13564135E-32
  -15.1400003       1.25374290E-32
  -15.1300001       1.37355046E-32
  -15.1199999       1.50304482E-32
  -15.1099997       1.65454518E-32
  -15.1000004       1.84456325E-32
  -15.0900002       2.09308171E-32
  -15.0799999       2.42223101E-32
  -15.0699997       2.85440062E-32
  -15.0600004       3.40992191E-32
  -15.0500002       4.10453152E-32
  -15.0400000       4.94690106E-32
  -15.0299997       5.93657091E-32
  -15.0200005       7.06263631E-32
  -15.0100002       8.30351048E-32
  -15.0000000       9.62800403E-32
  -14.9899998       1.09978628E-31
  -14.9799995       1.23717277E-31
  -14.9700003       1.37102984E-31
  -14.9600000       1.49823385E-31
  -14.9499998       1.61709184E-31
  -14.9399996       1.72792380E-31
  -14.9300003       1.83352657E-31
  -14.9200001       1.93944437E-31
  -14.9099998       2.05398595E-31
  -14.8999996       2.18794270E-31
  -14.8900003       2.35398997E-31
  -14.8800001       2.56579666E-31
  -14.8699999       2.83688470E-31
  -14.8599997       3.17933489E-31
  -14.8500004       3.60245102E-31
  -14.8400002       4.11151578E-31
  -14.8299999       4.70678235E-31
  -14.8199997       5.38283925E-31
  -14.8100004       6.12844450E-31
  -14.8000002       6.92691738E-31
  -14.7900000       7.75709663E-31
  -14.7799997       8.59482631E-31
  -14.7700005       9.41486904E-31
  -14.7600002       1.01930980E-30
  -14.7500000       1.09087465E-30
  -14.7399998       1.15464748E-30
  -14.7299995       1.20980223E-30
  -14.7200003       1.25632078E-30
  -14.7100000       1.29500630E-30
  -14.6999998       1.32740255E-30
  -14.6899996       1.35560839E-30
  -14.6800003       1.38200134E-30
  -14.6700001       1.40888067E-30
  -14.6599998       1.43806208E-30
  -14.6499996       1.47045485E-30
  -14.6400003       1.50566391E-30
  -14.6300001       1.54165764E-30
  -14.6199999       1.57454158E-30
  -14.6099997       1.59846505E-30
  -14.6000004       1.60568447E-30
  -14.5900002       1.58678196E-30
  -14.5799999       1.53103221E-30
  -14.5699997       1.42688783E-30
  -14.5600004       1.26254986E-30
  -14.5500002       1.02658517E-30
  -14.5400000       7.08593026E-31
  -14.5299997       2.99932485E-31
  -14.5200005      -2.05362084E-31
  -14.5100002      -8.09267769E-31
  -14.5000000      -1.50763921E-30
  -14.4899998      -2.28663499E-30
  -14.4799995      -3.11670102E-30
  -14.4700003      -3.94281607E-30
  -14.4600000      -4.66902820E-30
  -14.4499998      -5.13482828E-30
  -14.4399996      -5.08002015E-30
  -14.4300003      -4.09392972E-30
  -14.4200001      -1.54362617E-30
  -14.4099998       3.52538204E-30
  -14.3999996       1.25239026E-29
  -14.3900003       2.74988731E-29
  -14.3800001       5.13697396E-29
  -14.3699999       8.82347230E-29
  -14.3599997       1.43762545E-28
  -14.3500004       2.25688175E-28
  -14.3400002       3.44432396E-28
  -14.3299999       5.13869839E-28
  -14.3199997       7.52271799E-28
  -14.3100004       1.08345240E-27
  -14.3000002       1.53815002E-27
  -14.2900000       2.15568722E-27
  -14.2799997       2.98593424E-27
  -14.2700005       4.09164202E-27
  -14.2600002       5.55116450E-27
  -14.2500000       7.46163963E-27
  -14.2399998       9.94268575E-27
  -14.2299995       1.31406462E-26
  -14.2200003       1.72334677E-26
  -14.2100000       2.24362534E-26
  -14.1999998       2.90076080E-26
  -14.1899996       3.72567388E-26
  -14.1800003       4.75514661E-26
  -14.1700001       6.03272503E-26
  -14.1599998       7.60971467E-26
  -14.1499996       9.54629979E-26
  -14.1400003       1.19127549E-25
  -14.1300001       1.47908227E-25
  -14.1199999       1.82751659E-25
  -14.1099997       2.24749997E-25
  -14.1000004       2.75158653E-25
  -14.0900002       3.35415325E-25
  -14.0799999       4.07159956E-25
  -14.0699997       4.92258030E-25
  -14.0600004       5.92823054E-25
  -14.0500002       7.11243007E-25
  -14.0400000       8.50205786E-25
  -14.0299997       1.01272947E-24
  -14.0200005       1.20219039E-24
  -14.0100002       1.42235585E-24
  -14.0000000       1.67741845E-24
  -13.9899998       1.97202427E-24
  -13.9799995       2.31131571E-24
  -13.9700003       2.70096468E-24
  -13.9600000       3.14721028E-24
  -13.9499998       3.65689489E-24
  -13.9399996       4.23750993E-24
  -13.9300003       4.89722641E-24
  -13.9200001       5.64494191E-24
  -13.9099998       6.49031129E-24
  -13.8999996       7.44379326E-24
  -13.8900003       8.51668433E-24
  -13.8800001       9.72114713E-24
  -13.8699999       1.10702642E-23
  -13.8599997       1.25780598E-23
  -13.8500004       1.42595255E-23
  -13.8400002       1.61306546E-23
  -13.8299999       1.82084464E-23
  -13.8199997       2.05109783E-23
  -13.8100004       2.30573377E-23
  -13.8000002       2.58676989E-23
  -13.7900000       2.89633058E-23
  -13.7799997       3.23665022E-23
  -13.7700005       3.61006069E-23
  -13.7600002       4.01900208E-23
  -13.7500000       4.46601737E-23
  -13.7399998       4.95374198E-23
  -13.7299995       5.48491075E-23
  -13.7200003       6.06234241E-23
  -13.7100000       6.68893400E-23
  -13.6999998       7.36765919E-23
  -13.6899996       8.10155290E-23
  -13.6800003       8.89370746E-23
  -13.6700001       9.74725117E-23
  -13.6599998       1.06653464E-22
  -13.6499996       1.16511663E-22
  -13.6400003       1.27078815E-22
  -13.6300001       1.38386448E-22
  -13.6199999       1.50465764E-22
  -13.6099997       1.63347257E-22
  -13.6000004       1.77060726E-22
  -13.5900002       1.91634812E-22
  -13.5799999       2.07096940E-22
  -13.5699997       2.23472960E-22
  -13.5600004       2.40786778E-22
  -13.5500002       2.59060230E-22
  -13.5400000       2.78312702E-22
  -13.5299997       2.98560730E-22
  -13.5200005       3.19817792E-22
  -13.5100002       3.42093634E-22
  -13.5000000       3.65394439E-22
  -13.4899998       3.89721950E-22
  -13.4799995       4.15073466E-22
  -13.4700003       4.41440958E-22
  -13.4600000       4.68811529E-22
  -13.4499998       4.97166042E-22
  -13.4399996       5.26479205E-22
  -13.4300003       5.56719007E-22
  -13.4200001       5.87846323E-22
  -13.4099998       6.19814955E-22
  -13.3999996       6.52570631E-22
  -13.3900003       6.86050191E-22
  -13.3800001       7.20182852E-22
  -13.3699999       7.54888541E-22
  -13.3599997       7.90077644E-22
  -13.3500004       8.25651055E-22
  -13.3400002       8.61499116E-22
  -13.3299999       8.97502072E-22
  -13.3199997       9.33529665E-22
  -13.3100004       9.69441037E-22
  -13.3000002       1.00508382E-21
  -13.2900000       1.04029534E-21
  -13.2799997       1.07490010E-21
  -13.2700005       1.10871242E-21
  -13.2600002       1.14153459E-21
  -13.2500000       1.17315688E-21
  -13.2399998       1.20335907E-21
  -13.2299995       1.23190973E-21
  -13.2200003       1.25856479E-21
  -13.2100000       1.28307083E-21
  -13.1999998       1.30516297E-21
  -13.1899996       1.32456466E-21
  -13.1800003       1.34099165E-21
  -13.1700001       1.35414757E-21
  -13.1599998       1.36372932E-21
  -13.1499996       1.36942204E-21
  -13.1400003       1.37090515E-21
  -13.1300001       1.36785028E-21
  -13.1199999       1.35992188E-21
  -13.1099997       1.34677918E-21
  -13.1000004       1.32807432E-21
  -13.0900002       1.30345701E-21
  -13.0799999       1.27257183E-21
  -13.0699997       1.23506184E-21
  -13.0600004       1.19056736E-21
  -13.0500002       1.13872872E-21
  -13.0400000       1.07918565E-21
  -13.0299997       1.01157848E-21
  -13.0200005       9.35550260E-22
  -13.0100002       8.50745768E-22
  -13.0000000       7.56813765E-22
  -12.9899998       6.53406748E-22
  -12.9799995       5.40182060E-22
  -12.9700003       4.16802396E-22
  -12.9600000       2.82936664E-22
  -12.9499998       1.38259069E-22
  -12.9399996      -1.75493957E-23
  -12.9300003      -1.84801231E-22
  -12.9200001      -3.63803843E-22
  -12.9099998      -5.54858659E-22
  -12.8999996      -7.58261634E-22
  -12.8900003      -9.74305771E-22
  -12.8800001      -1.20328082E-21
  -12.8699999      -1.44547681E-21
  -12.8599997      -1.70118478E-21
  -12.8500004      -1.97069722E-21
  -12.8400002      -2.25431577E-21
  -12.8299999      -2.55235080E-21
  -12.8199997      -2.86512847E-21
  -12.8100004      -3.19299067E-21
  -12.8000002      -3.53630334E-21
  -12.7900000      -3.89546412E-21
  -12.7799997      -4.27090152E-21
  -12.7700005      -4.66309540E-21
  -12.7600002      -5.07256838E-21
  -12.7500000      -5.49990854E-21
  -12.7399998      -5.94576657E-21
  -12.7299995      -6.41088522E-21
  -12.7200003      -6.89608602E-21
  -12.7100000      -7.40230844E-21
  -12.6999998      -7.93060139E-21
  -12.6899996      -8.48215476E-21
  -12.6800003      -9.05830060E-21
  -12.6700001      -9.66053817E-21
  -12.6599998      -1.02905638E-20
  -12.6499996      -1.09502759E-20
  -12.6400003      -1.16417981E-20
  -12.6300001      -1.23675110E-20
  -12.6199999      -1.31300681E-20
  -12.6099997      -1.39324228E-20
  -12.6000004      -1.47778611E-20
  -12.5900002      -1.56700449E-20
  -12.5799999      -1.66130001E-20
  -12.5699997      -1.76112100E-20
  -12.5600004      -1.86695908E-20
  -12.5500002      -1.97935774E-20
  -12.5400000      -2.09891232E-20
  -12.5299997      -2.22627988E-20
  -12.5200005      -2.36217499E-20
  -12.5100002      -2.50738154E-20
  -12.5000000      -2.66275336E-20
  -12.4899998      -2.82922394E-20
  -12.4799995      -3.00780481E-20
  -12.4700003      -3.19959859E-20
  -12.4600000      -3.40579823E-20
  -12.4499998      -3.62769525E-20
  -12.4399996      -3.86668744E-20
  -12.4300003      -4.12428247E-20
  -12.4200001      -4.40210949E-20
  -12.4099998      -4.70191464E-20
  -12.3999996      -5.02558525E-20
  -12.3900003      -5.37514370E-20
  -12.3800001      -5.75275746E-20
  -12.3699999      -6.16075008E-20
  -12.3599997      -6.60160892E-20
  -12.3500004      -7.07799515E-20
  -12.3400002      -7.59274448E-20
  -12.3299999      -8.14887804E-20
  -12.3199997      -8.74961731E-20
  -12.3100004      -9.39840156E-20
  -12.3000002      -1.00988691E-19
  -12.2900000      -1.08548896E-19
  -12.2799997      -1.16705633E-19
  -12.2700005      -1.25502415E-19
  -12.2600002      -1.34985304E-19
  -12.2500000      -1.45202949E-19
  -12.2399998      -1.56206919E-19
  -12.2299995      -1.68051409E-19
  -12.2200003      -1.80793765E-19
  -12.2100000      -1.94494344E-19
  -12.1999998      -2.09216582E-19
  -12.1899996      -2.25027325E-19
  -12.1800003      -2.41996961E-19
  -12.1700001      -2.60199071E-19
  -12.1599998      -2.79711124E-19
  -12.1499996      -3.00614056E-19
  -12.1400003      -3.22992729E-19
  -12.1300001      -3.46936067E-19
  -12.1199999      -3.72536893E-19
  -12.1099997      -3.99892118E-19
  -12.1000004      -4.29103303E-19
  -12.0900002      -4.60276018E-19
  -12.0799999      -4.93520045E-19
  -12.0699997      -5.28950310E-19
  -12.0600004      -5.66686135E-19
  -12.0500002      -6.06851079E-19
  -12.0400000      -6.49574130E-19
  -12.0299997      -6.94988827E-19
  -12.0200005      -7.43234136E-19
  -12.0100002      -7.94453522E-19
  -12.0000000      -8.48795514E-19
  -11.9899998      -9.06414382E-19
  -11.9799995      -9.67468790E-19
  -11.9700003      -1.03212298E-18
  -11.9600000      -1.10054674E-18
  -11.9499998      -1.17291523E-18
  -11.9399996      -1.24940793E-18
  -11.9300003      -1.33021044E-18
  -11.9200001      -1.41551355E-18
  -11.9099998      -1.50551359E-18
  -11.8999996      -1.60041168E-18
  -11.8900003      -1.70041326E-18
  -11.8800001      -1.80573155E-18
  -11.8699999      -1.91658141E-18
  -11.8599997      -2.03318616E-18
  -11.8500004      -2.15577185E-18
  -11.8400002      -2.28456987E-18
  -11.8299999      -2.41981679E-18
  -11.8199997      -2.56175313E-18
  -11.8100004      -2.71062517E-18
  -11.8000002      -2.86667879E-18
  -11.7900000      -3.03016834E-18
  -11.7799997      -3.20134986E-18
  -11.7700005      -3.38048512E-18
  -11.7600002      -3.56783554E-18
  -11.7500000      -3.76366806E-18
  -11.7399998      -3.96825175E-18
  -11.7299995      -4.18185543E-18
  -11.7200003      -4.40475537E-18
  -11.7100000      -4.63722332E-18
  -11.6999998      -4.87953512E-18
  -11.6899996      -5.13196542E-18
  -11.6800003      -5.39479296E-18
  -11.6700001      -5.66828823E-18
  -11.6599998      -5.95273042E-18
  -11.6499996      -6.24839124E-18
  -11.6400003      -6.55553870E-18
  -11.6300001      -6.87444206E-18
  -11.6199999      -7.20536435E-18
  -11.6099997      -7.54856572E-18
  -11.6000004      -7.90430301E-18
  -11.5900002      -8.27282273E-18
  -11.5799999      -8.65436806E-18
  -11.5699997      -9.04917806E-18
  -11.5600004      -9.45747524E-18
  -11.5500002      -9.87947880E-18
  -11.5400000      -1.03153947E-17
  -11.5299997      -1.07654182E-17
  -11.5200005      -1.12297312E-17
  -11.5100002      -1.17085075E-17
  -11.5000000      -1.22018967E-17
  -11.4899998      -1.27100462E-17
  -11.4799995      -1.32330708E-17
  -11.4700003      -1.37710732E-17
  -11.4600000      -1.43241477E-17
  -11.4499998      -1.48923579E-17
  -11.4399996      -1.54757337E-17
  -11.4300003      -1.60742998E-17
  -11.4200001      -1.66880545E-17
  -11.4099998      -1.73169599E-17
  -11.3999996      -1.79609498E-17
  -11.3900003      -1.86199398E-17
  -11.3800001      -1.92937975E-17
  -11.3699999      -1.99823658E-17
  -11.3599997      -2.06854578E-17
  -11.3500004      -2.14028384E-17
  -11.3400002      -2.21342481E-17
  -11.3299999      -2.28793740E-17
  -11.3199997      -2.36378639E-17
  -11.3100004      -2.44093207E-17
  -11.3000002      -2.51933191E-17
  -11.2900000      -2.59893597E-17
  -11.2799997      -2.67969047E-17
  -11.2700005      -2.76153817E-17
  -11.2600002      -2.84441141E-17
  -11.2500000      -2.92824319E-17
  -11.2399998      -3.01295542E-17
  -11.2299995      -3.09846704E-17
  -11.2200003      -3.18469036E-17
  -11.2100000      -3.27152910E-17
  -11.1999998      -3.35888334E-17
  -11.1899996      -3.44664522E-17
  -11.1800003      -3.53469860E-17
  -11.1700001      -3.62292105E-17
  -11.1599998      -3.71118122E-17
  -11.1499996      -3.79934147E-17
  -11.1400003      -3.88725588E-17
  -11.1300001      -3.97476960E-17
  -11.1199999      -4.06172184E-17
  -11.1099997      -4.14793821E-17
  -11.1000004      -4.23324038E-17
  -11.0900002      -4.31743711E-17
  -11.0799999      -4.40033054E-17
  -11.0699997      -4.48170956E-17
  -11.0600004      -4.56135944E-17
  -11.0500002      -4.63905221E-17
  -11.0400000      -4.71454965E-17
  -11.0299997      -4.78760095E-17
  -11.0200005      -4.85795200E-17
  -11.0100002      -4.92532784E-17
  -11.0000000      -4.98945022E-17
  -10.9899998      -5.05002698E-17
  -10.9799995      -5.10675436E-17
  -10.9700003      -5.15931970E-17
  -10.9600000      -5.20739809E-17
  -10.9499998      -5.25065070E-17
  -10.9399996      -5.28873310E-17
  -10.9300003      -5.32128001E-17
  -10.9200001      -5.34792449E-17
  -10.9099998      -5.36827876E-17
  -10.8999996      -5.38194577E-17
  -10.8900003      -5.38851590E-17
  -10.8800001      -5.38757027E-17
  -10.8699999      -5.37867675E-17
  -10.8599997      -5.36138835E-17
  -10.8500004      -5.33524911E-17
  -10.8400002      -5.29978986E-17
  -10.8299999      -5.25452885E-17
  -10.8199997      -5.19897276E-17
  -10.8100004      -5.13261732E-17
  -10.8000002      -5.05494440E-17
  -10.7900000      -4.96542228E-17
  -10.7799997      -4.86351363E-17
  -10.7700005      -4.74866787E-17
  -10.7600002      -4.62031823E-17
  -10.7500000      -4.47789394E-17
  -10.7399998      -4.32080936E-17
  -10.7299995      -4.14847025E-17
  -10.7200003      -3.96026780E-17
  -10.7100000      -3.75559255E-17
  -10.6999998      -3.53381418E-17
  -10.6899996      -3.29430238E-17
  -10.6800003      -3.03641492E-17
  -10.6700001      -2.75950265E-17
  -10.6599998      -2.46290595E-17
  -10.6499996      -2.14595946E-17
  -10.6400003      -1.80799150E-17
  -10.6300001      -1.44832559E-17
  -10.6199999      -1.06627692E-17
  -10.6099997      -6.61159218E-18
  -10.6000004      -2.32279595E-18
  -10.5900002       2.21056781E-18
  -10.5799999       6.99547554E-18
  -10.5699997       1.20389215E-17
  -10.5600004       1.73479064E-17
  -10.5500002       2.29294333E-17
  -10.5400000       2.87905010E-17
  -10.5299997       3.49380775E-17
  -10.5200005       4.13790980E-17
  -10.5100002       4.81204777E-17
  -10.5000000       5.51690690E-17
  -10.4899998       6.25316448E-17
  -10.4799995       7.02149417E-17
  -10.4700003       7.82255573E-17
  -10.4600000       8.65700362E-17
  -10.4499998       9.52548305E-17
  -10.4399996       1.04286167E-16
  -10.4300003       1.13670180E-16
  -10.4200001       1.23412965E-16
  -10.4099998       1.33520292E-16
  -10.3999996       1.43997732E-16
  -10.3900003       1.54850778E-16
  -10.3800001       1.66084725E-16
  -10.3699999       1.77704402E-16
  -10.3599997       1.89714615E-16
  -10.3500004       2.02119875E-16
  -10.3400002       2.14924208E-16
  -10.3299999       2.28131569E-16
  -10.3199997       2.41745612E-16
  -10.3100004       2.55769381E-16
  -10.3000002       2.70205866E-16
  -10.2900000       2.85057451E-16
  -10.2799997       3.00326119E-16
  -10.2700005       3.16013567E-16
  -10.2600002       3.32121063E-16
  -10.2500000       3.48649190E-16
  -10.2399998       3.65598134E-16
  -10.2299995       3.82967630E-16
  -10.2200003       4.00757069E-16
  -10.2100000       4.18964810E-16
  -10.1999998       4.37588973E-16
  -10.1899996       4.56626886E-16
  -10.1800003       4.76075556E-16
  -10.1700001       4.95931120E-16
  -10.1599998       5.16188919E-16
  -10.1499996       5.36844082E-16
  -10.1400003       5.57890151E-16
  -10.1300001       5.79320561E-16
  -10.1199999       6.01128324E-16
  -10.1099997       6.23304758E-16
  -10.1000004       6.45840705E-16
  -10.0900002       6.68726318E-16
  -10.0799999       6.91951220E-16
  -10.0699997       7.15502918E-16
  -10.0600004       7.39369660E-16
  -10.0500002       7.63537257E-16
  -10.0400000       7.87991151E-16
  -10.0299997       8.12716043E-16
  -10.0200005       8.37695785E-16
  -10.0100002       8.62912115E-16
  -10.0000000       8.88346450E-16
  -9.98999977       9.13979467E-16
  -9.97999954       9.39789725E-16
  -9.97000027       9.65755309E-16
  -9.96000004       9.91853452E-16
  -9.94999981       1.01805959E-15
  -9.93999958       1.04434779E-15
  -9.93000031       1.07069189E-15
  -9.92000008       1.09706267E-15
  -9.90999985       1.12343229E-15
  -9.89999962       1.14976940E-15
  -9.89000034       1.17604299E-15
  -9.88000011       1.20221864E-15
  -9.86999989       1.22826225E-15
  -9.85999966       1.25413805E-15
  -9.85000038       1.27980866E-15
  -9.84000015       1.30523553E-15
  -9.82999992       1.33037896E-15
  -9.81999969       1.35519713E-15
  -9.81000042       1.37964705E-15
  -9.80000019       1.40368426E-15
  -9.78999996       1.42726322E-15
  -9.77999973       1.45033735E-15
  -9.77000046       1.47285763E-15
  -9.76000023       1.49477344E-15
  -9.75000000       1.51603386E-15
  -9.73999977       1.53658542E-15
  -9.72999954       1.55637434E-15
  -9.72000027       1.57534459E-15
  -9.71000004       1.59343880E-15
  -9.69999981       1.61059747E-15
  -9.68999958       1.62676013E-15
  -9.68000031       1.64186622E-15
  -9.67000008       1.65585211E-15
  -9.65999985       1.66865374E-15
  -9.64999962       1.68020558E-15
  -9.64000034       1.69043901E-15
  -9.63000011       1.69928658E-15
  -9.61999989       1.70667769E-15
  -9.60999966       1.71254159E-15
  -9.60000038       1.71680545E-15
  -9.59000015       1.71939578E-15
  -9.57999992       1.72023773E-15
  -9.56999969       1.71925369E-15
  -9.56000042       1.71636806E-15
  -9.55000019       1.71150143E-15
  -9.53999996       1.70457387E-15
  -9.52999973       1.69550553E-15
  -9.52000046       1.68421490E-15
  -9.51000023       1.67061970E-15
  -9.50000000       1.65463609E-15
  -9.48999977       1.63617924E-15
  -9.47999954       1.61516552E-15
  -9.47000027       1.59150863E-15
  -9.46000004       1.56512175E-15
  -9.44999981       1.53591838E-15
  -9.43999958       1.50381022E-15
  -9.43000031       1.46871119E-15
  -9.42000008       1.43053245E-15
  -9.40999985       1.38918486E-15
  -9.39999962       1.34458010E-15
  -9.39000034       1.29662925E-15
  -9.38000011       1.24524368E-15
  -9.36999989       1.19033445E-15
  -9.35999966       1.13181358E-15
  -9.35000038       1.06959202E-15
  -9.34000015       1.00358158E-15
  -9.32999992       9.33695853E-16
  -9.31999969       8.59847444E-16
  -9.31000042       7.81949900E-16
  -9.30000019       6.99917512E-16
  -9.28999996       6.13666688E-16
  -9.27999973       5.23113307E-16
  -9.27000046       4.28175658E-16
  -9.26000023       3.28772344E-16
  -9.25000000       2.24823852E-16
  -9.23999977       1.16252599E-16
  -9.22999954       2.98253556E-18
  -9.22000027      -1.15061220E-16
  -9.21000004      -2.37951037E-16
  -9.19999981      -3.65757270E-16
  -9.18999958      -4.98547764E-16
  -9.18000031      -6.36387871E-16
  -9.17000008      -7.79340986E-16
  -9.15999985      -9.27466878E-16
  -9.14999962      -1.08082283E-15
  -9.14000034      -1.23946342E-15
  -9.13000011      -1.40343904E-15
  -9.11999989      -1.57279746E-15
  -9.10999966      -1.74758260E-15
  -9.10000038      -1.92783449E-15
  -9.09000015      -2.11358988E-15
  -9.07999992      -2.30488041E-15
  -9.06999969      -2.50173383E-15
  -9.06000042      -2.70417344E-15
  -9.05000019      -2.91221765E-15
  -9.03999996      -3.12588149E-15
  -9.02999973      -3.34517218E-15
  -9.02000046      -3.57009352E-15
  -9.01000023      -3.80064361E-15
  -9.00000000      -4.03681545E-15
  -8.98999977      -4.27859593E-15
  -8.97999954      -4.52596428E-15
  -8.97000027      -4.77889763E-15
  -8.96000004      -5.03736169E-15
  -8.94999981      -5.30131875E-15
  -8.93999958      -5.57072478E-15
  -8.93000031      -5.84552514E-15
  -8.92000008      -6.12566054E-15
  -8.90999985      -6.41106786E-15
  -8.89999962      -6.70166750E-15
  -8.89000034      -6.99738111E-15
  -8.88000011      -7.29811634E-15
  -8.86999989      -7.60377919E-15
  -8.85999966      -7.91425742E-15
  -8.85000038      -8.22943923E-15
  -8.84000015      -8.54920010E-15
  -8.82999992      -8.87340704E-15
  -8.81999969      -9.20192115E-15
  -8.81000042      -9.53458825E-15
  -8.80000019      -9.87124912E-15
  -8.78999996      -1.02117343E-14
  -8.77999973      -1.05558669E-14
  -8.77000046      -1.09034562E-14
  -8.76000023      -1.12542981E-14
  -8.75000000      -1.16081876E-14
  -8.73999977      -1.19649011E-14
  -8.72999954      -1.23242142E-14
  -8.72000027      -1.26858744E-14
  -8.71000004      -1.30496352E-14
  -8.69999981      -1.34152341E-14
  -8.68999958      -1.37823992E-14
  -8.68000031      -1.41508433E-14
  -8.67000008      -1.45202640E-14
  -8.65999985      -1.48903581E-14
  -8.64999962      -1.52608046E-14
  -8.64000034      -1.56312714E-14
  -8.63000011      -1.60014163E-14
  -8.61999989      -1.63708887E-14
  -8.60999966      -1.67393124E-14
  -8.60000038      -1.71063200E-14
  -8.59000015      -1.74715131E-14
  -8.57999992      -1.78344939E-14
  -8.56999969      -1.81948437E-14
  -8.56000042      -1.85521476E-14
  -8.55000019      -1.89059566E-14
  -8.53999996      -1.92558134E-14
  -8.52999973      -1.96012691E-14
  -8.52000046      -1.99418458E-14
  -8.51000023      -2.02770557E-14
  -8.50000000      -2.06064024E-14
  -8.48999977      -2.09293710E-14
  -8.47999954      -2.12454413E-14
  -8.47000027      -2.15540832E-14
  -8.46000004      -2.18547494E-14
  -8.44999981      -2.21468775E-14
  -8.43999958      -2.24299136E-14
  -8.43000031      -2.27032579E-14
  -8.42000008      -2.29663395E-14
  -8.40999985      -2.32185504E-14
  -8.39999962      -2.34592805E-14
  -8.39000034      -2.36879032E-14
  -8.38000011      -2.39037814E-14
  -8.36999989      -2.41062883E-14
  -8.35999966      -2.42947565E-14
  -8.35000038      -2.44685406E-14
  -8.34000015      -2.46269578E-14
  -8.32999992      -2.47693339E-14
  -8.31999969      -2.48949759E-14
  -8.31000042      -2.50031878E-14
  -8.30000019      -2.50932613E-14
  -8.28999996      -2.51644951E-14
  -8.27999973      -2.52161624E-14
  -8.27000046      -2.52475280E-14
  -8.26000023      -2.52578652E-14
  -8.25000000      -2.52464472E-14
  -8.23999977      -2.52125252E-14
  -8.22999954      -2.51553420E-14
  -8.22000027      -2.50741454E-14
  -8.21000004      -2.49681901E-14
  -8.19999981      -2.48366950E-14
  -8.18999958      -2.46789165E-14
  -8.18000031      -2.44940854E-14
  -8.17000008      -2.42814310E-14
  -8.15999985      -2.40401859E-14
  -8.14999962      -2.37695843E-14
  -8.14000034      -2.34688588E-14
  -8.13000011      -2.31372335E-14
  -8.11999989      -2.27739445E-14
  -8.10999966      -2.23782157E-14
  -8.10000038      -2.19493054E-14
  -8.09000015      -2.14864544E-14
  -8.07999992      -2.09889055E-14
  -8.06999969      -2.04559202E-14
  -8.06000042      -1.98867378E-14
  -8.05000019      -1.92806434E-14
  -8.03999996      -1.86369034E-14
  -8.02999973      -1.79547895E-14
  -8.02000046      -1.72336188E-14
  -8.01000023      -1.64726885E-14
  -8.00000000      -1.56712971E-14
  -7.98999977      -1.48287737E-14
  -7.98000002      -1.39444603E-14
  -7.96999979      -1.30177114E-14
  -7.96000004      -1.20479010E-14
  -7.94999981      -1.10344134E-14
  -7.94000006      -9.97664967E-15
  -7.92999983      -8.87403130E-15
  -7.92000008      -7.72598148E-15
  -7.90999985      -6.53198690E-15
  -7.90000010      -5.29151562E-15
  -7.88999987      -4.00406916E-15
  -7.88000011      -2.66918992E-15
  -7.86999989      -1.28641816E-15
  -7.86000013       1.44663434E-16
  -7.84999990       1.62444984E-15
  -7.84000015       3.15331287E-15
  -7.82999992       4.73158364E-15
  -7.82000017       6.35956868E-15
  -7.80999994       8.03754815E-15
  -7.80000019       9.76575795E-15
  -7.78999996       1.15444085E-14
  -7.78000021       1.33736745E-14
  -7.76999998       1.52536912E-14
  -7.76000023       1.71845587E-14
  -7.75000000       1.91663329E-14
  -7.73999977       2.11990392E-14
  -7.73000002       2.32826589E-14
  -7.71999979       2.54171243E-14
  -7.71000004       2.76023304E-14
  -7.69999981       2.98381247E-14
  -7.69000006       3.21243141E-14
  -7.67999983       3.44606478E-14
  -7.67000008       3.68468311E-14
  -7.65999985       3.92825387E-14
  -7.65000010       4.17673606E-14
  -7.63999987       4.43008497E-14
  -7.63000011       4.68825249E-14
  -7.61999989       4.95118032E-14
  -7.61000013       5.21881088E-14
  -7.59999990       5.49107539E-14
  -7.59000015       5.76790474E-14
  -7.57999992       6.04921725E-14
  -7.57000017       6.33493163E-14
  -7.55999994       6.62495639E-14
  -7.55000019       6.91919598E-14
  -7.53999996       7.21754606E-14
  -7.53000021       7.51989820E-14
  -7.51999998       7.82613855E-14
  -7.51000023       8.13614313E-14
  -7.50000000       8.44978249E-14
  -7.48999977       8.76692721E-14
  -7.48000002       9.08742482E-14
  -7.46999979       9.41113303E-14
  -7.46000004       9.73789463E-14
  -7.44999981       1.00675443E-13
  -7.44000006       1.03999139E-13