  -16.0000000       0.00000000    
  -15.9899998       0.00000000    
  -15.9799995       0.00000000    
  -15.9700003       0.00000000    
  -15.9600000       0.00000000    
  -15.9499998       0.00000000    
  -15.9399996       0.00000000    
  -15.9300003       0.00000000    
  -15.9200001       0.00000000    
  -15.9099998       0.00000000    
  -15.8999996       0.00000000    
  -15.8900003       0.00000000    
  -15.8800001       0.00000000    
  -15.8699999       0.00000000    
  -15.8599997       0.00000000    
  -15.8500004       0.00000000    
  -15.8400002       0.00000000    
  -15.8299999       0.00000000    
  -15.8199997       0.00000000    
  -15.8100004       0.00000000    
  -15.8000002       0.00000000    
  -15.7900000       0.00000000    
  -15.7799997       0.00000000    
  -15.7700005       0.00000000    
  -15.7600002       0.00000000    
  -15.7500000       0.00000000    
  -15.7399998       0.00000000    
  -15.7299995       0.00000000    
  -15.7200003      -0.00000000    
  -15.7100000      -0.00000000    
  -15.6999998      -0.00000000    
  -15.6899996      -0.00000000    
  -15.6800003       0.00000000    
  -15.6700001       0.00000000    
  -15.6599998       0.00000000    
  -15.6499996      -0.00000000    
  -15.6400003      -1.40129846E-45
  -15.6300001       1.40129846E-45
  -15.6199999       0.00000000    
  -15.6099997      -4.20389539E-45
  -15.6000004      -9.80908925E-45
  -15.5900002      -1.68155816E-44
  -15.5799999      -2.52233724E-44
  -15.5699997      -3.50324616E-44
  -15.5600004      -4.62428493E-44
  -15.5500002      -6.16571324E-44
  -15.5400000      -8.96831017E-44
  -15.5299997      -1.27518160E-43
  -15.5200005      -1.77964905E-43
  -15.5100002      -2.42424634E-43
  -15.5000000      -3.19496050E-43
  -15.4899998      -4.14784345E-43
  -15.4799995      -5.31092118E-43
  -15.4700003      -6.74024561E-43
  -15.4600000      -8.49186869E-43
  -15.4499998      -1.06218424E-42
  -15.4399996      -1.33123354E-42
  -15.4300003      -1.67174907E-42
  -15.4200001      -2.10895419E-42
  -15.4099998      -2.64004631E-42
  -15.3999996      -3.25942023E-42
  -15.3900003      -3.93624739E-42
  -15.3800001      -4.63129142E-42
  -15.3699999      -5.34595364E-42
  -15.3599997      -6.12367429E-42
  -15.3500004      -7.11158971E-42
  -15.3400002      -8.56053232E-42
  -15.3299999      -1.07829917E-41
  -15.3199997      -1.40438132E-41
  -15.3100004      -1.83878384E-41
  -15.3000002      -2.34437233E-41
  -15.2900000      -2.83006238E-41
  -15.2799997      -3.14885778E-41
  -15.2700005      -3.13050077E-41
  -15.2600002      -2.64354955E-41
  -15.2500000      -1.67987660E-41
  -15.2399998      -4.39026809E-42
  -15.2299995       6.20915350E-42
  -15.2200003       8.18918823E-42
  -15.2100000      -5.96813016E-42
  -15.1999998      -4.17755098E-41
  -15.1899996      -9.92133326E-41
  -15.1800003      -1.69408577E-40
  -15.1700001      -2.32974277E-40
  -15.1599998      -2.61437452E-40
  -15.1499996      -2.22840087E-40
  -15.1400003      -9.14151066E-41
  -15.1300001       1.40331633E-40
  -15.1199999       4.50416563E-40
  -15.1099997       7.81480331E-40
  -15.1000004       1.04458253E-39
  -15.0900002       1.13548055E-39
  -15.0799999       9.62826570E-40
  -15.0699997       4.83403129E-40
  -15.0600004      -2.64748720E-40
  -15.0500002      -1.14313445E-39
  -15.0400000      -1.91901659E-39
  -15.0299997      -2.30384818E-39
  -15.0200005      -2.02263420E-39
  -15.0100002      -9.02255444E-40
  -15.0000000       1.04326531E-39
  -14.9899998       3.55863949E-39
  -14.9799995       6.15106407E-39
  -14.9700003       8.16857232E-39
  -14.9600000       8.95108821E-39
  -14.9499998       8.02896936E-39
  -14.9399996       5.32179385E-39
  -14.9300003       1.27648621E-39
  -14.9200001      -3.11476979E-39
  -14.9099998      -6.45643223E-39
  -14.8999996      -7.25374443E-39
  -14.8900003      -4.33353372E-39
  -14.8800001       2.71082169E-39
  -14.8699999       1.31748078E-38
  -14.8599997       2.51269574E-38
  -14.8500004       3.56182997E-38
  -14.8400002       4.12455471E-38
  -14.8299999       3.90039769E-38
  -14.8199997       2.72677743E-38
  -14.8100004       6.65828367E-39
  -14.8000002      -1.94686726E-38
  -14.7900000      -4.51514564E-38
  -14.7799997      -6.26936841E-38
  -14.7700005      -6.42382794E-38
  -14.7600002      -4.38092339E-38
  -14.7500000       5.95509808E-40
  -14.7399998       6.53904942E-38
  -14.7299995       1.40809073E-37
  -14.7200003       2.11739987E-37
  -14.7100000       2.60147786E-37
  -14.6999998       2.68872540E-37
  -14.6899996       2.26218831E-37
  -14.6800003       1.30405866E-37
  -14.6700001      -7.23584424E-39
  -14.6599998      -1.61411299E-37
  -14.6499996      -2.95159419E-37
  -14.6400003      -3.65585294E-37
  -14.6300001      -3.32596778E-37
  -14.6199999      -1.69440885E-37
  -14.6099997       1.26859292E-37
  -14.6000004       5.27507305E-37
  -14.5900002       9.68834172E-37
  -14.5799999       1.35611836E-36
  -14.5699997       1.57549964E-36
  -14.5600004       1.51380932E-36
  -14.5500002       1.08455407E-36
  -14.5400000       2.56588645E-37
  -14.5299997      -9.19557343E-37
  -14.5200005      -2.29359654E-36
  -14.5100002      -3.61185993E-36
  -14.5000000      -4.53329569E-36
  -14.4899998      -4.66830283E-36
  -14.4799995      -3.64030705E-36
  -14.4700003      -1.16564194E-36
  -14.4600000       2.85746164E-36
  -14.4499998       8.26451378E-36
  -14.4399996       1.45621250E-35
  -14.4300003       2.09059762E-35
  -14.4200001       2.61370423E-35
  -14.4099998       2.88881726E-35
  -14.3999996       2.77652081E-35
  -14.3900003       2.15946750E-35
  -14.3800001       9.71608142E-36
  -14.3699999      -7.71812773E-36
  -14.3599997      -2.94836655E-35
  -14.3500004      -5.31238958E-35
  -14.3400002      -7.49468107E-35
  -14.3299999      -9.02287768E-35
  -14.3199997      -9.36573345E-35
  -14.3100004      -8.00161874E-35
  -14.3000002      -4.50770802E-35
  -14.2900000       1.33780211E-35
  -14.2799997       9.45262877E-35
  -14.2700005       1.93626006E-34
  -14.2600002       3.01472057E-34
  -14.2500000       4.04381812E-34
  -14.2399998       4.84879343E-34
  -14.2299995       5.23200918E-34
  -14.2200003       4.99663710E-34
  -14.2100000       3.97823104E-34
  -14.1999998       2.08213294E-34
  -14.1899996      -6.76866522E-35
  -14.1800003      -4.13760466E-34
  -14.1700001      -7.96470799E-34
  -14.1599998      -1.16368247E-33
  -14.1499996      -1.44582389E-33
  -14.1400003      -1.56002500E-33
  -14.1300001      -1.41771571E-33
  -14.1199999      -9.35847879E-34
  -14.1099997      -5.15057543E-35
  -14.1000004       1.26081274E-33
  -14.0900002       2.97061198E-33
  -14.0799999       4.97342476E-33
  -14.0699997       7.07595584E-33
  -14.0600004       8.98733389E-33
  -14.0500002       1.03196737E-32
  -14.0400000       1.06010151E-32
  -14.0299997       9.30327518E-33
  -14.0200005       5.88665200E-33
  -14.0100002      -1.39635482E-34
  -14.0000000      -9.14289147E-33
  -13.9899998      -2.12841502E-32
  -13.9799995      -3.64359697E-32
  -13.9700003      -5.41133593E-32
  -13.9600000      -7.34331086E-32
  -13.9499998      -9.31201939E-32
  -13.9399996      -1.11578958E-31
  -13.9300003      -1.27044879E-31
  -13.9200001      -1.37825243E-31
  -13.9099998      -1.42621672E-31
  -13.8999996      -1.40906672E-31
  -13.8900003      -1.33288152E-31
  -13.8800001      -1.21752862E-31
  -13.8699999      -1.09603752E-31
  -13.8599997      -1.00827276E-31
  -13.8500004      -9.85065970E-32
  -13.8400002      -1.01759231E-31
  -13.8299999      -1.00494176E-31
  -13.8199997      -6.70926860E-32
  -13.8100004       5.61610176E-32
  -13.8000002       3.75371457E-31
  -13.7900000       1.07078019E-30
  -13.7799997       2.43220633E-30
  -13.7700005       4.90687340E-30
  -13.7600002       9.16246275E-30
  -13.7500000       1.61693179E-29
  -13.7399998       2.73059762E-29
  -13.7299995       4.44924935E-29
  -13.7200003       7.03576213E-29
  -13.7100000       1.08445889E-28
  -13.6999998       1.63470936E-28
  -13.6899996       2.41623271E-28
  -13.6800003       3.50941341E-28
  -13.6700001       5.01755258E-28
  -13.6599998       7.07209468E-28
  -13.6499996       9.83881053E-28
  -13.6400003       1.35250241E-27
  -13.6300001       1.83879317E-27
  -13.6199999       2.47443383E-27
  -13.6099997       3.29816697E-27
  -13.6000004       4.35705789E-27
  -13.5900002       5.70793828E-27
  -13.5799999       7.41899800E-27
  -13.5699997       9.57161529E-27
  -13.5600004       1.22623721E-26
  -13.5500002       1.56052942E-26
  -13.5400000       1.97343432E-26
  -13.5299997       2.48061271E-26
  -13.5200005       3.10029053E-26
  -13.5100002       3.85358552E-26
  -13.5000000       4.76485484E-26
  -13.4899998       5.86209256E-26
  -13.4799995       7.17731598E-26
  -13.4700003       8.74703147E-26
  -13.4600000       1.06126838E-25
  -13.4499998       1.28211800E-25
  -13.4399996       1.54253689E-25
  -13.4300003       1.84846405E-25
  -13.4200001       2.20654724E-25
  -13.4099998       2.62420620E-25
  -13.3999996       3.10969314E-25
  -13.3900003       3.67215244E-25
  -13.3800001       4.32169854E-25
  -13.3699999       5.06946472E-25
  -13.3599997       5.92768918E-25
  -13.3500004       6.90977072E-25
  -13.3400002       8.03033925E-25
  -13.3299999       9.30531942E-25
  -13.3199997       1.07520006E-24
  -13.3100004       1.23891039E-24
  -13.3000002       1.42368252E-24
  -13.2900000       1.63168966E-24
  -13.2799997       1.86526536E-24
  -13.2700005       2.12690547E-24
  -13.2600002       2.41927350E-24
  -13.2500000       2.74520163E-24
  -13.2399998       3.10769920E-24
  -13.2299995       3.50994312E-24
  -13.2200003       3.95528665E-24
  -13.2100000       4.44725423E-24
  -13.1999998       4.98953734E-24
  -13.1899996       5.58599901E-24
  -13.1800003       6.24065890E-24
  -13.1700001       6.95768140E-24
  -13.1599998       7.74138552E-24
  -13.1499996       8.59621650E-24
  -13.1400003       9.52673710E-24
  -13.1300001       1.05376126E-23
  -13.1199999       1.16335960E-23
  -13.1099997       1.28194962E-23
  -13.1000004       1.41001550E-23
  -13.0900002       1.54804723E-23
  -13.0799999       1.69652915E-23
  -13.0699997       1.85594248E-23
  -13.0600004       2.02676179E-23
  -13.0500002       2.20944888E-23
  -13.0400000       2.40445183E-23
  -13.0299997       2.61219803E-23
  -13.0200005       2.83309107E-23
  -13.0100002       3.06750456E-23
  -13.0000000       3.31578307E-23
  -12.9899998       3.57822763E-23
  -12.9799995       3.85509446E-23
  -12.9700003       4.14659213E-23
  -12.9600000       4.45287179E-23
  -12.9499998       4.77401770E-23
  -12.9399996       5.11004972E-23
  -12.9300003       5.46091423E-23
  -12.9200001       5.82646669E-23
  -12.9099998       6.20648560E-23
  -12.8999996       6.60063901E-23
  -12.8900003       7.00850092E-23
  -12.8800001       7.42953050E-23
  -12.8699999       7.86307646E-23
  -12.8599997       8.30834679E-23
  -12.8500004       8.76444408E-23
  -12.8400002       9.23031693E-23
  -12.8299999       9.70476502E-23
  -12.8199997       1.01864460E-22
  -12.8100004       1.06738649E-22
  -12.8000002       1.11653568E-22
  -12.7900000       1.16590991E-22
  -12.7799997       1.21530851E-22
  -12.7700005       1.26451424E-22
  -12.7600002       1.31329210E-22
  -12.7500000       1.36138712E-22
  -12.7399998       1.40852806E-22
  -12.7299995       1.45442474E-22
  -12.7200003       1.49876554E-22
  -12.7100000       1.54122443E-22
  -12.6999998       1.58145407E-22
  -12.6899996       1.61909094E-22
  -12.6800003       1.65375121E-22
  -12.6700001       1.68503441E-22
  -12.6599998       1.71252236E-22
  -12.6499996       1.73578253E-22
  -12.6400003       1.75436443E-22
  -12.6300001       1.76780472E-22
  -12.6199999       1.77562442E-22
  -12.6099997       1.77733076E-22
  -12.6000004       1.77242265E-22
  -12.5900002       1.76038779E-22
  -12.5799999       1.74070552E-22
  -12.5699997       1.71284308E-22
  -12.5600004       1.67626796E-22
  -12.5500002       1.63044523E-22
  -12.5400000       1.57483142E-22
  -12.5299997       1.50888846E-22
  -12.5200005       1.43207423E-22
  -12.5100002       1.34385863E-22
  -12.5000000       1.24371078E-22
  -12.4899998       1.13111029E-22
  -12.4799995       1.00555084E-22
  -12.4700003       8.66532907E-23
  -12.4600000       7.13574103E-23
  -12.4499998       5.46208995E-23
  -12.4399996       3.63993264E-23
  -12.4300003       1.66499917E-23
  -12.4200001      -4.66742768E-24
  -12.4099998      -2.75909087E-23
  -12.3999996      -5.21559111E-23
  -12.3900003      -7.83950278E-23
  -12.3800001      -1.06338425E-22
  -12.3699999      -1.36012974E-22
  -12.3599997      -1.67443187E-22
  -12.3500004      -2.00650457E-22
  -12.3400002      -2.35653528E-22
  -12.3299999      -2.72468391E-22
  -12.3199997      -3.11108490E-22
  -12.3100004      -3.51585208E-22
  -12.3000002      -3.93907962E-22
  -12.2900000      -4.38084374E-22
  -12.2799997      -4.84121186E-22
  -12.2700005      -5.32024405E-22
  -12.2600002      -5.81800038E-22
  -12.2500000      -6.33455256E-22
  -12.2399998      -6.86997632E-22
  -12.2299995      -7.42438877E-22
  -12.2200003      -7.99793735E-22
  -12.2100000      -8.59081087E-22
  -12.1999998      -9.20327188E-22
  -12.1899996      -9.83565812E-22
  -12.1800003      -1.04883927E-21
  -12.1700001      -1.11620208E-21
  -12.1599998      -1.18572120E-21
  -12.1499996      -1.25748053E-21
  -12.1400003      -1.33158004E-21
  -12.1300001      -1.40814060E-21
  -12.1199999      -1.48730780E-21
  -12.1099997      -1.56925129E-21
  -12.1000004      -1.65417210E-21
  -12.0900002      -1.74230268E-21
  -12.0799999      -1.83391415E-21
  -12.0699997      -1.92931659E-21
  -12.0600004      -2.02886684E-21
  -12.0500002      -2.13297084E-21
  -12.0400000      -2.24208941E-21
  -12.0299997      -2.35674137E-21
  -12.0200005      -2.47751216E-21
  -12.0100002      -2.60506175E-21
  -12.0000000      -2.74012080E-21
  -11.9899998      -2.88350739E-21
  -11.9799995      -3.03612766E-21
  -11.9700003      -3.19898652E-21
  -11.9600000      -3.37319245E-21
  -11.9499998      -3.55997048E-21
  -11.9399996      -3.76066276E-21
  -11.9300003      -3.97674027E-21
  -11.9200001      -4.20981658E-21
  -11.9099998      -4.46164865E-21
  -11.8999996      -4.73414650E-21
  -11.8900003      -5.02939868E-21
  -11.8800001      -5.34966136E-21
  -11.8699999      -5.69738459E-21
  -11.8599997      -6.07521630E-21
  -11.8500004      -6.48601002E-21
  -11.8400002      -6.93285436E-21
  -11.8299999      -7.41905481E-21
  -11.8199997      -7.94818221E-21
  -11.8100004      -8.52405259E-21
  -11.8000002      -9.15077438E-21
  -11.7900000      -9.83272098E-21
  -11.7799997      -1.05745784E-20
  -11.7700005      -1.13813404E-20
  -11.7600002      -1.22583425E-20
  -11.7500000      -1.32112610E-20
  -11.7399998      -1.42461246E-20
  -11.7299995      -1.53693357E-20
  -11.7200003      -1.65876709E-20
  -11.7100000      -1.79083536E-20
  -11.6999998      -1.93389884E-20
  -11.6899996      -2.08876563E-20
  -11.6800003      -2.25628295E-20
  -11.6700001      -2.43734874E-20
  -11.6599998      -2.63291040E-20
  -11.6499996      -2.84396230E-20
  -11.6400003      -3.07155232E-20
  -11.6300001      -3.31677938E-20
  -11.6199999      -3.58080122E-20
  -11.6099997      -3.86482628E-20
  -11.6000004      -4.17012314E-20
  -11.5900002      -4.49802012E-20
  -11.5799999      -4.84990824E-20
  -11.5699997      -5.22723379E-20
  -11.5600004      -5.63151540E-20
  -11.5500002      -6.06432861E-20
  -11.5400000      -6.52732228E-20
  -11.5299997      -7.02220764E-20
  -11.5200005      -7.55076313E-20
  -11.5100002      -8.11483762E-20
  -11.5000000      -8.71635948E-20
  -11.4899998      -9.35731589E-20
  -11.4799995      -1.00397767E-19
  -11.4700003      -1.07658733E-19
  -11.4600000      -1.15378189E-19
  -11.4499998      -1.23578987E-19
  -11.4399996      -1.32284598E-19
  -11.4300003      -1.41519526E-19
  -11.4200001      -1.51308782E-19
  -11.4099998      -1.61678461E-19
  -11.3999996      -1.72654695E-19
  -11.3900003      -1.84265041E-19
  -11.3800001      -1.96537622E-19
  -11.3699999      -2.09500977E-19
  -11.3599997      -2.23184858E-19
  -11.3500004      -2.37619392E-19
  -11.3400002      -2.52835431E-19
  -11.3299999      -2.68864615E-19
  -11.3199997      -2.85739177E-19
  -11.3100004      -3.03491895E-19
  -11.3000002      -3.22156527E-19
  -11.2900000      -3.41766937E-19
  -11.2799997      -3.62357712E-19
  -11.2700005      -3.83964497E-19
  -11.2600002      -4.06622447E-19
  -11.2500000      -4.30367752E-19
  -11.2399998      -4.55237403E-19
  -11.2299995      -4.81268725E-19
  -11.2200003      -5.08497908E-19
  -11.2100000      -5.36963364E-19
  -11.1999998      -5.66703144E-19
  -11.1899996      -5.97754625E-19
  -11.1800003      -6.30156117E-19
  -11.1700001      -6.63945773E-19
  -11.1599998      -6.99161178E-19
  -11.1499996      -7.35841727E-19
  -11.1400003      -7.74024797E-19
  -11.1300001      -8.13747561E-19
  -11.1199999      -8.55047914E-19
  -11.1099997      -8.97962458E-19
  -11.1000004      -9.42527020E-19
  -11.0900002      -9.88778720E-19
  -11.0799999      -1.03675158E-18
  -11.0699997      -1.08648188E-18
  -11.0600004      -1.13800117E-18
  -11.0500002      -1.19134222E-18
  -11.0400000      -1.24653730E-18
  -11.0299997      -1.30361514E-18
  -11.0200005      -1.36260439E-18
  -11.0100002      -1.42353348E-18
  -11.0000000      -1.48642681E-18
  -10.9899998      -1.55130755E-18
  -10.9799995      -1.61819896E-18
  -10.9700003      -1.68711789E-18
  -10.9600000      -1.75808368E-18
  -10.9499998      -1.83111194E-18
  -10.9399996      -1.90621311E-18
  -10.9300003      -1.98339568E-18
  -10.9200001      -2.06266688E-18
  -10.9099998      -2.14403085E-18
  -10.8999996      -2.22748551E-18
  -10.8900003      -2.31302860E-18
  -10.8800001      -2.40065288E-18
  -10.8699999      -2.49034821E-18
  -10.8599997      -2.58209743E-18
  -10.8500004      -2.67588048E-18
  -10.8400002      -2.77167606E-18
  -10.8299999      -2.86945170E-18
  -10.8199997      -2.96917660E-18
  -10.8100004      -3.07080731E-18
  -10.8000002      -3.17430250E-18
  -10.7900000      -3.27960735E-18
  -10.7799997      -3.38667161E-18
  -10.7700005      -3.49543242E-18
  -10.7600002      -3.60581098E-18
  -10.7500000      -3.71773927E-18
  -10.7399998      -3.83113416E-18
  -10.7299995      -3.94590629E-18
  -10.7200003      -4.06194939E-18
  -10.7100000      -4.17916420E-18
  -10.6999998      -4.29744027E-18
  -10.6899996      -4.41665519E-18
  -10.6800003      -4.53666876E-18
  -10.6700001      -4.65735234E-18
  -10.6599998      -4.77855416E-18
  -10.6499996      -4.90011083E-18
  -10.6400003      -5.02186189E-18
  -10.6300001      -5.14362867E-18
  -10.6199999      -5.26522091E-18
  -10.6099997      -5.38644381E-18
  -10.6000004      -5.50708314E-18
  -10.5900002      -5.62692217E-18
  -10.5799999      -5.74573137E-18
  -10.5699997      -5.86326629E-18
  -10.5600004      -5.97926389E-18
  -10.5500002      -6.09346486E-18
  -10.5400000      -6.20557927E-18
  -10.5299997      -6.31531511E-18
  -10.5200005      -6.42237751E-18
  -10.5100002      -6.52644221E-18
  -10.5000000      -6.62717833E-18
  -10.4899998      -6.72423681E-18
  -10.4799995      -6.81726030E-18
  -10.4700003      -6.90586955E-18
  -10.4600000      -6.98968031E-18
  -10.4499998      -7.06828894E-18
  -10.4399996      -7.14127605E-18
  -10.4300003      -7.20820571E-18
  -10.4200001      -7.26863291E-18
  -10.4099998      -7.32208946E-18
  -10.3999996      -7.36810055E-18
  -10.3900003      -7.40617154E-18
  -10.3800001      -7.43578626E-18
  -10.3699999      -7.45641697E-18
  -10.3599997      -7.46753180E-18
  -10.3500004      -7.46856164E-18
  -10.3400002      -7.45895311E-18
  -10.3299999      -7.43808748E-18
  -10.3199997      -7.40535511E-18
  -10.3100004      -7.36015631E-18
  -10.3000002      -7.30184173E-18
  -10.2900000      -7.22975211E-18
  -10.2799997      -7.14321661E-18
  -10.2700005      -7.04155115E-18
  -10.2600002      -6.92404767E-18
  -10.2500000      -6.78999064E-18
  -10.2399998      -6.63864802E-18
  -10.2299995      -6.46926666E-18
  -10.2200003      -6.28108638E-18
  -10.2100000      -6.07331598E-18
  -10.1999998      -5.84515765E-18
  -10.1899996      -5.59581853E-18
  -10.1800003      -5.32447806E-18
  -10.1700001      -5.03029003E-18
  -10.1599998      -4.71240411E-18
  -10.1499996      -4.36996788E-18
  -10.1400003      -4.00208468E-18
  -10.1300001      -3.60789424E-18
  -10.1199999      -3.18649101E-18
  -10.1099997      -2.73697004E-18
  -10.1000004      -2.25840325E-18
  -10.0900002      -1.74988239E-18
  -10.0799999      -1.21046943E-18
  -10.0699997      -6.39214623E-19
  -10.0600004      -3.51786150E-20
  -10.0500002       6.02590840E-19
  -10.0400000       1.27505652E-18
  -10.0299997       1.98317917E-18
  -10.0200005       2.72791820E-18
  -10.0100002       3.51024019E-18
  -10.0000000       4.33111231E-18
  -9.98999977       5.19149843E-18
  -9.97999954       6.09235727E-18
  -9.97000027       7.03465412E-18
  -9.96000004       8.01933985E-18
  -9.94999981       9.04736322E-18
  -9.93999958       1.01196656E-17
  -9.93000031       1.12371733E-17
  -9.92000008       1.24008105E-17
  -9.90999985       1.36114836E-17
  -9.89999962       1.48700836E-17
  -9.89000034       1.61774823E-17
  -9.88000011       1.75345482E-17
  -9.86999989       1.89421134E-17
  -9.85999966       2.04009920E-17
  -9.85000038       2.19119830E-17
  -9.84000015       2.34758457E-17
  -9.82999992       2.50933130E-17
  -9.81999969       2.67650980E-17
  -9.81000042       2.84918722E-17
  -9.80000019       3.02742843E-17
  -9.78999996       3.21129249E-17
  -9.77999973       3.40083431E-17
  -9.77000046       3.59610783E-17
  -9.76000023       3.79715970E-17
  -9.75000000       4.00403426E-17
  -9.73999977       4.21676692E-17
  -9.72999954       4.43538810E-17
  -9.72000027       4.65992463E-17
  -9.71000004       4.89039865E-17
  -9.69999981       5.12682408E-17
  -9.68999958       5.36920653E-17
  -9.68000031       5.61754964E-17
  -9.67000008       5.87184216E-17
  -9.65999985       6.13207186E-17
  -9.64999962       6.39822020E-17
  -9.64000034       6.67025873E-17
  -9.63000011       6.94814244E-17
  -9.61999989       7.23182569E-17
  -9.60999966       7.52125354E-17
  -9.60000038       7.81635717E-17
  -9.59000015       8.11706644E-17
  -9.57999992       8.42329003E-17
  -9.56999969       8.73493330E-17
  -9.56000042       9.05188972E-17
  -9.55000019       9.37404282E-17
  -9.53999996       9.70125694E-17
  -9.52999973       1.00333878E-16
  -9.52000046       1.03702846E-16
  -9.51000023       1.07117871E-16
  -9.50000000       1.10576935E-16
  -9.48999977       1.14078384E-16
  -9.47999954       1.17619802E-16
  -9.47000027       1.21199231E-16
  -9.46000004       1.24814156E-16
  -9.44999981       1.28462076E-16
  -9.43999958       1.32140475E-16
  -9.43000031       1.35846297E-16
  -9.42000008       1.39576710E-16
  -9.40999985       1.43328457E-16
  -9.39999962       1.47098283E-16
  -9.39000034       1.50882786E-16
  -9.38000011       1.54678103E-16
  -9.36999989       1.58480367E-16
  -9.35999966       1.62285597E-16
  -9.35000038       1.66089754E-16
  -9.34000015       1.69888379E-16
  -9.32999992       1.73676668E-16
  -9.31999969       1.77450120E-16
  -9.31000042       1.81203548E-16
  -9.30000019       1.84931764E-16
  -9.28999996       1.88629565E-16
  -9.27999973       1.92291051E-16
  -9.27000046       1.95910952E-16
  -9.26000023       1.99482969E-16
  -9.25000000       2.03000710E-16
  -9.23999977       2.06458034E-16
  -9.22999954       2.09848230E-16
  -9.22000027       2.13164391E-16
  -9.21000004       2.16399408E-16
  -9.19999981       2.19546017E-16
  -9.18999958       2.22596765E-16
  -9.18000031       2.25543830E-16
  -9.17000008       2.28379432E-16
  -9.15999985       2.31095099E-16
  -9.14999962       2.33682970E-16
  -9.14000034       2.36134045E-16
  -9.13000011       2.38439457E-16
  -9.11999989       2.40590285E-16
  -9.10999966       2.42577028E-16
  -9.10000038       2.44390790E-16
  -9.09000015       2.46021170E-16
  -9.07999992       2.47458531E-16
  -9.06999969       2.48692817E-16
  -9.06000042       2.49713571E-16
  -9.05000019       2.50509994E-16
  -9.03999996       2.51072001E-16
  -9.02999973       2.51387997E-16
  -9.02000046       2.51447157E-16
  -9.01000023       2.51238257E-16
  -9.00000000       2.50749413E-16
  -8.98999977       2.49969005E-16
  -8.97999954       2.48885226E-16
  -8.97000027       2.47486060E-16
  -8.96000004       2.45759066E-16
  -8.94999981       2.43691935E-16
  -8.93999958       2.41272120E-16
  -8.93000031       2.38486811E-16
  -8.92000008       2.35323673E-16
  -8.90999985       2.31769231E-16
  -8.89999962       2.27810358E-16
  -8.89000034       2.23434136E-16
  -8.88000011       2.18627356E-16
  -8.86999989       2.13376215E-16
  -8.85999966       2.07667743E-16
  -8.85000038       2.01487936E-16
  -8.84000015       1.94823626E-16
  -8.82999992       1.87660666E-16
  -8.81999969       1.79985581E-16
  -8.81000042       1.71784886E-16
  -8.80000019       1.63044896E-16
  -8.78999996       1.53751899E-16
  -8.77999973       1.43891985E-16
  -8.77000046       1.33451669E-16
  -8.76000023       1.22417596E-16
  -8.75000000       1.10776008E-16
  -8.73999977       9.85134192E-17
  -8.72999954       8.56168131E-17
  -8.72000027       7.20725446E-17
  -8.71000004       5.78679344E-17
  -8.69999981       4.29902440E-17
  -8.68999958       2.74263313E-17
  -8.68000031       1.11641002E-17
  -8.67000008      -5.80864424E-18
  -8.65999985      -2.35041733E-17
  -8.64999962      -4.19344274E-17
  -8.64000034      -6.11106478E-17
  -8.63000011      -8.10438146E-17
  -8.61999989      -1.01745115E-16
  -8.60999966      -1.23225016E-16
  -8.60000038      -1.45493433E-16
  -8.59000015      -1.68560218E-16
  -8.57999992      -1.92434424E-16
  -8.56999969      -2.17125117E-16
  -8.56000042      -2.42640449E-16
  -8.55000019      -2.68988256E-16
  -8.53999996      -2.96175737E-16
  -8.52999973      -3.24209616E-16
  -8.52000046      -3.53096113E-16
  -8.51000023      -3.82840628E-16
  -8.50000000      -4.13447952E-16
  -8.48999977      -4.44922267E-16
  -8.47999954      -4.77266961E-16
  -8.47000027      -5.10484787E-16
  -8.46000004      -5.44577758E-16
  -8.44999981      -5.79547036E-16
  -8.43999958      -6.15392412E-16
  -8.43000031      -6.52114255E-16
  -8.42000008      -6.89710342E-16
  -8.40999985      -7.28178290E-16
  -8.39999962      -7.67514924E-16
  -8.39000034      -8.07716219E-16
  -8.38000011      -8.48775876E-16
  -8.36999989      -8.90689131E-16
  -8.35999966      -9.33447143E-16
  -8.35000038      -9.77041599E-16
  -8.34000015      -1.02146276E-15
  -8.32999992      -1.06669993E-15
  -8.31999969      -1.11274083E-15
  -8.31000042      -1.15957212E-15
  -8.30000019      -1.20717855E-15
  -8.28999996      -1.25554423E-15
  -8.27999973      -1.30465245E-15
  -8.27000046      -1.35448403E-15
  -8.26000023      -1.40501982E-15
  -8.25000000      -1.45623747E-15
  -8.23999977      -1.50811230E-15
  -8.22999954      -1.56062252E-15
  -8.22000027      -1.61374155E-15
  -8.21000004      -1.66743931E-15
  -8.19999981      -1.72168997E-15
  -8.18999958      -1.77645997E-15
  -8.18000031      -1.83171764E-15
  -8.17000008      -1.88742848E-15
  -8.15999985      -1.94355860E-15
  -8.14999962      -2.00007031E-15
  -8.14000034      -2.05692210E-15
  -8.13000011      -2.11407459E-15
  -8.11999989      -2.17148479E-15
  -8.10999966      -2.22910696E-15
  -8.10000038      -2.28689367E-15
  -8.09000015      -2.34480023E-15
  -8.07999992      -2.40277370E-15
  -8.06999969      -2.46076433E-15
  -8.06000042      -2.51871409E-15
  -8.05000019      -2.57657025E-15
  -8.03999996      -2.63427247E-15
  -8.02999973      -2.69176313E-15
  -8.02000046      -2.74898127E-15
  -8.01000023      -2.80586271E-15
  -8.00000000      -2.86234180E-15
  -7.98999977      -2.91834762E-15
  -7.98000002      -2.97381325E-15
  -7.96999979      -3.02866371E-15
  -7.96000004      -3.08282766E-15
  -7.94999981      -3.13623372E-15
  -7.94000006      -3.18879656E-15
  -7.92999983      -3.24044037E-15
  -7.92000008      -3.29108193E-15
  -7.90999985      -3.34064162E-15
  -7.90000010      -3.38903028E-15
  -7.88999987      -3.43616110E-15
  -7.88000011      -3.48194471E-15
  -7.86999989      -3.52628752E-15
  -7.86000013      -3.56909868E-15
  -7.84999990      -3.61028270E-15
  -7.84000015      -3.64974215E-15
  -7.82999992      -3.68737667E-15
  -7.82000017      -3.72308716E-15
  -7.80999994      -3.75677323E-15
  -7.80000019      -3.78832521E-15
  -7.78999996      -3.81764399E-15
  -7.78000021      -3.84462198E-15
  -7.76999998      -3.86914317E-15
  -7.76000023      -3.89109995E-15
  -7.75000000      -3.91038181E-15
  -7.73999977      -3.92687481E-15
  -7.73000002      -3.94046292E-15
  -7.71999979      -3.95102965E-15
  -7.71000004      -3.95845559E-15
  -7.69999981      -3.96262850E-15
  -7.69000006      -3.96341920E-15
  -7.67999983      -3.96071632E-15
  -7.67000008      -3.95439237E-15
  -7.65999985      -3.94431819E-15
  -7.65000010      -3.93037814E-15
  -7.63999987      -3.91244984E-15
  -7.63000011      -3.89039903E-15
  -7.61999989      -3.86410332E-15
  -7.61000013      -3.83343607E-15
  -7.59999990      -3.79826980E-15
  -7.59000015      -3.75848212E-15
  -7.57999992      -3.71393751E-15
  -7.57000017      -3.66451313E-15
  -7.55999994      -3.61008026E-15
  -7.55000019      -3.55051563E-15
  -7.53999996      -3.48568923E-15
  -7.53000021      -3.41547317E-15
  -7.51999998      -3.33973741E-15
  -7.51000023      -3.25836126E-15
  -7.50000000      -3.17122042E-15
  -7.48999977      -3.07818803E-15
  -7.48000002      -2.97914214E-15
  -7.46999979      -2.87395865E-15
  -7.46000004      -2.76252490E-15
  -7.44999981      -2.64470685E-15
  -7.44000006      -2.52039863E-15