  -16.0000000       0.00000000    
  -15.9899998       0.00000000    
  -15.9799995       0.00000000    
  -15.9700003       0.00000000    
  -15.9600000       0.00000000    
  -15.9499998       0.00000000    
  -15.9399996       0.00000000    
  -15.9300003       0.00000000    
  -15.9200001       0.00000000    
  -15.9099998       0.00000000    
  -15.8999996       0.00000000    
  -15.8900003       0.00000000    
  -15.8800001       0.00000000    
  -15.8699999       0.00000000    
  -15.8599997       0.00000000    
  -15.8500004       0.00000000    
  -15.8400002       0.00000000    
  -15.8299999       0.00000000    
  -15.8199997       0.00000000    
  -15.8100004       0.00000000    
  -15.8000002       0.00000000    
  -15.7900000       0.00000000    
  -15.7799997       0.00000000    
  -15.7700005       0.00000000    
  -15.7600002      -0.00000000    
  -15.7500000      -0.00000000    
  -15.7399998      -0.00000000    
  -15.7299995      -0.00000000    
  -15.7200003      -0.00000000    
  -15.7100000       0.00000000    
  -15.6999998       1.40129846E-45
  -15.6899996      -1.40129846E-45
  -15.6800003      -1.12103877E-44
  -15.6700001      -1.68155816E-44
  -15.6599998      -3.22298647E-44
  -15.6499996      -6.30584309E-44
  -15.6400003      -1.06498683E-43
  -15.6300001      -1.62550622E-43
  -15.6199999      -2.41023336E-43
  -15.6099997      -3.48923318E-43
  -15.6000004      -4.86250567E-43
  -15.5900002      -6.65616771E-43
  -15.5799999      -9.03837509E-43
  -15.5699997      -1.23874784E-42
  -15.5600004      -1.74321529E-42
  -15.5500002      -2.52654113E-42
  -15.5400000      -3.73446041E-42
  -15.5299997      -5.53653023E-42
  -15.5200005      -8.09670253E-42
  -15.5100002      -1.15326864E-41
  -15.5000000      -1.58739090E-41
  -15.4899998      -2.10713250E-41
  -15.4799995      -2.70744876E-41
  -15.4700003      -3.39814878E-41
  -15.4600000      -4.23808708E-41
  -15.4499998      -5.36332974E-41
  -15.4399996      -7.01742245E-41
  -15.4300003      -9.55671540E-41
  -15.4200001      -1.33964133E-40
  -15.4099998      -1.88993124E-40
  -15.3999996      -2.61939117E-40
  -15.3900003      -3.49807537E-40
  -15.3800001      -4.43865492E-40
  -15.3699999      -5.29829548E-40
  -15.3599997      -5.91144764E-40
  -15.3500004      -6.15642263E-40
  -15.3400002      -6.05440811E-40
  -15.3299999      -5.87973625E-40
  -15.3199997      -6.24167763E-40
  -15.3100004      -8.08599661E-40
  -15.3000002      -1.25650089E-39
  -15.2900000      -2.07527818E-39
  -15.2799997      -3.32283599E-39
  -15.2700005      -4.96224869E-39
  -15.2600002      -6.82916781E-39
  -15.2500000      -8.63250861E-39
  -15.2399998      -1.00070493E-38
  -15.2299995      -1.06256259E-38
  -15.2200003      -1.03596132E-38
  -15.2100000      -9.45057545E-39
  -15.1999998      -8.63222555E-39
  -15.1899996      -9.12958001E-39
  -15.1800003      -1.24717960E-38
  -15.1700001      -2.00939165E-38
  -15.1599998      -3.27704968E-38
  -15.1499996      -5.00080935E-38
  -15.1400003      -6.96010262E-38
  -15.1300001      -8.75939058E-38
  -15.1199999      -9.88629407E-38
  -15.1099997      -9.84064985E-38
  -15.1000004      -8.32261930E-38
  -15.0900002      -5.44192521E-38
  -15.0799999      -1.88571557E-38
  -15.0699997       1.03113791E-38
  -15.0600004       1.50368069E-38
  -15.0500002      -2.39906809E-38
  -15.0400000      -1.21628413E-37
  -15.0299997      -2.81439496E-37
  -15.0200005      -4.89419071E-37
  -15.0100002      -7.10507513E-37
  -15.0000000      -8.90143259E-37
  -14.9899998      -9.62473936E-37
  -14.9799995      -8.65475383E-37
  -14.9700003      -5.61278329E-37
  -14.9600000      -5.78250127E-38
  -14.9499998       5.73866967E-37
  -14.9399996       1.19344030E-36
  -14.9300003       1.60189642E-36
  -14.9200001       1.57270565E-36
  -14.9099998       9.02491545E-37
  -14.8999996      -5.25041334E-37
  -14.8900003      -2.67392804E-36
  -14.8800001      -5.30585929E-36
  -14.8699999      -7.96316493E-36
  -14.8599997      -1.00004701E-35
  -14.8500004      -1.06737735E-35
  -14.8400002      -9.28456220E-36
  -14.8299999      -5.36292823E-36
  -14.8199997       1.14033319E-36
  -14.8100004       9.69370943E-36
  -14.8000002       1.91028450E-35
  -14.7900000       2.75482209E-35
  -14.7799997       3.27703976E-35
  -14.7700005       3.24069845E-35
  -14.7600002       2.44549489E-35
  -14.7500000       7.79911660E-36
  -14.7399998      -1.72808661E-35
  -14.7299995      -4.87312318E-35
  -14.7200003      -8.25808831E-35
  -14.7100000      -1.13124192E-34
  -14.6999998      -1.33481780E-34
  -14.6899996      -1.36533347E-34
  -14.6800003      -1.16149414E-34
  -14.6700001      -6.85782716E-35
  -14.6599998       6.21538477E-36
  -14.6499996       1.03502852E-34
  -14.6400003       2.13282774E-34
  -14.6300001       3.20527096E-34
  -14.6199999       4.06322571E-34
  -14.6099997       4.49937039E-34
  -14.6000004       4.31700025E-34
  -14.5900002       3.36435116E-34
  -14.5799999       1.57041672E-34
  -14.5699997      -1.02291105E-34
  -14.5600004      -4.23807728E-34
  -14.5500002      -7.75404655E-34
  -14.5400000      -1.11180111E-33
  -14.5299997      -1.37793138E-33
  -14.5200005      -1.51456854E-33
  -14.5100002      -1.46587479E-33
  -14.5000000      -1.18823901E-33
  -14.4899998      -6.59448106E-34
  -14.4799995       1.12993752E-34
  -14.4700003       1.08571367E-33
  -14.4600000       2.17677897E-33
  -14.4499998       3.26755691E-33
  -14.4399996       4.20984126E-33
  -14.4300003       4.83845340E-33
  -14.4200001       4.98887994E-33
  -14.4099998       4.51883208E-33
  -14.3999996       3.33195527E-33
  -14.3900003       1.40135071E-33
  -14.3800001      -1.20983008E-33
  -14.3699999      -4.33362964E-33
  -14.3599997      -7.69121913E-33
  -14.3500004      -1.08980397E-32
  -14.3400002      -1.34820871E-32
  -14.3299999      -1.49164899E-32
  -14.3199997      -1.46665416E-32
  -14.3100004      -1.22502865E-32
  -14.3000002      -7.31058010E-33
  -14.2900000       3.04689536E-34
  -14.2799997       1.04586678E-32
  -14.2700005       2.26435315E-32
  -14.2600002       3.59070501E-32
  -14.2500000       4.87950409E-32
  -14.2399998       5.93177136E-32
  -14.2299995       6.49473559E-32
  -14.2200003       6.26536843E-32
  -14.2100000       4.89811451E-32
  -14.1999998       2.01673071E-32
  -14.1899996      -2.77039304E-32
  -14.1800003      -9.85298953E-32
  -14.1700001      -1.96024227E-31
  -14.1599998      -3.23598878E-31
  -14.1499996      -4.84344251E-31
  -14.1400003      -6.81173633E-31
  -14.1300001      -9.17197899E-31
  -14.1199999      -1.19639605E-30
  -14.1099997      -1.52461646E-30
  -14.1000004      -1.91088982E-30
  -14.0900002      -2.36893220E-30
  -14.0799999      -2.91856966E-30
  -14.0699997      -3.58655476E-30
  -14.0600004      -4.40590592E-30
  -14.0500002      -5.41243528E-30
  -14.0400000      -6.63645291E-30
  -14.0299997      -8.08684291E-30
  -14.0200005      -9.72350270E-30
  -14.0100002      -1.14129224E-29
  -14.0000000      -1.28598164E-29
  -13.9899998      -1.35057417E-29
  -13.9799995      -1.23830404E-29
  -13.9700003      -7.90956708E-30
  -13.9600000       2.39392716E-30
  -13.9499998       2.22861015E-29
  -13.9399996       5.73135747E-29
  -13.9300003       1.15478591E-28
  -13.9200001       2.08103086E-28
  -13.9099998       3.50935588E-28
  -13.8999996       5.65551302E-28
  -13.8900003       8.81108809E-28
  -13.8800001       1.33653019E-27
  -13.8699999       1.98318784E-27
  -13.8599997       2.88817963E-27
  -13.8500004       4.13830692E-27
  -13.8400002       5.84485457E-27
  -13.8299999       8.14928752E-27
  -13.8199997       1.12300551E-26
  -13.8100004       1.53105668E-26
  -13.8000002       2.06685794E-26
  -13.7900000       2.76471219E-26
  -13.7799997       3.66671947E-26
  -13.7700005       4.82423757E-26
  -13.7600002       6.29956524E-26
  -13.7500000       8.16784609E-26
  -13.7399998       1.05192728E-25
  -13.7299995       1.34615292E-25
  -13.7200003       1.71225760E-25
  -13.7100000       2.16537783E-25
  -13.6999998       2.72333964E-25
  -13.6899996       3.40704070E-25
  -13.6800003       4.24088517E-25
  -13.6700001       5.25325699E-25
  -13.6599998       6.47703269E-25
  -13.6499996       7.95016683E-25
  -13.6400003       9.71629130E-25
  -13.6300001       1.18254105E-24
  -13.6199999       1.43346292E-24
  -13.6099997       1.73089296E-24
  -13.6000004       2.08220309E-24
  -13.5900002       2.49572970E-24
  -13.5799999       2.98086791E-24
  -13.5699997       3.54817881E-24
  -13.5600004       4.20949590E-24
  -13.5500002       4.97803851E-24
  -13.5400000       5.86853033E-24
  -13.5299997       6.89733433E-24
  -13.5200005       8.08257338E-24
  -13.5100002       9.44426879E-24
  -13.5000000       1.10044874E-23
  -13.4899998       1.27874755E-23
  -13.4799995       1.48198108E-23
  -13.4700003       1.71305453E-23
  -13.4600000       1.97513668E-23
  -13.4499998       2.27167407E-23
  -13.4399996       2.60640605E-23
  -13.4300003       2.98337980E-23
  -13.4200001       3.40696498E-23
  -13.4099998       3.88186682E-23
  -13.3999996       4.41314097E-23
  -13.3900003       5.00620376E-23
  -13.3800001       5.66684605E-23
  -13.3699999       6.40124526E-23
  -13.3599997       7.21596755E-23
  -13.3500004       8.11798140E-23
  -13.3400002       9.11466109E-23
  -13.3299999       1.02137942E-22
  -13.3199997       1.14235730E-22
  -13.3100004       1.27526030E-22
  -13.3000002       1.42098966E-22
  -13.2900000       1.58048661E-22
  -13.2799997       1.75473033E-22
  -13.2700005       1.94473865E-22
  -13.2600002       2.15156372E-22
  -13.2500000       2.37629290E-22
  -13.2399998       2.62004284E-22
  -13.2299995       2.88395859E-22
  -13.2200003       3.16920943E-22
  -13.2100000       3.47698484E-22
  -13.1999998       3.80848944E-22
  -13.1899996       4.16493819E-22
  -13.1800003       4.54755113E-22
  -13.1700001       4.95754575E-22
  -13.1599998       5.39613120E-22
  -13.1499996       5.86450052E-22
  -13.1400003       6.36382145E-22
  -13.1300001       6.89523148E-22
  -13.1199999       7.45982112E-22
  -13.1099997       8.05862890E-22
  -13.1000004       8.69263123E-22
  -13.0900002       9.36272831E-22
  -13.0799999       1.00697335E-21
  -13.0699997       1.08143616E-21
  -13.0600004       1.15972125E-21
  -13.0500002       1.24187588E-21
  -13.0400000       1.32793306E-21
  -13.0299997       1.41791066E-21
  -13.0200005       1.51180909E-21
  -13.0100002       1.60961067E-21
  -13.0000000       1.71127614E-21
  -12.9899998       1.81674510E-21
  -12.9799995       1.92593375E-21
  -12.9700003       2.03873303E-21
  -12.9600000       2.15500603E-21
  -12.9499998       2.27458735E-21
  -12.9399996       2.39728291E-21
  -12.9300003       2.52286452E-21
  -12.9200001       2.65107125E-21
  -12.9099998       2.78160625E-21
  -12.8999996       2.91413751E-21
  -12.8900003       3.04829304E-21
  -12.8800001       3.18366126E-21
  -12.8699999       3.31979084E-21
  -12.8599997       3.45618638E-21
  -12.8500004       3.59230969E-21
  -12.8400002       3.72757836E-21
  -12.8299999       3.86136432E-21
  -12.8199997       3.99299348E-21
  -12.8100004       4.12174204E-21
  -12.8000002       4.24684301E-21
  -12.7900000       4.36747930E-21
  -12.7799997       4.48278658E-21
  -12.7700005       4.59185326E-21
  -12.7600002       4.69372006E-21
  -12.7500000       4.78737888E-21
  -12.7399998       4.87177836E-21
  -12.7299995       4.94582072E-21
  -12.7200003       5.00836293E-21
  -12.7100000       5.05822075E-21
  -12.6999998       5.09416959E-21
  -12.6899996       5.11494281E-21
  -12.6800003       5.11923946E-21
  -12.6700001       5.10572225E-21
  -12.6599998       5.07302276E-21
  -12.6499996       5.01974191E-21
  -12.6400003       4.94445555E-21
  -12.6300001       4.84571571E-21
  -12.6199999       4.72205463E-21
  -12.6099997       4.57198840E-21
  -12.6000004       4.39401896E-21
  -12.5900002       4.18664138E-21
  -12.5799999       3.94834269E-21
  -12.5699997       3.67761108E-21
  -12.5600004       3.37293517E-21
  -12.5500002       3.03280945E-21
  -12.5400000       2.65573929E-21
  -12.5299997       2.24024178E-21
  -12.5200005       1.78485058E-21
  -12.5100002       1.28811812E-21
  -12.5000000       7.48618296E-22
  -12.4899998       1.64947824E-22
  -12.4799995      -4.64270618E-22
  -12.4700003      -1.14038914E-21
  -12.4600000      -1.86473369E-21
  -12.4499998      -2.63860538E-21
  -12.4399996      -3.46328163E-21
  -12.4300003      -4.34001917E-21
  -12.4200001      -5.27005896E-21
  -12.4099998      -6.25462684E-21
  -12.3999996      -7.29495025E-21
  -12.3900003      -8.39225219E-21
  -12.3800001      -9.54777584E-21
  -12.3699999      -1.07627878E-20
  -12.3599997      -1.20385952E-20
  -12.3500004      -1.33765598E-20
  -12.3400002      -1.47781196E-20
  -12.3299999      -1.62448126E-20
  -12.3199997      -1.77782924E-20
  -12.3100004      -1.93803684E-20
  -12.3000002      -2.10530164E-20
  -12.2900000      -2.27984435E-20
  -12.2799997      -2.46190971E-20
  -12.2700005      -2.65177221E-20
  -12.2600002      -2.84973996E-20
  -12.2500000      -3.05616094E-20
  -12.2399998      -3.27142597E-20
  -12.2299995      -3.49597837E-20
  -12.2200003      -3.73031734E-20
  -12.2100000      -3.97500512E-20
  -12.1999998      -4.23067825E-20
  -12.1899996      -4.49804984E-20
  -12.1800003      -4.77792479E-20
  -12.1700001      -5.07120523E-20
  -12.1599998      -5.37890123E-20
  -12.1499996      -5.70214176E-20
  -12.1400003      -6.04218667E-20
  -12.1300001      -6.40043859E-20
  -12.1199999      -6.77845755E-20
  -12.1099997      -7.17797286E-20
  -12.1000004      -7.60089803E-20
  -12.0900002      -8.04934689E-20
  -12.0799999      -8.52564976E-20
  -12.0699997      -9.03237350E-20
  -12.0600004      -9.57233374E-20
  -12.0500002      -1.01486175E-19
  -12.0400000      -1.07646086E-19
  -12.0299997      -1.14239937E-19
  -12.0200005      -1.21308053E-19
  -12.0100002      -1.28894256E-19
  -12.0000000      -1.37046211E-19
  -11.9899998      -1.45815657E-19
  -11.9799995      -1.55258660E-19
  -11.9700003      -1.65435929E-19
  -11.9600000      -1.76412990E-19
  -11.9499998      -1.88260569E-19
  -11.9399996      -2.01054933E-19
  -11.9300003      -2.14878091E-19
  -11.9200001      -2.29818200E-19
  -11.9099998      -2.45969910E-19
  -11.8999996      -2.63434588E-19
  -11.8900003      -2.82320801E-19
  -11.8800001      -3.02744692E-19
  -11.8699999      -3.24830259E-19
  -11.8599997      -3.48709904E-19
  -11.8500004      -3.74524556E-19
  -11.8400002      -4.02424350E-19
  -11.8299999      -4.32568880E-19
  -11.8199997      -4.65127691E-19
  -11.8100004      -5.00280644E-19
  -11.8000002      -5.38218456E-19
  -11.7900000      -5.79143165E-19
  -11.7799997      -6.23268236E-19
  -11.7700005      -6.70819747E-19
  -11.7600002      -7.22035669E-19
  -11.7500000      -7.77167929E-19
  -11.7399998      -8.36481225E-19
  -11.7299995      -9.00254782E-19
  -11.7200003      -9.68782146E-19
  -11.7100000      -1.04237155E-18
  -11.6999998      -1.12134734E-18
  -11.6899996      -1.20604950E-18
  -11.6800003      -1.29683402E-18
  -11.6700001      -1.39407437E-18
  -11.6599998      -1.49816078E-18
  -11.6499996      -1.60950167E-18
  -11.6400003      -1.72852376E-18
  -11.6300001      -1.85567176E-18
  -11.6199999      -1.99141044E-18
  -11.6099997      -2.13622412E-18
  -11.6000004      -2.29061573E-18
  -11.5900002      -2.45510969E-18
  -11.5799999      -2.63025154E-18
  -11.5699997      -2.81660623E-18
  -11.5600004      -3.01476211E-18
  -11.5500002      -3.22532755E-18
  -11.5400000      -3.44893453E-18
  -11.5299997      -3.68623569E-18
  -11.5200005      -3.93790704E-18
  -11.5100002      -4.20464673E-18
  -11.5000000      -4.48717648E-18
  -11.4899998      -4.78624115E-18
  -11.4799995      -5.10260878E-18
  -11.4700003      -5.43706809E-18
  -11.4600000      -5.79043510E-18
  -11.4499998      -6.16354567E-18
  -11.4399996      -6.55725965E-18
  -11.4300003      -6.97246007E-18
  -11.4200001      -7.41005267E-18
  -11.4099998      -7.87096598E-18
  -11.3999996      -8.35614960E-18
  -11.3900003      -8.86657546E-18
  -11.3800001      -9.40323452E-18
  -11.3699999      -9.96714257E-18
  -11.3599997      -1.05593336E-17
  -11.3500004      -1.11808589E-17
  -11.3400002      -1.18327938E-17
  -11.3299999      -1.25162245E-17
  -11.3199997      -1.32322585E-17
  -11.3100004      -1.39820258E-17
  -11.3000002      -1.47666513E-17
  -11.2900000      -1.55872972E-17
  -11.2799997      -1.64451232E-17
  -11.2700005      -1.73413039E-17
  -11.2600002      -1.82770205E-17
  -11.2500000      -1.92534692E-17
  -11.2399998      -2.02718443E-17
  -11.2299995      -2.13333486E-17
  -11.2200003      -2.24391832E-17
  -11.2100000      -2.35905508E-17
  -11.1999998      -2.47886525E-17
  -11.1899996      -2.60346892E-17
  -11.1800003      -2.73298473E-17
  -11.1700001      -2.86753045E-17
  -11.1599998      -3.00722273E-17
  -11.1499996      -3.15217653E-17
  -11.1400003      -3.30250503E-17
  -11.1300001      -3.45831939E-17
  -11.1199999      -3.61972747E-17
  -11.1099997      -3.78683483E-17
  -11.1000004      -3.95974304E-17
  -11.0900002      -4.13855103E-17
  -11.0799999      -4.32335377E-17
  -11.0699997      -4.51423992E-17
  -11.0600004      -4.71129519E-17
  -11.0500002      -4.91459699E-17
  -11.0400000      -5.12421978E-17
  -11.0299997      -5.34023105E-17
  -11.0200005      -5.56268903E-17
  -11.0100002      -5.79164800E-17
  -11.0000000      -6.02715029E-17
  -10.9899998      -6.26923296E-17
  -10.9799995      -6.51792184E-17
  -10.9700003      -6.77323345E-17
  -10.9600000      -7.03517243E-17
  -10.9499998      -7.30373614E-17
  -10.9399996      -7.57890737E-17
  -10.9300003      -7.86065633E-17
  -10.9200001      -8.14893804E-17
  -10.9099998      -8.44369823E-17
  -10.8999996      -8.74486476E-17
  -10.8900003      -9.05235162E-17
  -10.8800001      -9.36605292E-17
  -10.8699999      -9.68585153E-17
  -10.8599997      -1.00116078E-16
  -10.8500004      -1.03431670E-16
  -10.8400002      -1.06803476E-16
  -10.8299999      -1.10229559E-16
  -10.8199997      -1.13707728E-16
  -10.8100004      -1.17235594E-16
  -10.8000002      -1.20810483E-16
  -10.7900000      -1.24429537E-16
  -10.7799997      -1.28089606E-16
  -10.7700005      -1.31787328E-16
  -10.7600002      -1.35519011E-16
  -10.7500000      -1.39280711E-16
  -10.7399998      -1.43068206E-16
  -10.7299995      -1.46876942E-16
  -10.7200003      -1.50702077E-16
  -10.7100000      -1.54538475E-16
  -10.6999998      -1.58380590E-16
  -10.6899996      -1.62222612E-16
  -10.6800003      -1.66058334E-16
  -10.6700001      -1.69881206E-16
  -10.6599998      -1.73684304E-16
  -10.6499996      -1.77460285E-16
  -10.6400003      -1.81201523E-16
  -10.6300001      -1.84899815E-16
  -10.6199999      -1.88546689E-16
  -10.6099997      -1.92133172E-16
  -10.6000004      -1.95649920E-16
  -10.5900002      -1.99087061E-16
  -10.5799999      -2.02434350E-16
  -10.5699997      -2.05681000E-16
  -10.5600004      -2.08815843E-16
  -10.5500002      -2.11827138E-16
  -10.5400000      -2.14702735E-16
  -10.5299997      -2.17429890E-16
  -10.5200005      -2.19995420E-16
  -10.5100002      -2.22385589E-16
  -10.5000000      -2.24586180E-16
  -10.4899998      -2.26582425E-16
  -10.4799995      -2.28358997E-16
  -10.4700003      -2.29900015E-16
  -10.4600000      -2.31189040E-16
  -10.4499998      -2.32209186E-16
  -10.4399996      -2.32942796E-16
  -10.4300003      -2.33371897E-16
  -10.4200001      -2.33477776E-16
  -10.4099998      -2.33241163E-16
  -10.3999996      -2.32642231E-16
  -10.3900003      -2.31660626E-16
  -10.3800001      -2.30275356E-16
  -10.3699999      -2.28464850E-16
  -10.3599997      -2.26206978E-16
  -10.3500004      -2.23479002E-16
  -10.3400002      -2.20257696E-16
  -10.3299999      -2.16519105E-16
  -10.3199997      -2.12238835E-16
  -10.3100004      -2.07391901E-16
  -10.3000002      -2.01952745E-16
  -10.2900000      -1.95895202E-16
  -10.2799997      -1.89192697E-16
  -10.2700005      -1.81818097E-16
  -10.2600002      -1.73743676E-16
  -10.2500000      -1.64941164E-16
  -10.2399998      -1.55381908E-16
  -10.2299995      -1.45036763E-16
  -10.2200003      -1.33876045E-16
  -10.2100000      -1.21869698E-16
  -10.1999998      -1.08987200E-16
  -10.1899996      -9.51976690E-17
  -10.1800003      -8.04697645E-17
  -10.1700001      -6.47718617E-17
  -10.1599998      -4.80719785E-17
  -10.1499996      -3.03378217E-17
  -10.1400003      -1.15368352E-17
  -10.1300001       8.36380019E-18
  -10.1199999       2.93970990E-17
  -10.1099997       5.15962543E-17
  -10.1000004       7.49945898E-17
  -10.0900002       9.96255536E-17
  -10.0799999       1.25522633E-16
  -10.0699997       1.52719352E-16
  -10.0600004       1.81249156E-16
  -10.0500002       2.11145501E-16
  -10.0400000       2.42441608E-16
  -10.0299997       2.75170670E-16
  -10.0200005       3.09365549E-16
  -10.0100002       3.45058803E-16
  -10.0000000       3.82282672E-16
  -9.98999977       4.21069051E-16
  -9.97999954       4.61449309E-16
  -9.97000027       5.03454361E-16
  -9.96000004       5.47114462E-16
  -9.94999981       5.92459101E-16
  -9.93999958       6.39517234E-16
  -9.93000031       6.88316919E-16
  -9.92000008       7.38885316E-16
  -9.90999985       7.91248469E-16
  -9.89999962       8.45431790E-16
  -9.89000034       9.01459155E-16
  -9.88000011       9.59353328E-16
  -9.86999989       1.01913585E-15
  -9.85999966       1.08082696E-15
  -9.85000038       1.14444496E-15
  -9.84000015       1.21000721E-15
  -9.82999992       1.27752887E-15
  -9.81999969       1.34702358E-15
  -9.81000042       1.41850300E-15
  -9.80000019       1.49197707E-15
  -9.78999996       1.56745289E-15
  -9.77999973       1.64493629E-15
  -9.77000046       1.72443033E-15
  -9.76000023       1.80593544E-15
  -9.75000000       1.88945035E-15
  -9.73999977       1.97496997E-15
  -9.72999954       2.06248732E-15
  -9.72000027       2.15199245E-15
  -9.71000004       2.24347179E-15
  -9.69999981       2.33690927E-15
  -9.68999958       2.43228475E-15
  -9.68000031       2.52957623E-15
  -9.67000008       2.62875659E-15
  -9.65999985       2.72979639E-15
  -9.64999962       2.83266156E-15
  -9.64000034       2.93731375E-15
  -9.63000011       3.04371189E-15
  -9.61999989       3.15180981E-15
  -9.60999966       3.26155817E-15
  -9.60000038       3.37290150E-15
  -9.59000015       3.48578050E-15
  -9.57999992       3.60013185E-15
  -9.56999969       3.71588738E-15
  -9.56000042       3.83297274E-15
  -9.55000019       3.95130960E-15
  -9.53999996       4.07081366E-15
  -9.52999973       4.19139727E-15
  -9.52000046       4.31296429E-15
  -9.51000023       4.43541476E-15
  -9.50000000       4.55864323E-15
  -9.48999977       4.68253832E-15
  -9.47999954       4.80698143E-15
  -9.47000027       4.93184934E-15
  -9.46000004       5.05701243E-15
  -9.44999981       5.18233307E-15
  -9.43999958       5.30767065E-15
  -9.43000031       5.43287271E-15
  -9.42000008       5.55778720E-15
  -9.40999985       5.68224938E-15
  -9.39999962       5.80609025E-15
  -9.39000034       5.92913322E-15
  -9.38000011       6.05119490E-15
  -9.36999989       6.17208599E-15
  -9.35999966       6.29160700E-15
  -9.35000038       6.40955337E-15
  -9.34000015       6.52571420E-15
  -9.32999992       6.63986883E-15
  -9.31999969       6.75179153E-15
  -9.31000042       6.86124428E-15
  -9.30000019       6.96798779E-15
  -9.28999996       7.07177220E-15
  -9.27999973       7.17234042E-15
  -9.27000046       7.26942395E-15
  -9.26000023       7.36275512E-15
  -9.25000000       7.45204933E-15
  -9.23999977       7.53702198E-15
  -9.22999954       7.61737576E-15
  -9.22000027       7.69280828E-15
  -9.21000004       7.76300953E-15
  -9.19999981       7.82765847E-15
  -9.18999958       7.88642985E-15
  -9.18000031       7.93899248E-15
  -9.17000008       7.98500331E-15
  -9.15999985       8.02411590E-15
  -9.14999962       8.05597535E-15
  -9.14000034       8.08021828E-15
  -9.13000011       8.09647793E-15
  -9.11999989       8.10437482E-15
  -9.10999966       8.10352863E-15
  -9.10000038       8.09354889E-15
  -9.09000015       8.07404257E-15
  -9.07999992       8.04460478E-15
  -9.06999969       8.00483066E-15
  -9.06000042       7.95430514E-15
  -9.05000019       7.89261065E-15
  -9.03999996       7.81932282E-15
  -9.02999973       7.73401220E-15
  -9.02000046       7.63624512E-15
  -9.01000023       7.52558196E-15
  -9.00000000       7.40158396E-15
  -8.98999977       7.26380304E-15
  -8.97999954       7.11178773E-15
  -8.97000027       6.94508953E-15
  -8.96000004       6.76325019E-15
  -8.94999981       6.56581358E-15
  -8.93999958       6.35231766E-15
  -8.93000031       6.12230417E-15
  -8.92000008       5.87530936E-15
  -8.90999985       5.61087160E-15
  -8.89999962       5.32852842E-15
  -8.89000034       5.02781563E-15
  -8.88000011       4.70827457E-15
  -8.86999989       4.36944318E-15
  -8.85999966       4.01086575E-15
  -8.85000038       3.63208575E-15
  -8.84000015       3.23265212E-15
  -8.82999992       2.81211614E-15
  -8.81999969       2.37003461E-15
  -8.81000042       1.90596834E-15
  -8.80000019       1.41948619E-15
  -8.78999996       9.10160619E-16
  -8.77999973       3.77573645E-16
  -8.77000046      -1.78686775E-16
  -8.76000023      -7.59022465E-16
  -8.75000000      -1.36382628E-15
  -8.73999977      -1.99348124E-15
  -8.72999954      -2.64835820E-15
  -8.72000027      -3.32881873E-15
  -8.71000004      -4.03520821E-15
  -8.69999981      -4.76786206E-15
  -8.68999958      -5.52709793E-15
  -8.68000031      -6.31322116E-15
  -8.67000008      -7.12651848E-15
  -8.65999985      -7.96726136E-15
  -8.64999962      -8.83570137E-15
  -8.64000034      -9.73207314E-15
  -8.63000011      -1.06565918E-14
  -8.61999989      -1.16094480E-14
  -8.60999966      -1.25908153E-14
  -8.60000038      -1.36008377E-14
  -8.59000015      -1.46396414E-14
  -8.57999992      -1.57073282E-14
  -8.56999969      -1.68039665E-14
  -8.56000042      -1.79296072E-14
  -8.55000019      -1.90842639E-14
  -8.53999996      -2.02679280E-14
  -8.52999973      -2.14805590E-14
  -8.52000046      -2.27220806E-14
  -8.51000023      -2.39923946E-14
  -8.50000000      -2.52913569E-14
  -8.48999977      -2.66187930E-14
  -8.47999954      -2.79745014E-14
  -8.47000027      -2.93582263E-14
  -8.46000004      -3.07696983E-14
  -8.44999981      -3.22085871E-14
  -8.43999958      -3.36745199E-14
  -8.43000031      -3.51671105E-14
  -8.42000008      -3.66859050E-14
  -8.40999985      -3.82304119E-14
  -8.39999962      -3.98000995E-14
  -8.39000034      -4.13943951E-14
  -8.38000011      -4.30126617E-14
  -8.36999989      -4.46542421E-14
  -8.35999966      -4.63183975E-14
  -8.35000038      -4.80043624E-14
  -8.34000015      -4.97113134E-14
  -8.32999992      -5.14383763E-14
  -8.31999969      -5.31846160E-14
  -8.31000042      -5.49490703E-14
  -8.30000019      -5.67306822E-14
  -8.28999996      -5.85283775E-14
  -8.27999973      -6.03410009E-14
  -8.27000046      -6.21673530E-14
  -8.26000023      -6.40061463E-14
  -8.25000000      -6.58560866E-14
  -8.23999977      -6.77157779E-14
  -8.22999954      -6.95837837E-14
  -8.22000027      -7.14585997E-14
  -8.21000004      -7.33386604E-14
  -8.19999981      -7.52223262E-14
  -8.18999958      -7.71078961E-14
  -8.18000031      -7.89936489E-14
  -8.17000008      -8.08777348E-14
  -8.15999985      -8.27582835E-14
  -8.14999962      -8.46333163E-14
  -8.14000034      -8.65008477E-14
  -8.13000011      -8.83587908E-14
  -8.11999989      -9.02049770E-14
  -8.10999966      -9.20372041E-14
  -8.10000038      -9.38531886E-14
  -8.09000015      -9.56505654E-14
  -8.07999992      -9.74269425E-14
  -8.06999969      -9.91798061E-14
  -8.06000042      -1.00906642E-13
  -8.05000019      -1.02604787E-13
  -8.03999996      -1.04271599E-13
  -8.02999973      -1.05904306E-13
  -8.02000046      -1.07500109E-13
  -8.01000023      -1.09056095E-13
  -8.00000000      -1.10569343E-13
  -7.98999977      -1.12036811E-13
  -7.98000002      -1.13455442E-13
  -7.96999979      -1.14822106E-13
  -7.96000004      -1.16133611E-13
  -7.94999981      -1.17386678E-13
  -7.94000006      -1.18577958E-13
  -7.92999983      -1.19704092E-13
  -7.92000008      -1.20761650E-13
  -7.90999985      -1.21747122E-13
  -7.90000010      -1.22656944E-13
  -7.88999987      -1.23487524E-13
  -7.88000011      -1.24235203E-13
  -7.86999989      -1.24896255E-13
  -7.86000013      -1.25466938E-13
  -7.84999990      -1.25943459E-13
  -7.84000015      -1.26321913E-13
  -7.82999992      -1.26598452E-13
  -7.82000017      -1.26769119E-13
  -7.80999994      -1.26829943E-13
  -7.80000019      -1.26776898E-13
  -7.78999996      -1.26605947E-13
  -7.78000021      -1.26313009E-13
  -7.76999998      -1.25893992E-13
  -7.76000023      -1.25344749E-13
  -7.75000000      -1.24661119E-13
  -7.73999977      -1.23838941E-13
  -7.73000002      -1.22873987E-13
  -7.71999979      -1.21762084E-13
  -7.71000004      -1.20499015E-13
  -7.69999981      -1.19080554E-13
  -7.69000006      -1.17502470E-13
  -7.67999983      -1.15760523E-13
  -7.67000008      -1.13850525E-13
  -7.65999985      -1.11768220E-13
  -7.65000010      -1.09509447E-13
  -7.63999987      -1.07070013E-13
  -7.63000011      -1.04445735E-13
  -7.61999989      -1.01632502E-13
  -7.61000013      -9.86262057E-14
  -7.59999990      -9.54227745E-14
  -7.59000015      -9.20181628E-14
  -7.57999992      -8.84083998E-14
  -7.57000017      -8.45895348E-14
  -7.55999994      -8.05577190E-14
  -7.55000019      -7.63090830E-14
  -7.53999996      -7.18398729E-14
  -7.53000021      -6.71464091E-14
  -7.51999998      -6.22250867E-14
  -7.51000023      -5.70723685E-14
  -7.50000000      -5.16848120E-14
  -7.48999977      -4.60590733E-14
  -7.48000002      -4.01919031E-14
  -7.46999979      -3.40801470E-14
  -7.46000004      -2.77207693E-14
  -7.44999981      -2.11108563E-14
  -7.44000006      -1.42476193E-14