  -16.0000000       0.00000000    
  -15.9899998       0.00000000    
  -15.9799995       0.00000000    
  -15.9700003       0.00000000    
  -15.9600000       0.00000000    
  -15.9499998       0.00000000    
  -15.9399996       0.00000000    
  -15.9300003       0.00000000    
  -15.9200001       0.00000000    
  -15.9099998       0.00000000    
  -15.8999996       0.00000000    
  -15.8900003       0.00000000    
  -15.8800001       0.00000000    
  -15.8699999       0.00000000    
  -15.8599997       0.00000000    
  -15.8500004       0.00000000    
  -15.8400002       0.00000000    
  -15.8299999       0.00000000    
  -15.8199997       0.00000000    
  -15.8100004       0.00000000    
  -15.8000002       0.00000000    
  -15.7900000       0.00000000    
  -15.7799997       1.40129846E-43
  -15.7700005       2.80259693E-43
  -15.7600002      -2.17621652E-42
  -15.7500000      -5.38238740E-42
  -15.7399998      -9.27659583E-43
  -15.7299995       1.50891819E-41
  -15.7200003      -1.27350004E-41
  -15.7100000       5.52812244E-41
  -15.6999998       4.94378098E-42
  -15.6899996      -1.51169276E-40
  -15.6800003      -3.74006560E-40
  -15.6700001       2.40546894E-41
  -15.6599998      -7.69730444E-40
  -15.6499996      -8.89306044E-40
  -15.6400003      -1.31129026E-39
  -15.6300001      -1.60288085E-39
  -15.6199999      -2.50879088E-39
  -15.6099997      -3.14575250E-39
  -15.6000004      -3.97673370E-39
  -15.5900002      -5.30071132E-39
  -15.5799999      -7.11555258E-39
  -15.5699997      -1.02697493E-38
  -15.5600004      -1.59841309E-38
  -15.5500002      -2.47495625E-38
  -15.5400000      -3.80528708E-38
  -15.5299997      -5.56714356E-38
  -15.5200005      -7.75178636E-38
  -15.5100002      -1.01233007E-37
  -15.5000000      -1.24587473E-37
  -15.4899998      -1.46002913E-37
  -15.4799995      -1.66465334E-37
  -15.4700003      -1.93418649E-37
  -15.4600000      -2.44162962E-37
  -15.4499998      -3.41918350E-37
  -15.4399996      -5.19697342E-37
  -15.4300003      -8.02671922E-37
  -15.4200001      -1.19630756E-36
  -15.4099998      -1.66818156E-36
  -15.3999996      -2.12933494E-36
  -15.3900003      -2.44570590E-36
  -15.3800001      -2.45309847E-36
  -15.3699999      -2.02765744E-36
  -15.3599997      -1.17423906E-36
  -15.3500004      -1.16338209E-37
  -15.3400002       6.26796005E-37
  -15.3299999       2.58370088E-37
  -15.3199997      -2.16695575E-36
  -15.3100004      -7.45380006E-36
  -15.3000002      -1.58722144E-35
  -15.2900000      -2.67462416E-35
  -15.2799997      -3.81801455E-35
  -15.2700005      -4.71416455E-35
  -15.2600002      -5.00389406E-35
  -15.2500000      -4.38747957E-35
  -15.2399998      -2.77901558E-35
  -15.2299995      -4.62207299E-36
  -15.2200003       1.81480787E-35
  -15.2100000       2.87574562E-35
  -15.1999998       1.33797545E-35
  -15.1899996      -3.97068274E-35
  -15.1800003      -1.34602598E-34
  -15.1700001      -2.62330299E-34
  -15.1599998      -3.97546450E-34
  -15.1499996      -4.99687679E-34
  -15.1400003      -5.20307228E-34
  -15.1300001      -4.16879704E-34
  -15.1199999      -1.71166017E-34
  -15.1099997       1.92285024E-34
  -15.1000004       5.93917832E-34
  -15.0900002       9.00406173E-34
  -15.0799999       9.44891655E-34
  -15.0699997       5.67857444E-34
  -15.0600004      -3.26057245E-34
  -15.0500002      -1.70716916E-33
  -15.0400000      -3.37388442E-33
  -15.0299997      -4.94083492E-33
  -15.0200005      -5.88021910E-33
  -15.0100002      -5.62526026E-33
  -15.0000000      -3.72872465E-33
  -14.9899998      -5.04657116E-35
  -14.9799995       5.07092467E-33
  -14.9700003       1.07189546E-32
  -14.9600000       1.54291348E-32
  -14.9499998       1.73871998E-32
  -14.9399996       1.48025096E-32
  -14.9300003       6.41625224E-33
  -14.9200001      -7.94554174E-33
  -14.9099998      -2.69074859E-32
  -14.8999996      -4.73205184E-32
  -14.8900003      -6.44204758E-32
  -14.8800001      -7.24538630E-32
  -14.8699999      -6.57701079E-32
  -14.8599997      -4.02595707E-32
  -14.8500004       5.10067974E-33
  -14.8400002       6.69299271E-32
  -14.8299999       1.36733468E-31
  -14.8199997       2.01144269E-31
  -14.8100004       2.43346820E-31
  -14.8000002       2.45701006E-31
  -14.7900000       1.93343371E-31
  -14.7799997       7.82562266E-32
  -14.7700005      -9.69155419E-32
  -14.7600002      -3.16162089E-31
  -14.7500000      -5.49368413E-31
  -14.7399998      -7.54169575E-31
  -14.7299995      -8.80725883E-31
  -14.7200003      -8.79210718E-31
  -14.7100000      -7.09272556E-31
  -14.6999998      -3.50205299E-31
  -14.6899996       1.89870068E-31
  -14.6800003       8.67651941E-31
  -14.6700001       1.60293363E-30
  -14.6599998       2.28282790E-30
  -14.6499996       2.77265094E-30
  -14.6400003       2.93304178E-30
  -14.6300001       2.64203828E-30
  -14.6199999       1.81956576E-30
  -14.6099997       4.50995241E-31
  -14.6000004      -1.39409342E-30
  -14.5900002      -3.55193655E-30
  -14.5799999      -5.76681053E-30
  -14.5699997      -7.70785526E-30
  -14.5600004      -9.00094268E-30
  -14.5500002      -9.27446762E-30
  -14.5400000      -8.21499625E-30
  -14.5299997      -5.62705271E-30
  -14.5200005      -1.48933018E-30
  -14.5100002       4.00137412E-30
  -14.5000000       1.04071762E-29
  -14.4899998       1.70545535E-29
  -14.4799995       2.30732080E-29
  -14.4700003       2.74696802E-29
  -14.4600000       2.92334619E-29
  -14.4499998       2.74673631E-29
  -14.4399996       2.15307864E-29
  -14.4300003       1.11808592E-29
  -14.4200001      -3.30678297E-30
  -14.4099998      -2.10547973E-29
  -14.3999996      -4.05555918E-29
  -14.3900003      -5.97092269E-29
  -14.3800001      -7.59372751E-29
  -14.3699999      -8.63723186E-29
  -14.3599997      -8.81193417E-29
  -14.3500004      -7.85768102E-29
  -14.3400002      -5.57982711E-29
  -14.3299999      -1.88733160E-29
  -14.3199997       3.17015712E-29
  -14.3100004       9.36896547E-29
  -14.3000002       1.62850052E-28
  -14.2900000       2.32776560E-28
  -14.2799997       2.94864569E-28
  -14.2700005       3.38443428E-28
  -14.2600002       3.51085834E-28
  -14.2500000       3.19124690E-28
  -14.2399998       2.28372512E-28
  -14.2299995       6.50299514E-29
  -14.2200003      -1.83262514E-28
  -14.2100000      -5.26308024E-28
  -14.1999998      -9.70324817E-28
  -14.1899996      -1.51717375E-27
  -14.1800003      -2.16413397E-27
  -14.1700001      -2.90450034E-27
  -14.1599998      -3.72943815E-27
  -14.1499996      -4.63125831E-27
  -14.1400003      -5.60860883E-27
  -14.1300001      -6.67334649E-27
  -14.1199999      -7.85896129E-27
  -14.1099997      -9.22945226E-27
  -14.1000004      -1.08865286E-26
  -14.0900002      -1.29725264E-26
  -14.0799999      -1.56632231E-26
  -14.0699997      -1.91434771E-26
  -14.0600004      -2.35550754E-26
  -14.0500002      -2.89022150E-26
  -14.0400000      -3.48959955E-26
  -14.0299997      -4.07118972E-26
  -14.0200005      -4.46289460E-26
  -14.0100002      -4.35117618E-26
  -14.0000000      -3.20837557E-26
  -13.9899998      -1.93576933E-27
  -13.9799995       5.98067808E-26
  -13.9700003       1.72231348E-25
  -13.9600000       3.62923299E-25
  -13.9499998       6.70855498E-25
  -13.9399996       1.15009284E-24
  -13.9300003       1.87433469E-24
  -13.9200001       2.94265944E-24
  -13.9099998       4.48635294E-24
  -13.8999996       6.67742278E-24
  -13.8900003       9.73859832E-24
  -13.8800001       1.39554653E-23
  -13.8699999       1.96905851E-23
  -13.8599997       2.74003546E-23
  -13.8500004       3.76543978E-23
  -13.8400002       5.11580588E-23
  -13.8299999       6.87784852E-23
  -13.8199997       9.15745143E-23
  -13.8100004       1.20830279E-22
  -13.8000002       1.58093140E-22
  -13.7900000       2.05217747E-22
  -13.7799997       2.64412620E-22
  -13.7700005       3.38295918E-22
  -13.7600002       4.29952064E-22
  -13.7500000       5.42998129E-22
  -13.7399998       6.81659681E-22
  -13.7299995       8.50838261E-22
  -13.7200003       1.05621049E-21
  -13.7100000       1.30431297E-21
  -13.6999998       1.60263649E-21
  -13.6899996       1.95973688E-21
  -13.6800003       2.38535624E-21
  -13.6700001       2.89052732E-21
  -13.6599998       3.48770971E-21
  -13.6499996       4.19092431E-21
  -13.6400003       5.01587541E-21
  -13.6300001       5.98012647E-21
  -13.6199999       7.10322449E-21
  -13.6099997       8.40685790E-21
  -13.6000004       9.91501172E-21
  -13.5900002       1.16541452E-20
  -13.5799999       1.36532978E-20
  -13.5699997       1.59443619E-20
  -13.5600004       1.85621317E-20
  -13.5500002       2.15444134E-20
  -13.5400000       2.49323982E-20
  -13.5299997       2.87705405E-20
  -13.5200005       3.31069282E-20
  -13.5100002       3.79931552E-20
  -13.5000000       4.34847006E-20
  -13.4899998       4.96407855E-20
  -13.4799995       5.65247021E-20
  -13.4700003       6.42033552E-20
  -13.4600000       7.27482924E-20
  -13.4499998       8.22343674E-20
  -13.4399996       9.27408149E-20
  -13.4300003       1.04350896E-19
  -13.4200001       1.17151238E-19
  -13.4099998       1.31232540E-19
  -13.3999996       1.46689134E-19
  -13.3900003       1.63618070E-19
  -13.3800001       1.82120226E-19
  -13.3699999       2.02298780E-19
  -13.3599997       2.24258564E-19
  -13.3500004       2.48107500E-19
  -13.3400002       2.73954567E-19
  -13.3299999       3.01909033E-19
  -13.3199997       3.32081428E-19
  -13.3100004       3.64580217E-19
  -13.3000002       3.99515259E-19
  -13.2900000       4.36991246E-19
  -13.2799997       4.77113021E-19
  -13.2700005       5.19979640E-19
  -13.2600002       5.65686022E-19
  -13.2500000       6.14321657E-19
  -13.2399998       6.65967195E-19
  -13.2299995       7.20696980E-19
  -13.2200003       7.78574963E-19
  -13.2100000       8.39655065E-19
  -13.1999998       9.03973993E-19
  -13.1899996       9.71561473E-19
  -13.1800003       1.04243017E-18
  -13.1700001       1.11657358E-18
  -13.1599998       1.19396501E-18
  -13.1499996       1.27456135E-18
  -13.1400003       1.35829974E-18
  -13.1300001       1.44508939E-18
  -13.1199999       1.53481419E-18
  -13.1099997       1.62732969E-18
  -13.1000004       1.72247200E-18
  -13.0900002       1.82003599E-18
  -13.0799999       1.91979294E-18
  -13.0699997       2.02147308E-18
  -13.0600004       2.12477843E-18
  -13.0500002       2.22937314E-18
  -13.0400000       2.33488085E-18
  -13.0299997       2.44088281E-18
  -13.0200005       2.54693398E-18
  -13.0100002       2.65253124E-18
  -13.0000000       2.75713443E-18
  -12.9899998       2.86017177E-18
  -12.9799995       2.96101026E-18
  -12.9700003       3.05898814E-18
  -12.9600000       3.15338041E-18
  -12.9499998       3.24344032E-18
  -12.9399996       3.32836406E-18
  -12.9300003       3.40730273E-18
  -12.9200001       3.47937105E-18
  -12.9099998       3.54364009E-18
  -12.8999996       3.59912902E-18
  -12.8900003       3.64483488E-18
  -12.8800001       3.67971006E-18
  -12.8699999       3.70267342E-18
  -12.8599997       3.71260786E-18
  -12.8500004       3.70834995E-18
  -12.8400002       3.68875197E-18
  -12.8299999       3.65259963E-18
  -12.8199997       3.59867614E-18
  -12.8100004       3.52575107E-18
  -12.8000002       3.43257517E-18
  -12.7900000       3.31788678E-18
  -12.7799997       3.18044349E-18
  -12.7700005       3.01897907E-18
  -12.7600002       2.83224843E-18
  -12.7500000       2.61901574E-18
  -12.7399998       2.37806154E-18
  -12.7299995       2.10819945E-18
  -12.7200003       1.80826645E-18
  -12.7100000       1.47713178E-18
  -12.6999998       1.11371401E-18
  -12.6899996       7.16978648E-19
  -12.6800003       2.85942948E-19
  -12.6700001      -1.80312423E-19
  -12.6599998      -6.82645380E-19
  -12.6499996      -1.22183872E-18
  -12.6400003      -1.79860022E-18
  -12.6300001      -2.41356207E-18
  -12.6199999      -3.06726491E-18
  -12.6099997      -3.76016289E-18
  -12.6000004      -4.49262553E-18
  -12.5900002      -5.26491857E-18
  -12.5799999      -6.07722648E-18
  -12.5699997      -6.92962452E-18
  -12.5600004      -7.82211104E-18
  -12.5500002      -8.75458016E-18
  -12.5400000      -9.72685239E-18
  -12.5299997      -1.07386473E-17
  -12.5200005      -1.17896258E-17
  -12.5100002      -1.28793849E-17
  -12.5000000      -1.40074583E-17
  -12.4899998      -1.51733297E-17
  -12.4799995      -1.63764771E-17
  -12.4700003      -1.76163514E-17
  -12.4600000      -1.88924214E-17
  -12.4499998      -2.02041892E-17
  -12.4399996      -2.15512231E-17
  -12.4300003      -2.29331639E-17
  -12.4200001      -2.43497968E-17
  -12.4099998      -2.58010372E-17
  -12.3999996      -2.72870440E-17
  -12.3900003      -2.88081861E-17
  -12.3800001      -3.03650955E-17
  -12.3699999      -3.19588377E-17
  -12.3599997      -3.35907657E-17
  -12.3500004      -3.52627856E-17
  -12.3400002      -3.69773292E-17
  -12.3299999      -3.87373445E-17
  -12.3199997      -4.05464746E-17
  -12.3100004      -4.24092655E-17
  -12.3000002      -4.43309417E-17
  -12.2900000      -4.63177336E-17
  -12.2799997      -4.83769203E-17
  -12.2700005      -5.05169192E-17
  -12.2600002      -5.27474647E-17
  -12.2500000      -5.50795449E-17
  -12.2399998      -5.75256867E-17
  -12.2299995      -6.01001971E-17
  -12.2200003      -6.28190537E-17
  -12.2100000      -6.57000113E-17
  -12.1999998      -6.87631471E-17
  -12.1899996      -7.20305569E-17
  -12.1800003      -7.55270692E-17
  -12.1700001      -7.92796170E-17
  -12.1599998      -8.33182106E-17
  -12.1499996      -8.76757451E-17
  -12.1400003      -9.23881401E-17
  -12.1300001      -9.74946966E-17
  -12.1199999      -1.03038580E-16
  -12.1099997      -1.09066073E-16
  -12.1000004      -1.15627978E-16
  -12.0900002      -1.22779054E-16
  -12.0799999      -1.30578665E-16
  -12.0699997      -1.39090844E-16
  -12.0600004      -1.48384476E-16
  -12.0500002      -1.58533347E-16
  -12.0400000      -1.69617474E-16
  -12.0299997      -1.81721959E-16
  -12.0200005      -1.94938015E-16
  -12.0100002      -2.09363066E-16
  -12.0000000      -2.25101282E-16
  -11.9899998      -2.42263334E-16
  -11.9799995      -2.60967569E-16
  -11.9700003      -2.81339029E-16
  -11.9600000      -3.03510328E-16
  -11.9499998      -3.27623080E-16
  -11.9399996      -3.53826573E-16
  -11.9300003      -3.82279125E-16
  -11.9200001      -4.13145985E-16
  -11.9099998      -4.46602674E-16
  -11.8999996      -4.82836097E-16
  -11.8900003      -5.22039587E-16
  -11.8800001      -5.64419451E-16
  -11.8699999      -6.10189300E-16
  -11.8599997      -6.59576350E-16
  -11.8500004      -7.12816606E-16
  -11.8400002      -7.70156819E-16
  -11.8299999      -8.31856552E-16
  -11.8199997      -8.98185479E-16
  -11.8100004      -9.69426138E-16
  -11.8000002      -1.04587510E-15
  -11.7900000      -1.12783559E-15
  -11.7799997      -1.21562653E-15
  -11.7700005      -1.30958059E-15
  -11.7600002      -1.41004474E-15
  -11.7500000      -1.51736910E-15
  -11.7399998      -1.63192968E-15
  -11.7299995      -1.75410804E-15
  -11.7200003      -1.88429933E-15
  -11.7100000      -2.02291119E-15
  -11.6999998      -2.17037433E-15
  -11.6899996      -2.32711799E-15
  -11.6800003      -2.49359554E-15
  -11.6700001      -2.67026332E-15
  -11.6599998      -2.85760308E-15
  -11.6499996      -3.05610461E-15
  -11.6400003      -3.26626302E-15
  -11.6300001      -3.48859519E-15
  -11.6199999      -3.72363688E-15
  -11.6099997      -3.97192003E-15
  -11.6000004      -4.23397931E-15
  -11.5900002      -4.51040555E-15
  -11.5799999      -4.80174762E-15
  -11.5699997      -5.10860902E-15
  -11.5600004      -5.43157209E-15
  -11.5500002      -5.77123485E-15
  -11.5400000      -6.12821730E-15
  -11.5299997      -6.50315517E-15
  -11.5200005      -6.89663797E-15
  -11.5100002      -7.30933190E-15
  -11.5000000      -7.74188283E-15
  -11.4899998      -8.19490570E-15
  -11.4799995      -8.66907220E-15
  -11.4700003      -9.16502693E-15
  -11.4600000      -9.68344582E-15
  -11.4499998      -1.02249362E-14
  -11.4399996      -1.07902036E-14
  -11.4300003      -1.13798648E-14
  -11.4200001      -1.19945955E-14
  -11.4099998      -1.26350507E-14
  -11.3999996      -1.33018096E-14
  -11.3900003      -1.39955567E-14
  -11.3800001      -1.47168722E-14
  -11.3699999      -1.54664015E-14
  -11.3599997      -1.62447096E-14
  -11.3500004      -1.70524029E-14
  -11.3400002      -1.78900406E-14
  -11.3299999      -1.87581223E-14
  -11.3199997      -1.96572359E-14
  -11.3100004      -2.05878032E-14
  -11.3000002      -2.15503308E-14
  -11.2900000      -2.25452744E-14
  -11.2799997      -2.35730184E-14
  -11.2700005      -2.46338882E-14
  -11.2600002      -2.57283412E-14
  -11.2500000      -2.68565399E-14
  -11.2399998      -2.80187860E-14
  -11.2299995      -2.92152506E-14
  -11.2200003      -3.04461724E-14
  -11.2100000      -3.17115007E-14
  -11.1999998      -3.30113879E-14
  -11.1899996      -3.43457596E-14
  -11.1800003      -3.57145445E-14
  -11.1700001      -3.71176851E-14
  -11.1599998      -3.85548154E-14
  -11.1499996      -4.00256271E-14
  -11.1400003      -4.15298899E-14
  -11.1300001      -4.30669125E-14
  -11.1199999      -4.46363087E-14
  -11.1099997      -4.62373399E-14
  -11.1000004      -4.78693555E-14
  -11.0900002      -4.95313595E-14
  -11.0799999      -5.12225286E-14
  -11.0699997      -5.29417581E-14
  -11.0600004      -5.46877674E-14
  -11.0500002      -5.64593402E-14
  -11.0400000      -5.82549417E-14
  -11.0299997      -6.00731623E-14
  -11.0200005      -6.19122538E-14
  -11.0100002      -6.37703391E-14
  -11.0000000      -6.56452906E-14
  -10.9899998      -6.75352650E-14
  -10.9799995      -6.94376400E-14
  -10.9700003      -7.13502201E-14
  -10.9600000      -7.32702947E-14
  -10.9499998      -7.51950450E-14
  -10.9399996      -7.71213808E-14
  -10.9300003      -7.90462327E-14
  -10.9200001      -8.09663887E-14
  -10.9099998      -8.28780946E-14
  -10.8999996      -8.47776032E-14
  -10.8900003      -8.66610047E-14
  -10.8800001      -8.85241519E-14
  -10.8699999      -9.03627013E-14
  -10.8599997      -9.21721602E-14
  -10.8500004      -9.39472024E-14
  -10.8400002      -9.56832337E-14
  -10.8299999      -9.73749144E-14
  -10.8199997      -9.90166743E-14
  -10.8100004      -1.00602510E-13
  -10.8000002      -1.02126674E-13
  -10.7900000      -1.03582582E-13
  -10.7799997      -1.04964153E-13
  -10.7700005      -1.06264017E-13
  -10.7600002      -1.07475626E-13
  -10.7500000      -1.08591094E-13
  -10.7399998      -1.09603366E-13
  -10.7299995      -1.10504054E-13
  -10.7200003      -1.11285296E-13
  -10.7100000      -1.11938467E-13
  -10.6999998      -1.12454838E-13
  -10.6899996      -1.12825493E-13
  -10.6800003      -1.13040978E-13
  -10.6700001      -1.13092146E-13
  -10.6599998      -1.12968344E-13
  -10.6499996      -1.12659698E-13
  -10.6400003      -1.12155829E-13
  -10.6300001      -1.11445880E-13
  -10.6199999      -1.10518995E-13
  -10.6099997      -1.09363568E-13
  -10.6000004      -1.07968186E-13
  -10.5900002      -1.06320328E-13
  -10.5799999      -1.04408317E-13
  -10.5699997      -1.02220099E-13
  -10.5600004      -9.97418362E-14
  -10.5500002      -9.69613658E-14
  -10.5400000      -9.38650199E-14
  -10.5299997      -9.04393273E-14
  -10.5200005      -8.66702340E-14
  -10.5100002      -8.25438893E-14
  -10.5000000      -7.80461850E-14
  -10.4899998      -7.31621659E-14
  -10.4799995      -6.78777306E-14
  -10.4700003      -6.21773344E-14
  -10.4600000      -5.60460796E-14
  -10.4499998      -4.94682081E-14
  -10.4399996      -4.24289103E-14
  -10.4300003      -3.49119300E-14
  -10.4200001      -2.69017461E-14
  -10.4099998      -1.83822667E-14
  -10.3999996      -9.33778269E-15
  -10.3900003       2.48364645E-16
  -10.3800001       1.03921185E-14
  -10.3699999       2.11097822E-14
  -10.3599997       3.24180007E-14
  -10.3500004       4.43327829E-14
  -10.3400002       5.68706188E-14
  -10.3299999       7.00479781E-14
  -10.3199997       8.38811374E-14
  -10.3100004       9.83857838E-14
  -10.3000002       1.13578431E-13
  -10.2900000       1.29474895E-13
  -10.2799997       1.46091269E-13
  -10.2700005       1.63442502E-13
  -10.2600002       1.81544775E-13
  -10.2500000       2.00412725E-13
  -10.2399998       2.20061464E-13
  -10.2299995       2.40504800E-13
  -10.2200003       2.61757738E-13
  -10.2100000       2.83833585E-13
  -10.1999998       3.06745270E-13
  -10.1899996       3.30506564E-13
  -10.1800003       3.55129121E-13
  -10.1700001       3.80624812E-13
  -10.1599998       4.07004590E-13
  -10.1499996       4.34279294E-13
  -10.1400003       4.62458414E-13
  -10.1300001       4.91551190E-13
  -10.1199999       5.21565755E-13
  -10.1099997       5.52509915E-13
  -10.1000004       5.84389687E-13
  -10.0900002       6.17211089E-13
  -10.0799999       6.50978403E-13
  -10.0699997       6.85695587E-13
  -10.0600004       7.21364537E-13
  -10.0500002       7.57987043E-13
  -10.0400000       7.95562943E-13
  -10.0299997       8.34091260E-13
  -10.0200005       8.73569500E-13
  -10.0100002       9.13993599E-13
  -10.0000000       9.55358514E-13
  -9.98999977       9.97657144E-13
  -9.97999954       1.04088147E-12
  -9.97000027       1.08502140E-12
  -9.96000004       1.13006425E-12
  -9.94999981       1.17599799E-12
  -9.93999958       1.22280647E-12
  -9.93000031       1.27047288E-12
  -9.92000008       1.31897824E-12
  -9.90999985       1.36830076E-12
  -9.89999962       1.41841888E-12
  -9.89000034       1.46930504E-12
  -9.88000011       1.52093312E-12
  -9.86999989       1.57327341E-12
  -9.85999966       1.62629307E-12
  -9.85000038       1.67995836E-12
  -9.84000015       1.73423233E-12
  -9.82999992       1.78907453E-12
  -9.81999969       1.84444343E-12
  -9.81000042       1.90029416E-12
  -9.80000019       1.95658181E-12
  -9.78999996       2.01325198E-12
  -9.77999973       2.07025326E-12
  -9.77000046       2.12753209E-12
  -9.76000023       2.18502777E-12
  -9.75000000       2.24267675E-12
  -9.73999977       2.30042114E-12
  -9.72999954       2.35818092E-12
  -9.72000027       2.41589539E-12
  -9.71000004       2.47348669E-12
  -9.69999981       2.53087612E-12
  -9.68999958       2.58798495E-12
  -9.68000031       2.64472623E-12
  -9.67000008       2.70101606E-12
  -9.65999985       2.75676140E-12
  -9.64999962       2.81186554E-12
  -9.64000034       2.86623243E-12
  -9.63000011       2.91976317E-12
  -9.61999989       2.97234980E-12
  -9.60999966       3.02388431E-12
  -9.60000038       3.07425873E-12
  -9.59000015       3.12334750E-12
  -9.57999992       3.17103787E-12
  -9.56999969       3.21720732E-12
  -9.56000042       3.26172791E-12
  -9.55000019       3.30447193E-12
  -9.53999996       3.34530082E-12
  -9.52999973       3.38408034E-12
  -9.52000046       3.42066588E-12
  -9.51000023       3.45491300E-12
  -9.50000000       3.48668338E-12
  -9.48999977       3.51581004E-12
  -9.47999954       3.54214965E-12
  -9.47000027       3.56553437E-12
  -9.46000004       3.58580960E-12
  -9.44999981       3.60280512E-12
  -9.43999958       3.61635656E-12
  -9.43000031       3.62628590E-12
  -9.42000008       3.63243246E-12
  -9.40999985       3.63460000E-12
  -9.39999962       3.63260724E-12
  -9.39000034       3.62628547E-12
  -9.38000011       3.61543456E-12
  -9.36999989       3.59988233E-12
  -9.35999966       3.57940413E-12
  -9.35000038       3.55384233E-12
  -9.34000015       3.52296772E-12
  -9.32999992       3.48660228E-12
  -9.31999969       3.44454261E-12
  -9.31000042       3.39657837E-12
  -9.30000019       3.34250422E-12
  -9.28999996       3.28211503E-12
  -9.27999973       3.21520826E-12
  -9.27000046       3.14156708E-12
  -9.26000023       3.06098224E-12
  -9.25000000       2.97324491E-12
  -9.23999977       2.87814195E-12
  -9.22999954       2.77547711E-12
  -9.22000027       2.66501383E-12
  -9.21000004       2.54653113E-12
  -9.19999981       2.41985750E-12
  -9.18999958       2.28474249E-12
  -9.18000031       2.14100114E-12
  -9.17000008       1.98840965E-12
  -9.15999985       1.82676617E-12
  -9.14999962       1.65584549E-12
  -9.14000034       1.47547686E-12
  -9.13000011       1.28543541E-12
  -9.11999989       1.08550853E-12
  -9.10999966       8.75535104E-13
  -9.10000038       6.55286914E-13
  -9.09000015       4.24606205E-13
  -9.07999992       1.83265824E-13
  -9.06999969      -6.88702093E-14
  -9.06000042      -3.32013144E-13
  -9.05000019      -6.06332313E-13
  -9.03999996      -8.91999473E-13
  -9.02999973      -1.18913755E-12
  -9.02000046      -1.49794034E-12
  -9.01000023      -1.81855431E-12
  -9.00000000      -2.15110373E-12
  -8.98999977      -2.49573279E-12
  -8.97999954      -2.85256020E-12
  -8.97000027      -3.22171326E-12
  -8.96000004      -3.60329084E-12
  -8.94999981      -3.99741308E-12
  -8.93999958      -4.40415716E-12
  -8.93000031      -4.82359682E-12
  -8.92000008      -5.25580577E-12
  -8.90999985      -5.70085038E-12
  -8.89999962      -6.15877791E-12
  -8.89000034      -6.62961916E-12
  -8.88000011      -7.11338497E-12
  -8.86999989      -7.61011219E-12
  -8.85999966      -8.11976701E-12
  -8.85000038      -8.64233858E-12
  -8.84000015      -9.17781823E-12
  -8.82999992      -9.72613656E-12
  -8.81999969      -1.02872372E-11
  -8.81000042      -1.08610421E-11
  -8.80000019      -1.14474532E-11
  -8.78999996      -1.20463526E-11
  -8.77999973      -1.26576241E-11
  -8.77000046      -1.32811071E-11
  -8.76000023      -1.39166491E-11
  -8.75000000      -1.45640566E-11
  -8.73999977      -1.52231144E-11
  -8.72999954      -1.58936128E-11
  -8.72000027      -1.65753036E-11
  -8.71000004      -1.72679163E-11
  -8.69999981      -1.79711680E-11
  -8.68999958      -1.86847413E-11
  -8.68000031      -1.94083083E-11
  -8.67000008      -2.01415117E-11
  -8.65999985      -2.08839768E-11
  -8.64999962      -2.16352977E-11
  -8.64000034      -2.23950459E-11
  -8.63000011      -2.31627790E-11
  -8.61999989      -2.39380044E-11
  -8.60999966      -2.47202276E-11
  -8.60000038      -2.55089335E-11
  -8.59000015      -2.63035548E-11
  -8.57999992      -2.71035087E-11
  -8.56999969      -2.79081966E-11
  -8.56000042      -2.87169819E-11
  -8.55000019      -2.95291916E-11
  -8.53999996      -3.03441369E-11
  -8.52999973      -3.11611362E-11
  -8.52000046      -3.19793809E-11
  -8.51000023      -3.27981323E-11
  -8.50000000      -3.36165748E-11
  -8.48999977      -3.44338690E-11
  -8.47999954      -3.52491925E-11
  -8.47000027      -3.60616086E-11
  -8.46000004      -3.68701805E-11
  -8.44999981      -3.76740167E-11
  -8.43999958      -3.84720450E-11
  -8.43000031      -3.92633391E-11
  -8.42000008      -4.00468374E-11
  -8.40999985      -4.08214816E-11
  -8.39999962      -4.15860922E-11
  -8.39000034      -4.23396457E-11
  -8.38000011      -4.30809208E-11
  -8.36999989      -4.38087032E-11
  -8.35999966      -4.45217682E-11
  -8.35000038      -4.52189536E-11
  -8.34000015      -4.58989513E-11
  -8.32999992      -4.65603910E-11
  -8.31999969      -4.72020305E-11
  -8.31000042      -4.78224231E-11
  -8.30000019      -4.84202747E-11
  -8.28999996      -4.89939721E-11
  -8.27999973      -4.95423806E-11
  -8.27000046      -5.00636650E-11
  -8.26000023      -5.05566769E-11
  -8.25000000      -5.10197058E-11
  -8.23999977      -5.14512252E-11
  -8.22999954      -5.18496669E-11
  -8.22000027      -5.22134662E-11
  -8.21000004      -5.25409542E-11
  -8.19999981      -5.28306218E-11
  -8.18999958      -5.30806926E-11
  -8.18000031      -5.32894770E-11
  -8.17000008      -5.34554033E-11
  -8.15999985      -5.35765911E-11
  -8.14999962      -5.36514756E-11
  -8.14000034      -5.36781904E-11
  -8.13000011      -5.36550769E-11
  -8.11999989      -5.35802583E-11
  -8.10999966      -5.34520761E-11
  -8.10000038      -5.32685770E-11
  -8.09000015      -5.30281721E-11
  -8.07999992      -5.27288074E-11
  -8.06999969      -5.23688211E-11
  -8.06000042      -5.19462980E-11
  -8.05000019      -5.14595658E-11
  -8.03999996      -5.09065984E-11
  -8.02999973      -5.02856992E-11
  -8.02000046      -4.95949982E-11
  -8.01000023      -4.88326636E-11
  -8.00000000      -4.79968149E-11
  -7.98999977      -4.70857797E-11
  -7.98000002      -4.60976847E-11
  -7.96999979      -4.50307291E-11
  -7.96000004      -4.38831436E-11
  -7.94999981      -4.26532178E-11
  -7.94000006      -4.13390433E-11
  -7.92999983      -3.99390937E-11
  -7.92000008      -3.84515544E-11
  -7.90999985      -3.68748261E-11
  -7.90000010      -3.52071358E-11
  -7.88999987      -3.34468217E-11
  -7.88000011      -3.15925446E-11
  -7.86999989      -2.96424968E-11
  -7.86000013      -2.75952629E-11
  -7.84999990      -2.54492729E-11
  -7.84000015      -2.32031564E-11
  -7.82999992      -2.08554146E-11
  -7.82000017      -1.84049252E-11
  -7.80999994      -1.58501996E-11
  -7.80000019      -1.31898450E-11
  -7.78999996      -1.04227764E-11
  -7.78000021      -7.54813226E-12
  -7.76999998      -4.56428992E-12
  -7.76000023      -1.47068176E-12
  -7.75000000       1.73392453E-12
  -7.73999977       5.05015214E-12
  -7.73000002       8.47918610E-12
  -7.71999979       1.20214455E-11
  -7.71000004       1.56777386E-11
  -7.69999981       1.94484966E-11
  -7.69000006       2.33345964E-11
  -7.67999983       2.73359686E-11
  -7.67000008       3.14532879E-11
  -7.65999985       3.56866516E-11
  -7.65000010       4.00361376E-11
  -7.63999987       4.45019230E-11
  -7.63000011       4.90838134E-11
  -7.61999989       5.37817013E-11
  -7.61000013       5.85952536E-11
  -7.59999990       6.35240957E-11
  -7.59000015       6.85678458E-11
  -7.57999992       7.37257894E-11
  -7.57000017       7.89970103E-11
  -7.55999994       8.43808634E-11
  -7.55000019       8.98764466E-11
  -7.53999996       9.54824136E-11
  -7.53000021       1.01197689E-10
  -7.51999998       1.07020719E-10
  -7.51000023       1.12950017E-10
  -7.50000000       1.18983962E-10
  -7.48999977       1.25120733E-10
  -7.48000002       1.31358383E-10
  -7.46999979       1.37694717E-10
  -7.46000004       1.44127682E-10
  -7.44999981       1.50654461E-10
  -7.44000006       1.57273014E-10