  -16.0000000       0.00000000    
  -15.9899998       0.00000000    
  -15.9799995       0.00000000    
  -15.9700003       0.00000000    
  -15.9600000       0.00000000    
  -15.9499998       0.00000000    
  -15.9399996       0.00000000    
  -15.9300003       0.00000000    
  -15.9200001       0.00000000    
  -15.9099998       0.00000000    
  -15.8999996       0.00000000    
  -15.8900003       0.00000000    
  -15.8800001       0.00000000    
  -15.8699999       0.00000000    
  -15.8599997       0.00000000    
  -15.8500004       0.00000000    
  -15.8400002       0.00000000    
  -15.8299999       0.00000000    
  -15.8199997       0.00000000    
  -15.8100004       0.00000000    
  -15.8000002       0.00000000    
  -15.7900000       0.00000000    
  -15.7799997       0.00000000    
  -15.7700005       0.00000000    
  -15.7600002       0.00000000    
  -15.7500000       0.00000000    
  -15.7399998       0.00000000    
  -15.7299995       0.00000000    
  -15.7200003       0.00000000    
  -15.7100000       0.00000000    
  -15.6999998       0.00000000    
  -15.6899996       0.00000000    
  -15.6800003       0.00000000    
  -15.6700001       0.00000000    
  -15.6599998       0.00000000    
  -15.6499996       0.00000000    
  -15.6400003       0.00000000    
  -15.6300001       0.00000000    
  -15.6199999       0.00000000    
  -15.6099997       0.00000000    
  -15.6000004       0.00000000    
  -15.5900002       0.00000000    
  -15.5799999       0.00000000    
  -15.5699997       0.00000000    
  -15.5600004       0.00000000    
  -15.5500002       0.00000000    
  -15.5400000       0.00000000    
  -15.5299997       0.00000000    
  -15.5200005       0.00000000    
  -15.5100002       0.00000000    
  -15.5000000       0.00000000    
  -15.4899998       0.00000000    
  -15.4799995       0.00000000    
  -15.4700003       0.00000000    
  -15.4600000       0.00000000    
  -15.4499998       0.00000000    
  -15.4399996       0.00000000    
  -15.4300003       0.00000000    
  -15.4200001       0.00000000    
  -15.4099998       0.00000000    
  -15.3999996       0.00000000    
  -15.3900003       0.00000000    
  -15.3800001       0.00000000    
  -15.3699999       0.00000000    
  -15.3599997       0.00000000    
  -15.3500004       0.00000000    
  -15.3400002       0.00000000    
  -15.3299999       0.00000000    
  -15.3199997       0.00000000    
  -15.3100004       0.00000000    
  -15.3000002       0.00000000    
  -15.2900000       0.00000000    
  -15.2799997       0.00000000    
  -15.2700005       0.00000000    
  -15.2600002       0.00000000    
  -15.2500000       0.00000000    
  -15.2399998       0.00000000    
  -15.2299995       0.00000000    
  -15.2200003       0.00000000    
  -15.2100000       0.00000000    
  -15.1999998       0.00000000    
  -15.1899996       0.00000000    
  -15.1800003       0.00000000    
  -15.1700001       0.00000000    
  -15.1599998       0.00000000    
  -15.1499996       0.00000000    
  -15.1400003       0.00000000    
  -15.1300001       0.00000000    
  -15.1199999       0.00000000    
  -15.1099997       0.00000000    
  -15.1000004       0.00000000    
  -15.0900002       0.00000000    
  -15.0799999       0.00000000    
  -15.0699997       0.00000000    
  -15.0600004       0.00000000    
  -15.0500002       0.00000000    
  -15.0400000       0.00000000    
  -15.0299997       0.00000000    
  -15.0200005       0.00000000    
  -15.0100002       0.00000000    
  -15.0000000       0.00000000    
  -14.9899998       0.00000000    
  -14.9799995       0.00000000    
  -14.9700003       0.00000000    
  -14.9600000       0.00000000    
  -14.9499998       0.00000000    
  -14.9399996       0.00000000    
  -14.9300003       0.00000000    
  -14.9200001       0.00000000    
  -14.9099998       0.00000000    
  -14.8999996       0.00000000    
  -14.8900003       0.00000000    
  -14.8800001       0.00000000    
  -14.8699999       0.00000000    
  -14.8599997       0.00000000    
  -14.8500004       0.00000000    
  -14.8400002       0.00000000    
  -14.8299999       0.00000000    
  -14.8199997      -0.00000000    
  -14.8100004      -0.00000000    
  -14.8000002      -0.00000000    
  -14.7900000      -0.00000000    
  -14.7799997      -0.00000000    
  -14.7700005      -0.00000000    
  -14.7600002      -0.00000000    
  -14.7500000       0.00000000    
  -14.7399998       0.00000000    
  -14.7299995       0.00000000    
  -14.7200003       0.00000000    
  -14.7100000       0.00000000    
  -14.6999998       0.00000000    
  -14.6899996      -0.00000000    
  -14.6800003      -2.80259693E-45
  -14.6700001      -4.20389539E-45
  -14.6599998      -5.60519386E-45
  -14.6499996      -5.60519386E-45
  -14.6400003      -4.20389539E-45
  -14.6300001      -0.00000000    
  -14.6199999       5.60519386E-45
  -14.6099997       1.40129846E-44
  -14.6000004       1.96181785E-44
  -14.5900002       2.94272678E-44
  -14.5799999       3.36311631E-44
  -14.5699997       2.52233724E-44
  -14.5600004       1.26116862E-44
  -14.5500002       2.80259693E-45
  -14.5400000       2.80259693E-45
  -14.5299997      -0.00000000    
  -14.5200005      -1.40129846E-45
  -14.5100002       2.10194770E-44
  -14.5000000       5.32493416E-44
  -14.4899998       9.10844002E-44
  -14.4799995       1.26116862E-43
  -14.4700003       1.52741533E-43
  -14.4600000       1.33123354E-43
  -14.4499998       3.92363570E-44
  -14.4399996      -1.12103877E-43
  -14.4300003      -2.99877871E-43
  -14.4200001      -4.79244075E-43
  -14.4099998      -5.77334967E-43
  -14.3999996      -5.17079133E-43
  -14.3900003      -2.48029828E-43
  -14.3800001       2.32615545E-43
  -14.3699999       8.63199854E-43
  -14.3599997       1.48397507E-42
  -14.3500004       1.87493735E-42
  -14.3400002       1.79366203E-42
  -14.3299999       1.05377645E-42
  -14.3199997      -3.93764868E-43
  -14.3100004      -2.37520090E-42
  -14.3000002      -4.47154340E-42
  -14.2900000      -6.03819508E-42
  -14.2799997      -6.32265867E-42
  -14.2700005      -4.68734336E-42
  -14.2600002      -8.42180377E-43
  -14.2500000       4.88352515E-42
  -14.2399998       1.14373981E-41
  -14.2299995       1.70944400E-41
  -14.2200003       1.97513019E-41
  -14.2100000       1.74153373E-41
  -14.1999998       8.88983746E-42
  -14.1899996      -5.57997048E-42
  -14.1800003      -2.38627115E-41
  -14.1700001      -4.19030280E-41
  -14.1599998      -5.42820986E-41
  -14.1499996      -5.53667036E-41
  -14.1400003      -4.08688697E-41
  -14.1300001      -9.56246072E-42
  -14.1199999       3.53982005E-41
  -14.1099997       8.60088971E-41
  -14.1000004       1.30173621E-40
  -14.0900002       1.53837348E-40
  -14.0799999       1.44323933E-40
  -14.0699997       9.42036906E-41
  -14.0600004       4.77842776E-42
  -14.0500002      -1.11818012E-40
  -14.0400000      -2.32949054E-40
  -14.0299997      -3.28705383E-40
  -14.0200005      -3.67744157E-40
  -14.0100002      -3.24965318E-40
  -14.0000000      -1.89337843E-40
  -13.9899998       3.01068975E-41
  -13.9799995       3.02094726E-40
  -13.9700003       5.76092016E-40
  -13.9600000       7.90507496E-40
  -13.9499998       8.85298331E-40
  -13.9399996       8.16372663E-40
  -13.9300003       5.68530609E-40
  -13.9200001       1.63681470E-40
  -13.9099998      -3.38407974E-40
  -13.8999996      -8.47998568E-40
  -13.8900003      -1.26102428E-39
  -13.8800001      -1.47939563E-39
  -13.8699999      -1.43169543E-39
  -13.8599997      -1.08921809E-39
  -13.8500004      -4.73228300E-40
  -13.8400002       3.48543566E-40
  -13.8299999       1.27542403E-39
  -13.8199997       2.19378459E-39
  -13.8100004       2.99790570E-39
  -13.8000002       3.60559560E-39
  -13.7900000       3.96387539E-39
  -13.7799997       4.04345092E-39
  -13.7700005       3.82470823E-39
  -13.7600002       3.28211846E-39
  -13.7500000       2.37609072E-39
  -13.7399998       1.06119912E-39
  -13.7299995      -6.84091490E-40
  -13.7200003      -2.80807460E-39
  -13.7100000      -5.12669808E-39
  -13.6999998      -7.27279788E-39
  -13.6899996      -8.67627537E-39
  -13.6800003      -8.59717487E-39
  -13.6700001      -6.22634462E-39
  -13.6599998      -8.54204919E-40
  -13.6499996       7.91008040E-39
  -13.6400003       1.99063135E-38
  -13.6300001       3.42308404E-38
  -13.6199999       4.91438959E-38
  -13.6099997       6.21314439E-38
  -13.6000004       7.01575659E-38
  -13.5900002       7.01114239E-38
  -13.5799999       5.94129081E-38
  -13.5699997       3.66987372E-38
  -13.5600004       2.47531246E-39
  -13.5500002      -4.03983950E-38
  -13.5400000      -8.65347596E-38
  -13.5299997      -1.28262351E-37
  -13.5200005      -1.56358239E-37
  -13.5100002      -1.61264633E-37
  -13.5000000      -1.34704310E-37
  -13.4899998      -7.15224866E-38
  -13.4799995       2.84960208E-38
  -13.4700003       1.59143034E-37
  -13.4600000       3.06969809E-37
  -13.4499998       4.51448232E-37
  -13.4399996       5.66349281E-37
  -13.4300003       6.22445209E-37
  -13.4200001       5.91458980E-37
  -13.4099998       4.50958697E-37
  -13.3999996       1.89651398E-37
  -13.3900003      -1.87692483E-37
  -13.3800001      -6.56614650E-37
  -13.3699999      -1.17162739E-36
  -13.3599997      -1.66803305E-36
  -13.3500004      -2.06749091E-36
  -13.3400002      -2.28744571E-36
  -13.3299999      -2.25388970E-36
  -13.3199997      -1.91621543E-36
  -13.3100004      -1.26221450E-36
  -13.3000002      -3.30740719E-37
  -13.2900000       7.80699382E-37
  -13.2799997       1.91597902E-36
  -13.2700005       2.86990876E-36
  -13.2600002       3.40807912E-36
  -13.2500000       3.29620662E-36
  -13.2399998       2.33645735E-36
  -13.2299995       4.06507896E-37
  -13.2200003      -2.50425425E-36
  -13.2100000      -6.26773674E-36
  -13.1999998      -1.06055677E-35
  -13.1899996      -1.50980210E-35
  -13.1800003      -1.92164126E-35
  -13.1700001      -2.23789171E-35
  -13.1599998      -2.40263698E-35
  -13.1499996      -2.37108848E-35
  -13.1400003      -2.11870717E-35
  -13.1300001      -1.64932892E-35
  -13.1199999      -1.00094657E-35
  -13.1099997      -2.47882569E-36
  -13.1000004       5.01658106E-36
  -13.0900002       1.11322300E-35
  -13.0799999       1.43891400E-35
  -13.0699997       1.33464828E-35
  -13.0600004       6.80445280E-36
  -13.0500002      -5.98368094E-36
  -13.0400000      -2.51166983E-35
  -13.0299997      -4.98970949E-35
  -13.0200005      -7.87584888E-35
  -13.0100002      -1.09293929E-34
  -13.0000000      -1.38402349E-34
  -12.9899998      -1.62558230E-34
  -12.9799995      -1.78194773E-34
  -12.9700003      -1.82173546E-34
  -12.9600000      -1.72296707E-34
  -12.9499998      -1.47803032E-34
  -12.9399996      -1.09778981E-34
  -12.9300003      -6.14133695E-35
  -12.9200001      -8.02995516E-36
  -12.9099998       4.31514448E-35
  -12.8999996       8.35486513E-35
  -12.8900003       1.04035015E-34
  -12.8800001       9.59915804E-35
  -12.8699999       5.25042300E-35
  -12.8599997      -3.04202728E-35
  -12.8500004      -1.52769151E-34
  -12.8400002      -3.09730800E-34
  -12.8299999      -4.91347868E-34
  -12.8199997      -6.82739746E-34
  -12.8100004      -8.64969426E-34
  -12.8000002      -1.01656494E-33
  -12.7900000      -1.11562560E-33
  -12.7799997      -1.14236626E-33
  -12.7700005      -1.08187164E-33
  -12.7600002      -9.26779399E-34
  -12.7500000      -6.79568758E-34
  -12.7399998      -3.54129887E-34
  -12.7299995       2.36837761E-35
  -12.7200003       4.16745624E-34
  -12.7100000       7.78718079E-34
  -12.6999998       1.05748206E-33
  -12.6899996       1.19979017E-33
  -12.6800003       1.15684421E-33
  -12.6700001       8.90362492E-34
  -12.6599998       3.78592108E-34
  -12.6499996      -3.78355793E-34
  -12.6400003      -1.35448274E-33
  -12.6300001      -2.49579454E-33
  -12.6199999      -3.72059794E-33
  -12.6099997      -4.92255378E-33
  -12.6000004      -5.97661111E-33
  -12.5900002      -6.74772255E-33
  -12.5799999      -7.10199230E-33
  -12.5699997      -6.91962170E-33
  -12.5600004      -6.10888398E-33
  -12.5500002      -4.62007263E-33
  -12.5400000      -2.45834623E-33
  -12.5299997       3.05716969E-34
  -12.5200005       3.52900926E-33
  -12.5100002       6.99329875E-33
  -12.5000000       1.04081142E-32
  -12.4899998       1.34198770E-32
  -12.4799995       1.56278536E-32
  -12.4700003       1.66072211E-32
  -12.4600000       1.59392861E-32
  -12.4499998       1.32485266E-32
  -12.4399996       8.24569100E-33
  -12.4300003       7.75792201E-34
  -12.4200001      -9.13095212E-33
  -12.4099998      -2.12077930E-32
  -12.3999996      -3.49031926E-32
  -12.3900003      -4.93401470E-32
  -12.3800001      -6.32884689E-32
  -12.3699999      -7.51565773E-32
  -12.3599997      -8.30099962E-32
  -12.3500004      -8.46244731E-32
  -12.3400002      -7.75816868E-32
  -12.3299999      -5.94147331E-32
  -12.3199997      -2.78093193E-32
  -12.3100004       1.91357285E-32
  -12.3000002       8.25886873E-32
  -12.2900000       1.62611317E-31
  -12.2799997       2.57740913E-31
  -12.2700005       3.64547059E-31
  -12.2600002       4.77185866E-31
  -12.2500000       5.86986725E-31
  -12.2399998       6.82108151E-31
  -12.2299995       7.47311318E-31
  -12.2200003       7.63898812E-31
  -12.2100000       7.09869566E-31
  -12.1999998       5.60340148E-31
  -12.1899996       2.88266198E-31
  -12.1800003      -1.34495914E-31
  -12.1700001      -7.35791661E-31
  -12.1599998      -1.54143928E-30
  -12.1499996      -2.57321243E-30
  -12.1400003      -3.84661211E-30
  -12.1300001      -5.36854514E-30
  -12.1199999      -7.13502953E-30
  -12.1099997      -9.12910730E-30
  -12.1000004      -1.13191793E-29
  -12.0900002      -1.36579173E-29
  -12.0799999      -1.60819228E-29
  -12.0699997      -1.85123140E-29
  -12.0600004      -2.08562053E-29
  -12.0500002      -2.30089963E-29
  -12.0400000      -2.48571668E-29
  -12.0299997      -2.62810053E-29
  -12.0200005      -2.71563344E-29
  -12.0100002      -2.73537603E-29
  -12.0000000      -2.67335657E-29
  -11.9899998      -2.51335212E-29
  -11.9799995      -2.23462552E-29
  -11.9700003      -1.80811329E-29
  -11.9600000      -1.19060891E-29
  -11.9499998      -3.16144146E-30
  -11.9399996       9.16258312E-30
  -11.9300003       2.65937673E-29
  -11.9200001       5.14046350E-29
  -11.9099998       8.69115911E-29
  -11.8999996       1.37860593E-28
  -11.8900003       2.10922960E-28
  -11.8800001       3.15318691E-28
  -11.8699999       4.63589393E-28
  -11.8599997       6.72550481E-28
  -11.8500004       9.64456605E-28
  -11.8400002       1.36840308E-27
  -11.8299999       1.92200548E-27
  -11.8199997       2.67340069E-27
  -11.8100004       3.68358137E-27
  -11.8000002       5.02916931E-27
  -11.7900000       6.80561704E-27
  -11.7799997       9.13089087E-27
  -11.7700005       1.21497237E-26
  -11.7600002       1.60384728E-26
  -11.7500000       2.10106200E-26
  -11.7399998       2.73230017E-26
  -11.7299995       3.52827901E-26
  -11.7200003       4.52552492E-26
  -11.7100000       5.76725176E-26
  -11.6999998       7.30430656E-26
  -11.6899996       9.19624954E-26
  -11.6800003       1.15124992E-25
  -11.6700001       1.43335879E-25
  -11.6599998       1.77525788E-25
  -11.6499996       2.18764909E-25
  -11.6400003       2.68279810E-25
  -11.6300001       3.27469671E-25
  -11.6199999       3.97925205E-25
  -11.6099997       4.81448072E-25
  -11.6000004       5.80071216E-25
  -11.5900002       6.96080509E-25
  -11.5799999       8.32037333E-25
  -11.5699997       9.90801803E-25
  -11.5600004       1.17555845E-24
  -11.5500002       1.38983960E-24
  -11.5400000       1.63755090E-24
  -11.5299997       1.92299873E-24
  -11.5200005       2.25091697E-24
  -11.5100002       2.62649108E-24
  -11.5000000       3.05538687E-24
  -11.4899998       3.54377421E-24
  -11.4799995       4.09835131E-24
  -11.4700003       4.72637294E-24
  -11.4600000       5.43567092E-24
  -11.4499998       6.23467381E-24
  -11.4399996       7.13242750E-24
  -11.4300003       8.13861248E-24
  -11.4200001       9.26355653E-24
  -11.4099998       1.05182453E-23
  -11.3999996       1.19143335E-23
  -11.3900003       1.34641391E-23
  -11.3800001       1.51806531E-23
  -11.3699999       1.70775165E-23
  -11.3599997       1.91690376E-23
  -11.3500004       2.14701338E-23
  -11.3400002       2.39963315E-23
  -11.3299999       2.67637502E-23
  -11.3199997       2.97890160E-23
  -11.3100004       3.30892598E-23
  -11.3000002       3.66820195E-23
  -11.2900000       4.05852275E-23
  -11.2799997       4.48170939E-23
  -11.2700005       4.93960339E-23
  -11.2600002       5.43405762E-23
  -11.2500000       5.96692685E-23
  -11.2399998       6.54005386E-23
  -11.2299995       7.15525934E-23
  -11.2200003       7.81433054E-23
  -11.2100000       8.51899537E-23
  -11.1999998       9.27092055E-23
  -11.1899996       1.00716882E-22
  -11.1800003       1.09227801E-22
  -11.1700001       1.18255475E-22
  -11.1599998       1.27812102E-22
  -11.1499996       1.37908209E-22
  -11.1400003       1.48552467E-22
  -11.1300001       1.59751515E-22
  -11.1199999       1.71509594E-22
  -11.1099997       1.83828522E-22
  -11.1000004       1.96707112E-22
  -11.0900002       2.10141198E-22
  -11.0799999       2.24123284E-22
  -11.0699997       2.38642288E-22
  -11.0600004       2.53683203E-22
  -11.0500002       2.69226968E-22
  -11.0400000       2.85249983E-22
  -11.0299997       3.01723973E-22
  -11.0200005       3.18615896E-22
  -11.0100002       3.35887330E-22
  -11.0000000       3.53494453E-22
  -10.9899998       3.71387889E-22
  -10.9799995       3.89512050E-22
  -10.9700003       4.07805469E-22
  -10.9600000       4.26200368E-22
  -10.9499998       4.44622252E-22
  -10.9399996       4.62990266E-22
  -10.9300003       4.81216411E-22
  -10.9200001       4.99205923E-22
  -10.9099998       5.16857172E-22
  -10.8999996       5.34061357E-22
  -10.8900003       5.50702410E-22
  -10.8800001       5.66657595E-22
  -10.8699999       5.81796555E-22
  -10.8599997       5.95982521E-22
  -10.8500004       6.09071705E-22
  -10.8400002       6.20913504E-22
  -10.8299999       6.31351156E-22
  -10.8199997       6.40221234E-22
  -10.8100004       6.47354859E-22
  -10.8000002       6.52576891E-22
  -10.7900000       6.55707546E-22
  -10.7799997       6.56561939E-22
  -10.7700005       6.54950896E-22
  -10.7600002       6.50681353E-22
  -10.7500000       6.43557018E-22
  -10.7399998       6.33379021E-22
  -10.7299995       6.19946171E-22
  -10.7200003       6.03055965E-22
  -10.7100000       5.82505596E-22
  -10.6999998       5.58092004E-22
  -10.6899996       5.29613191E-22
  -10.6800003       4.96868623E-22
  -10.6700001       4.59660490E-22
  -10.6599998       4.17794190E-22
  -10.6499996       3.71079413E-22
  -10.6400003       3.19330844E-22
  -10.6300001       2.62368952E-22
  -10.6199999       2.00021186E-22
  -10.6099997       1.32122173E-22
  -10.6000004       5.85150072E-23
  -10.5900002      -2.09482029E-23
  -10.5799999      -1.06405535E-22
  -10.5699997      -1.97984751E-22
  -10.5600004      -2.95803023E-22
  -10.5500002      -3.99966009E-22
  -10.5400000      -5.10567641E-22
  -10.5299997      -6.27689933E-22
  -10.5200005      -7.51403114E-22
  -10.5100002      -8.81765445E-22
  -10.5000000      -1.01882338E-21
  -10.4899998      -1.16261255E-21
  -10.4799995      -1.31315781E-21
  -10.4700003      -1.47047328E-21
  -10.4600000      -1.63456614E-21
  -10.4499998      -1.80543498E-21
  -10.4399996      -1.98307444E-21
  -10.4300003      -2.16747331E-21
  -10.4200001      -2.35862070E-21
  -10.4099998      -2.55650710E-21
  -10.3999996      -2.76112687E-21
  -10.3900003      -2.97248161E-21
  -10.3800001      -3.19058749E-21
  -10.3699999      -3.41547318E-21
  -10.3599997      -3.64719159E-21
  -10.3500004      -3.88581906E-21
  -10.3400002      -4.13146787E-21
  -10.3299999      -4.38428585E-21
  -10.3199997      -4.64446808E-21
  -10.3100004      -4.91226377E-21
  -10.3000002      -5.18798310E-21
  -10.2900000      -5.47200695E-21
  -10.2799997      -5.76479617E-21
  -10.2700005      -6.06690450E-21
  -10.2600002      -6.37898626E-21
  -10.2500000      -6.70180844E-21
  -10.2399998      -7.03626729E-21
  -10.2299995      -7.38339476E-21
  -10.2200003      -7.74438478E-21
  -10.2100000      -8.12059121E-21
  -10.1999998      -8.51356339E-21
  -10.1899996      -8.92504616E-21
  -10.1800003      -9.35700247E-21
  -10.1700001      -9.81164565E-21
  -10.1599998      -1.02914346E-20
  -10.1499996      -1.07991184E-20
  -10.1400003      -1.13377389E-20
  -10.1300001      -1.19106673E-20
  -10.1199999      -1.25216170E-20
  -10.1099997      -1.31746736E-20
  -10.1000004      -1.38743182E-20
  -10.0900002      -1.46254563E-20
  -10.0799999      -1.54334405E-20
  -10.0699997      -1.63041095E-20
  -10.0600004      -1.72437932E-20
  -10.0500002      -1.82593755E-20
  -10.0400000      -1.93582882E-20
  -10.0299997      -2.05485752E-20
  -10.0200005      -2.18389107E-20
  -10.0100002      -2.32386280E-20
  -10.0000000      -2.47577581E-20
  -9.98999977      -2.64070674E-20
  -9.97999954      -2.81980766E-20
  -9.97000027      -3.01431239E-20
  -9.96000004      -3.22553813E-20
  -9.94999981      -3.45489011E-20
  -9.93999958      -3.70386049E-20
  -9.93000031      -3.97404256E-20
  -9.92000008      -4.26712331E-20
  -9.90999985      -4.58489282E-20
  -9.89999962      -4.92925070E-20
  -9.89000034      -5.30219994E-20
  -9.88000011      -5.70586214E-20
  -9.86999989      -6.14247392E-20
  -9.85999966      -6.61439015E-20
  -9.85000038      -7.12409432E-20
  -9.84000015      -7.67419204E-20
  -9.82999992      -8.26742530E-20
  -9.81999969      -8.90666595E-20
  -9.81000042      -9.59492546E-20
  -9.80000019      -1.03353562E-19
  -9.78999996      -1.11312454E-19
  -9.77999973      -1.19860435E-19
  -9.77000046      -1.29033325E-19
  -9.76000023      -1.38868516E-19
  -9.75000000      -1.49404897E-19
  -9.73999977      -1.60682962E-19
  -9.72999954      -1.72744793E-19
  -9.72000027      -1.85633883E-19
  -9.71000004      -1.99395467E-19
  -9.69999981      -2.14076410E-19
  -9.68999958      -2.29724884E-19
  -9.68000031      -2.46390945E-19
  -9.67000008      -2.64126188E-19
  -9.65999985      -2.82983683E-19
  -9.64999962      -3.03018127E-19
  -9.64000034      -3.24285845E-19
  -9.63000011      -3.46844534E-19
  -9.61999989      -3.70753440E-19
  -9.60999966      -3.96073335E-19
  -9.60000038      -4.22866310E-19
  -9.59000015      -4.51196057E-19
  -9.57999992      -4.81127173E-19
  -9.56999969      -5.12725886E-19
  -9.56000042      -5.46059507E-19
  -9.55000019      -5.81196692E-19
  -9.53999996      -6.18206717E-19
  -9.52999973      -6.57160048E-19
  -9.52000046      -6.98128184E-19
  -9.51000023      -7.41183142E-19
  -9.50000000      -7.86397713E-19
  -9.48999977      -8.33845155E-19
  -9.47999954      -8.83599087E-19
  -9.47000027      -9.35733592E-19
  -9.46000004      -9.90322963E-19
  -9.44999981      -1.04744072E-18
  -9.43999958      -1.10716098E-18
  -9.43000031      -1.16955718E-18
  -9.42000008      -1.23470252E-18
  -9.40999985      -1.30266853E-18
  -9.39999962      -1.37352658E-18
  -9.39000034      -1.44734687E-18
  -9.38000011      -1.52419784E-18
  -9.36999989      -1.60414599E-18
  -9.35999966      -1.68725696E-18
  -9.35000038      -1.77359290E-18
  -9.34000015      -1.86321461E-18
  -9.32999992      -1.95617916E-18
  -9.31999969      -2.05254157E-18
  -9.31000042      -2.15235311E-18
  -9.30000019      -2.25566073E-18
  -9.28999996      -2.36250848E-18
  -9.27999973      -2.47293523E-18
  -9.27000046      -2.58697552E-18
  -9.26000023      -2.70465871E-18
  -9.25000000      -2.82600859E-18
  -9.23999977      -2.95104335E-18
  -9.22999954      -3.07977540E-18
  -9.22000027      -3.21220846E-18
  -9.21000004      -3.34834130E-18
  -9.19999981      -3.48816522E-18
  -9.18999958      -3.63166203E-18
  -9.18000031      -3.77880588E-18
  -9.17000008      -3.92956245E-18
  -9.15999985      -4.08388788E-18
  -9.14999962      -4.24172800E-18
  -9.14000034      -4.40301705E-18
  -9.13000011      -4.56768224E-18
  -9.11999989      -4.73563382E-18
  -9.10999966      -4.90677584E-18
  -9.10000038      -5.08099703E-18
  -9.09000015      -5.25817374E-18
  -9.07999992      -5.43816700E-18
  -9.06999969      -5.62082709E-18
  -9.06000042      -5.80598775E-18
  -9.05000019      -5.99346906E-18
  -9.03999996      -6.18307416E-18
  -9.02999973      -6.37458839E-18
  -9.02000046      -6.56778346E-18
  -9.01000023      -6.76241244E-18
  -9.00000000      -6.95821105E-18
  -8.98999977      -7.15489475E-18
  -8.97999954      -7.35216161E-18
  -8.97000027      -7.54969069E-18
  -8.96000004      -7.74713870E-18
  -8.94999981      -7.94414500E-18
  -8.93999958      -8.14032411E-18
  -8.93000031      -8.33527156E-18
  -8.92000008      -8.52856299E-18
  -8.90999985      -8.71974345E-18
  -8.89999962      -8.90834063E-18
  -8.89000034      -9.09386153E-18
  -8.88000011      -9.27578170E-18
  -8.86999989      -9.45355605E-18
  -8.85999966      -9.62661630E-18
  -8.85000038      -9.79436687E-18
  -8.84000015      -9.95618656E-18
  -8.82999992      -1.01114277E-17
  -8.81999969      -1.02594153E-17
  -8.81000042      -1.03994511E-17
  -8.80000019      -1.05308083E-17
  -8.78999996      -1.06527305E-17
  -8.77999973      -1.07644380E-17
  -8.77000046      -1.08651207E-17
  -8.76000023      -1.09539417E-17
  -8.75000000      -1.10300374E-17
  -8.73999977      -1.10925110E-17
  -8.72999954      -1.11404495E-17
  -8.72000027      -1.11728998E-17
  -8.71000004      -1.11888859E-17
  -8.69999981      -1.11874060E-17
  -8.68999958      -1.11674280E-17
  -8.68000031      -1.11278937E-17
  -8.67000008      -1.10677180E-17
  -8.65999985      -1.09857882E-17
  -8.64999962      -1.08809670E-17
  -8.64000034      -1.07520898E-17
  -8.63000011      -1.05979695E-17
  -8.61999989      -1.04173894E-17
  -8.60999966      -1.02091086E-17
  -8.60000038      -9.97187073E-18
  -8.59000015      -9.70438534E-18
  -8.57999992      -9.40535128E-18
  -8.56999969      -9.07343761E-18
  -8.56000042      -8.70730017E-18
  -8.55000019      -8.30557164E-18
  -8.53999996      -7.86686896E-18
  -8.52999973      -7.38978757E-18
  -8.52000046      -6.87291756E-18
  -8.51000023      -6.31482625E-18
  -8.50000000      -5.71407227E-18
  -8.48999977      -5.06920516E-18
  -8.47999954      -4.37876081E-18
  -8.47000027      -3.64127015E-18
  -8.46000004      -2.85525997E-18
  -8.44999981      -2.01925107E-18
  -8.43999958      -1.13176289E-18
  -8.43000031      -1.91315838E-19
  -8.42000008       8.03567553E-19
  -8.40999985       1.85435944E-18
  -8.39999962       2.96252524E-18
  -8.39000034       4.12952136E-18
  -8.38000011       5.35678897E-18
  -8.36999989       6.64575847E-18
  -8.35999966       7.99783894E-18
  -8.35000038       9.41442048E-18
  -8.34000015       1.08968704E-17
  -8.32999992       1.24465263E-17
  -8.31999969       1.40647025E-17
  -8.31000042       1.57526737E-17
  -8.30000019       1.75116816E-17
  -8.28999996       1.93429254E-17
  -8.27999973       2.12475634E-17
  -8.27000046       2.32267105E-17
  -8.26000023       2.52814205E-17
  -8.25000000       2.74126993E-17
  -8.23999977       2.96215065E-17
  -8.22999954       3.19087105E-17
  -8.22000027       3.42751419E-17
  -8.21000004       3.67215352E-17
  -8.19999981       3.92485686E-17
  -8.18999958       4.18568445E-17
  -8.18000031       4.45468689E-17
  -8.17000008       4.73190688E-17
  -8.15999985       5.01737617E-17
  -8.14999962       5.31111893E-17
  -8.14000034       5.61314838E-17
  -8.13000011       5.92346684E-17
  -8.11999989       6.24206571E-17
  -8.10999966       6.56892513E-17
  -8.10000038       6.90401070E-17
  -8.09000015       7.24727941E-17
  -8.07999992       7.59867434E-17
  -8.06999969       7.95812071E-17
  -8.06000042       8.32553581E-17
  -8.05000019       8.70081839E-17
  -8.03999996       9.08385198E-17
  -8.02999973       9.47450688E-17
  -8.02000046       9.87263553E-17
  -8.01000023       1.02780731E-16
  -8.00000000       1.06906411E-16
  -7.98999977       1.11101394E-16
  -7.98000002       1.15363518E-16
  -7.96999979       1.19690454E-16
  -7.96000004       1.24079633E-16
  -7.94999981       1.28528329E-16
  -7.94000006       1.33033618E-16
  -7.92999983       1.37592310E-16
  -7.92000008       1.42201122E-16
  -7.90999985       1.46856375E-16
  -7.90000010       1.51554404E-16
  -7.88999987       1.56291118E-16
  -7.88000011       1.61062283E-16
  -7.86999989       1.65863477E-16
  -7.86000013       1.70689950E-16
  -7.84999990       1.75536739E-16
  -7.84000015       1.80398695E-16
  -7.82999992       1.85270392E-16
  -7.82000017       1.90146085E-16
  -7.80999994       1.95019807E-16
  -7.80000019       1.99885416E-16
  -7.78999996       2.04736413E-16
  -7.78000021       2.09566076E-16
  -7.76999998       2.14367389E-16
  -7.76000023       2.19133181E-16
  -7.75000000       2.23855800E-16
  -7.73999977       2.28527477E-16
  -7.73000002       2.33140181E-16
  -7.71999979       2.37685518E-16
  -7.71000004       2.42154914E-16
  -7.69999981       2.46539421E-16
  -7.69000006       2.50829828E-16
  -7.67999983       2.55016712E-16
  -7.67000008       2.59090385E-16
  -7.65999985       2.63040814E-16
  -7.65000010       2.66857677E-16
  -7.63999987       2.70530412E-16
  -7.63000011       2.74048272E-16
  -7.61999989       2.77400061E-16
  -7.61000013       2.80574476E-16
  -7.59999990       2.83559896E-16
  -7.59000015       2.86344411E-16
  -7.57999992       2.88915818E-16
  -7.57000017       2.91261887E-16
  -7.55999994       2.93369782E-16
  -7.55000019       2.95226769E-16
  -7.53999996       2.96819615E-16
  -7.53000021       2.98134977E-16
  -7.51999998       2.99159331E-16
  -7.51000023       2.99878833E-16
  -7.50000000       3.00279480E-16
  -7.48999977       3.00347057E-16
  -7.48000002       3.00067166E-16
  -7.46999979       2.99425247E-16
  -7.46000004       2.98406531E-16
  -7.44999981       2.96996009E-16
  -7.44000006       2.95178780E-16