  -16.0000000       0.00000000    
  -15.9899998       0.00000000    
  -15.9799995       0.00000000    
  -15.9700003       0.00000000    
  -15.9600000       0.00000000    
  -15.9499998       0.00000000    
  -15.9399996       0.00000000    
  -15.9300003       0.00000000    
  -15.9200001       0.00000000    
  -15.9099998       0.00000000    
  -15.8999996       0.00000000    
  -15.8900003       0.00000000    
  -15.8800001       0.00000000    
  -15.8699999       0.00000000    
  -15.8599997       0.00000000    
  -15.8500004       0.00000000    
  -15.8400002       0.00000000    
  -15.8299999       0.00000000    
  -15.8199997       0.00000000    
  -15.8100004       6.58610278E-43
  -15.8000002       1.07199333E-42
  -15.7900000       3.90401752E-42
  -15.7799997       4.30240668E-41
  -15.7700005       2.68096422E-41
  -15.7600002       5.72374371E-41
  -15.7500000       5.94010419E-42
  -15.7399998       4.19432452E-40
  -15.7299995       1.14874244E-40
  -15.7200003      -3.70916697E-40
  -15.7100000      -1.42687496E-39
  -15.6999998      -3.95591181E-39
  -15.6899996      -1.01895096E-38
  -15.6800003      -2.09083064E-38
  -15.6700001      -4.09662235E-38
  -15.6599998      -7.29395917E-38
  -15.6499996      -1.22468520E-37
  -15.6400003      -1.93352530E-37
  -15.6300001      -2.90995186E-37
  -15.6199999      -4.19241640E-37
  -15.6099997      -5.84666471E-37
  -15.6000004      -7.95214413E-37
  -15.5900002      -1.05957482E-36
  -15.5799999      -1.38963589E-36
  -15.5699997      -1.78585315E-36
  -15.5600004      -2.21898970E-36
  -15.5500002      -2.60199807E-36
  -15.5400000      -2.75596997E-36
  -15.5299997      -2.38355120E-36
  -15.5200005      -1.07606440E-36
  -15.5100002       1.62825088E-36
  -15.5000000       6.11670322E-36
  -15.4899998       1.25190335E-35
  -15.4799995       2.05167243E-35
  -15.4700003       2.92612457E-35
  -15.4600000       3.75176557E-35
  -15.4499998       4.41877567E-35
  -15.4399996       4.92396790E-35
  -15.4300003       5.49445976E-35
  -15.4200001       6.70738052E-35
  -15.4099998       9.54774509E-35
  -15.3999996       1.53369629E-34
  -15.3900003       2.54714106E-34
  -15.3800001       4.09599537E-34
  -15.3699999       6.18244917E-34
  -15.3599997       8.65308483E-34
  -15.3500004       1.11705042E-33
  -15.3400002       1.32432920E-33
  -15.3299999       1.43372824E-33
  -15.3199997       1.40727061E-33
  -15.3100004       1.24801455E-33
  -15.3000002       1.02496477E-33
  -15.2900000       8.87626162E-34
  -15.2799997       1.05897145E-33
  -15.2700005       1.79797702E-33
  -15.2600002       3.32928653E-33
  -15.2500000       5.74804983E-33
  -15.2399998       8.92090157E-33
  -15.2299995       1.24151717E-32
  -15.2200003       1.54941308E-32
  -15.2100000       1.72117631E-32
  -15.1999998       1.66226127E-32
  -15.1899996       1.30931733E-32
  -15.1800003       6.66289153E-33
  -15.1700001      -1.63365227E-33
  -15.1599998      -9.59705032E-33
  -15.1499996      -1.39597286E-32
  -15.1400003      -1.08315508E-32
  -15.1300001       3.49046223E-33
  -15.1199999       3.14248666E-32
  -15.1099997       7.29090614E-32
  -15.1000004       1.24372851E-31
  -15.0900002       1.78215370E-31
  -15.0799999       2.23092747E-31
  -15.0699997       2.45233089E-31
  -15.0600004       2.30821599E-31
  -15.0500002       1.69249910E-31
  -15.0400000       5.67874856E-32
  -15.0299997      -1.00034569E-31
  -15.0200005      -2.82134161E-31
  -15.0100002      -4.57543638E-31
  -15.0000000      -5.83697315E-31
  -14.9899998      -6.12663518E-31
  -14.9799995      -4.99171936E-31
  -14.9700003      -2.10646119E-31
  -14.9600000       2.62105947E-31
  -14.9499998       8.95422007E-31
  -14.9399996       1.62667635E-30
  -14.9300003       2.35368105E-30
  -14.9200001       2.94124504E-30
  -14.9099998       3.23578311E-30
  -14.8999996       3.08761496E-30
  -14.8900003       2.37917499E-30
  -14.8800001       1.05577552E-30
  -14.8699999      -8.45647251E-31
  -14.8599997      -3.17544395E-30
  -14.8500004      -5.66343925E-30
  -14.8400002      -7.92947789E-30
  -14.8299999      -9.51531418E-30
  -14.8199997      -9.93867421E-30
  -14.8100004      -8.76596644E-30
  -14.8000002      -5.69729687E-30
  -14.7900000      -6.52454425E-31
  -14.7799997       6.15486134E-30
  -14.7700005       1.41698926E-29
  -14.7600002       2.24913259E-29
  -14.7500000       2.99179013E-29
  -14.7399998       3.50537636E-29
  -14.7299995       3.64705529E-29
  -14.7200003       3.29153615E-29
  -14.7100000       2.35447102E-29
  -14.6999998       8.15556702E-30
  -14.6899996      -1.26202014E-29
  -14.6800003      -3.71968001E-29
  -14.6700001      -6.30228676E-29
  -14.6599998      -8.67053541E-29
  -14.6499996      -1.04281631E-28
  -14.6400003      -1.11634676E-28
  -14.6300001      -1.05025089E-28
  -14.6199999      -8.16964135E-29
  -14.6099997      -4.04828247E-29
  -14.6000004       1.76568836E-29
  -14.5900002       8.92657034E-29
  -14.5799999       1.68260507E-28
  -14.5699997       2.46110688E-28
  -14.5600004       3.12370815E-28
  -14.5500002       3.55566510E-28
  -14.5400000       3.64391483E-28
  -14.5299997       3.29135313E-28
  -14.5200005       2.43202269E-28
  -14.5100002       1.04552538E-28
  -14.5000000      -8.31238406E-29
  -14.4899998      -3.09720278E-28
  -14.4799995      -5.58681799E-28
  -14.4700003      -8.07807337E-28
  -14.4600000      -1.03097649E-27
  -14.4499998      -1.20082242E-27
  -14.4399996      -1.29230333E-27
  -14.4300003      -1.28699845E-27
  -14.4200001      -1.17793294E-27
  -14.4099998      -9.74585167E-28
  -14.3999996      -7.07761777E-28
  -14.3900003      -4.33950872E-28
  -14.3800001      -2.38875282E-28
  -14.3699999      -2.39915477E-28
  -14.3599997      -5.87335400E-28
  -14.3500004      -1.46420971E-27
  -14.3400002      -3.08514101E-27
  -14.3299999      -5.69429615E-27
  -14.3199997      -9.56245094E-27
  -14.3100004      -1.49842249E-26
  -14.3000002      -2.22750623E-26
  -14.2900000      -3.17682052E-26
  -14.2799997      -4.38114457E-26
  -14.2700005      -5.87616264E-26
  -14.2600002      -7.69768376E-26
  -14.2500000      -9.87995775E-26
  -14.2399998      -1.24530100E-25
  -14.2299995      -1.54380067E-25
  -14.2200003      -1.88395761E-25
  -14.2100000      -2.26346479E-25
  -14.1999998      -2.67547920E-25
  -14.1899996      -3.10620416E-25
  -14.1800003      -3.53138441E-25
  -14.1700001      -3.91156877E-25
  -14.1599998      -4.18573097E-25
  -14.1499996      -4.26284064E-25
  -14.1400003      -4.01091668E-25
  -14.1300001      -3.24303923E-25
  -14.1199999      -1.69959207E-25
  -14.1099997       9.73822163E-26
  -14.1000004       5.25384617E-25
  -14.0900002       1.17729434E-24
  -14.0799999       2.13602904E-24
  -14.0699997       3.50909351E-24
  -14.0600004       5.43445647E-24
  -14.0500002       8.08759369E-24
  -14.0400000       1.16896793E-23
  -14.0299997       1.65173164E-23
  -14.0200005       2.29137319E-23
  -14.0100002       3.13021143E-23
  -14.0000000       4.22004454E-23
  -13.9899998       5.62387080E-23
  -13.9799995       7.41790332E-23
  -13.9700003       9.69376325E-23
  -13.9600000       1.25610309E-22
  -13.9499998       1.61501474E-22
  -13.9399996       2.06154447E-22
  -13.9300003       2.61388291E-22
  -13.9200001       3.29337690E-22
  -13.9099998       4.12493171E-22
  -13.8999996       5.13753326E-22
  -13.8900003       6.36473577E-22
  -13.8800001       7.84524366E-22
  -13.8699999       9.62356485E-22
  -13.8599997       1.17505540E-21
  -13.8500004       1.42843267E-21
  -13.8400002       1.72908577E-21
  -13.8299999       2.08448787E-21
  -13.8199997       2.50307822E-21
  -13.8100004       2.99434171E-21
  -13.8000002       3.56893336E-21
  -13.7900000       4.23873680E-21
  -13.7799997       5.01701359E-21
  -13.7700005       5.91850596E-21
  -13.7600002       6.95950509E-21
  -13.7500000       8.15805102E-21
  -13.7399998       9.53398438E-21
  -13.7299995       1.11090841E-20
  -13.7200003       1.29072285E-20
  -13.7100000       1.49544787E-20
  -13.6999998       1.72791891E-20
  -13.6899996       1.99121696E-20
  -13.6800003       2.28868339E-20
  -13.6700001       2.62392450E-20
  -13.6599998       3.00082095E-20
  -13.6499996       3.42354707E-20
  -13.6400003       3.89657968E-20
  -13.6300001       4.42469669E-20
  -13.6199999       5.01299433E-20
  -13.6099997       5.66687996E-20
  -13.6000004       6.39210862E-20
  -13.5900002       7.19474911E-20
  -13.5799999       8.08119205E-20
  -13.5699997       9.05817636E-20
  -13.5600004       1.01327454E-19
  -13.5500002       1.13122868E-19
  -13.5400000       1.26044515E-19
  -13.5299997       1.40172657E-19
  -13.5200005       1.55589545E-19
  -13.5100002       1.72380691E-19
  -13.5000000       1.90633543E-19
  -13.4899998       2.10438263E-19
  -13.4799995       2.31886204E-19
  -13.4700003       2.55070835E-19
  -13.4600000       2.80086587E-19
  -13.4499998       3.07028169E-19
  -13.4399996       3.35990994E-19
  -13.4300003       3.67069746E-19
  -13.4200001       4.00358648E-19
  -13.4099998       4.35949515E-19
  -13.3999996       4.73934218E-19
  -13.3900003       5.14398032E-19
  -13.3800001       5.57425486E-19
  -13.3699999       6.03094696E-19
  -13.3599997       6.51478662E-19
  -13.3500004       7.02644487E-19
  -13.3400002       7.56652764E-19
  -13.3299999       8.13552295E-19
  -13.3199997       8.73386818E-19
  -13.3100004       9.36184199E-19
  -13.3000002       1.00196574E-18
  -13.2900000       1.07073329E-18
  -13.2799997       1.14248325E-18
  -13.2700005       1.21718583E-18
  -13.2600002       1.29480153E-18
  -13.2500000       1.37527214E-18
  -13.2399998       1.45851712E-18
  -13.2299995       1.54443378E-18
  -13.2200003       1.63290561E-18
  -13.2100000       1.72378194E-18
  -13.1999998       1.81689250E-18
  -13.1899996       1.91204163E-18
  -13.1800003       2.00900271E-18
  -13.1700001       2.10752240E-18
  -13.1599998       2.20731885E-18
  -13.1499996       2.30807483E-18
  -13.1400003       2.40944395E-18
  -13.1300001       2.51104902E-18
  -13.1199999       2.61247129E-18
  -13.1099997       2.71326594E-18
  -13.1000004       2.81295382E-18
  -13.0900002       2.91100553E-18
  -13.0799999       3.00686398E-18
  -13.0699997       3.09994082E-18
  -13.0600004       3.18960348E-18
  -13.0500002       3.27518503E-18
  -13.0400000       3.35597535E-18
  -13.0299997       3.43124031E-18
  -13.0200005       3.50019119E-18
  -13.0100002       3.56202583E-18
  -13.0000000       3.61589059E-18
  -12.9899998       3.66090700E-18
  -12.9799995       3.69615731E-18
  -12.9700003       3.72070472E-18
  -12.9600000       3.73356117E-18
  -12.9499998       3.73374853E-18
  -12.9399996       3.72021916E-18
  -12.9300003       3.69193868E-18
  -12.9200001       3.64783465E-18
  -12.9099998       3.58682388E-18
  -12.8999996       3.50779877E-18
  -12.8900003       3.40964965E-18
  -12.8800001       3.29126025E-18
  -12.8699999       3.15150457E-18
  -12.8599997       2.98925186E-18
  -12.8500004       2.80337920E-18
  -12.8400002       2.59276620E-18
  -12.8299999       2.35631021E-18
  -12.8199997       2.09288999E-18
  -12.8100004       1.80144614E-18
  -12.8000002       1.48091200E-18
  -12.7900000       1.13024418E-18
  -12.7799997       7.48428107E-19
  -12.7700005       3.34488162E-19
  -12.7600002      -1.12535803E-19
  -12.7500000      -5.93549963E-19
  -12.7399998      -1.10944483E-18
  -12.7299995      -1.66105684E-18
  -12.7200003      -2.24918929E-18
  -12.7100000      -2.87460897E-18
  -12.6999998      -3.53804463E-18
  -12.6899996      -4.24017993E-18
  -12.6800003      -4.98166587E-18
  -12.6700001      -5.76312325E-18
  -12.6599998      -6.58513936E-18
  -12.6499996      -7.44828082E-18
  -12.6400003      -8.35309565E-18
  -12.6300001      -9.30012646E-18
  -12.6199999      -1.02898985E-17
  -12.6099997      -1.13229611E-17
  -12.6000004      -1.23998849E-17
  -12.5900002      -1.35212771E-17
  -12.5799999      -1.46877763E-17
  -12.5699997      -1.59001269E-17
  -12.5600004      -1.71591289E-17
  -12.5500002      -1.84657203E-17
  -12.5400000      -1.98209548E-17
  -12.5299997      -2.12260799E-17
  -12.5200005      -2.26824835E-17
  -12.5100002      -2.41918483E-17
  -12.5000000      -2.57560617E-17
  -12.4899998      -2.73773522E-17
  -12.4799995      -2.90582792E-17
  -12.4700003      -3.08017675E-17
  -12.4600000      -3.26112515E-17
  -12.4499998      -3.44905563E-17
  -12.4399996      -3.64441120E-17
  -12.4300003      -3.84769084E-17
  -12.4200001      -4.05946496E-17
  -12.4099998      -4.28039133E-17
  -12.3999996      -4.51117307E-17
  -12.3900003      -4.75263305E-17
  -12.3800001      -5.00568017E-17
  -12.3699999      -5.27132988E-17
  -12.3599997      -5.55070815E-17
  -12.3500004      -5.84507328E-17
  -12.3400002      -6.15580665E-17
  -12.3299999      -6.48444352E-17
  -12.3199997      -6.83268127E-17
  -12.3100004      -7.20235887E-17
  -12.3000002      -7.59551980E-17
  -12.2900000      -8.01438487E-17
  -12.2799997      -8.46139063E-17
  -12.2700005      -8.93916750E-17
  -12.2600002      -9.45064901E-17
  -12.2500000      -9.99892880E-17
  -12.2399998      -1.05874089E-16
  -12.2299995      -1.12197733E-16
  -12.2200003      -1.18999857E-16
  -12.2100000      -1.26323423E-16
  -12.1999998      -1.34214925E-16
  -12.1899996      -1.42723675E-16
  -12.1800003      -1.51903130E-16
  -12.1700001      -1.61810914E-16
  -12.1599998      -1.72507604E-16
  -12.1499996      -1.84059968E-16
  -12.1400003      -1.96537558E-16
  -12.1300001      -2.10015784E-16
  -12.1199999      -2.24574322E-16
  -12.1099997      -2.40297741E-16
  -12.1000004      -2.57277523E-16
  -12.0900002      -2.75609777E-16
  -12.0799999      -2.95395805E-16
  -12.0699997      -3.16744371E-16
  -12.0600004      -3.39770564E-16
  -12.0500002      -3.64594982E-16
  -12.0400000      -3.91346692E-16
  -12.0299997      -4.20160926E-16
  -12.0200005      -4.51179881E-16
  -12.0100002      -4.84555574E-16
  -12.0000000      -5.20445630E-16
  -11.9899998      -5.59017922E-16
  -11.9799995      -6.00446886E-16
  -11.9700003      -6.44917863E-16
  -11.9600000      -6.92623764E-16
  -11.9499998      -7.43767508E-16
  -11.9399996      -7.98560587E-16
  -11.9300003      -8.57225454E-16
  -11.9200001      -9.19997001E-16
  -11.9099998      -9.87115997E-16
  -11.8999996      -1.05883438E-15
  -11.8900003      -1.13542014E-15
  -11.8800001      -1.21714728E-15
  -11.8699999      -1.30430072E-15
  -11.8599997      -1.39718381E-15
  -11.8500004      -1.49610233E-15
  -11.8400002      -1.60138196E-15
  -11.8299999      -1.71335358E-15
  -11.8199997      -1.83236668E-15
  -11.8100004      -1.95878233E-15
  -11.8000002      -2.09296823E-15
  -11.7900000      -2.23531360E-15
  -11.7799997      -2.38621357E-15
  -11.7700005      -2.54607918E-15
  -11.7600002      -2.71533479E-15
  -11.7500000      -2.89440962E-15
  -11.7399998      -3.08376469E-15
  -11.7299995      -3.28385610E-15
  -11.7200003      -3.49515906E-15
  -11.7100000      -3.71816547E-15
  -11.6999998      -3.95336831E-15
  -11.6899996      -4.20128554E-15
  -11.6800003      -4.46243426E-15
  -11.6700001      -4.73736634E-15
  -11.6599998      -5.02661115E-15
  -11.6499996      -5.33074764E-15
  -11.6400003      -5.65032428E-15
  -11.6300001      -5.98594033E-15
  -11.6199999      -6.33817475E-15
  -11.6099997      -6.70762342E-15
  -11.6000004      -7.09490636E-15
  -11.5900002      -7.50062328E-15
  -11.5799999      -7.92539676E-15
  -11.5699997      -8.36987729E-15
  -11.5600004      -8.83466121E-15
  -11.5500002      -9.32040412E-15
  -11.5400000      -9.82774043E-15
  -11.5299997      -1.03573131E-14
  -11.5200005      -1.09097640E-14
  -11.5100002      -1.14857193E-14
  -11.5000000      -1.20858490E-14
  -11.4899998      -1.27107416E-14
  -11.4799995      -1.33610427E-14
  -11.4700003      -1.40373798E-14
  -11.4600000      -1.47403486E-14
  -11.4499998      -1.54705367E-14
  -11.4399996      -1.62285804E-14
  -11.4300003      -1.70150064E-14
  -11.4200001      -1.78303434E-14
  -11.4099998      -1.86751673E-14
  -11.3999996      -1.95499575E-14
  -11.3900003      -2.04552019E-14
  -11.3800001      -2.13913394E-14
  -11.3699999      -2.23588068E-14
  -11.3599997      -2.33579703E-14
  -11.3500004      -2.43891804E-14
  -11.3400002      -2.54527793E-14
  -11.3299999      -2.65489840E-14
  -11.3199997      -2.76780331E-14
  -11.3100004      -2.88400285E-14
  -11.3000002      -3.00351412E-14
  -11.2900000      -3.12634169E-14
  -11.2799997      -3.25247980E-14
  -11.2700005      -3.38191694E-14
  -11.2600002      -3.51464395E-14
  -11.2500000      -3.65063103E-14
  -11.2399998      -3.78985139E-14
  -11.2299995      -3.93226406E-14
  -11.2200003      -4.07780668E-14
  -11.2100000      -4.22644267E-14
  -11.1999998      -4.37807275E-14
  -11.1899996      -4.53264406E-14
  -11.1800003      -4.69004582E-14
  -11.1700001      -4.85018350E-14
  -11.1599998      -5.01293715E-14
  -11.1499996      -5.17818380E-14
  -11.1400003      -5.34576960E-14
  -11.1300001      -5.51554855E-14
  -11.1199999      -5.68734987E-14
  -11.1099997      -5.86095910E-14
  -11.1000004      -6.03620344E-14
  -11.0900002      -6.21287283E-14
  -11.0799999      -6.39069283E-14
  -11.0699997      -6.56943304E-14
  -11.0600004      -6.74881564E-14
  -11.0500002      -6.92854723E-14
  -11.0400000      -7.10832014E-14
  -11.0299997      -7.28778881E-14
  -11.0200005      -7.46661102E-14
  -11.0100002      -7.64442288E-14
  -11.0000000      -7.82080496E-14
  -10.9899998      -7.99533508E-14
  -10.9799995      -8.16758363E-14
  -10.9700003      -8.33707425E-14
  -10.9600000      -8.50333869E-14
  -10.9499998      -8.66581248E-14
  -10.9399996      -8.82397047E-14
  -10.9300003      -8.97724820E-14
  -10.9200001      -9.12505206E-14
  -10.9099998      -9.26674915E-14
  -10.8999996      -9.40168895E-14
  -10.8900003      -9.52918571E-14
  -10.8800001      -9.64851774E-14
  -10.8699999      -9.75895458E-14
  -10.8599997      -9.85972778E-14
  -10.8500004      -9.95001675E-14
  -10.8400002      -1.00290178E-13
  -10.8299999      -1.00958568E-13
  -10.8199997      -1.01496102E-13
  -10.8100004      -1.01894099E-13
  -10.8000002      -1.02142375E-13
  -10.7900000      -1.02231212E-13
  -10.7799997      -1.02150771E-13
  -10.7700005      -1.01890284E-13
  -10.7600002      -1.01438457E-13
  -10.7500000      -1.00784662E-13
  -10.7399998      -9.99171923E-14
  -10.7299995      -9.88243639E-14
  -10.7200003      -9.74940072E-14
  -10.7100000      -9.59134099E-14
  -10.6999998      -9.40702797E-14
  -10.6899996      -9.19511930E-14
  -10.6800003      -8.95432139E-14
  -10.6700001      -8.68319563E-14
  -10.6599998      -8.38041794E-14
  -10.6499996      -8.04455108E-14
  -10.6400003      -7.67415238E-14
  -10.6300001      -7.26773513E-14
  -10.6199999      -6.82378958E-14
  -10.6099997      -6.34084934E-14
  -10.6000004      -5.81730912E-14
  -10.5900002      -5.25163070E-14
  -10.5799999      -4.64219117E-14
  -10.5699997      -3.98744724E-14
  -10.5600004      -3.28579090E-14
  -10.5500002      -2.53549301E-14
  -10.5400000      -1.73495726E-14
  -10.5299997      -8.82576737E-15
  -10.5200005       2.34244844E-16
  -10.5100002       9.84614561E-15
  -10.5000000       2.00276976E-14
  -10.4899998       3.07952685E-14
  -10.4799995       4.21654289E-14
  -10.4700003       5.41555529E-14
  -10.4600000       6.67819546E-14
  -10.4499998       8.00608427E-14
  -10.4399996       9.40101743E-14
  -10.4300003       1.08644945E-13
  -10.4200001       1.23981907E-13
  -10.4099998       1.40036827E-13
  -10.3999996       1.56825467E-13
  -10.3900003       1.74363182E-13
  -10.3800001       1.92665504E-13
  -10.3699999       2.11746609E-13
  -10.3599997       2.31621010E-13
  -10.3500004       2.52302628E-13
  -10.3400002       2.73804877E-13
  -10.3299999       2.96140038E-13
  -10.3199997       3.19320904E-13
  -10.3100004       3.43358886E-13
  -10.3000002       3.68264880E-13
  -10.2900000       3.94048997E-13
  -10.2799997       4.20720506E-13
  -10.2700005       4.48287972E-13
  -10.2600002       4.76759040E-13
  -10.2500000       5.06140540E-13
  -10.2399998       5.36437973E-13
  -10.2299995       5.67655840E-13
  -10.2200003       5.99797718E-13
  -10.2100000       6.32866426E-13
  -10.1999998       6.66862128E-13
  -10.1899996       7.01784822E-13
  -10.1800003       7.37633262E-13
  -10.1700001       7.74404141E-13
  -10.1599998       8.12092689E-13
  -10.1499996       8.50693485E-13
  -10.1400003       8.90198397E-13
  -10.1300001       9.30597504E-13
  -10.1199999       9.71880779E-13
  -10.1099997       1.01403478E-12
  -10.1000004       1.05704443E-12
  -10.0900002       1.10089260E-12
  -10.0799999       1.14556043E-12
  -10.0699997       1.19102861E-12
  -10.0600004       1.23727265E-12
  -10.0500002       1.28426642E-12
  -10.0400000       1.33198422E-12
  -10.0299997       1.38039580E-12
  -10.0200005       1.42946798E-12
  -10.0100002       1.47916597E-12
  -10.0000000       1.52945332E-12
  -9.98999977       1.58028918E-12
  -9.97999954       1.63163005E-12
  -9.97000027       1.68343226E-12
  -9.96000004       1.73564537E-12
  -9.94999981       1.78822246E-12
  -9.93999958       1.84110561E-12
  -9.93000031       1.89423846E-12
  -9.92000008       1.94756147E-12
  -9.90999985       2.00101090E-12
  -9.89999962       2.05452278E-12
  -9.89000034       2.10802599E-12
  -9.88000011       2.16144724E-12
  -9.86999989       2.21471084E-12
  -9.85999966       2.26773916E-12
  -9.85000038       2.32044635E-12
  -9.84000015       2.37275065E-12
  -9.82999992       2.42455903E-12
  -9.81999969       2.47577935E-12
  -9.81000042       2.52631358E-12
  -9.80000019       2.57606826E-12
  -9.78999996       2.62493261E-12
  -9.77999973       2.67280122E-12
  -9.77000046       2.71956980E-12
  -9.76000023       2.76511192E-12
  -9.75000000       2.80932179E-12
  -9.73999977       2.85206949E-12
  -9.72999954       2.89323643E-12
  -9.72000027       2.93268925E-12
  -9.71000004       2.97029675E-12
  -9.69999981       3.00592927E-12
  -9.68999958       3.03943871E-12
  -9.68000031       3.07068780E-12
  -9.67000008       3.09953148E-12
  -9.65999985       3.12581558E-12
  -9.64999962       3.14939481E-12
  -9.64000034       3.17010762E-12
  -9.63000011       3.18779465E-12
  -9.61999989       3.20229173E-12
  -9.60999966       3.21343690E-12
  -9.60000038       3.22106231E-12
  -9.59000015       3.22499969E-12
  -9.57999992       3.22506084E-12
  -9.56999969       3.22108312E-12
  -9.56000042       3.21288417E-12
  -9.55000019       3.20028292E-12
  -9.53999996       3.18308899E-12
  -9.52999973       3.16112371E-12
  -9.52000046       3.13418714E-12
  -9.51000023       3.10209128E-12
  -9.50000000       3.06465769E-12
  -9.48999977       3.02167861E-12
  -9.47999954       2.97295868E-12
  -9.47000027       2.91830709E-12
  -9.46000004       2.85752238E-12
  -9.44999981       2.79041026E-12
  -9.43999958       2.71676757E-12
  -9.43000031       2.63638829E-12
  -9.42000008       2.54908659E-12
  -9.40999985       2.45464976E-12
  -9.39999962       2.35289436E-12
  -9.39000034       2.24359160E-12
  -9.38000011       2.12657626E-12
  -9.36999989       2.00162846E-12
  -9.35999966       1.86855674E-12
  -9.35000038       1.72718025E-12
  -9.34000015       1.57728258E-12
  -9.32999992       1.41869958E-12
  -9.31999969       1.25122330E-12
  -9.31000042       1.07467279E-12
  -9.30000019       8.88873231E-13
  -9.28999996       6.93641054E-13
  -9.27999973       4.88793305E-13
  -9.27000046       2.74181312E-13
  -9.26000023       4.96080092E-14
  -9.25000000      -1.85054852E-13
  -9.23999977      -4.29987914E-13
  -9.22999954      -6.85318447E-13
  -9.22000027      -9.51208079E-13
  -9.21000004      -1.22778838E-12
  -9.19999981      -1.51519585E-12
  -9.18999958      -1.81354812E-12
  -9.18000031      -2.12294874E-12
  -9.17000008      -2.44352000E-12
  -9.15999985      -2.77536002E-12
  -9.14999962      -3.11855836E-12
  -9.14000034      -3.47318203E-12
  -9.13000011      -3.83931472E-12
  -9.11999989      -4.21701086E-12
  -9.10999966      -4.60632227E-12
  -9.10000038      -5.00728842E-12
  -9.09000015      -5.41992276E-12
  -9.07999992      -5.84425867E-12
  -9.06999969      -6.28027274E-12
  -9.06000042      -6.72797495E-12
  -9.05000019      -7.18732756E-12
  -9.03999996      -7.65829327E-12
  -9.02999973      -8.14081528E-12
  -9.02000046      -8.63482202E-12
  -9.01000023      -9.14023111E-12
  -9.00000000      -9.65694451E-12
  -8.98999977      -1.01848382E-11
  -8.97999954      -1.07237769E-11
  -8.97000027      -1.12736079E-11
  -8.96000004      -1.18341673E-11
  -8.94999981      -1.24052574E-11
  -8.93999958      -1.29866794E-11
  -8.93000031      -1.35781924E-11
  -8.92000008      -1.41795638E-11
  -8.90999985      -1.47905178E-11
  -8.89999962      -1.54107716E-11
  -8.89000034      -1.60400044E-11
  -8.88000011      -1.66778986E-11
  -8.86999989      -1.73240970E-11
  -8.85999966      -1.79782213E-11
  -8.85000038      -1.86398726E-11
  -8.84000015      -1.93086363E-11
  -8.82999992      -1.99840786E-11
  -8.81999969      -2.06656931E-11
  -8.81000042      -2.13530339E-11
  -8.80000019      -2.20455390E-11
  -8.78999996      -2.27427122E-11
  -8.77999973      -2.34439516E-11
  -8.77000046      -2.41486726E-11
  -8.76000023      -2.48562698E-11
  -8.75000000      -2.55660961E-11
  -8.73999977      -2.62774507E-11
  -8.72999954      -2.69896674E-11
  -8.72000027      -2.77020195E-11
  -8.71000004      -2.84137644E-11
  -8.69999981      -2.91241024E-11
  -8.68999958      -2.98322304E-11
  -8.68000031      -3.05373400E-11
  -8.67000008      -3.12385569E-11
  -8.65999985      -3.19349928E-11
  -8.64999962      -3.26257459E-11
  -8.64000034      -3.33098722E-11
  -8.63000011      -3.39864178E-11
  -8.61999989      -3.46543592E-11
  -8.60999966      -3.53126695E-11
  -8.60000038      -3.59603493E-11
  -8.59000015      -3.65962677E-11
  -8.57999992      -3.72193769E-11
  -8.56999969      -3.78285181E-11
  -8.56000042      -3.84225186E-11
  -8.55000019      -3.90002648E-11
  -8.53999996      -3.95604556E-11
  -8.52999973      -4.01019912E-11
  -8.52000046      -4.06234560E-11
  -8.51000023      -4.11237017E-11
  -8.50000000      -4.16013786E-11
  -8.48999977      -4.20551580E-11
  -8.47999954      -4.24837457E-11
  -8.47000027      -4.28856707E-11
  -8.46000004      -4.32595869E-11
  -8.44999981      -4.36041273E-11
  -8.43999958      -4.39178242E-11
  -8.43000031      -4.41991894E-11
  -8.42000008      -4.44468386E-11
  -8.40999985      -4.46592485E-11
  -8.39999962      -4.48348650E-11
  -8.39000034      -4.49722828E-11
  -8.38000011      -4.50698472E-11
  -8.36999989      -4.51260695E-11
  -8.35999966      -4.51393888E-11
  -8.35000038      -4.51082331E-11
  -8.34000015      -4.50309998E-11
  -8.32999992      -4.49062003E-11
  -8.31999969      -4.47321589E-11
  -8.31000042      -4.45072069E-11
  -8.30000019      -4.42298490E-11
  -8.28999996      -4.38985133E-11
  -8.27999973      -4.35114375E-11
  -8.27000046      -4.30670638E-11
  -8.26000023      -4.25638517E-11
  -8.25000000      -4.20000909E-11
  -8.23999977      -4.13743068E-11
  -8.22999954      -4.06847889E-11
  -8.22000027      -3.99299621E-11
  -8.21000004      -3.91082618E-11
  -8.19999981      -3.82181786E-11
  -8.18999958      -3.72580369E-11
  -8.18000031      -3.62265495E-11
  -8.17000008      -3.51219331E-11
  -8.15999985      -3.39427271E-11
  -8.14999962      -3.26874916E-11
  -8.14000034      -3.13548527E-11
  -8.13000011      -2.99431556E-11
  -8.11999989      -2.84512310E-11
  -8.10999966      -2.68776060E-11
  -8.10000038      -2.52209885E-11
  -8.09000015      -2.34800287E-11
  -8.07999992      -2.16534516E-11
  -8.06999969      -1.97401210E-11
  -8.06000042      -1.77386265E-11
  -8.05000019      -1.56481477E-11
  -8.03999996      -1.34673947E-11
  -8.02999973      -1.11952522E-11
  -8.02000046      -8.83091864E-12
  -8.01000023      -6.37326476E-12
  -8.00000000      -3.82154811E-12
  -7.98999977      -1.17498817E-12
  -7.98000002       1.56726552E-12
  -7.96999979       4.40590316E-12
  -7.96000004       7.34152929E-12
  -7.94999981       1.03748503E-11
  -7.94000006       1.35061302E-11
  -7.92999983       1.67357031E-11
  -7.92000008       2.00642489E-11
  -7.90999985       2.34917363E-11
  -7.90000010       2.70183806E-11
  -7.88999987       3.06443239E-11
  -7.88000011       3.43695038E-11
  -7.86999989       3.81937815E-11
  -7.86000013       4.21170876E-11
  -7.84999990       4.61389052E-11
  -7.84000015       5.02589290E-11
  -7.82999992       5.44767842E-11
  -7.82000017       5.87916937E-11
  -7.80999994       6.32030261E-11
  -7.80000019       6.77099210E-11
  -7.78999996       7.23114277E-11
  -7.78000021       7.70066025E-11
  -7.76999998       8.17940576E-11
  -7.76000023       8.66726482E-11
  -7.75000000       9.16408824E-11
  -7.73999977       9.66972336E-11
  -7.73000002       1.01840106E-10
  -7.71999979       1.07067584E-10
  -7.71000004       1.12377732E-10
  -7.69999981       1.17768365E-10
  -7.69000006       1.23237587E-10
  -7.67999983       1.28782748E-10
  -7.67000008       1.34401490E-10
  -7.65999985       1.40091036E-10
  -7.65000010       1.45848708E-10
  -7.63999987       1.51671592E-10
  -7.63000011       1.57556537E-10
  -7.61999989       1.63500352E-10
  -7.61000013       1.69499553E-10
  -7.59999990       1.75550657E-10
  -7.59000015       1.81649931E-10
  -7.57999992       1.87793642E-10
  -7.57000017       1.93977640E-10
  -7.55999994       2.00197747E-10
  -7.55000019       2.06449691E-10
  -7.53999996       2.12728890E-10
  -7.53000021       2.19030863E-10
  -7.51999998       2.25350683E-10
  -7.51000023       2.31683214E-10
  -7.50000000       2.38023462E-10
  -7.48999977       2.44366027E-10
  -7.48000002       2.50705678E-10
  -7.46999979       2.57036337E-10
  -7.46000004       2.63352617E-10
  -7.44999981       2.69648304E-10
  -7.44000006       2.75917345E-10