  -16.0000000       0.00000000    
  -15.9899998       0.00000000    
  -15.9799995       0.00000000    
  -15.9700003       0.00000000    
  -15.9600000       0.00000000    
  -15.9499998       0.00000000    
  -15.9399996       0.00000000    
  -15.9300003       0.00000000    
  -15.9200001       0.00000000    
  -15.9099998       0.00000000    
  -15.8999996       0.00000000    
  -15.8900003       0.00000000    
  -15.8800001       0.00000000    
  -15.8699999       0.00000000    
  -15.8599997       0.00000000    
  -15.8500004       0.00000000    
  -15.8400002       0.00000000    
  -15.8299999       0.00000000    
  -15.8199997       0.00000000    
  -15.8100004       0.00000000    
  -15.8000002       0.00000000    
  -15.7900000       0.00000000    
  -15.7799997       0.00000000    
  -15.7700005       0.00000000    
  -15.7600002       0.00000000    
  -15.7500000       0.00000000    
  -15.7399998       0.00000000    
  -15.7299995       0.00000000    
  -15.7200003       0.00000000    
  -15.7100000       0.00000000    
  -15.6999998      -0.00000000    
  -15.6899996      -0.00000000    
  -15.6800003      -0.00000000    
  -15.6700001      -0.00000000    
  -15.6599998      -0.00000000    
  -15.6499996       0.00000000    
  -15.6400003       0.00000000    
  -15.6300001       0.00000000    
  -15.6199999       1.40129846E-45
  -15.6099997       1.40129846E-45
  -15.6000004       1.40129846E-45
  -15.5900002       1.40129846E-45
  -15.5799999       1.40129846E-45
  -15.5699997       2.80259693E-45
  -15.5600004       2.80259693E-45
  -15.5500002      -0.00000000    
  -15.5400000      -4.20389539E-45
  -15.5299997       0.00000000    
  -15.5200005       2.80259693E-45
  -15.5100002       4.20389539E-45
  -15.5000000       4.20389539E-45
  -15.4899998      -0.00000000    
  -15.4799995       7.00649232E-45
  -15.4700003       1.54142831E-44
  -15.4600000       1.96181785E-44
  -15.4499998       2.94272678E-44
  -15.4399996       4.06376555E-44
  -15.4300003       5.32493416E-44
  -15.4200001       7.42688186E-44
  -15.4099998       9.94921910E-44
  -15.3999996       1.23314265E-43
  -15.3900003       1.52741533E-43
  -15.3800001       1.94780487E-43
  -15.3699999       2.42424634E-43
  -15.3599997       2.95673976E-43
  -15.3500004       3.54528511E-43
  -15.3400002       4.24593435E-43
  -15.3299999       4.98862253E-43
  -15.3199997       5.87144057E-43
  -15.3100004       6.96445337E-43
  -15.3000002       8.35173885E-43
  -15.2900000       1.03135567E-42
  -15.2799997       1.29479978E-42
  -15.2700005       1.64512440E-42
  -15.2600002       2.10755289E-42
  -15.2500000       2.69469695E-42
  -15.2399998       3.36732021E-42
  -15.2299995       4.02873308E-42
  -15.2200003       4.51077976E-42
  -15.2100000       4.56402910E-42
  -15.1999998       3.96006946E-42
  -15.1899996       2.52794243E-42
  -15.1800003       3.01279170E-43
  -15.1700001      -2.32895805E-42
  -15.1599998      -4.54160832E-42
  -15.1499996      -5.07970693E-42
  -15.1400003      -2.43685803E-42
  -15.1300001       4.75180309E-42
  -15.1199999       1.70481971E-41
  -15.1099997       3.35386774E-41
  -15.1000004       5.12174589E-41
  -15.0900002       6.48128566E-41
  -15.0799999       6.73239834E-41
  -15.0699997       5.14542783E-41
  -15.0600004       1.19712928E-41
  -15.0500002      -5.14108381E-41
  -15.0400000      -1.31303067E-40
  -15.0299997      -2.11130837E-40
  -15.0200005      -2.66002882E-40
  -15.0100002      -2.66753978E-40
  -15.0000000      -1.87262520E-40
  -14.9899998      -1.41531145E-41
  -14.9799995       2.43157513E-40
  -14.9700003       5.45262048E-40
  -14.9600000       8.21935818E-40
  -14.9499998       9.80382037E-40
  -14.9399996       9.23747158E-40
  -14.9300003       5.78059439E-40
  -14.9200001      -7.76249284E-41
  -14.9099998      -9.85861114E-40
  -14.8999996      -1.99950297E-39
  -14.8900003      -2.89273685E-39
  -14.8800001      -3.39858178E-39
  -14.8699999      -3.26984869E-39
  -14.8599997      -2.35261197E-39
  -14.8500004      -6.53990197E-40
  -14.8400002       1.61754684E-39
  -14.8299999       4.05913986E-39
  -14.8199997       6.13813289E-39
  -14.8100004       7.30904107E-39
  -14.8000002       7.15966545E-39
  -14.7900000       5.54674990E-39
  -14.7799997       2.67418894E-39
  -14.7700005      -9.27023394E-40
  -14.7600002      -4.53534452E-39
  -14.7500000      -7.47366982E-39
  -14.7399998      -9.38287311E-39
  -14.7299995      -1.04390836E-38
  -14.7200003      -1.14065303E-38
  -14.7100000      -1.34394444E-38
  -14.6999998      -1.76066188E-38
  -14.6899996      -2.42069994E-38
  -14.6800003      -3.20517793E-38
  -14.6700001      -3.79782796E-38
  -14.6599998      -3.68944678E-38
  -14.6499996      -2.26002495E-38
  -14.6400003       1.05265443E-38
  -14.6300001       6.51418871E-38
  -14.6199999       1.38306174E-37
  -14.6099997       2.19349015E-37
  -14.6000004       2.89119285E-37
  -14.5900002       3.21454998E-37
  -14.5799999       2.87393827E-37
  -14.5699997       1.62053912E-37
  -14.5600004      -6.66590337E-38
  -14.5500002      -3.89186591E-37
  -14.5400000      -7.67606277E-37
  -14.5299997      -1.13363943E-36
  -14.5200005      -1.39358868E-36
  -14.5100002      -1.44141237E-36
  -14.5000000      -1.17947843E-36
  -14.4899998      -5.44500011E-37
  -14.4799995       4.65845554E-37
  -14.4700003       1.77168106E-36
  -14.4600000       3.20161750E-36
  -14.4499998       4.50103775E-36
  -14.4399996       5.36124793E-36
  -14.4300003       5.46891034E-36
  -14.4200001       4.57060565E-36
  -14.4099998       2.54269907E-36
  -14.3999996      -5.46849618E-37
  -14.3900003      -4.39965818E-36
  -14.3800001      -8.48463629E-36
  -14.3699999      -1.20813943E-35
  -14.3599997      -1.43711287E-35
  -14.3500004      -1.45676438E-35
  -14.3400002      -1.20715679E-35
  -14.3299999      -6.62267304E-36
  -14.3199997       1.57932642E-36
  -14.3100004       1.18150391E-35
  -14.3000002       2.28699428E-35
  -14.2900000       3.31553950E-35
  -14.2799997       4.09218569E-35
  -14.2700005       4.45421815E-35
  -14.2600002       4.28260257E-35
  -14.2500000       3.53127457E-35
  -14.2399998       2.24850144E-35
  -14.2299995       5.84840977E-36
  -14.2200003      -1.21634751E-35
  -14.2100000      -2.84751826E-35
  -14.1999998      -3.98310693E-35
  -14.1899996      -4.33820294E-35
  -14.1800003      -3.73123775E-35
  -14.1700001      -2.13936098E-35
  -14.1599998       2.65954126E-36
  -14.1499996       3.11522361E-35
  -14.1400003       5.87844177E-35
  -14.1300001       7.94769007E-35
  -14.1199999       8.76178649E-35
  -14.1099997       7.96058894E-35
  -14.1000004       5.54767040E-35
  -14.0900002       2.03150148E-35
  -14.0799999      -1.49010052E-35
  -14.0699997      -3.33852076E-35
  -14.0600004      -1.38730474E-35
  -14.0500002       6.66184045E-35
  -14.0400000       2.28597950E-34
  -14.0299997       4.84742095E-34
  -14.0200005       8.33928753E-34
  -14.0100002       1.25552742E-33
  -14.0000000       1.70506558E-33
  -13.9899998       2.11255877E-33
  -13.9799995       2.38479904E-33
  -13.9700003       2.41270693E-33
  -13.9600000       2.08440881E-33
  -13.9499998       1.30402786E-33
  -13.9399996       1.52454270E-35
  -13.9300003      -1.77241865E-33
  -13.9200001      -3.95786009E-33
  -13.9099998      -6.32760821E-33
  -13.8999996      -8.54539210E-33
  -13.8900003      -1.01580528E-32
  -13.8800001      -1.06237227E-32
  -13.8699999      -9.36750052E-33
  -13.8599997      -5.86792711E-33
  -13.8500004       2.24955800E-34
  -13.8400002       8.94335057E-33
  -13.8299999       1.98351242E-32
  -13.8199997       3.17903572E-32
  -13.8100004       4.28798798E-32
  -13.8000002       5.02302196E-32
  -13.7900000       4.99621657E-32
  -13.7799997       3.72236185E-32
  -13.7700005       6.34248336E-33
  -13.7600002      -4.88757386E-32
  -13.7500000      -1.34698228E-31
  -13.7399998      -2.56866463E-31
  -13.7299995      -4.19878495E-31
  -13.7200003      -6.26205824E-31
  -13.7100000      -8.75527283E-31
  -13.6999998      -1.16409046E-30
  -13.6899996      -1.48432794E-30
  -13.6800003      -1.82486527E-30
  -13.6700001      -2.17102973E-30
  -13.6599998      -2.50591491E-30
  -13.6499996      -2.81194593E-30
  -13.6400003      -3.07266851E-30
  -13.6300001      -3.27426033E-30
  -13.6199999      -3.40574906E-30
  -13.6099997      -3.45644917E-30
  -13.6000004      -3.40828775E-30
  -13.5900002      -3.21970009E-30
  -13.5799999      -2.79656877E-30
  -13.5699997      -1.94401450E-30
  -13.5600004      -2.90796590E-31
  -13.5500002       2.82371479E-30
  -13.5400000       8.51402998E-30
  -13.5299997       1.85798268E-29
  -13.5200005       3.58264016E-29
  -13.5100002       6.44957647E-29
  -13.5000000       1.10843467E-28
  -13.4899998       1.83889019E-28
  -13.4799995       2.96390820E-28
  -13.4700003       4.66084435E-28
  -13.4600000       7.17250063E-28
  -13.4499998       1.08266373E-27
  -13.4399996       1.60602017E-27
  -13.4300003       2.34488808E-27
  -13.4200001       3.37431092E-27
  -13.4099998       4.79114632E-27
  -13.3999996       6.71926913E-27
  -13.3900003       9.31573624E-27
  -13.3800001       1.27780891E-26
  -13.3699999       1.73528984E-26
  -13.3599997       2.33457422E-26
  -13.3500004       3.11327685E-26
  -13.3400002       4.11740896E-26
  -13.3299999       5.40289540E-26
  -13.3199997       7.03733877E-26
  -13.3100004       9.10197758E-26
  -13.3000002       1.16939557E-25
  -13.2900000       1.49288081E-25
  -13.2799997       1.89433052E-25
  -13.2700005       2.38985806E-25
  -13.2600002       2.99836268E-25
  -13.2500000       3.74191215E-25
  -13.2399998       4.64617232E-25
  -13.2299995       5.74086769E-25
  -13.2200003       7.06028439E-25
  -13.2100000       8.64382997E-25
  -13.1999998       1.05366140E-24
  -13.1899996       1.27901105E-24
  -13.1800003       1.54628314E-24
  -13.1700001       1.86210696E-24
  -13.1599998       2.23396889E-24
  -13.1499996       2.67029456E-24
  -13.1400003       3.18053729E-24
  -13.1300001       3.77526978E-24
  -13.1199999       4.46628274E-24
  -13.1099997       5.26668153E-24
  -13.1000004       6.19099498E-24
  -13.0900002       7.25527917E-24
  -13.0799999       8.47722787E-24
  -13.0699997       9.87628925E-24
  -13.0600004       1.14737783E-23
  -13.0500002       1.32929847E-23
  -13.0400000       1.53592906E-23
  -13.0299997       1.77002922E-23
  -13.0200005       2.03459029E-23
  -13.0100002       2.33284550E-23
  -13.0000000       2.66828257E-23
  -12.9899998       3.04465032E-23
  -12.9799995       3.46596925E-23
  -12.9700003       3.93654150E-23
  -12.9600000       4.46095541E-23
  -12.9499998       5.04408928E-23
  -12.9399996       5.69112277E-23
  -12.9300003       6.40753280E-23
  -12.9200001       7.19909855E-23
  -12.9099998       8.07189615E-23
  -12.8999996       9.03230149E-23
  -12.8900003       1.00869795E-22
  -12.8800001       1.12428810E-22
  -12.8699999       1.25072268E-22
  -12.8599997       1.38874949E-22
  -12.8500004       1.53914020E-22
  -12.8400002       1.70268798E-22
  -12.8299999       1.88020680E-22
  -12.8199997       2.07252516E-22
  -12.8100004       2.28048656E-22
  -12.8000002       2.50494286E-22
  -12.7900000       2.74675233E-22
  -12.7799997       3.00677250E-22
  -12.7700005       3.28585760E-22
  -12.7600002       3.58485078E-22
  -12.7500000       3.90458077E-22
  -12.7399998       4.24585235E-22
  -12.7299995       4.60943973E-22
  -12.7200003       4.99608204E-22
  -12.7100000       5.40646945E-22
  -12.6999998       5.84123909E-22
  -12.6899996       6.30096552E-22
  -12.6800003       6.78614855E-22
  -12.6700001       7.29720420E-22
  -12.6599998       7.83445508E-22
  -12.6499996       8.39811929E-22
  -12.6400003       8.98829580E-22
  -12.6300001       9.60495733E-22
  -12.6199999       1.02479327E-21
  -12.6099997       1.09169009E-21
  -12.6000004       1.16113732E-21
  -12.5900002       1.23306830E-21
  -12.5799999       1.30739703E-21
  -12.5699997       1.38401655E-21
  -12.5600004       1.46279904E-21
  -12.5500002       1.54359263E-21
  -12.5400000       1.62622153E-21
  -12.5299997       1.71048369E-21
  -12.5200005       1.79615060E-21
  -12.5100002       1.88296519E-21
  -12.5000000       1.97064129E-21
  -12.4899998       2.05886224E-21
  -12.4799995       2.14727989E-21
  -12.4700003       2.23551356E-21
  -12.4600000       2.32314968E-21
  -12.4499998       2.40973969E-21
  -12.4399996       2.49480157E-21
  -12.4300003       2.57781690E-21
  -12.4200001       2.65823295E-21
  -12.4099998       2.73546044E-21
  -12.3999996       2.80887373E-21
  -12.3900003       2.87781184E-21
  -12.3800001       2.94157805E-21
  -12.3699999       2.99944010E-21
  -12.3599997       3.05063160E-21
  -12.3500004       3.09435221E-21
  -12.3400002       3.12976750E-21
  -12.3299999       3.15601372E-21
  -12.3199997       3.17219484E-21
  -12.3100004       3.17738814E-21
  -12.3000002       3.17064286E-21
  -12.2900000       3.15098359E-21
  -12.2799997       3.11741371E-21
  -12.2700005       3.06891560E-21
  -12.2600002       3.00445549E-21
  -12.2500000       2.92298507E-21
  -12.2399998       2.82344471E-21
  -12.2299995       2.70476771E-21
  -12.2200003       2.56588276E-21
  -12.2100000       2.40571728E-21
  -12.1999998       2.22320259E-21
  -12.1899996       2.01727642E-21
  -12.1800003       1.78688723E-21
  -12.1700001       1.53099792E-21
  -12.1599998       1.24859026E-21
  -12.1499996       9.38668141E-22
  -12.1400003       6.00262615E-22
  -12.1300001       2.32432956E-22
  -12.1199999      -1.65726373E-22
  -12.1099997      -5.95085466E-22
  -12.1000004      -1.05647383E-21
  -12.0900002      -1.55067931E-21
  -12.0799999      -2.07844457E-21
  -12.0699997      -2.64046694E-21
  -12.0600004      -3.23739630E-21
  -12.0500002      -3.86983363E-21
  -12.0400000      -4.53833330E-21
  -12.0299997      -5.24340581E-21
  -12.0200005      -5.98551324E-21
  -12.0100002      -6.76508008E-21
  -12.0000000      -7.58249326E-21
  -11.9899998      -8.43810982E-21
  -11.9799995      -9.33226379E-21
  -11.9700003      -1.02652734E-20
  -11.9600000      -1.12374522E-20
  -11.9499998      -1.22491207E-20
  -11.9399996      -1.33006240E-20
  -11.9300003      -1.43923433E-20
  -11.9200001      -1.55247180E-20
  -11.9099998      -1.66982659E-20
  -11.8999996      -1.79136011E-20
  -11.8900003      -1.91714697E-20
  -11.8800001      -2.04727799E-20
  -11.8699999      -2.18186141E-20
  -11.8599997      -2.32102970E-20
  -11.8500004      -2.46494055E-20
  -11.8400002      -2.61378362E-20
  -11.8299999      -2.76778220E-20
  -11.8199997      -2.92720155E-20
  -11.8100004      -3.09235204E-20
  -11.8000002      -3.26359619E-20
  -11.7900000      -3.44135408E-20
  -11.7799997      -3.62611327E-20
  -11.7700005      -3.81843082E-20
  -11.7600002      -4.01894619E-20
  -11.7500000      -4.22838703E-20
  -11.7399998      -4.44757890E-20
  -11.7299995      -4.67745595E-20
  -11.7200003      -4.91906700E-20
  -11.7100000      -5.17359242E-20
  -11.6999998      -5.44234954E-20
  -11.6899996      -5.72681049E-20
  -11.6800003      -6.02860927E-20
  -11.6700001      -6.34955987E-20
  -11.6599998      -6.69166433E-20
  -11.6499996      -7.05713663E-20
  -11.6400003      -7.44840986E-20
  -11.6300001      -7.86815491E-20
  -11.6199999      -8.31930116E-20
  -11.6099997      -8.80504681E-20
  -11.6000004      -9.32888349E-20
  -11.5900002      -9.89461300E-20
  -11.5799999      -1.05063673E-19
  -11.5699997      -1.11686327E-19
  -11.5600004      -1.18862610E-19
  -11.5500002      -1.26645048E-19
  -11.5400000      -1.35090317E-19
  -11.5299997      -1.44259497E-19
  -11.5200005      -1.54218326E-19
  -11.5100002      -1.65037460E-19
  -11.5000000      -1.76792718E-19
  -11.4899998      -1.89565330E-19
  -11.4799995      -2.03442254E-19
  -11.4700003      -2.18516380E-19
  -11.4600000      -2.34886905E-19
  -11.4499998      -2.52659501E-19
  -11.4399996      -2.71946767E-19
  -11.4300003      -2.92868388E-19
  -11.4200001      -3.15551490E-19
  -11.4099998      -3.40130929E-19
  -11.3999996      -3.66749731E-19
  -11.3900003      -3.95559216E-19
  -11.3800001      -4.26719317E-19
  -11.3699999      -4.60399216E-19
  -11.3599997      -4.96777069E-19
  -11.3500004      -5.36041109E-19
  -11.3400002      -5.78389086E-19
  -11.3299999      -6.24029293E-19
  -11.3199997      -6.73180624E-19
  -11.3100004      -7.26072879E-19
  -11.3000002      -7.82946974E-19
  -11.2900000      -8.44055562E-19
  -11.2799997      -9.09662927E-19
  -11.2700005      -9.80045451E-19
  -11.2600002      -1.05549197E-18
  -11.2500000      -1.13630390E-18
  -11.2399998      -1.22279608E-18
  -11.2299995      -1.31529565E-18
  -11.2200003      -1.41414394E-18
  -11.2100000      -1.51969570E-18
  -11.1999998      -1.63231903E-18
  -11.1899996      -1.75239681E-18
  -11.1800003      -1.88032588E-18
  -11.1700001      -2.01651703E-18
  -11.1599998      -2.16139626E-18
  -11.1499996      -2.31540323E-18
  -11.1400003      -2.47899309E-18
  -11.1300001      -2.65263526E-18
  -11.1199999      -2.83681405E-18
  -11.1099997      -3.03202805E-18
  -11.1000004      -3.23879074E-18
  -11.0900002      -3.45763088E-18
  -11.0799999      -3.68908987E-18
  -11.0699997      -3.93372482E-18
  -11.0600004      -4.19210750E-18
  -11.0500002      -4.46482151E-18
  -11.0400000      -4.75246612E-18
  -11.0299997      -5.05565263E-18
  -11.0200005      -5.37500514E-18
  -11.0100002      -5.71115894E-18
  -11.0000000      -6.06476500E-18
  -10.9899998      -6.43648136E-18
  -10.9799995      -6.82697968E-18
  -10.9700003      -7.23693949E-18
  -10.9600000      -7.66705190E-18
  -10.9499998      -8.11801588E-18
  -10.9399996      -8.59053536E-18
  -10.9300003      -9.08532420E-18
  -10.9200001      -9.60310038E-18
  -10.9099998      -1.01445885E-17
  -10.8999996      -1.07105141E-17
  -10.8900003      -1.13016074E-17
  -10.8800001      -1.19185965E-17
  -10.8699999      -1.25622141E-17
  -10.8599997      -1.32331833E-17
  -10.8500004      -1.39322328E-17
  -10.8400002      -1.46600773E-17
  -10.8299999      -1.54174290E-17
  -10.8199997      -1.62049926E-17
  -10.8100004      -1.70234614E-17
  -10.8000002      -1.78735119E-17
  -10.7900000      -1.87558158E-17
  -10.7799997      -1.96710151E-17
  -10.7700005      -2.06197416E-17
  -10.7600002      -2.16025992E-17
  -10.7500000      -2.26201753E-17
  -10.7399998      -2.36730274E-17
  -10.7299995      -2.47616765E-17
  -10.7200003      -2.58866206E-17
  -10.7100000      -2.70483163E-17
  -10.6999998      -2.82471889E-17
  -10.6899996      -2.94836188E-17
  -10.6800003      -3.07579335E-17
  -10.6700001      -3.20704342E-17
  -10.6599998      -3.34213426E-17
  -10.6499996      -3.48108505E-17
  -10.6400003      -3.62390738E-17
  -10.6300001      -3.77060786E-17
  -10.6199999      -3.92118650E-17
  -10.6099997      -4.07563402E-17
  -10.6000004      -4.23393720E-17
  -10.5900002      -4.39607254E-17
  -10.5799999      -4.56200994E-17
  -10.5699997      -4.73170968E-17
  -10.5600004      -4.90512313E-17
  -10.5500002      -5.08219272E-17
  -10.5400000      -5.26284930E-17
  -10.5299997      -5.44701510E-17
  -10.5200005      -5.63460015E-17
  -10.5100002      -5.82550351E-17
  -10.5000000      -6.01961368E-17
  -10.4899998      -6.21680493E-17
  -10.4799995      -6.41694029E-17
  -10.4700003      -6.61986755E-17
  -10.4600000      -6.82542193E-17
  -10.4499998      -7.03342477E-17
  -10.4399996      -7.24368018E-17
  -10.4300003      -7.45597906E-17
  -10.4200001      -7.67009840E-17
  -10.4099998      -7.88579402E-17
  -10.3999996      -8.10280849E-17
  -10.3900003      -8.32086323E-17
  -10.3800001      -8.53966706E-17
  -10.3699999      -8.75890566E-17
  -10.3599997      -8.97824749E-17
  -10.3500004      -9.19734182E-17
  -10.3400002      -9.41581809E-17
  -10.3299999      -9.63328387E-17
  -10.3199997      -9.84932690E-17
  -10.3100004      -1.00635131E-16
  -10.3000002      -1.02753865E-16
  -10.2900000      -1.04844679E-16
  -10.2799997      -1.06902572E-16
  -10.2700005      -1.08922296E-16
  -10.2600002      -1.10898364E-16
  -10.2500000      -1.12825067E-16
  -10.2399998      -1.14696401E-16
  -10.2299995      -1.16506166E-16
  -10.2200003      -1.18247877E-16
  -10.2100000      -1.19914798E-16
  -10.1999998      -1.21499954E-16
  -10.1899996      -1.22996079E-16
  -10.1800003      -1.24395642E-16
  -10.1700001      -1.25690875E-16
  -10.1599998      -1.26873690E-16
  -10.1499996      -1.27935764E-16
  -10.1400003      -1.28868479E-16
  -10.1300001      -1.29662943E-16
  -10.1199999      -1.30310024E-16
  -10.1099997      -1.30800217E-16
  -10.1000004      -1.31123837E-16
  -10.0900002      -1.31270877E-16
  -10.0799999      -1.31231040E-16
  -10.0699997      -1.30993764E-16
  -10.0600004      -1.30548212E-16
  -10.0500002      -1.29883265E-16
  -10.0400000      -1.28987527E-16
  -10.0299997      -1.27849340E-16
  -10.0200005      -1.26456765E-16
  -10.0100002      -1.24797626E-16
  -10.0000000      -1.22859416E-16
  -9.98999977      -1.20629443E-16
  -9.97999954      -1.18094736E-16
  -9.97000027      -1.15242075E-16
  -9.96000004      -1.12057986E-16
  -9.94999981      -1.08528796E-16
  -9.93999958      -1.04640564E-16
  -9.93000031      -1.00379155E-16
  -9.92000008      -9.57302079E-17
  -9.90999985      -9.06791916E-17
  -9.89999962      -8.52113292E-17
  -9.89000034      -7.93117050E-17
  -9.88000011      -7.29652246E-17
  -9.86999989      -6.61566216E-17
  -9.85999966      -5.88705104E-17
  -9.85000038      -5.10913432E-17
  -9.84000015      -4.28034666E-17
  -9.82999992      -3.39911278E-17
  -9.81999969      -2.46384927E-17
  -9.81000042      -1.47296449E-17
  -9.80000019      -4.24862421E-18
  -9.78999996       6.82057482E-18
  -9.77999973       1.84939701E-17
  -9.77000046       3.07875698E-17
  -9.76000023       4.37173656E-17
  -9.75000000       5.72992973E-17
  -9.73999977       7.15492304E-17
  -9.72999954       8.64829507E-17
  -9.72000027       1.02116135E-16
  -9.71000004       1.18464294E-16
  -9.69999981       1.35542781E-16
  -9.68999958       1.53366777E-16
  -9.68000031       1.71951182E-16
  -9.67000008       1.91310663E-16
  -9.65999985       2.11459711E-16
  -9.64999962       2.32412368E-16
  -9.64000034       2.54182385E-16
  -9.63000011       2.76783156E-16
  -9.61999989       3.00227652E-16
  -9.60999966       3.24528418E-16
  -9.60000038       3.49697473E-16
  -9.59000015       3.75746409E-16
  -9.57999992       4.02686081E-16
  -9.56999969       4.30527021E-16
  -9.56000042       4.59278946E-16
  -9.55000019       4.88950933E-16
  -9.53999996       5.19551481E-16
  -9.52999973       5.51088106E-16
  -9.52000046       5.83567849E-16
  -9.51000023       6.16996534E-16
  -9.50000000       6.51379401E-16
  -9.48999977       6.86720792E-16
  -9.47999954       7.23023883E-16
  -9.47000027       7.60290844E-16
  -9.46000004       7.98523000E-16
  -9.44999981       8.37720561E-16
  -9.43999958       8.77882205E-16
  -9.43000031       9.19005866E-16
  -9.42000008       9.61087945E-16
  -9.40999985       1.00412368E-15
  -9.39999962       1.04810692E-15
  -9.39000034       1.09303027E-15
  -9.38000011       1.13888440E-15
  -9.36999989       1.18565883E-15
  -9.35999966       1.23334180E-15
  -9.35000038       1.28191946E-15
  -9.34000015       1.33137676E-15
  -9.32999992       1.38169624E-15
  -9.31999969       1.43285936E-15
  -9.31000042       1.48484547E-15
  -9.30000019       1.53763236E-15
  -9.28999996       1.59119544E-15
  -9.27999973       1.64550825E-15
  -9.27000046       1.70054241E-15
  -9.26000023       1.75626765E-15
  -9.25000000       1.81265093E-15
  -9.23999977       1.86965815E-15
  -9.22999954       1.92725195E-15
  -9.22000027       1.98539292E-15
  -9.21000004       2.04403958E-15
  -9.19999981       2.10314787E-15
  -9.18999958       2.16267184E-15
  -9.18000031       2.22256194E-15
  -9.17000008       2.28276692E-15
  -9.15999985       2.34323258E-15
  -9.14999962       2.40390237E-15
  -9.14000034       2.46471743E-15
  -9.13000011       2.52561508E-15
  -9.11999989       2.58653094E-15
  -9.10999966       2.64739745E-15
  -9.10000038       2.70814369E-15
  -9.09000015       2.76869723E-15
  -9.07999992       2.82898162E-15
  -9.06999969       2.88891746E-15
  -9.06000042       2.94842259E-15
  -9.05000019       3.00741208E-15
  -9.03999996       3.06579827E-15
  -9.02999973       3.12348926E-15
  -9.02000046       3.18039124E-15
  -9.01000023       3.23640638E-15
  -9.00000000       3.29143472E-15
  -8.98999977       3.34537187E-15
  -8.97999954       3.39811238E-15
  -8.97000027       3.44954443E-15
  -8.96000004       3.49955643E-15
  -8.94999981       3.54803086E-15
  -8.93999958       3.59484891E-15
  -8.93000031       3.63988777E-15
  -8.92000008       3.68302165E-15
  -8.90999985       3.72412138E-15
  -8.89999962       3.76305441E-15
  -8.89000034       3.79968604E-15
  -8.88000011       3.83387695E-15
  -8.86999989       3.86548610E-15
  -8.85999966       3.89436908E-15
  -8.85000038       3.92037722E-15
  -8.84000015       3.94336104E-15
  -8.82999992       3.96316509E-15
  -8.81999969       3.97963438E-15
  -8.81000042       3.99260796E-15
  -8.80000019       4.00192405E-15
  -8.78999996       4.00741833E-15
  -8.77999973       4.00892139E-15
  -8.77000046       4.00626340E-15
  -8.76000023       3.99927241E-15
  -8.75000000       3.98777055E-15
  -8.73999977       3.97158206E-15
  -8.72999954       3.95052524E-15
  -8.72000027       3.92441799E-15
  -8.71000004       3.89307566E-15
  -8.69999981       3.85631189E-15
  -8.68999958       3.81393779E-15
  -8.68000031       3.76576322E-15
  -8.67000008       3.71159588E-15
  -8.65999985       3.65124309E-15
  -8.64999962       3.58450918E-15
  -8.64000034       3.51119826E-15
  -8.63000011       3.43111299E-15
  -8.61999989       3.34405558E-15
  -8.60999966       3.24982634E-15
  -8.60000038       3.14822665E-15
  -8.59000015       3.03905638E-15
  -8.57999992       2.92211480E-15
  -8.56999969       2.79720158E-15
  -8.56000042       2.66411682E-15
  -8.55000019       2.52266148E-15
  -8.53999996       2.37263542E-15
  -8.52999973       2.21384046E-15
  -8.52000046       2.04607881E-15
  -8.51000023       1.86915480E-15
  -8.50000000       1.68287352E-15
  -8.48999977       1.48704183E-15
  -8.47999954       1.28146852E-15
  -8.47000027       1.06596471E-15
  -8.46000004       8.40343928E-16
  -8.44999981       6.04423124E-16
  -8.43999958       3.58021424E-16
  -8.43000031       1.00961609E-16
  -8.42000008      -1.66929667E-16
  -8.40999985      -4.45822292E-16
  -8.39999962      -7.35881631E-16
  -8.39000034      -1.03726850E-15
  -8.38000011      -1.35013875E-15
  -8.36999989      -1.67464322E-15
  -8.35999966      -2.01092716E-15
  -8.35000038      -2.35912991E-15
  -8.34000015      -2.71938424E-15
  -8.32999992      -3.09181743E-15
  -8.31999969      -3.47654848E-15
  -8.31000042      -3.87368961E-15
  -8.30000019      -4.28334482E-15
  -8.28999996      -4.70561192E-15
  -8.27999973      -5.14057774E-15
  -8.27000046      -5.58832232E-15
  -8.26000023      -6.04891512E-15
  -8.25000000      -6.52241712E-15
  -8.23999977      -7.00887831E-15
  -8.22999954      -7.50833975E-15
  -8.22000027      -8.02082857E-15
  -8.21000004      -8.54636339E-15
  -8.19999981      -9.08495013E-15
  -8.18999958      -9.63658373E-15
  -8.18000031      -1.02012447E-14
  -8.17000008      -1.07789025E-14
  -8.15999985      -1.13695123E-14
  -8.14999962      -1.19730148E-14
  -8.14000034      -1.25893380E-14
  -8.13000011      -1.32183921E-14
  -8.11999989      -1.38600772E-14
  -8.10999966      -1.45142755E-14
  -8.10000038      -1.51808480E-14
  -8.09000015      -1.58596501E-14
  -8.07999992      -1.65505105E-14
  -8.06999969      -1.72532446E-14
  -8.06000042      -1.79676542E-14
  -8.05000019      -1.86935106E-14
  -8.03999996      -1.94305801E-14
  -8.02999973      -2.01786016E-14
  -8.02000046      -2.09373026E-14
  -8.01000023      -2.17063763E-14
  -8.00000000      -2.24855128E-14
  -7.98999977      -2.32743681E-14
  -7.98000002      -2.40725849E-14
  -7.96999979      -2.48797802E-14
  -7.96000004      -2.56955508E-14
  -7.94999981      -2.65194716E-14
  -7.94000006      -2.73510954E-14
  -7.92999983      -2.81899460E-14
  -7.92000008      -2.90355339E-14
  -7.90999985      -2.98873305E-14
  -7.90000010      -3.07448057E-14
  -7.88999987      -3.16073834E-14
  -7.88000011      -3.24744673E-14
  -7.86999989      -3.33454544E-14
  -7.86000013      -3.42196872E-14
  -7.84999990      -3.50965052E-14
  -7.84000015      -3.59752071E-14
  -7.82999992      -3.68550778E-14
  -7.82000017      -3.77353618E-14
  -7.80999994      -3.86152936E-14
  -7.80000019      -3.94940631E-14
  -7.78999996      -4.03708473E-14
  -7.78000021      -4.12447854E-14
  -7.76999998      -4.21150033E-14
  -7.76000023      -4.29805761E-14
  -7.75000000      -4.38405687E-14
  -7.73999977      -4.46940221E-14
  -7.73000002      -4.55399302E-14
  -7.71999979      -4.63772697E-14
  -7.71000004      -4.72049937E-14
  -7.69999981      -4.80220179E-14
  -7.69000006      -4.88272413E-14
  -7.67999983      -4.96195187E-14
  -7.67000008      -5.03976946E-14
  -7.65999985      -5.11605698E-14
  -7.65000010      -5.19069244E-14
  -7.63999987      -5.26355184E-14
  -7.63000011      -5.33450711E-14
  -7.61999989      -5.40342612E-14
  -7.61000013      -5.47017943E-14
  -7.59999990      -5.53462983E-14
  -7.59000015      -5.59663738E-14
  -7.57999992      -5.65606251E-14
  -7.57000017      -5.71276154E-14
  -7.55999994      -5.76658811E-14
  -7.55000019      -5.81739382E-14
  -7.53999996      -5.86502689E-14
  -7.53000021      -5.90933417E-14
  -7.51999998      -5.95015980E-14
  -7.51000023      -5.98734522E-14
  -7.50000000      -6.02073052E-14
  -7.48999977      -6.05015305E-14
  -7.48000002      -6.07544749E-14
  -7.46999979      -6.09644713E-14
  -7.46000004      -6.11298325E-14
  -7.44999981      -6.12488372E-14
  -7.44000006      -6.13197779E-14