  -16.0000000       0.00000000    
  -15.9899998       0.00000000    
  -15.9799995       0.00000000    
  -15.9700003       0.00000000    
  -15.9600000       0.00000000    
  -15.9499998       0.00000000    
  -15.9399996       0.00000000    
  -15.9300003       0.00000000    
  -15.9200001       0.00000000    
  -15.9099998       0.00000000    
  -15.8999996       0.00000000    
  -15.8900003       0.00000000    
  -15.8800001       0.00000000    
  -15.8699999       0.00000000    
  -15.8599997       0.00000000    
  -15.8500004       0.00000000    
  -15.8400002       0.00000000    
  -15.8299999       0.00000000    
  -15.8199997       0.00000000    
  -15.8100004       0.00000000    
  -15.8000002       0.00000000    
  -15.7900000       0.00000000    
  -15.7799997       0.00000000    
  -15.7700005       0.00000000    
  -15.7600002       0.00000000    
  -15.7500000       0.00000000    
  -15.7399998       0.00000000    
  -15.7299995       0.00000000    
  -15.7200003       0.00000000    
  -15.7100000       0.00000000    
  -15.6999998       0.00000000    
  -15.6899996       0.00000000    
  -15.6800003       0.00000000    
  -15.6700001       0.00000000    
  -15.6599998       0.00000000    
  -15.6499996       0.00000000    
  -15.6400003       0.00000000    
  -15.6300001       0.00000000    
  -15.6199999       0.00000000    
  -15.6099997       0.00000000    
  -15.6000004       0.00000000    
  -15.5900002       0.00000000    
  -15.5799999       0.00000000    
  -15.5699997       0.00000000    
  -15.5600004       0.00000000    
  -15.5500002       0.00000000    
  -15.5400000       0.00000000    
  -15.5299997       0.00000000    
  -15.5200005       0.00000000    
  -15.5100002       0.00000000    
  -15.5000000       0.00000000    
  -15.4899998       0.00000000    
  -15.4799995       0.00000000    
  -15.4700003       0.00000000    
  -15.4600000       0.00000000    
  -15.4499998       0.00000000    
  -15.4399996       0.00000000    
  -15.4300003       0.00000000    
  -15.4200001       0.00000000    
  -15.4099998       0.00000000    
  -15.3999996       0.00000000    
  -15.3900003       0.00000000    
  -15.3800001       0.00000000    
  -15.3699999       0.00000000    
  -15.3599997       0.00000000    
  -15.3500004       0.00000000    
  -15.3400002       0.00000000    
  -15.3299999       0.00000000    
  -15.3199997       0.00000000    
  -15.3100004       0.00000000    
  -15.3000002       0.00000000    
  -15.2900000       0.00000000    
  -15.2799997       0.00000000    
  -15.2700005       0.00000000    
  -15.2600002       0.00000000    
  -15.2500000       0.00000000    
  -15.2399998       0.00000000    
  -15.2299995       0.00000000    
  -15.2200003       0.00000000    
  -15.2100000       0.00000000    
  -15.1999998       0.00000000    
  -15.1899996       0.00000000    
  -15.1800003       0.00000000    
  -15.1700001       0.00000000    
  -15.1599998       0.00000000    
  -15.1499996       0.00000000    
  -15.1400003       0.00000000    
  -15.1300001       0.00000000    
  -15.1199999       0.00000000    
  -15.1099997       0.00000000    
  -15.1000004       0.00000000    
  -15.0900002       0.00000000    
  -15.0799999       0.00000000    
  -15.0699997       0.00000000    
  -15.0600004       0.00000000    
  -15.0500002       0.00000000    
  -15.0400000       0.00000000    
  -15.0299997       0.00000000    
  -15.0200005       0.00000000    
  -15.0100002       0.00000000    
  -15.0000000       0.00000000    
  -14.9899998       0.00000000    
  -14.9799995       0.00000000    
  -14.9700003       0.00000000    
  -14.9600000       0.00000000    
  -14.9499998       0.00000000    
  -14.9399996       0.00000000    
  -14.9300003       0.00000000    
  -14.9200001       0.00000000    
  -14.9099998       0.00000000    
  -14.8999996       0.00000000    
  -14.8900003       0.00000000    
  -14.8800001       0.00000000    
  -14.8699999       0.00000000    
  -14.8599997       0.00000000    
  -14.8500004       0.00000000    
  -14.8400002       0.00000000    
  -14.8299999       0.00000000    
  -14.8199997       0.00000000    
  -14.8100004       0.00000000    
  -14.8000002       0.00000000    
  -14.7900000       0.00000000    
  -14.7799997       0.00000000    
  -14.7700005       0.00000000    
  -14.7600002       0.00000000    
  -14.7500000       0.00000000    
  -14.7399998       0.00000000    
  -14.7299995       0.00000000    
  -14.7200003       0.00000000    
  -14.7100000       0.00000000    
  -14.6999998       0.00000000    
  -14.6899996       0.00000000    
  -14.6800003       0.00000000    
  -14.6700001       0.00000000    
  -14.6599998       0.00000000    
  -14.6499996       0.00000000    
  -14.6400003       0.00000000    
  -14.6300001       0.00000000    
  -14.6199999       0.00000000    
  -14.6099997       0.00000000    
  -14.6000004       0.00000000    
  -14.5900002       0.00000000    
  -14.5799999       0.00000000    
  -14.5699997       0.00000000    
  -14.5600004       0.00000000    
  -14.5500002       0.00000000    
  -14.5400000       0.00000000    
  -14.5299997       0.00000000    
  -14.5200005       0.00000000    
  -14.5100002       0.00000000    
  -14.5000000       0.00000000    
  -14.4899998       0.00000000    
  -14.4799995       0.00000000    
  -14.4700003       0.00000000    
  -14.4600000       0.00000000    
  -14.4499998       0.00000000    
  -14.4399996       0.00000000    
  -14.4300003       0.00000000    
  -14.4200001       0.00000000    
  -14.4099998       0.00000000    
  -14.3999996       0.00000000    
  -14.3900003       0.00000000    
  -14.3800001       0.00000000    
  -14.3699999       0.00000000    
  -14.3599997       0.00000000    
  -14.3500004       0.00000000    
  -14.3400002       0.00000000    
  -14.3299999       0.00000000    
  -14.3199997       0.00000000    
  -14.3100004       0.00000000    
  -14.3000002       0.00000000    
  -14.2900000       0.00000000    
  -14.2799997       0.00000000    
  -14.2700005       0.00000000    
  -14.2600002       0.00000000    
  -14.2500000       0.00000000    
  -14.2399998       0.00000000    
  -14.2299995       0.00000000    
  -14.2200003       0.00000000    
  -14.2100000       0.00000000    
  -14.1999998       0.00000000    
  -14.1899996       0.00000000    
  -14.1800003       0.00000000    
  -14.1700001       0.00000000    
  -14.1599998       0.00000000    
  -14.1499996       0.00000000    
  -14.1400003       0.00000000    
  -14.1300001       0.00000000    
  -14.1199999       0.00000000    
  -14.1099997       0.00000000    
  -14.1000004       0.00000000    
  -14.0900002       0.00000000    
  -14.0799999       0.00000000    
  -14.0699997       0.00000000    
  -14.0600004       0.00000000    
  -14.0500002       0.00000000    
  -14.0400000       0.00000000    
  -14.0299997       0.00000000    
  -14.0200005       0.00000000    
  -14.0100002       0.00000000    
  -14.0000000       0.00000000    
  -13.9899998       0.00000000    
  -13.9799995       0.00000000    
  -13.9700003       0.00000000    
  -13.9600000       0.00000000    
  -13.9499998       0.00000000    
  -13.9399996       0.00000000    
  -13.9300003       0.00000000    
  -13.9200001       0.00000000    
  -13.9099998       0.00000000    
  -13.8999996       0.00000000    
  -13.8900003       0.00000000    
  -13.8800001       0.00000000    
  -13.8699999       0.00000000    
  -13.8599997       0.00000000    
  -13.8500004       0.00000000    
  -13.8400002       0.00000000    
  -13.8299999       0.00000000    
  -13.8199997       0.00000000    
  -13.8100004       0.00000000    
  -13.8000002       0.00000000    
  -13.7900000       0.00000000    
  -13.7799997       0.00000000    
  -13.7700005       0.00000000    
  -13.7600002       0.00000000    
  -13.7500000       0.00000000    
  -13.7399998       0.00000000    
  -13.7299995       0.00000000    
  -13.7200003       0.00000000    
  -13.7100000       0.00000000    
  -13.6999998       0.00000000    
  -13.6899996       0.00000000    
  -13.6800003       0.00000000    
  -13.6700001       0.00000000    
  -13.6599998       0.00000000    
  -13.6499996       0.00000000    
  -13.6400003       0.00000000    
  -13.6300001       0.00000000    
  -13.6199999       0.00000000    
  -13.6099997       0.00000000    
  -13.6000004       0.00000000    
  -13.5900002       0.00000000    
  -13.5799999       0.00000000    
  -13.5699997       0.00000000    
  -13.5600004       0.00000000    
  -13.5500002       0.00000000    
  -13.5400000       0.00000000    
  -13.5299997       0.00000000    
  -13.5200005       0.00000000    
  -13.5100002       0.00000000    
  -13.5000000       0.00000000    
  -13.4899998       0.00000000    
  -13.4799995       0.00000000    
  -13.4700003       0.00000000    
  -13.4600000       0.00000000    
  -13.4499998       0.00000000    
  -13.4399996       0.00000000    
  -13.4300003       0.00000000    
  -13.4200001       0.00000000    
  -13.4099998       0.00000000    
  -13.3999996       0.00000000    
  -13.3900003       0.00000000    
  -13.3800001       0.00000000    
  -13.3699999       0.00000000    
  -13.3599997       0.00000000    
  -13.3500004       0.00000000    
  -13.3400002       0.00000000    
  -13.3299999       0.00000000    
  -13.3199997       0.00000000    
  -13.3100004       0.00000000    
  -13.3000002       0.00000000    
  -13.2900000       0.00000000    
  -13.2799997       0.00000000    
  -13.2700005       0.00000000    
  -13.2600002       0.00000000    
  -13.2500000       0.00000000    
  -13.2399998       0.00000000    
  -13.2299995       0.00000000    
  -13.2200003       0.00000000    
  -13.2100000       0.00000000    
  -13.1999998       0.00000000    
  -13.1899996       0.00000000    
  -13.1800003       0.00000000    
  -13.1700001       0.00000000    
  -13.1599998       0.00000000    
  -13.1499996       0.00000000    
  -13.1400003       0.00000000    
  -13.1300001       0.00000000    
  -13.1199999       0.00000000    
  -13.1099997       0.00000000    
  -13.1000004       0.00000000    
  -13.0900002       0.00000000    
  -13.0799999       0.00000000    
  -13.0699997       0.00000000    
  -13.0600004       0.00000000    
  -13.0500002       0.00000000    
  -13.0400000       0.00000000    
  -13.0299997       0.00000000    
  -13.0200005       0.00000000    
  -13.0100002       0.00000000    
  -13.0000000       0.00000000    
  -12.9899998       0.00000000    
  -12.9799995       0.00000000    
  -12.9700003       0.00000000    
  -12.9600000       0.00000000    
  -12.9499998       0.00000000    
  -12.9399996       0.00000000    
  -12.9300003       0.00000000    
  -12.9200001       0.00000000    
  -12.9099998       0.00000000    
  -12.8999996       0.00000000    
  -12.8900003       0.00000000    
  -12.8800001       0.00000000    
  -12.8699999       0.00000000    
  -12.8599997       0.00000000    
  -12.8500004       0.00000000    
  -12.8400002       0.00000000    
  -12.8299999       0.00000000    
  -12.8199997       0.00000000    
  -12.8100004       0.00000000    
  -12.8000002       0.00000000    
  -12.7900000       0.00000000    
  -12.7799997       0.00000000    
  -12.7700005       0.00000000    
  -12.7600002       0.00000000    
  -12.7500000       0.00000000    
  -12.7399998       0.00000000    
  -12.7299995       0.00000000    
  -12.7200003       0.00000000    
  -12.7100000       0.00000000    
  -12.6999998       0.00000000    
  -12.6899996       0.00000000    
  -12.6800003       0.00000000    
  -12.6700001       0.00000000    
  -12.6599998       0.00000000    
  -12.6499996       0.00000000    
  -12.6400003       0.00000000    
  -12.6300001       0.00000000    
  -12.6199999       0.00000000    
  -12.6099997       0.00000000    
  -12.6000004       0.00000000    
  -12.5900002       0.00000000    
  -12.5799999       0.00000000    
  -12.5699997       0.00000000    
  -12.5600004       0.00000000    
  -12.5500002       0.00000000    
  -12.5400000       0.00000000    
  -12.5299997       0.00000000    
  -12.5200005       0.00000000    
  -12.5100002       0.00000000    
  -12.5000000       0.00000000    
  -12.4899998       0.00000000    
  -12.4799995       0.00000000    
  -12.4700003       0.00000000    
  -12.4600000       0.00000000    
  -12.4499998       0.00000000    
  -12.4399996       0.00000000    
  -12.4300003       0.00000000    
  -12.4200001       0.00000000    
  -12.4099998       0.00000000    
  -12.3999996       0.00000000    
  -12.3900003       0.00000000    
  -12.3800001       0.00000000    
  -12.3699999       0.00000000    
  -12.3599997       0.00000000    
  -12.3500004       0.00000000    
  -12.3400002       0.00000000    
  -12.3299999       0.00000000    
  -12.3199997       0.00000000    
  -12.3100004       0.00000000    
  -12.3000002       0.00000000    
  -12.2900000       0.00000000    
  -12.2799997       0.00000000    
  -12.2700005       0.00000000    
  -12.2600002       0.00000000    
  -12.2500000       0.00000000    
  -12.2399998       0.00000000    
  -12.2299995       0.00000000    
  -12.2200003       0.00000000    
  -12.2100000       0.00000000    
  -12.1999998       0.00000000    
  -12.1899996       0.00000000    
  -12.1800003       0.00000000    
  -12.1700001       0.00000000    
  -12.1599998       0.00000000    
  -12.1499996       0.00000000    
  -12.1400003       0.00000000    
  -12.1300001       0.00000000    
  -12.1199999       0.00000000    
  -12.1099997       0.00000000    
  -12.1000004       0.00000000    
  -12.0900002       0.00000000    
  -12.0799999       0.00000000    
  -12.0699997       0.00000000    
  -12.0600004       0.00000000    
  -12.0500002       0.00000000    
  -12.0400000       0.00000000    
  -12.0299997       0.00000000    
  -12.0200005       0.00000000    
  -12.0100002       0.00000000    
  -12.0000000       0.00000000    
  -11.9899998       0.00000000    
  -11.9799995       0.00000000    
  -11.9700003       0.00000000    
  -11.9600000       0.00000000    
  -11.9499998       0.00000000    
  -11.9399996      -0.00000000    
  -11.9300003       0.00000000    
  -11.9200001      -0.00000000    
  -11.9099998      -0.00000000    
  -11.8999996       0.00000000    
  -11.8900003       0.00000000    
  -11.8800001       1.40129846E-45
  -11.8699999       1.40129846E-45
  -11.8599997      -1.40129846E-45
  -11.8500004      -1.40129846E-45
  -11.8400002      -2.80259693E-45
  -11.8299999      -1.40129846E-45
  -11.8199997      -0.00000000    
  -11.8100004       0.00000000    
  -11.8000002       1.40129846E-45
  -11.7900000       2.80259693E-45
  -11.7799997       4.20389539E-45
  -11.7700005       7.00649232E-45
  -11.7600002       8.40779079E-45
  -11.7500000       9.80908925E-45
  -11.7399998       1.12103877E-44
  -11.7299995       8.40779079E-45
  -11.7200003       9.80908925E-45
  -11.7100000       1.12103877E-44
  -11.6999998       1.40129846E-44
  -11.6899996       1.54142831E-44
  -11.6800003       1.82168800E-44
  -11.6700001       1.96181785E-44
  -11.6599998       2.52233724E-44
  -11.6499996       3.08285662E-44
  -11.6400003       3.78350585E-44
  -11.6300001       4.48415509E-44
  -11.6199999       5.46506401E-44
  -11.6099997       6.72623263E-44
  -11.6000004       8.40779079E-44
  -11.5900002       1.02294788E-43
  -11.5799999       1.20511668E-43
  -11.5699997       1.48537637E-43
  -11.5600004       1.84971397E-43
  -11.5500002       2.27010351E-43
  -11.5400000       2.80259693E-43
  -11.5299997       3.50324616E-43
  -11.5200005       4.33001225E-43
  -11.5100002       5.32493416E-43
  -11.5000000       6.51603786E-43
  -11.4899998       8.01542722E-43
  -11.4799995       9.76705030E-43
  -11.4700003       1.18689980E-42
  -11.4600000       1.43913352E-42
  -11.4499998       1.74321529E-42
  -11.4399996       2.11175679E-42
  -11.4300003       2.55316580E-42
  -11.4200001       3.08005402E-42
  -11.4099998       3.70503314E-42
  -11.3999996       4.44912262E-42
  -11.3900003       5.32913806E-42
  -11.3800001       6.37310542E-42
  -11.3699999       7.60484677E-42
  -11.3599997       9.05378938E-42
  -11.3500004       1.07633735E-41
  -11.3400002       1.27798420E-41
  -11.3299999       1.51452338E-41
  -11.3199997       1.79156009E-41
  -11.3100004       2.11596068E-41
  -11.3000002       2.49473166E-41
  -11.2900000       2.93670119E-41
  -11.2799997       3.45181851E-41
  -11.2700005       4.05115386E-41
  -11.2600002       4.74787946E-41
  -11.2500000       5.55600828E-41
  -11.2399998       6.49137501E-41
  -11.2299995       7.57247677E-41
  -11.2200003       8.82033305E-41
  -11.2100000       1.02591863E-40
  -11.1999998       1.19156612E-40
  -11.1899996       1.38201660E-40
  -11.1800003       1.60063317E-40
  -11.1700001       1.85122738E-40
  -11.1599998       2.13814324E-40
  -11.1499996       2.46625727E-40
  -11.1400003       2.84088040E-40
  -11.1300001       3.26805223E-40
  -11.1199999       3.75458305E-40
  -11.1099997       4.30798384E-40
  -11.1000004       4.93669041E-40
  -11.0900002       5.65010547E-40
  -11.0799999       6.45858462E-40
  -11.0699997       7.37364653E-40
  -11.0600004       8.40821118E-40
  -11.0500002       9.57651574E-40
  -11.0400000       1.08941847E-39
  -11.0299997       1.23786783E-39
  -11.0200005       1.40491662E-39
  -11.0100002       1.59268360E-39
  -11.0000000       1.80351597E-39
  -10.9899998       2.03996827E-39
  -10.9799995       2.30485712E-39
  -10.9700003       2.60128639E-39
  -10.9600000       2.93264583E-39
  -10.9499998       3.30266990E-39
  -10.9399996       3.71543218E-39
  -10.9300003       4.17538317E-39
  -10.9200001       4.68738540E-39
  -10.9099998       5.25673997E-39
  -10.8999996       5.88921183E-39
  -10.8900003       6.59110822E-39
  -10.8800001       7.36927448E-39
  -10.8699999       8.23112909E-39
  -10.8599997       9.18473231E-39
  -10.8500004       1.02388240E-38
  -10.8400002       1.14028645E-38
  -10.8299999       1.26870662E-38
  -10.8199997       1.41025080E-38
  -10.8100004       1.56611064E-38
  -10.8000002       1.73757240E-38
  -10.7900000       1.92602224E-38
  -10.7799997       2.13295114E-38
  -10.7700005       2.35996122E-38
  -10.7600002       2.60877325E-38
  -10.7500000       2.88123303E-38
  -10.7399998       3.17931949E-38
  -10.7299995       3.50515193E-38
  -10.7200003       3.86099177E-38
  -10.7100000       4.24925570E-38
  -10.6999998       4.67252715E-38
  -10.6899996       5.13355827E-38
  -10.6800003       5.63527581E-38
  -10.6700001       6.18079682E-38
  -10.6599998       6.77342892E-38
  -10.6499996       7.41668938E-38
  -10.6400003       8.11430115E-38
  -10.6300001       8.87021311E-38
  -10.6199999       9.68858991E-38
  -10.6099997       1.05738552E-37
  -10.6000004       1.15306595E-37
  -10.5900002       1.25639086E-37
  -10.5799999       1.36787783E-37
  -10.5699997       1.48806989E-37
  -10.5600004       1.61753855E-37
  -10.5500002       1.75688333E-37
  -10.5400000       1.90673270E-37
  -10.5299997       2.06774413E-37
  -10.5200005       2.24060270E-37
  -10.5100002       2.42602992E-37
  -10.5000000       2.62477058E-37
  -10.4899998       2.83760607E-37
  -10.4799995       3.06534465E-37
  -10.4700003       3.30882620E-37
  -10.4600000       3.56892513E-37
  -10.4499998       3.84654097E-37
  -10.4399996       4.14260686E-37
  -10.4300003       4.45808511E-37
  -10.4200001       4.79396491E-37
  -10.4099998       5.15126329E-37
  -10.3999996       5.53102548E-37
  -10.3900003       5.93432008E-37
  -10.3800001       6.36223986E-37
  -10.3699999       6.81590048E-37
  -10.3599997       7.29643151E-37
  -10.3500004       7.80498671E-37
  -10.3400002       8.34273108E-37
  -10.3299999       8.91083496E-37
  -10.3199997       9.51047770E-37
  -10.3100004       1.01428440E-36
  -10.3000002       1.08091168E-36
  -10.2900000       1.15104692E-36
  -10.2799997       1.22480741E-36
  -10.2700005       1.30230662E-36
  -10.2600002       1.38365735E-36
  -10.2500000       1.46896894E-36
  -10.2399998       1.55834667E-36
  -10.2299995       1.65189135E-36
  -10.2200003       1.74969794E-36
  -10.2100000       1.85185650E-36
  -10.1999998       1.95844899E-36
  -10.1899996       2.06954770E-36
  -10.1800003       2.18521702E-36
  -10.1700001       2.30550968E-36
  -10.1599998       2.43046694E-36
  -10.1499996       2.56011714E-36
  -10.1400003       2.69447193E-36
  -10.1300001       2.83352899E-36
  -10.1199999       2.97726768E-36
  -10.1099997       3.12564622E-36
  -10.1000004       3.27860219E-36
  -10.0900002       3.43605163E-36
  -10.0799999       3.59788264E-36
  -10.0699997       3.76395494E-36
  -10.0600004       3.93410279E-36
  -10.0500002       4.10812568E-36
  -10.0400000       4.28578826E-36
  -10.0299997       4.46681970E-36
  -10.0200005       4.65090862E-36
  -10.0100002       4.83770094E-36
  -10.0000000       5.02679776E-36
  -9.98999977       5.21775138E-36
  -9.97999954       5.41006029E-36
  -9.97000027       5.60317097E-36
  -9.96000004       5.79647249E-36
  -9.94999981       5.98928255E-36
  -9.93999958       6.18086180E-36
  -9.93000031       6.37040093E-36
  -9.92000008       6.55700707E-36
  -9.90999985       6.73971451E-36
  -9.89999962       6.91747574E-36
  -9.89000034       7.08914857E-36
  -9.88000011       7.25349752E-36
  -9.86999989       7.40918667E-36
  -9.85999966       7.55478969E-36
  -9.85000038       7.68875688E-36
  -9.84000015       7.80941580E-36
  -9.82999992       7.91498573E-36
  -9.81999969       8.00354743E-36
  -9.81000042       8.07304753E-36
  -9.80000019       8.12128269E-36
  -9.78999996       8.14590393E-36
  -9.77999973       8.14439582E-36
  -9.77000046       8.11408222E-36
  -9.76000023       8.05210330E-36
  -9.75000000       7.95540626E-36
  -9.73999977       7.82074673E-36
  -9.72999954       7.64465288E-36
  -9.72000027       7.42345704E-36
  -9.71000004       7.15324042E-36
  -9.69999981       6.82984244E-36
  -9.68999958       6.44884925E-36
  -9.68000031       6.00555142E-36
  -9.67000008       5.49497153E-36
  -9.65999985       4.91181111E-36
  -9.64999962       4.25044702E-36
  -9.64000034       3.50491821E-36
  -9.63000011       2.66889359E-36
  -9.61999989       1.73565339E-36
  -9.60999966       6.98074520E-37
  -9.60000038      -4.51396126E-37
  -9.59000015      -1.72078555E-36
  -9.57999992      -3.11859892E-36
  -9.56999969      -4.65385991E-36
  -9.56000042      -6.33614916E-36
  -9.55000019      -8.17562563E-36
  -9.53999996      -1.01830649E-35
  -9.52999973      -1.23699142E-35
  -9.52000046      -1.47483115E-35
  -9.51000023      -1.73311547E-35
  -9.50000000      -2.01321387E-35
  -9.48999977      -2.31657895E-35
  -9.47999954      -2.64475438E-35
  -9.47000027      -2.99938146E-35
  -9.46000004      -3.38220145E-35
  -9.44999981      -3.79506572E-35
  -9.43999958      -4.23994355E-35
  -9.43000031      -4.71892450E-35
  -9.42000008      -5.23423183E-35
  -9.40999985      -5.78823463E-35
  -9.39999962      -6.38344746E-35
  -9.39000034      -7.02254445E-35
  -9.38000011      -7.70836964E-35
  -9.36999989      -8.44395704E-35
  -9.35999966      -9.23252262E-35
  -9.35000038      -1.00774981E-34
  -9.34000015      -1.09825347E-34
  -9.32999992      -1.19515174E-34
  -9.31999969      -1.29885789E-34
  -9.31000042      -1.40981205E-34
  -9.30000019      -1.52848348E-34
  -9.28999996      -1.65537109E-34
  -9.27999973      -1.79100477E-34
  -9.27000046      -1.93595126E-34
  -9.26000023      -2.09081116E-34
  -9.25000000      -2.25622641E-34
  -9.23999977      -2.43287818E-34
  -9.22999954      -2.62149130E-34
  -9.22000027      -2.82283741E-34
  -9.21000004      -3.03773936E-34
  -9.19999981      -3.26707005E-34
  -9.18999958      -3.51175907E-34
  -9.18000031      -3.77279710E-34
  -9.17000008      -4.05123062E-34
  -9.15999985      -4.34817794E-34
  -9.14999962      -4.66482765E-34
  -9.14000034      -5.00244202E-34
  -9.13000011      -5.36236049E-34
  -9.11999989      -5.74600832E-34
  -9.10999966      -6.15489485E-34
  -9.10000038      -6.59062673E-34
  -9.09000015      -7.05490200E-34
  -9.07999992      -7.54952798E-34
  -9.06999969      -8.07642128E-34
  -9.06000042      -8.63760871E-34
  -9.05000019      -9.23524473E-34
  -9.03999996      -9.87160319E-34
  -9.02999973      -1.05490966E-33
  -9.02000046      -1.12702826E-33
  -9.01000023      -1.20378648E-33
  -9.00000000      -1.28547002E-33
  -8.98999977      -1.37238047E-33
  -8.97999954      -1.46483742E-33
  -8.97000027      -1.56317955E-33
  -8.96000004      -1.66776181E-33
  -8.94999981      -1.77896156E-33
  -8.93999958      -1.89717441E-33
  -8.93000031      -2.02281970E-33
  -8.92000008      -2.15633767E-33
  -8.90999985      -2.29819394E-33
  -8.89999962      -2.44887799E-33
  -8.89000034      -2.60890520E-33
  -8.88000011      -2.77881612E-33
  -8.86999989      -2.95918305E-33
  -8.85999966      -3.15060257E-33
  -8.85000038      -3.35370779E-33
  -8.84000015      -3.56915717E-33
  -8.82999992      -3.79764609E-33
  -8.81999969      -4.03990262E-33
  -8.81000042      -4.29668532E-33
  -8.80000019      -4.56880014E-33
  -8.78999996      -4.85708094E-33
  -8.77999973      -5.16240568E-33
  -8.77000046      -5.48569051E-33
  -8.76000023      -5.82789528E-33
  -8.75000000      -6.19002101E-33
  -8.73999977      -6.57311535E-33
  -8.72999954      -6.97827226E-33
  -8.72000027      -7.40662901E-33
  -8.71000004      -7.85937654E-33
  -8.69999981      -8.33775204E-33
  -8.68999958      -8.84304490E-33
  -8.68000031      -9.37659811E-33
  -8.67000008      -9.93980758E-33
  -8.65999985      -1.05341228E-32
  -8.64999962      -1.11610551E-32
  -8.64000034      -1.18221649E-32
  -8.63000011      -1.25190795E-32
  -8.61999989      -1.32534828E-32
  -8.60999966      -1.40271138E-32
  -8.60000038      -1.48417770E-32
  -8.59000015      -1.56993471E-32
  -8.57999992      -1.66017521E-32
  -8.56999969      -1.75509991E-32
  -8.56000042      -1.85491275E-32
  -8.55000019      -1.95982621E-32
  -8.53999996      -2.07006069E-32
  -8.52999973      -2.18584115E-32
  -8.52000046      -2.30739946E-32
  -8.51000023      -2.43497454E-32
  -8.50000000      -2.56881104E-32
  -8.48999977      -2.70916065E-32
  -8.47999954      -2.85628347E-32
  -8.47000027      -3.01044074E-32
  -8.46000004      -3.17190459E-32
  -8.44999981      -3.34095008E-32
  -8.43999958      -3.51786139E-32
  -8.43000031      -3.70292505E-32
  -8.42000008      -3.89643522E-32
  -8.40999985      -4.09869166E-32
  -8.39999962      -4.30999794E-32
  -8.39000034      -4.53066086E-32
  -8.38000011      -4.76099574E-32
  -8.36999989      -5.00131704E-32
  -8.35999966      -5.25194478E-32
  -8.35000038      -5.51320427E-32
  -8.34000015      -5.78541938E-32
  -8.32999992      -6.06891864E-32
  -8.31999969      -6.36402885E-32
  -8.31000042      -6.67108032E-32
  -8.30000019      -6.99040336E-32
  -8.28999996      -7.32232770E-32
  -8.27999973      -7.66717013E-32
  -8.27000046      -8.02525980E-32
  -8.26000023      -8.39692408E-32
  -8.25000000      -8.78247212E-32
  -8.23999977      -9.18221367E-32
  -8.22999954      -9.59645611E-32
  -8.22000027      -1.00254892E-31
  -8.21000004      -1.04695992E-31
  -8.19999981      -1.09290659E-31
  -8.18999958      -1.14041443E-31
  -8.18000031      -1.18950883E-31
  -8.17000008      -1.24021249E-31
  -8.15999985      -1.29254690E-31
  -8.14999962      -1.34653266E-31
  -8.14000034      -1.40218797E-31
  -8.13000011      -1.45952552E-31
  -8.11999989      -1.51855956E-31
  -8.10999966      -1.57929935E-31
  -8.10000038      -1.64175230E-31
  -8.09000015      -1.70592266E-31
  -8.07999992      -1.77181017E-31
  -8.06999969      -1.83941144E-31
  -8.06000042      -1.90871659E-31
  -8.05000019      -1.97971657E-31
  -8.03999996      -2.05239480E-31
  -8.02999973      -2.12672859E-31
  -8.02000046      -2.20269163E-31
  -8.01000023      -2.28025168E-31
  -8.00000000      -2.35937115E-31
  -7.98999977      -2.44000395E-31
  -7.98000002      -2.52209930E-31
  -7.96999979      -2.60559819E-31
  -7.96000004      -2.69043621E-31
  -7.94999981      -2.77653835E-31
  -7.94000006      -2.86382350E-31
  -7.92999983      -2.95219740E-31
  -7.92000008      -3.04156248E-31
  -7.90999985      -3.13180565E-31
  -7.90000010      -3.22281078E-31
  -7.88999987      -3.31444291E-31
  -7.88000011      -3.40656382E-31
  -7.86999989      -3.49901598E-31
  -7.86000013      -3.59163295E-31
  -7.84999990      -3.68423628E-31
  -7.84000015      -3.77663272E-31
  -7.82999992      -3.86861633E-31
  -7.82000017      -3.95996399E-31
  -7.80999994      -4.05043850E-31
  -7.80000019      -4.13978924E-31
  -7.78999996      -4.22774725E-31
  -7.78000021      -4.31402571E-31
  -7.76999998      -4.39832135E-31
  -7.76000023      -4.48031114E-31
  -7.75000000      -4.55965748E-31
  -7.73999977      -4.63599455E-31
  -7.73000002      -4.70894338E-31
  -7.71999979      -4.77810054E-31
  -7.71000004      -4.84304378E-31
  -7.69999981      -4.90332125E-31
  -7.69000006      -4.95847168E-31
  -7.67999983      -5.00799667E-31
  -7.67000008      -5.05138417E-31
  -7.65999985      -5.08808310E-31
  -7.65000010      -5.11752735E-31
  -7.63999987      -5.13912353E-31
  -7.63000011      -5.15224299E-31
  -7.61999989      -5.15623967E-31
  -7.61000013      -5.15043743E-31
  -7.59999990      -5.13412251E-31
  -7.59000015      -5.10655576E-31
  -7.57999992      -5.06697169E-31
  -7.57000017      -5.01456721E-31
  -7.55999994      -4.94851148E-31
  -7.55000019      -4.86793981E-31
  -7.53999996      -4.77195693E-31
  -7.53000021      -4.65962904E-31
  -7.51999998      -4.52999694E-31
  -7.51000023      -4.38206003E-31
  -7.50000000      -4.21478060E-31
  -7.48999977      -4.02709224E-31
  -7.48000002      -3.81789210E-31
  -7.46999979      -3.58603994E-31
  -7.46000004      -3.33036263E-31
  -7.44999981      -3.04964048E-31
  -7.44000006      -2.74262862E-31