  -16.0000000       0.00000000    
  -15.9899998       0.00000000    
  -15.9799995       0.00000000    
  -15.9700003       0.00000000    
  -15.9600000       0.00000000    
  -15.9499998       0.00000000    
  -15.9399996       0.00000000    
  -15.9300003       0.00000000    
  -15.9200001       0.00000000    
  -15.9099998       0.00000000    
  -15.8999996       0.00000000    
  -15.8900003       0.00000000    
  -15.8800001       0.00000000    
  -15.8699999       0.00000000    
  -15.8599997       0.00000000    
  -15.8500004       0.00000000    
  -15.8400002       0.00000000    
  -15.8299999       0.00000000    
  -15.8199997       0.00000000    
  -15.8100004       0.00000000    
  -15.8000002       0.00000000    
  -15.7900000       0.00000000    
  -15.7799997       0.00000000    
  -15.7700005       0.00000000    
  -15.7600002       0.00000000    
  -15.7500000       0.00000000    
  -15.7399998       0.00000000    
  -15.7299995       0.00000000    
  -15.7200003       0.00000000    
  -15.7100000       0.00000000    
  -15.6999998       0.00000000    
  -15.6899996       0.00000000    
  -15.6800003       0.00000000    
  -15.6700001       0.00000000    
  -15.6599998       0.00000000    
  -15.6499996       0.00000000    
  -15.6400003       0.00000000    
  -15.6300001       0.00000000    
  -15.6199999       0.00000000    
  -15.6099997       0.00000000    
  -15.6000004       0.00000000    
  -15.5900002       0.00000000    
  -15.5799999       0.00000000    
  -15.5699997       0.00000000    
  -15.5600004       0.00000000    
  -15.5500002       0.00000000    
  -15.5400000       0.00000000    
  -15.5299997       0.00000000    
  -15.5200005       0.00000000    
  -15.5100002       0.00000000    
  -15.5000000       0.00000000    
  -15.4899998       0.00000000    
  -15.4799995       0.00000000    
  -15.4700003       0.00000000    
  -15.4600000       0.00000000    
  -15.4499998       0.00000000    
  -15.4399996       0.00000000    
  -15.4300003       0.00000000    
  -15.4200001       0.00000000    
  -15.4099998       0.00000000    
  -15.3999996       0.00000000    
  -15.3900003       0.00000000    
  -15.3800001       0.00000000    
  -15.3699999       0.00000000    
  -15.3599997       0.00000000    
  -15.3500004       0.00000000    
  -15.3400002       0.00000000    
  -15.3299999       0.00000000    
  -15.3199997       0.00000000    
  -15.3100004       0.00000000    
  -15.3000002       0.00000000    
  -15.2900000       0.00000000    
  -15.2799997       0.00000000    
  -15.2700005       0.00000000    
  -15.2600002       0.00000000    
  -15.2500000       0.00000000    
  -15.2399998       0.00000000    
  -15.2299995       0.00000000    
  -15.2200003       0.00000000    
  -15.2100000       0.00000000    
  -15.1999998       0.00000000    
  -15.1899996       0.00000000    
  -15.1800003       0.00000000    
  -15.1700001       0.00000000    
  -15.1599998       0.00000000    
  -15.1499996       0.00000000    
  -15.1400003       0.00000000    
  -15.1300001       0.00000000    
  -15.1199999       0.00000000    
  -15.1099997       0.00000000    
  -15.1000004       0.00000000    
  -15.0900002       0.00000000    
  -15.0799999       0.00000000    
  -15.0699997       0.00000000    
  -15.0600004       0.00000000    
  -15.0500002       0.00000000    
  -15.0400000       0.00000000    
  -15.0299997       0.00000000    
  -15.0200005       0.00000000    
  -15.0100002       0.00000000    
  -15.0000000       0.00000000    
  -14.9899998       0.00000000    
  -14.9799995       0.00000000    
  -14.9700003       0.00000000    
  -14.9600000       0.00000000    
  -14.9499998       0.00000000    
  -14.9399996       0.00000000    
  -14.9300003       0.00000000    
  -14.9200001       0.00000000    
  -14.9099998       0.00000000    
  -14.8999996       0.00000000    
  -14.8900003       0.00000000    
  -14.8800001       0.00000000    
  -14.8699999       0.00000000    
  -14.8599997       0.00000000    
  -14.8500004       0.00000000    
  -14.8400002       0.00000000    
  -14.8299999       0.00000000    
  -14.8199997       0.00000000    
  -14.8100004       0.00000000    
  -14.8000002       0.00000000    
  -14.7900000       0.00000000    
  -14.7799997       0.00000000    
  -14.7700005       0.00000000    
  -14.7600002       0.00000000    
  -14.7500000       0.00000000    
  -14.7399998       0.00000000    
  -14.7299995       0.00000000    
  -14.7200003       0.00000000    
  -14.7100000       0.00000000    
  -14.6999998       0.00000000    
  -14.6899996       0.00000000    
  -14.6800003       0.00000000    
  -14.6700001       0.00000000    
  -14.6599998       0.00000000    
  -14.6499996       0.00000000    
  -14.6400003       0.00000000    
  -14.6300001       0.00000000    
  -14.6199999       0.00000000    
  -14.6099997       0.00000000    
  -14.6000004       0.00000000    
  -14.5900002       0.00000000    
  -14.5799999       0.00000000    
  -14.5699997       0.00000000    
  -14.5600004       0.00000000    
  -14.5500002       0.00000000    
  -14.5400000       0.00000000    
  -14.5299997       0.00000000    
  -14.5200005       0.00000000    
  -14.5100002       0.00000000    
  -14.5000000       0.00000000    
  -14.4899998       0.00000000    
  -14.4799995       0.00000000    
  -14.4700003       0.00000000    
  -14.4600000       0.00000000    
  -14.4499998       0.00000000    
  -14.4399996       0.00000000    
  -14.4300003       0.00000000    
  -14.4200001       0.00000000    
  -14.4099998       0.00000000    
  -14.3999996       0.00000000    
  -14.3900003       0.00000000    
  -14.3800001       0.00000000    
  -14.3699999       0.00000000    
  -14.3599997       0.00000000    
  -14.3500004       0.00000000    
  -14.3400002       0.00000000    
  -14.3299999       0.00000000    
  -14.3199997       0.00000000    
  -14.3100004       0.00000000    
  -14.3000002       0.00000000    
  -14.2900000       0.00000000    
  -14.2799997       0.00000000    
  -14.2700005       0.00000000    
  -14.2600002       0.00000000    
  -14.2500000       0.00000000    
  -14.2399998       0.00000000    
  -14.2299995       0.00000000    
  -14.2200003       0.00000000    
  -14.2100000       0.00000000    
  -14.1999998       0.00000000    
  -14.1899996       0.00000000    
  -14.1800003       0.00000000    
  -14.1700001       0.00000000    
  -14.1599998       0.00000000    
  -14.1499996       0.00000000    
  -14.1400003       0.00000000    
  -14.1300001       0.00000000    
  -14.1199999       0.00000000    
  -14.1099997       0.00000000    
  -14.1000004       0.00000000    
  -14.0900002       0.00000000    
  -14.0799999       0.00000000    
  -14.0699997       0.00000000    
  -14.0600004       0.00000000    
  -14.0500002       0.00000000    
  -14.0400000       0.00000000    
  -14.0299997       0.00000000    
  -14.0200005       0.00000000    
  -14.0100002       0.00000000    
  -14.0000000       0.00000000    
  -13.9899998       0.00000000    
  -13.9799995       0.00000000    
  -13.9700003       0.00000000    
  -13.9600000       0.00000000    
  -13.9499998       0.00000000    
  -13.9399996       0.00000000    
  -13.9300003       0.00000000    
  -13.9200001       0.00000000    
  -13.9099998       0.00000000    
  -13.8999996       0.00000000    
  -13.8900003       0.00000000    
  -13.8800001       0.00000000    
  -13.8699999       0.00000000    
  -13.8599997       0.00000000    
  -13.8500004       0.00000000    
  -13.8400002       0.00000000    
  -13.8299999       0.00000000    
  -13.8199997       0.00000000    
  -13.8100004       0.00000000    
  -13.8000002       0.00000000    
  -13.7900000       0.00000000    
  -13.7799997       0.00000000    
  -13.7700005       0.00000000    
  -13.7600002      -0.00000000    
  -13.7500000      -0.00000000    
  -13.7399998      -0.00000000    
  -13.7299995       0.00000000    
  -13.7200003       0.00000000    
  -13.7100000       0.00000000    
  -13.6999998      -0.00000000    
  -13.6899996      -0.00000000    
  -13.6800003      -0.00000000    
  -13.6700001      -0.00000000    
  -13.6599998      -0.00000000    
  -13.6499996       0.00000000    
  -13.6400003       0.00000000    
  -13.6300001       1.40129846E-45
  -13.6199999       1.40129846E-45
  -13.6099997       1.40129846E-45
  -13.6000004       1.40129846E-45
  -13.5900002       1.40129846E-45
  -13.5799999       1.40129846E-45
  -13.5699997       0.00000000    
  -13.5600004      -0.00000000    
  -13.5500002       0.00000000    
  -13.5400000      -0.00000000    
  -13.5299997      -0.00000000    
  -13.5200005      -1.40129846E-45
  -13.5100002      -4.20389539E-45
  -13.5000000      -7.00649232E-45
  -13.4899998      -9.80908925E-45
  -13.4799995      -1.68155816E-44
  -13.4700003      -2.52233724E-44
  -13.4600000      -3.78350585E-44
  -13.4499998      -5.60519386E-44
  -13.4399996      -8.40779079E-44
  -13.4300003      -1.23314265E-43
  -13.4200001      -1.76563607E-43
  -13.4099998      -2.52233724E-43
  -13.3999996      -3.60133705E-43
  -13.3900003      -5.04467447E-43
  -13.3800001      -7.00649232E-43
  -13.3699999      -9.72501134E-43
  -13.3599997      -1.33964133E-42
  -13.3500004      -1.83570099E-42
  -13.3400002      -2.49991646E-42
  -13.3299999      -3.38833969E-42
  -13.3199997      -4.56543040E-42
  -13.3100004      -6.10685871E-42
  -13.3000002      -8.13453759E-42
  -13.2900000      -1.07928008E-41
  -13.2799997      -1.42638171E-41
  -13.2700005      -1.87661890E-41
  -13.2600002      -2.45773738E-41
  -13.2500000      -3.20448933E-41
  -13.2399998      -4.16115579E-41
  -13.2299995      -5.38294792E-41
  -13.2200003      -6.93656753E-41
  -13.2100000      -8.90637278E-41
  -13.1999998      -1.13938177E-40
  -13.1899996      -1.45252994E-40
  -13.1800003      -1.84538396E-40
  -13.1700001      -2.33663716E-40
  -13.1599998      -2.94903262E-40
  -13.1499996      -3.71033005E-40
  -13.1400003      -4.65375424E-40
  -13.1300001      -5.81935430E-40
  -13.1199999      -7.25557312E-40
  -13.1099997      -9.02045249E-40
  -13.1000004      -1.11832025E-39
  -13.0900002      -1.38265419E-39
  -13.0799999      -1.70492901E-39
  -13.0699997      -2.09684837E-39
  -13.0600004      -2.57228652E-39
  -13.0500002      -3.14764566E-39
  -13.0400000      -3.84227771E-39
  -13.0299997      -4.67900984E-39
  -13.0200005      -5.68463487E-39
  -13.0100002      -6.89055169E-39
  -13.0000000      -8.33352477E-39
  -12.9899998      -1.00564969E-38
  -12.9799995      -1.21095155E-38
  -12.9700003      -1.45507862E-38
  -12.9600000      -1.74479161E-38
  -12.9499998      -2.08792532E-38
  -12.9399996      -2.49354335E-38
  -12.9300003      -2.97211985E-38
  -12.9200001      -3.53572181E-38
  -12.9099998      -4.19823723E-38
  -12.8999996      -4.97562521E-38
  -12.8900003      -5.88618559E-38
  -12.8800001      -6.95087927E-38
  -12.8699999      -8.19367014E-38
  -12.8599997      -9.64189753E-38
  -12.8500004      -1.13267258E-37
  -12.8400002      -1.32836178E-37
  -12.8299999      -1.55528581E-37
  -12.8199997      -1.81801414E-37
  -12.8100004      -2.12172394E-37
  -12.8000002      -2.47226895E-37
  -12.7900000      -2.87626039E-37
  -12.7799997      -3.34115629E-37
  -12.7700005      -3.87535211E-37
  -12.7600002      -4.48829306E-37
  -12.7500000      -5.19058439E-37
  -12.7399998      -5.99412346E-37
  -12.7299995      -6.91223179E-37
  -12.7200003      -7.95980934E-37
  -12.7100000      -9.15350578E-37
  -12.6999998      -1.05118900E-36
  -12.6899996      -1.20556581E-36
  -12.6800003      -1.38078372E-36
  -12.6700001      -1.57940121E-36
  -12.6599998      -1.80425989E-36
  -12.6499996      -2.05850861E-36
  -12.6400003      -2.34563390E-36
  -12.6300001      -2.66949304E-36
  -12.6199999      -3.03434560E-36
  -12.6099997      -3.44489260E-36
  -12.6000004      -3.90631431E-36
  -12.5900002      -4.42431099E-36
  -12.5799999      -5.00515185E-36
  -12.5699997      -5.65572060E-36
  -12.5600004      -6.38356856E-36
  -12.5500002      -7.19697277E-36
  -12.5400000      -8.10498476E-36
  -12.5299997      -9.11751057E-36
  -12.5200005      -1.02453602E-35
  -12.5100002      -1.15003282E-35
  -12.5000000      -1.28952677E-35
  -12.4899998      -1.44441666E-35
  -12.4799995      -1.61622395E-35
  -12.4700003      -1.80660022E-35
  -12.4600000      -2.01733815E-35
  -12.4499998      -2.25038076E-35
  -12.4399996      -2.50783110E-35
  -12.4300003      -2.79196324E-35
  -12.4200001      -3.10523621E-35
  -12.4099998      -3.45030034E-35
  -12.3999996      -3.83001687E-35
  -12.3900003      -4.24746430E-35
  -12.3800001      -4.70595560E-35
  -12.3699999      -5.20905054E-35
  -12.3599997      -5.76057263E-35
  -12.3500004      -6.36462347E-35
  -12.3400002      -7.02559167E-35
  -12.3299999      -7.74817975E-35
  -12.3199997      -8.53741171E-35
  -12.3100004      -9.39865705E-35
  -12.3000002      -1.03376394E-34
  -12.2900000      -1.13604641E-34
  -12.2799997      -1.24736274E-34
  -12.2700005      -1.36840399E-34
  -12.2600002      -1.49990359E-34
  -12.2500000      -1.64264097E-34
  -12.2399998      -1.79744175E-34
  -12.2299995      -1.96518067E-34
  -12.2200003      -2.14678237E-34
  -12.2100000      -2.34322401E-34
  -12.1999998      -2.55553758E-34
  -12.1899996      -2.78480925E-34
  -12.1800003      -3.03218469E-34
  -12.1700001      -3.29886855E-34
  -12.1599998      -3.58612447E-34
  -12.1499996      -3.89528247E-34
  -12.1400003      -4.22773201E-34
  -12.1300001      -4.58493123E-34
  -12.1199999      -4.96840136E-34
  -12.1099997      -5.37973209E-34
  -12.1000004      -5.82058196E-34
  -12.0900002      -6.29267886E-34
  -12.0799999      -6.79781633E-34
  -12.0699997      -7.33786140E-34
  -12.0600004      -7.91474673E-34
  -12.0500002      -8.53047342E-34
  -12.0400000      -9.18711651E-34
  -12.0299997      -9.88680931E-34
  -12.0200005      -1.06317568E-33
  -12.0100002      -1.14242274E-33
  -12.0000000      -1.22665471E-33
  -11.9899998      -1.31611038E-33
  -11.9799995      -1.41103366E-33
  -11.9700003      -1.51167444E-33
  -11.9600000      -1.61828636E-33
  -11.9499998      -1.73112812E-33
  -11.9399996      -1.85046119E-33
  -11.9300003      -1.97655114E-33
  -11.9200001      -2.10966522E-33
  -11.9099998      -2.25007214E-33
  -11.8999996      -2.39804135E-33
  -11.8900003      -2.55384193E-33
  -11.8800001      -2.71774239E-33
  -11.8699999      -2.89000815E-33
  -11.8599997      -3.07090112E-33
  -11.8500004      -3.26067807E-33
  -11.8400002      -3.45958898E-33
  -11.8299999      -3.66787702E-33
  -11.8199997      -3.88577327E-33
  -11.8100004      -4.11349995E-33
  -11.8000002      -4.35126462E-33
  -11.7900000      -4.59925940E-33
  -11.7799997      -4.85765877E-33
  -11.7700005      -5.12661702E-33
  -11.7600002      -5.40626493E-33
  -11.7500000      -5.69670974E-33
  -11.7399998      -5.99802935E-33
  -11.7299995      -6.31027261E-33
  -11.7200003      -6.63345054E-33
  -11.7100000      -6.96753999E-33
  -11.6999998      -7.31247485E-33
  -11.6899996      -7.66814344E-33
  -11.6800003      -8.03438781E-33
  -11.6700001      -8.41099563E-33
  -11.6599998      -8.79769800E-33
  -11.6499996      -9.19416360E-33
  -11.6400003      -9.59999494E-33
  -11.6300001      -1.00147233E-32
  -11.6199999      -1.04378014E-32
  -11.6099997      -1.08686002E-32
  -11.6000004      -1.13064028E-32
  -11.5900002      -1.17504002E-32
  -11.5799999      -1.21996815E-32
  -11.5699997      -1.26532240E-32
  -11.5600004      -1.31098976E-32
  -11.5500002      -1.35684477E-32
  -11.5400000      -1.40274885E-32
  -11.5299997      -1.44855037E-32
  -11.5200005      -1.49408241E-32
  -11.5100002      -1.53916306E-32
  -11.5000000      -1.58359396E-32
  -11.4899998      -1.62715939E-32
  -11.4799995      -1.66962545E-32
  -11.4700003      -1.71073925E-32
  -11.4600000      -1.75022660E-32
  -11.4499998      -1.78779246E-32
  -11.4399996      -1.82311871E-32
  -11.4300003      -1.85586299E-32
  -11.4200001      -1.88565751E-32
  -11.4099998      -1.91210775E-32
  -11.3999996      -1.93479067E-32
  -11.3900003      -1.95325372E-32
  -11.3800001      -1.96701259E-32
  -11.3699999      -1.97554874E-32
  -11.3599997      -1.97830997E-32
  -11.3500004      -1.97470547E-32
  -11.3400002      -1.96410603E-32
  -11.3299999      -1.94584032E-32
  -11.3199997      -1.91919407E-32
  -11.3100004      -1.88340614E-32
  -11.3000002      -1.83766633E-32
  -11.2900000      -1.78111301E-32
  -11.2799997      -1.71282957E-32
  -11.2700005      -1.63184183E-32
  -11.2600002      -1.53711374E-32
  -11.2500000      -1.42754473E-32
  -11.2399998      -1.30196505E-32
  -11.2299995      -1.15913206E-32
  -11.2200003      -9.97726324E-33
  -11.2100000      -8.16345415E-33
  -11.1999998      -6.13500346E-33
  -11.1899996      -3.87609197E-33
  -11.1800003      -1.36992158E-33
  -11.1700001       1.40135172E-33
  -11.1599998       4.45668700E-33
  -11.1499996       7.81622193E-33
  -11.1400003       1.15013460E-32
  -11.1300001       1.55348014E-32
  -11.1199999       1.99407394E-32
  -11.1099997       2.47448408E-32
  -11.1000004       2.99744036E-32
  -11.0900002       3.56584301E-32
  -11.0799999       4.18277918E-32
  -11.0699997       4.85152908E-32
  -11.0600004       5.57558306E-32
  -11.0500002       6.35865390E-32
  -11.0400000       7.20469186E-32
  -11.0299997       8.11789992E-32
  -11.0200005       9.10275319E-32
  -11.0100002       1.01640130E-31
  -11.0000000       1.13067475E-31
  -10.9899998       1.25363546E-31
  -10.9799995       1.38585823E-31
  -10.9700003       1.52795540E-31
  -10.9600000       1.68057841E-31
  -10.9499998       1.84442175E-31
  -10.9399996       2.02022457E-31
  -10.9300003       2.20877481E-31
  -10.9200001       2.41091117E-31
  -10.9099998       2.62752821E-31
  -10.8999996       2.85957785E-31
  -10.8900003       3.10807360E-31
  -10.8800001       3.37409573E-31
  -10.8699999       3.65879529E-31
  -10.8599997       3.96339785E-31
  -10.8500004       4.28920820E-31
  -10.8400002       4.63761533E-31
  -10.8299999       5.01009892E-31
  -10.8199997       5.40823416E-31
  -10.8100004       5.83369587E-31
  -10.8000002       6.28827035E-31
  -10.7900000       6.77385485E-31
  -10.7799997       7.29246838E-31
  -10.7700005       7.84626022E-31
  -10.7600002       8.43751225E-31
  -10.7500000       9.06865398E-31
  -10.7399998       9.74226396E-31
  -10.7299995       1.04610882E-30
  -10.7200003       1.12280362E-30
  -10.7100000       1.20462019E-30
  -10.6999998       1.29188710E-30
  -10.6899996       1.38495259E-30
  -10.6800003       1.48418669E-30
  -10.6700001       1.58998175E-30
  -10.6599998       1.70275322E-30
  -10.6499996       1.82294197E-30
  -10.6400003       1.95101575E-30
  -10.6300001       2.08746826E-30
  -10.6199999       2.23282425E-30
  -10.6099997       2.38763761E-30
  -10.6000004       2.55249439E-30
  -10.5900002       2.72801469E-30
  -10.5799999       2.91485472E-30
  -10.5699997       3.11370736E-30
  -10.5600004       3.32530425E-30
  -10.5500002       3.55041800E-30
  -10.5400000       3.78986338E-30
  -10.5299997       4.04450103E-30
  -10.5200005       4.31523826E-30
  -10.5100002       4.60303012E-30
  -10.5000000       4.90888397E-30
  -10.4899998       5.23386095E-30
  -10.4799995       5.57907637E-30
  -10.4700003       5.94570497E-30
  -10.4600000       6.33498093E-30
  -10.4499998       6.74820349E-30
  -10.4399996       7.18673548E-30
  -10.4300003       7.65200781E-30
  -10.4200001       8.14552435E-30
  -10.4099998       8.66886045E-30
  -10.3999996       9.22367121E-30
  -10.3900003       9.81168847E-30
  -10.3800001       1.04347253E-29
  -10.3699999       1.10946828E-29
  -10.3599997       1.17935486E-29
  -10.3500004       1.25334006E-29
  -10.3400002       1.33164168E-29
  -10.3299999       1.41448631E-29
  -10.3199997       1.50211100E-29
  -10.3100004       1.59476358E-29
  -10.3000002       1.69270209E-29
  -10.2900000       1.79619524E-29
  -10.2799997       1.90552396E-29
  -10.2700005       2.02098000E-29
  -10.2600002       2.14286745E-29
  -10.2500000       2.27150226E-29
  -10.2399998       2.40721292E-29
  -10.2299995       2.55034141E-29
  -10.2200003       2.70124133E-29
  -10.2100000       2.86028101E-29
  -10.1999998       3.02784234E-29
  -10.1899996       3.20432011E-29
  -10.1800003       3.39012390E-29
  -10.1700001       3.58567771E-29
  -10.1599998       3.79142060E-29
  -10.1499996       4.00780484E-29
  -10.1400003       4.23530020E-29
  -10.1300001       4.47438936E-29
  -10.1199999       4.72557065E-29
  -10.1099997       4.98935925E-29
  -10.1000004       5.26628511E-29
  -10.0900002       5.55689169E-29
  -10.0799999       5.86174112E-29
  -10.0699997       6.18140938E-29
  -10.0600004       6.51648929E-29
  -10.0500002       6.86758692E-29
  -10.0400000       7.23532639E-29
  -10.0299997       7.62034567E-29
  -10.0200005       8.02329595E-29
  -10.0100002       8.44484771E-29
  -10.0000000       8.88568224E-29
  -9.98999977       9.34649047E-29
  -9.97999954       9.82798921E-29
  -9.97000027       1.03308989E-28
  -9.96000004       1.08559531E-28
  -9.94999981       1.14038994E-28
  -9.93999958       1.19754950E-28
  -9.93000031       1.25715113E-28
  -9.92000008       1.31927260E-28
  -9.90999985       1.38399204E-28
  -9.89999962       1.45138911E-28
  -9.89000034       1.52154400E-28
  -9.88000011       1.59453698E-28
  -9.86999989       1.67044896E-28
  -9.85999966       1.74936117E-28
  -9.85000038       1.83135475E-28
  -9.84000015       1.91651034E-28
  -9.82999992       2.00490908E-28
  -9.81999969       2.09663113E-28
  -9.81000042       2.19175570E-28
  -9.80000019       2.29036115E-28
  -9.78999996       2.39252499E-28
  -9.77999973       2.49832355E-28
  -9.77000046       2.60783096E-28
  -9.76000023       2.72111873E-28
  -9.75000000       2.83825764E-28
  -9.73999977       2.95931462E-28
  -9.72999954       3.08435369E-28
  -9.72000027       3.21343674E-28
  -9.71000004       3.34662009E-28
  -9.69999981       3.48395695E-28
  -9.68999958       3.62549716E-28
  -9.68000031       3.77128283E-28
  -9.67000008       3.92135298E-28
  -9.65999985       4.07574058E-28
  -9.64999962       4.23447139E-28
  -9.64000034       4.39756443E-28
  -9.63000011       4.56502982E-28
  -9.61999989       4.73687285E-28
  -9.60999966       4.91308725E-28
  -9.60000038       5.09365907E-28
  -9.59000015       5.27856327E-28
  -9.57999992       5.46776615E-28
  -9.56999969       5.66121907E-28
  -9.56000042       5.85886426E-28
  -9.55000019       6.06063142E-28
  -9.53999996       6.26643389E-28
  -9.52999973       6.47617440E-28
  -9.52000046       6.68973692E-28
  -9.51000023       6.90699049E-28
  -9.50000000       7.12778728E-28
  -9.48999977       7.35196167E-28
  -9.47999954       7.57932926E-28
  -9.47000027       7.80968300E-28
  -9.46000004       8.04279997E-28
  -9.44999981       8.27843268E-28
  -9.43999958       8.51630718E-28
  -9.43000031       8.75612975E-28
  -9.42000008       8.99758166E-28
  -9.40999985       9.24031528E-28
  -9.39999962       9.48395601E-28
  -9.39000034       9.72809845E-28
  -9.38000011       9.97231310E-28
  -9.36999989       1.02161320E-27
  -9.35999966       1.04590601E-27
  -9.35000038       1.07005640E-27
  -9.34000015       1.09400775E-27
  -9.32999992       1.11769967E-27
  -9.31999969       1.14106765E-27
  -9.31000042       1.16404390E-27
  -9.30000019       1.18655600E-27
  -9.28999996       1.20852730E-27
  -9.27999973       1.22987720E-27
  -9.27000046       1.25052008E-27
  -9.26000023       1.27036573E-27
  -9.25000000       1.28931910E-27
  -9.23999977       1.30728022E-27
  -9.22999954       1.32414415E-27
  -9.22000027       1.33979994E-27
  -9.21000004       1.35413194E-27
  -9.19999981       1.36701843E-27
  -9.18999958       1.37833202E-27
  -9.18000031       1.38793961E-27
  -9.17000008       1.39570179E-27
  -9.15999985       1.40147255E-27
  -9.14999962       1.40510013E-27
  -9.14000034       1.40642575E-27
  -9.13000011       1.40528425E-27
  -9.11999989       1.40150336E-27
  -9.10999966       1.39490397E-27
  -9.10000038       1.38529974E-27
  -9.09000015       1.37249712E-27
  -9.07999992       1.35629495E-27
  -9.06999969       1.33648512E-27
  -9.06000042       1.31285107E-27
  -9.05000019       1.28516910E-27
  -9.03999996       1.25320714E-27
  -9.02999973       1.21672521E-27
  -9.02000046       1.17547565E-27
  -9.01000023       1.12920229E-27
  -9.00000000       1.07764062E-27
  -8.98999977       1.02051773E-27
  -8.97999954       9.57552339E-28
  -8.97000027       8.88454883E-28
  -8.96000004       8.12927326E-28
  -8.94999981       7.30662721E-28
  -8.93999958       6.41345697E-28
  -8.93000031       5.44652555E-28
  -8.92000008       4.40250733E-28
  -8.90999985       3.27799199E-28
  -8.89999962       2.06948323E-28
  -8.89000034       7.73401466E-29
  -8.88000011      -6.13913642E-29
  -8.86999989      -2.09621297E-28
  -8.85999966      -3.67732032E-28
  -8.85000038      -5.36115052E-28
  -8.84000015      -7.15168663E-28
  -8.82999992      -9.05299644E-28
  -8.81999969      -1.10692188E-27
  -8.81000042      -1.32045715E-27
  -8.80000019      -1.54633329E-27
  -8.78999996      -1.78498615E-27
  -8.77999973      -2.03685715E-27
  -8.77000046      -2.30239455E-27
  -8.76000023      -2.58205191E-27
  -8.75000000      -2.87628874E-27
  -8.73999977      -3.18556940E-27
  -8.72999954      -3.51036131E-27
  -8.72000027      -3.85113959E-27
  -8.71000004      -4.20837918E-27
  -8.69999981      -4.58256079E-27
  -8.68999958      -4.97416513E-27
  -8.68000031      -5.38367600E-27
  -8.67000008      -5.81157950E-27
  -8.65999985      -6.25836020E-27
  -8.64999962      -6.72450304E-27
  -8.64000034      -7.21049143E-27
  -8.63000011      -7.71680763E-27
  -8.61999989      -8.24393080E-27
  -8.60999966      -8.79233627E-27
  -8.60000038      -9.36249473E-27
  -8.59000015      -9.95486919E-27
  -8.57999992      -1.05699195E-26
  -8.56999969      -1.12080941E-26
  -8.56000042      -1.18698337E-26
  -8.55000019      -1.25555679E-26
  -8.53999996      -1.32657192E-26
  -8.52999973      -1.40006879E-26
  -8.52000046      -1.47608664E-26
  -8.51000023      -1.55466304E-26
  -8.50000000      -1.63583390E-26
  -8.48999977      -1.71963296E-26
  -8.47999954      -1.80609196E-26
  -8.47000027      -1.89524033E-26
  -8.46000004      -1.98710565E-26
  -8.44999981      -2.08171210E-26
  -8.43999958      -2.17908126E-26
  -8.43000031      -2.27923255E-26
  -8.42000008      -2.38218152E-26
  -8.40999985      -2.48794003E-26
  -8.39999962      -2.59651718E-26
  -8.39000034      -2.70791759E-26
  -8.38000011      -2.82214218E-26
  -8.36999989      -2.93918726E-26
  -8.35999966      -3.05904543E-26
  -8.35000038      -3.18170314E-26
  -8.34000015      -3.30714281E-26
  -8.32999992      -3.43534195E-26
  -8.31999969      -3.56627160E-26
  -8.31000042      -3.69989785E-26
  -8.30000019      -3.83617943E-26
  -8.28999996      -3.97506979E-26
  -8.27999973      -4.11651564E-26
  -8.27000046      -4.26045594E-26
  -8.26000023      -4.40682354E-26
  -8.25000000      -4.55554323E-26
  -8.23999977      -4.70653152E-26
  -8.22999954      -4.85969810E-26
  -8.22000027      -5.01494223E-26
  -8.21000004      -5.17215482E-26
  -8.19999981      -5.33121937E-26
  -8.18999958      -5.49200648E-26
  -8.18000031      -5.65437932E-26
  -8.17000008      -5.81819122E-26
  -8.15999985      -5.98328317E-26
  -8.14999962      -6.14948692E-26
  -8.14000034      -6.31662127E-26
  -8.13000011      -6.48449581E-26
  -8.11999989      -6.65290343E-26
  -8.10999966      -6.82163215E-26
  -8.10000038      -6.99044962E-26
  -8.09000015      -7.15911363E-26
  -8.07999992      -7.32737026E-26
  -8.06999969      -7.49494897E-26
  -8.06000042      -7.66156564E-26
  -8.05000019      -7.82692075E-26
  -8.03999996      -7.99070306E-26
  -8.02999973      -8.15258348E-26
  -8.02000046      -8.31221811E-26
  -8.01000023      -8.46924642E-26
  -8.00000000      -8.62329062E-26
  -7.98999977      -8.77395874E-26
  -7.98000002      -8.92083724E-26
  -7.96999979      -9.06350027E-26
  -7.96000004      -9.20150286E-26
  -7.94999981      -9.33437970E-26
  -7.94000006      -9.46164762E-26
  -7.92999983      -9.58280679E-26
  -7.92000008      -9.69733707E-26
  -7.90999985      -9.80469796E-26
  -7.90000010      -9.90433047E-26
  -7.88999987      -9.99565653E-26
  -7.88000011      -1.00780765E-25
  -7.86999989      -1.01509715E-25
  -7.86000013      -1.02137014E-25
  -7.84999990      -1.02656047E-25
  -7.84000015      -1.03060000E-25
  -7.82999992      -1.03341863E-25
  -7.82000017      -1.03494385E-25
  -7.80999994      -1.03510113E-25
  -7.80000019      -1.03381380E-25
  -7.78999996      -1.03100305E-25
  -7.78000021      -1.02658778E-25
  -7.76999998      -1.02048507E-25
  -7.76000023      -1.01260934E-25
  -7.75000000      -1.00287326E-25
  -7.73999977      -9.91187087E-26
  -7.73000002      -9.77459244E-26
  -7.71999979      -9.61595929E-26
  -7.71000004      -9.43500877E-26
  -7.69999981      -9.23076344E-26
  -7.69000006      -9.00221934E-26
  -7.67999983      -8.74835589E-26
  -7.67000008      -8.46813277E-26
  -7.65999985      -8.16048627E-26
  -7.65000010      -7.82433723E-26
  -7.63999987      -7.45858803E-26
  -7.63000011      -7.06212071E-26
  -7.61999989      -6.63379883E-26
  -7.61000013      -6.17247235E-26
  -7.59999990      -5.67697218E-26
  -7.59000015      -5.14611470E-26
  -7.57999992      -4.57870215E-26
  -7.57000017      -3.97352196E-26
  -7.55999994      -3.32934554E-26
  -7.55000019      -2.64493937E-26
  -7.53999996      -1.91905206E-26
  -7.53000021      -1.15042583E-26
  -7.51999998      -3.37791934E-27
  -7.51000023       5.20124730E-27
  -7.50000000       1.42460499E-26
  -7.48999977       2.37693590E-26
  -7.48000002       3.37840591E-26
  -7.46999979       4.43030848E-26
  -7.46000004       5.53393752E-26
  -7.44999981       6.69057832E-26
  -7.44000006       7.90152480E-26