  -16.0000000       0.00000000    
  -15.9899998       0.00000000    
  -15.9799995       0.00000000    
  -15.9700003       0.00000000    
  -15.9600000       0.00000000    
  -15.9499998       0.00000000    
  -15.9399996       0.00000000    
  -15.9300003       0.00000000    
  -15.9200001       0.00000000    
  -15.9099998       0.00000000    
  -15.8999996       0.00000000    
  -15.8900003       0.00000000    
  -15.8800001       0.00000000    
  -15.8699999       0.00000000    
  -15.8599997       0.00000000    
  -15.8500004       0.00000000    
  -15.8400002       0.00000000    
  -15.8299999       0.00000000    
  -15.8199997       0.00000000    
  -15.8100004       0.00000000    
  -15.8000002       0.00000000    
  -15.7900000       0.00000000    
  -15.7799997       0.00000000    
  -15.7700005       0.00000000    
  -15.7600002       0.00000000    
  -15.7500000       0.00000000    
  -15.7399998       0.00000000    
  -15.7299995       0.00000000    
  -15.7200003       0.00000000    
  -15.7100000       0.00000000    
  -15.6999998       0.00000000    
  -15.6899996       0.00000000    
  -15.6800003       0.00000000    
  -15.6700001       0.00000000    
  -15.6599998       0.00000000    
  -15.6499996       0.00000000    
  -15.6400003       0.00000000    
  -15.6300001       0.00000000    
  -15.6199999       0.00000000    
  -15.6099997       0.00000000    
  -15.6000004       0.00000000    
  -15.5900002       0.00000000    
  -15.5799999       0.00000000    
  -15.5699997       0.00000000    
  -15.5600004       0.00000000    
  -15.5500002       0.00000000    
  -15.5400000       0.00000000    
  -15.5299997       0.00000000    
  -15.5200005       0.00000000    
  -15.5100002       0.00000000    
  -15.5000000       0.00000000    
  -15.4899998       0.00000000    
  -15.4799995       0.00000000    
  -15.4700003       0.00000000    
  -15.4600000       0.00000000    
  -15.4499998       0.00000000    
  -15.4399996       0.00000000    
  -15.4300003       0.00000000    
  -15.4200001       0.00000000    
  -15.4099998       0.00000000    
  -15.3999996       0.00000000    
  -15.3900003       0.00000000    
  -15.3800001       0.00000000    
  -15.3699999       0.00000000    
  -15.3599997       0.00000000    
  -15.3500004       0.00000000    
  -15.3400002       0.00000000    
  -15.3299999       0.00000000    
  -15.3199997       0.00000000    
  -15.3100004       0.00000000    
  -15.3000002       0.00000000    
  -15.2900000       0.00000000    
  -15.2799997       0.00000000    
  -15.2700005       0.00000000    
  -15.2600002       0.00000000    
  -15.2500000       0.00000000    
  -15.2399998       0.00000000    
  -15.2299995       0.00000000    
  -15.2200003       0.00000000    
  -15.2100000       0.00000000    
  -15.1999998       0.00000000    
  -15.1899996       0.00000000    
  -15.1800003       0.00000000    
  -15.1700001       0.00000000    
  -15.1599998       0.00000000    
  -15.1499996       0.00000000    
  -15.1400003       0.00000000    
  -15.1300001       0.00000000    
  -15.1199999       0.00000000    
  -15.1099997       0.00000000    
  -15.1000004       0.00000000    
  -15.0900002       0.00000000    
  -15.0799999       0.00000000    
  -15.0699997       0.00000000    
  -15.0600004       0.00000000    
  -15.0500002       0.00000000    
  -15.0400000       0.00000000    
  -15.0299997       0.00000000    
  -15.0200005       0.00000000    
  -15.0100002       0.00000000    
  -15.0000000       0.00000000    
  -14.9899998       0.00000000    
  -14.9799995       0.00000000    
  -14.9700003       0.00000000    
  -14.9600000       0.00000000    
  -14.9499998       0.00000000    
  -14.9399996       0.00000000    
  -14.9300003       0.00000000    
  -14.9200001       0.00000000    
  -14.9099998       0.00000000    
  -14.8999996       0.00000000    
  -14.8900003       0.00000000    
  -14.8800001       0.00000000    
  -14.8699999       0.00000000    
  -14.8599997       0.00000000    
  -14.8500004       0.00000000    
  -14.8400002       0.00000000    
  -14.8299999       0.00000000    
  -14.8199997       0.00000000    
  -14.8100004       0.00000000    
  -14.8000002       0.00000000    
  -14.7900000       0.00000000    
  -14.7799997       0.00000000    
  -14.7700005       0.00000000    
  -14.7600002       0.00000000    
  -14.7500000       0.00000000    
  -14.7399998       0.00000000    
  -14.7299995       0.00000000    
  -14.7200003       0.00000000    
  -14.7100000       0.00000000    
  -14.6999998       0.00000000    
  -14.6899996       0.00000000    
  -14.6800003       0.00000000    
  -14.6700001       0.00000000    
  -14.6599998       0.00000000    
  -14.6499996       0.00000000    
  -14.6400003       0.00000000    
  -14.6300001       0.00000000    
  -14.6199999       0.00000000    
  -14.6099997       0.00000000    
  -14.6000004       0.00000000    
  -14.5900002       0.00000000    
  -14.5799999       0.00000000    
  -14.5699997       0.00000000    
  -14.5600004       0.00000000    
  -14.5500002       0.00000000    
  -14.5400000       0.00000000    
  -14.5299997       0.00000000    
  -14.5200005       0.00000000    
  -14.5100002       0.00000000    
  -14.5000000       0.00000000    
  -14.4899998       0.00000000    
  -14.4799995       0.00000000    
  -14.4700003       0.00000000    
  -14.4600000       0.00000000    
  -14.4499998       0.00000000    
  -14.4399996       0.00000000    
  -14.4300003       0.00000000    
  -14.4200001       0.00000000    
  -14.4099998       0.00000000    
  -14.3999996       0.00000000    
  -14.3900003       0.00000000    
  -14.3800001       0.00000000    
  -14.3699999       0.00000000    
  -14.3599997       0.00000000    
  -14.3500004       0.00000000    
  -14.3400002       0.00000000    
  -14.3299999       0.00000000    
  -14.3199997       0.00000000    
  -14.3100004       0.00000000    
  -14.3000002       0.00000000    
  -14.2900000       0.00000000    
  -14.2799997       0.00000000    
  -14.2700005       0.00000000    
  -14.2600002       0.00000000    
  -14.2500000       0.00000000    
  -14.2399998       0.00000000    
  -14.2299995       0.00000000    
  -14.2200003       0.00000000    
  -14.2100000       0.00000000    
  -14.1999998       0.00000000    
  -14.1899996      -0.00000000    
  -14.1800003      -0.00000000    
  -14.1700001      -0.00000000    
  -14.1599998      -0.00000000    
  -14.1499996      -0.00000000    
  -14.1400003      -0.00000000    
  -14.1300001       1.40129846E-45
  -14.1199999       1.40129846E-45
  -14.1099997       2.80259693E-45
  -14.1000004       2.80259693E-45
  -14.0900002       2.80259693E-45
  -14.0799999       2.80259693E-45
  -14.0699997       2.80259693E-45
  -14.0600004       2.80259693E-45
  -14.0500002       2.80259693E-45
  -14.0400000       2.80259693E-45
  -14.0299997       2.80259693E-45
  -14.0200005       2.80259693E-45
  -14.0100002       2.80259693E-45
  -14.0000000       2.80259693E-45
  -13.9899998       2.80259693E-45
  -13.9799995       2.80259693E-45
  -13.9700003       2.80259693E-45
  -13.9600000       1.40129846E-45
  -13.9499998       2.80259693E-45
  -13.9399996       2.80259693E-45
  -13.9300003       1.40129846E-45
  -13.9200001      -0.00000000    
  -13.9099998      -1.40129846E-45
  -13.8999996      -4.20389539E-45
  -13.8900003      -7.00649232E-45
  -13.8800001      -7.00649232E-45
  -13.8699999      -8.40779079E-45
  -13.8599997      -9.80908925E-45
  -13.8500004      -1.12103877E-44
  -13.8400002      -1.40129846E-44
  -13.8299999      -1.26116862E-44
  -13.8199997      -1.82168800E-44
  -13.8100004      -2.38220739E-44
  -13.8000002      -3.08285662E-44
  -13.7900000      -3.78350585E-44
  -13.7799997      -4.76441478E-44
  -13.7700005      -6.02558340E-44
  -13.7600002      -7.70714155E-44
  -13.7500000      -1.02294788E-43
  -13.7399998      -1.33123354E-43
  -13.7299995      -1.70958413E-43
  -13.7200003      -2.14398665E-43
  -13.7100000      -2.70450604E-43
  -13.6999998      -3.39114228E-43
  -13.6899996      -4.25994733E-43
  -13.6800003      -5.38098610E-43
  -13.6700001      -6.79629755E-43
  -13.6599998      -8.47785571E-43
  -13.6499996      -1.05377645E-42
  -13.6400003      -1.30320757E-42
  -13.6300001      -1.60448674E-42
  -13.6199999      -1.97863343E-42
  -13.6099997      -2.42985154E-42
  -13.6000004      -2.97635794E-42
  -13.5900002      -3.64197471E-42
  -13.5799999      -4.44491873E-42
  -13.5699997      -5.41041337E-42
  -13.5600004      -6.57208980E-42
  -13.5500002      -7.95657268E-42
  -13.5400000      -9.61290747E-42
  -13.5299997      -1.15859357E-41
  -13.5200005      -1.39275054E-41
  -13.5100002      -1.67174907E-41
  -13.5000000      -2.00343641E-41
  -13.4899998      -2.39579998E-41
  -13.4799995      -2.85962978E-41
  -13.4700003      -3.40669670E-41
  -13.4600000      -4.05101373E-41
  -13.4499998      -4.80939646E-41
  -13.4399996      -5.69978150E-41
  -13.4300003      -6.74402912E-41
  -13.4200001      -7.96694229E-41
  -13.4099998      -9.39612659E-41
  -13.3999996      -1.10631112E-40
  -13.3900003      -1.30053109E-40
  -13.3800001      -1.52664461E-40
  -13.3699999      -1.78943011E-40
  -13.3599997      -2.09426858E-40
  -13.3500004      -2.44750790E-40
  -13.3400002      -2.85626666E-40
  -13.3299999      -3.32861635E-40
  -13.3199997      -3.87367941E-40
  -13.3100004      -4.50178342E-40
  -13.3000002      -5.22465725E-40
  -13.2900000      -6.05555717E-40
  -13.2799997      -7.00935097E-40
  -13.2700005      -8.10293831E-40
  -13.2600002      -9.35519466E-40
  -13.2500000      -1.07875179E-39
  -13.2399998      -1.24238001E-39
  -13.2299995      -1.42907220E-39
  -13.2200003      -1.64183275E-39
  -13.2100000      -1.88401916E-39
  -13.1999998      -2.15939533E-39
  -13.1899996      -2.47215253E-39
  -13.1800003      -2.82697392E-39
  -13.1700001      -3.22905970E-39
  -13.1599998      -3.68421405E-39
  -13.1499996      -4.19888295E-39
  -13.1400003      -4.78022283E-39
  -13.1300001      -5.43618885E-39
  -13.1199999      -6.17558819E-39
  -13.1099997      -7.00816968E-39
  -13.1000004      -7.94473591E-39
  -13.0900002      -8.99718393E-39
  -13.0799999      -1.01786733E-38
  -13.0699997      -1.15037369E-38
  -13.0600004      -1.29883650E-38
  -13.0500002      -1.46501551E-38
  -13.0400000      -1.65084226E-38
  -13.0299997      -1.85844448E-38
  -13.0200005      -2.09016025E-38
  -13.0100002      -2.34854470E-38
  -13.0000000      -2.63640489E-38
  -12.9899998      -2.95680814E-38
  -12.9799995      -3.31311546E-38
  -12.9700003      -3.70899265E-38
  -12.9600000      -4.14844854E-38
  -12.9499998      -4.63584032E-38
  -12.9399996      -5.17592793E-38
  -12.9300003      -5.77389506E-38
  -12.9200001      -6.43536342E-38
  -12.9099998      -7.16647633E-38
  -12.8999996      -7.97386639E-38
  -12.8900003      -8.86474469E-38
  -12.8800001      -9.84695009E-38
  -12.8699999      -1.09289420E-37
  -12.8599997      -1.21198573E-37
  -12.8500004      -1.34296196E-37
  -12.8400002      -1.48689325E-37
  -12.8299999      -1.64493920E-37
  -12.8199997      -1.81834327E-37
  -12.8100004      -2.00844387E-37
  -12.8000002      -2.21669005E-37
  -12.7900000      -2.44463400E-37
  -12.7799997      -2.69394944E-37
  -12.7700005      -2.96642800E-37
  -12.7600002      -3.26400460E-37
  -12.7500000      -3.58873478E-37
  -12.7399998      -3.94283192E-37
  -12.7299995      -4.32866791E-37
  -12.7200003      -4.74877225E-37
  -12.7100000      -5.20585339E-37
  -12.6999998      -5.70280091E-37
  -12.6899996      -6.24270484E-37
  -12.6800003      -6.82883907E-37
  -12.6700001      -7.46470885E-37
  -12.6599998      -8.15403873E-37
  -12.6499996      -8.90080032E-37
  -12.6400003      -9.70918407E-37
  -12.6300001      -1.05836696E-36
  -12.6199999      -1.15289833E-36
  -12.6099997      -1.25501806E-36
  -12.6000004      -1.36525590E-36
  -12.5900002      -1.48417085E-36
  -12.5799999      -1.61236208E-36
  -12.5699997      -1.75045810E-36
  -12.5600004      -1.89911734E-36
  -12.5500002      -2.05904151E-36
  -12.5400000      -2.23096491E-36
  -12.5299997      -2.41566600E-36
  -12.5200005      -2.61395391E-36
  -12.5100002      -2.82668724E-36
  -12.5000000      -3.05476393E-36
  -12.4899998      -3.29912061E-36
  -12.4799995      -3.56074523E-36
  -12.4700003      -3.84067417E-36
  -12.4600000      -4.13998363E-36
  -12.4499998      -4.45980863E-36
  -12.4399996      -4.80130718E-36
  -12.4300003      -5.16572406E-36
  -12.4200001      -5.55432811E-36
  -12.4099998      -5.96844091E-36
  -12.3999996      -6.40945613E-36
  -12.3900003      -6.87879435E-36
  -12.3800001      -7.37793605E-36
  -12.3699999      -7.90842380E-36
  -12.3599997      -8.47185322E-36
  -12.3500004      -9.06986014E-36
  -12.3400002      -9.70414208E-36
  -12.3299999      -1.03764332E-35
  -12.3199997      -1.10885184E-35
  -12.3100004      -1.18422496E-35
  -12.3000002      -1.26395461E-35
  -12.2900000      -1.34823003E-35
  -12.2799997      -1.43725220E-35
  -12.2700005      -1.53122245E-35
  -12.2600002      -1.63034494E-35
  -12.2500000      -1.73482762E-35
  -12.2399998      -1.84488543E-35
  -12.2299995      -1.96073218E-35
  -12.2200003      -2.08258282E-35
  -12.2100000      -2.21066019E-35
  -12.1999998      -2.34517996E-35
  -12.1899996      -2.48636341E-35
  -12.1800003      -2.63442519E-35
  -12.1700001      -2.78959101E-35
  -12.1599998      -2.95207297E-35
  -12.1499996      -3.12207971E-35
  -12.1400003      -3.29982731E-35
  -12.1300001      -3.48551868E-35
  -12.1199999      -3.67934955E-35
  -12.1099997      -3.88151162E-35
  -12.1000004      -4.09217823E-35
  -12.0900002      -4.31153248E-35
  -12.0799999      -4.53972589E-35
  -12.0699997      -4.77689766E-35
  -12.0600004      -5.02319042E-35
  -12.0500002      -5.27869743E-35
  -12.0400000      -5.54351829E-35
  -12.0299997      -5.81772645E-35
  -12.0200005      -6.10136612E-35
  -12.0100002      -6.39444189E-35
  -12.0000000      -6.69696006E-35
  -11.9899998      -7.00885465E-35
  -11.9799995      -7.33005733E-35
  -11.9700003      -7.66045734E-35
  -11.9600000      -7.99986698E-35
  -11.9499998      -8.34808767E-35
  -11.9399996      -8.70485996E-35
  -11.9300003      -9.06986244E-35
  -11.9200001      -9.44274038E-35
  -11.9099998      -9.82304150E-35
  -11.8999996      -1.02102647E-34
  -11.8900003      -1.06038246E-34
  -11.8800001      -1.10030656E-34
  -11.8699999      -1.14072256E-34
  -11.8599997      -1.18154952E-34
  -11.8500004      -1.22269206E-34
  -11.8400002      -1.26404845E-34
  -11.8299999      -1.30550139E-34
  -11.8199997      -1.34692493E-34
  -11.8100004      -1.38817732E-34
  -11.8000002      -1.42910714E-34
  -11.7900000      -1.46954461E-34
  -11.7799997      -1.50930364E-34
  -11.7700005      -1.54818667E-34
  -11.7600002      -1.58597204E-34
  -11.7500000      -1.62242603E-34
  -11.7399998      -1.65728563E-34
  -11.7299995      -1.69027627E-34
  -11.7200003      -1.72109363E-34
  -11.7100000      -1.74941420E-34
  -11.6999998      -1.77488764E-34
  -11.6899996      -1.79712882E-34
  -11.6800003      -1.81573171E-34
  -11.6700001      -1.83026089E-34
  -11.6599998      -1.84024226E-34
  -11.6499996      -1.84516751E-34
  -11.6400003      -1.84449516E-34
  -11.6300001      -1.83764068E-34
  -11.6199999      -1.82397946E-34
  -11.6099997      -1.80284134E-34
  -11.6000004      -1.77351195E-34
  -11.5900002      -1.73522527E-34
  -11.5799999      -1.68716202E-34
  -11.5699997      -1.62844653E-34
  -11.5600004      -1.55814474E-34
  -11.5500002      -1.47525919E-34
  -11.5400000      -1.37872183E-34
  -11.5299997      -1.26739677E-34
  -11.5200005      -1.14007214E-34
  -11.5100002      -9.95454993E-35
  -11.5000000      -8.32167234E-35
  -11.4899998      -6.48741098E-35
  -11.4799995      -4.43610446E-35
  -11.4700003      -2.15108693E-35
  -11.4600000       3.85390745E-36
  -11.4499998       3.19224518E-35
  -11.4399996       6.28956345E-35
  -11.4300003       9.69878119E-35
  -11.4200001       1.34426813E-34
  -11.4099998       1.75455079E-34
  -11.3999996       2.20330804E-34
  -11.3900003       2.69327957E-34
  -11.3800001       3.22737645E-34
  -11.3699999       3.80870317E-34
  -11.3599997       4.44057226E-34
  -11.3500004       5.12647734E-34
  -11.3400002       5.87014695E-34
  -11.3299999       6.67555252E-34
  -11.3199997       7.54689460E-34
  -11.3100004       8.48864970E-34
  -11.3000002       9.50557446E-34
  -11.2900000       1.06027175E-33
  -11.2799997       1.17854200E-33
  -11.2700005       1.30594135E-33
  -11.2600002       1.44307130E-33
  -11.2500000       1.59057592E-33
  -11.2399998       1.74913412E-33
  -11.2299995       1.91947519E-33
  -11.2200003       2.10236687E-33
  -11.2100000       2.29861712E-33
  -11.1999998       2.50909747E-33
  -11.1899996       2.73472553E-33
  -11.1800003       2.97647825E-33
  -11.1700001       3.23538363E-33
  -11.1599998       3.51253802E-33
  -11.1499996       3.80910128E-33
  -11.1400003       4.12630623E-33
  -11.1300001       4.46544884E-33
  -11.1199999       4.82792097E-33
  -11.1099997       5.21518942E-33
  -11.1000004       5.62879703E-33
  -11.0900002       6.07038581E-33
  -11.0799999       6.54171055E-33
  -11.0699997       7.04460026E-33
  -11.0600004       7.58099964E-33
  -11.0500002       8.15299298E-33
  -11.0400000       8.76273660E-33
  -11.0299997       9.41255575E-33
  -11.0200005       1.01048962E-32
  -11.0100002       1.08423161E-32
  -11.0000000       1.16275537E-32
  -10.9899998       1.24634874E-32
  -10.9799995       1.33531589E-32
  -10.9700003       1.42997859E-32
  -10.9600000       1.53067643E-32
  -10.9499998       1.63776661E-32
  -10.9399996       1.75162720E-32
  -10.9300003       1.87265742E-32
  -10.9200001       2.00127531E-32
  -10.9099998       2.13792286E-32
  -10.8999996       2.28306643E-32
  -10.8900003       2.43720196E-32
  -10.8800001       2.60084532E-32
  -10.8699999       2.77454283E-32
  -10.8599997       2.95886387E-32
  -10.8500004       3.15442352E-32
  -10.8400002       3.36184126E-32
  -10.8299999       3.58179418E-32
  -10.8199997       3.81497787E-32
  -10.8100004       4.06213731E-32
  -10.8000002       4.32403540E-32
  -10.7900000       4.60148674E-32
  -10.7799997       4.89535651E-32
  -10.7700005       5.20652838E-32
  -10.7600002       5.53593892E-32
  -10.7500000       5.88457527E-32
  -10.7399998       6.25347713E-32
  -10.7299995       6.64371716E-32
  -10.7200003       7.05642500E-32
  -10.7100000       7.49277320E-32
  -10.6999998       7.95400956E-32
  -10.6899996       8.44143770E-32
  -10.6800003       8.95640238E-32
  -10.6700001       9.50031772E-32
  -10.6599998       1.00746707E-31
  -10.6499996       1.06809872E-31
  -10.6400003       1.13208640E-31
  -10.6300001       1.19959904E-31
  -10.6199999       1.27081460E-31
  -10.6099997       1.34591235E-31
  -10.6000004       1.42508389E-31
  -10.5900002       1.50852718E-31
  -10.5799999       1.59644887E-31
  -10.5699997       1.68905972E-31
  -10.5600004       1.78658520E-31
  -10.5500002       1.88925299E-31
  -10.5400000       1.99730573E-31
  -10.5299997       2.11099413E-31
  -10.5200005       2.23057999E-31
  -10.5100002       2.35632639E-31
  -10.5000000       2.48851449E-31
  -10.4899998       2.62742712E-31
  -10.4799995       2.77336780E-31
  -10.4700003       2.92664075E-31
  -10.4600000       3.08757697E-31
  -10.4499998       3.25649998E-31
  -10.4399996       3.43374736E-31
  -10.4300003       3.61967319E-31
  -10.4200001       3.81464280E-31
  -10.4099998       4.01902600E-31
  -10.3999996       4.23321753E-31
  -10.3900003       4.45760717E-31
  -10.3800001       4.69260683E-31
  -10.3699999       4.93864015E-31
  -10.3599997       5.19613642E-31
  -10.3500004       5.46553857E-31
  -10.3400002       5.74729610E-31
  -10.3299999       6.04188533E-31
  -10.3199997       6.34978774E-31
  -10.3100004       6.67149280E-31
  -10.3000002       7.00749516E-31
  -10.2900000       7.35830593E-31
  -10.2799997       7.72445221E-31
  -10.2700005       8.10647988E-31
  -10.2600002       8.50490099E-31
  -10.2500000       8.92029530E-31
  -10.2399998       9.35320919E-31
  -10.2299995       9.80423038E-31
  -10.2200003       1.02739438E-30
  -10.2100000       1.07629119E-30
  -10.1999998       1.12717702E-30
  -10.1899996       1.18010812E-30
  -10.1800003       1.23514608E-30
  -10.1700001       1.29235203E-30
  -10.1599998       1.35179020E-30
  -10.1499996       1.41352011E-30
  -10.1400003       1.47760223E-30
  -10.1300001       1.54410154E-30
  -10.1199999       1.61308143E-30
  -10.1099997       1.68459889E-30
  -10.1000004       1.75871954E-30
  -10.0900002       1.83550358E-30
  -10.0799999       1.91501158E-30
  -10.0699997       1.99730201E-30
  -10.0600004       2.08243225E-30
  -10.0500002       2.17045891E-30
  -10.0400000       2.26143954E-30
  -10.0299997       2.35542756E-30
  -10.0200005       2.45248107E-30
  -10.0100002       2.55264391E-30
  -10.0000000       2.65596272E-30
  -9.98999977       2.76248319E-30
  -9.97999954       2.87224935E-30
  -9.97000027       2.98529655E-30
  -9.96000004       3.10165939E-30
  -9.94999981       3.22136422E-30
  -9.93999958       3.34444355E-30
  -9.93000031       3.47091546E-30
  -9.92000008       3.60080476E-30
  -9.90999985       3.73410545E-30
  -9.89999962       3.87083444E-30
  -9.89000034       4.01097819E-30
  -9.88000011       4.15453859E-30
  -9.86999989       4.30149306E-30
  -9.85999966       4.45181377E-30
  -9.85000038       4.60546988E-30
  -9.84000015       4.76241850E-30
  -9.82999992       4.92261111E-30
  -9.81999969       5.08597398E-30
  -9.81000042       5.25244580E-30
  -9.80000019       5.42191936E-30
  -9.78999996       5.59432093E-30
  -9.77999973       5.76951924E-30
  -9.77000046       5.94739693E-30
  -9.76000023       6.12781481E-30
  -9.75000000       6.31062393E-30
  -9.73999977       6.49563057E-30
  -9.72999954       6.68266319E-30
  -9.72000027       6.87149987E-30
  -9.71000004       7.06191566E-30
  -9.69999981       7.25367133E-30
  -9.68999958       7.44649829E-30
  -9.68000031       7.64010917E-30
  -9.67000008       7.83418197E-30
  -9.65999985       8.02839771E-30
  -9.64999962       8.22238701E-30
  -9.64000034       8.41575112E-30
  -9.63000011       8.60810187E-30
  -9.61999989       8.79897658E-30
  -9.60999966       8.98792084E-30
  -9.60000038       9.17440577E-30
  -9.59000015       9.35791981E-30
  -9.57999992       9.53789646E-30
  -9.56999969       9.71372484E-30
  -9.56000042       9.88477375E-30
  -9.55000019       1.00503691E-29
  -9.53999996       1.02098120E-29
  -9.52999973       1.03623382E-29
  -9.52000046       1.05071395E-29
  -9.51000023       1.06433885E-29
  -9.50000000       1.07702261E-29
  -9.48999977       1.08867042E-29
  -9.47999954       1.09918856E-29
  -9.47000027       1.10847289E-29
  -9.46000004       1.11641810E-29
  -9.44999981       1.12291127E-29
  -9.43999958       1.12783676E-29
  -9.43000031       1.13107323E-29
  -9.42000008       1.13249127E-29
  -9.40999985       1.13195803E-29
  -9.39999962       1.12933538E-29
  -9.39000034       1.12447564E-29
  -9.38000011       1.11722873E-29
  -9.36999989       1.10743861E-29
  -9.35999966       1.09494045E-29
  -9.35000038       1.07956521E-29
  -9.34000015       1.06113654E-29
  -9.32999992       1.03947066E-29
  -9.31999969       1.01437654E-29
  -9.31000042       9.85657919E-30
  -9.30000019       9.53109251E-30
  -9.28999996       9.16522300E-30
  -9.27999973       8.75675508E-30
  -9.27000046       8.30343480E-30
  -9.26000023       7.80292849E-30
  -9.25000000       7.25281820E-30
  -9.23999977       6.65063332E-30
  -9.22999954       5.99380394E-30
  -9.22000027       5.27968529E-30
  -9.21000004       4.50555850E-30
  -9.19999981       3.66862496E-30
  -9.18999958       2.76600930E-30
  -9.18000031       1.79475813E-30
  -9.17000008       7.51834714E-31
  -9.15999985      -3.65873251E-31
  -9.14999962      -1.56155557E-30
  -9.14000034      -2.83848332E-30
  -9.13000011      -4.20001536E-30
  -9.11999989      -5.64956051E-30
  -9.10999966      -7.19061668E-30
  -9.10000038      -8.82677617E-30
  -9.09000015      -1.05616922E-29
  -9.07999992      -1.23990542E-29
  -9.06999969      -1.43426997E-29
  -9.06000042      -1.63964437E-29
  -9.05000019      -1.85642389E-29
  -9.03999996      -2.08500800E-29
  -9.02999973      -2.32580371E-29
  -9.02000046      -2.57921772E-29
  -9.01000023      -2.84567163E-29
  -9.00000000      -3.12558689E-29
  -8.98999977      -3.41939082E-29
  -8.97999954      -3.72751072E-29
  -8.97000027      -4.05038144E-29
  -8.96000004      -4.38844805E-29
  -8.94999981      -4.74214448E-29
  -8.93999958      -5.11192122E-29
  -8.93000031      -5.49822726E-29
  -8.92000008      -5.90150014E-29
  -8.90999985      -6.32219365E-29
  -8.89999962      -6.76076100E-29
  -8.89000034      -7.21765298E-29
  -8.88000011      -7.69331013E-29
  -8.86999989      -8.18816278E-29
  -8.85999966      -8.70266293E-29
  -8.85000038      -9.23725594E-29
  -8.84000015      -9.79236372E-29
  -8.82999992      -1.03684280E-28
  -8.81999969      -1.09658346E-28
  -8.81000042      -1.15850332E-28
  -8.80000019      -1.22263931E-28
  -8.78999996      -1.28903262E-28
  -8.77999973      -1.35772103E-28
  -8.77000046      -1.42873933E-28
  -8.76000023      -1.50212376E-28
  -8.75000000      -1.57790682E-28
  -8.73999977      -1.65612088E-28
  -8.72999954      -1.73679556E-28
  -8.72000027      -1.81996022E-28
  -8.71000004      -1.90563883E-28
  -8.69999981      -1.99385533E-28
  -8.68999958      -2.08462922E-28
  -8.68000031      -2.17798290E-28
  -8.67000008      -2.27392671E-28
  -8.65999985      -2.37247076E-28
  -8.64999962      -2.47362903E-28
  -8.64000034      -2.57740247E-28
  -8.63000011      -2.68379373E-28
  -8.61999989      -2.79280449E-28
  -8.60999966      -2.90441575E-28
  -8.60000038      -3.01862772E-28
  -8.59000015      -3.13541275E-28
  -8.57999992      -3.25475685E-28
  -8.56999969      -3.37663234E-28
  -8.56000042      -3.50100842E-28
  -8.55000019      -3.62784438E-28
  -8.53999996      -3.75709619E-28
  -8.52999973      -3.88871617E-28
  -8.52000046      -4.02264341E-28
  -8.51000023      -4.15881412E-28
  -8.50000000      -4.29715993E-28
  -8.48999977      -4.43760933E-28
  -8.47999954      -4.58006026E-28
  -8.47000027      -4.72442989E-28
  -8.46000004      -4.87061183E-28
  -8.44999981      -5.01849869E-28
  -8.43999958      -5.16796241E-28
  -8.43000031      -5.31887588E-28
  -8.42000008      -5.47110282E-28
  -8.40999985      -5.62448340E-28
  -8.39999962      -5.77885824E-28
  -8.39000034      -5.93405449E-28
  -8.38000011      -6.08989015E-28
  -8.36999989      -6.24617455E-28
  -8.35999966      -6.40269680E-28
  -8.35000038      -6.55923928E-28
  -8.34000015      -6.71557231E-28
  -8.32999992      -6.87144504E-28
  -8.31999969      -7.02659892E-28
  -8.31000042      -7.18075998E-28
  -8.30000019      -7.33363404E-28
  -8.28999996      -7.48493558E-28
  -8.27999973      -7.63433671E-28
  -8.27000046      -7.78152013E-28
  -8.26000023      -7.92610643E-28
  -8.25000000      -8.06775569E-28
  -8.23999977      -8.20609090E-28
  -8.22999954      -8.34070281E-28
  -8.22000027      -8.47117975E-28
  -8.21000004      -8.59707201E-28
  -8.19999981      -8.71795782E-28
  -8.18999958      -8.83335858E-28
  -8.18000031      -8.94276873E-28
  -8.17000008      -9.04570487E-28
  -8.15999985      -9.14163448E-28
  -8.14999962      -9.23000770E-28
  -8.14000034      -9.31026024E-28
  -8.13000011      -9.38179987E-28
  -8.11999989      -9.44404111E-28
  -8.10999966      -9.49633493E-28
  -8.10000038      -9.53804479E-28
  -8.09000015      -9.56851300E-28
  -8.07999992      -9.58702408E-28
  -8.06999969      -9.59288661E-28
  -8.06000042      -9.58536007E-28
  -8.05000019      -9.56369529E-28
  -8.03999996      -9.52711899E-28
  -8.02999973      -9.47482807E-28
  -8.02000046      -9.40598955E-28
  -8.01000023      -9.31977626E-28
  -8.00000000      -9.21531382E-28
  -7.98999977      -9.09171534E-28
  -7.98000002      -8.94807371E-28
  -7.96999979      -8.78346736E-28
  -7.96000004      -8.59693527E-28
  -7.94999981      -8.38751928E-28
  -7.94000006      -8.15420442E-28
  -7.92999983      -7.89598103E-28
  -7.92000008      -7.61180814E-28
  -7.90999985      -7.30063034E-28
  -7.90000010      -6.96137249E-28
  -7.88999987      -6.59292909E-28
  -7.88000011      -6.19419755E-28
  -7.86999989      -5.76403821E-28
  -7.86000013      -5.30129599E-28
  -7.84999990      -4.80480425E-28
  -7.84000015      -4.27337036E-28
  -7.82999992      -3.70578725E-28
  -7.82000017      -3.10084278E-28
  -7.80999994      -2.45730437E-28
  -7.80000019      -1.77391726E-28
  -7.78999996      -1.04943212E-28
  -7.78000021      -2.82576113E-29
  -7.76999998       5.27930680E-29
  -7.76000023       1.38337959E-28
  -7.75000000       2.28506918E-28
  -7.73999977       3.23430347E-28
  -7.73000002       4.23238657E-28
  -7.71999979       5.28062739E-28
  -7.71000004       6.38034061E-28
  -7.69999981       7.53284212E-28
  -7.69000006       8.73945312E-28
  -7.67999983       1.00014726E-27
  -7.67000008       1.13202060E-27
  -7.65999985       1.26969358E-27
  -7.65000010       1.41329660E-27
  -7.63999987       1.56295426E-27
  -7.63000011       1.71879522E-27
  -7.61999989       1.88094465E-27
  -7.61000013       2.04952284E-27
  -7.59999990       2.22464919E-27
  -7.59000015       2.40644292E-27
  -7.57999992       2.59501919E-27
  -7.57000017       2.79049049E-27
  -7.55999994       2.99296678E-27
  -7.55000019       3.20255322E-27
  -7.53999996       3.41934725E-27
  -7.53000021       3.64344731E-27
  -7.51999998       3.87494486E-27
  -7.51000023       4.11392772E-27
  -7.50000000       4.36048335E-27
  -7.48999977       4.61468415E-27
  -7.48000002       4.87659483E-27
  -7.46999979       5.14628588E-27
  -7.46000004       5.42381624E-27
  -7.44999981       5.70922480E-27
  -7.44000006       6.00256897E-27