  -16.0000000       0.00000000    
  -15.9899998       0.00000000    
  -15.9799995       0.00000000    
  -15.9700003       0.00000000    
  -15.9600000       0.00000000    
  -15.9499998       0.00000000    
  -15.9399996       0.00000000    
  -15.9300003       0.00000000    
  -15.9200001       0.00000000    
  -15.9099998       0.00000000    
  -15.8999996       0.00000000    
  -15.8900003       0.00000000    
  -15.8800001       0.00000000    
  -15.8699999       0.00000000    
  -15.8599997       0.00000000    
  -15.8500004       0.00000000    
  -15.8400002       0.00000000    
  -15.8299999       0.00000000    
  -15.8199997       0.00000000    
  -15.8100004       0.00000000    
  -15.8000002       0.00000000    
  -15.7900000       0.00000000    
  -15.7799997       0.00000000    
  -15.7700005       0.00000000    
  -15.7600002       0.00000000    
  -15.7500000       0.00000000    
  -15.7399998       0.00000000    
  -15.7299995       0.00000000    
  -15.7200003       0.00000000    
  -15.7100000       0.00000000    
  -15.6999998       0.00000000    
  -15.6899996       0.00000000    
  -15.6800003       0.00000000    
  -15.6700001       0.00000000    
  -15.6599998       0.00000000    
  -15.6499996       0.00000000    
  -15.6400003       0.00000000    
  -15.6300001       0.00000000    
  -15.6199999       0.00000000    
  -15.6099997       0.00000000    
  -15.6000004       0.00000000    
  -15.5900002       0.00000000    
  -15.5799999       0.00000000    
  -15.5699997       0.00000000    
  -15.5600004       0.00000000    
  -15.5500002       0.00000000    
  -15.5400000       0.00000000    
  -15.5299997       0.00000000    
  -15.5200005       0.00000000    
  -15.5100002       0.00000000    
  -15.5000000       0.00000000    
  -15.4899998       0.00000000    
  -15.4799995       0.00000000    
  -15.4700003       0.00000000    
  -15.4600000       0.00000000    
  -15.4499998       0.00000000    
  -15.4399996       0.00000000    
  -15.4300003       0.00000000    
  -15.4200001       0.00000000    
  -15.4099998       0.00000000    
  -15.3999996       0.00000000    
  -15.3900003       0.00000000    
  -15.3800001       0.00000000    
  -15.3699999       0.00000000    
  -15.3599997       0.00000000    
  -15.3500004       0.00000000    
  -15.3400002       0.00000000    
  -15.3299999       0.00000000    
  -15.3199997       0.00000000    
  -15.3100004       0.00000000    
  -15.3000002       0.00000000    
  -15.2900000       0.00000000    
  -15.2799997       0.00000000    
  -15.2700005       0.00000000    
  -15.2600002       0.00000000    
  -15.2500000       0.00000000    
  -15.2399998       0.00000000    
  -15.2299995       0.00000000    
  -15.2200003       0.00000000    
  -15.2100000       0.00000000    
  -15.1999998       0.00000000    
  -15.1899996       0.00000000    
  -15.1800003       0.00000000    
  -15.1700001       0.00000000    
  -15.1599998       0.00000000    
  -15.1499996       0.00000000    
  -15.1400003       0.00000000    
  -15.1300001       0.00000000    
  -15.1199999       0.00000000    
  -15.1099997       0.00000000    
  -15.1000004       0.00000000    
  -15.0900002       0.00000000    
  -15.0799999       0.00000000    
  -15.0699997       0.00000000    
  -15.0600004       0.00000000    
  -15.0500002       0.00000000    
  -15.0400000       0.00000000    
  -15.0299997       0.00000000    
  -15.0200005       0.00000000    
  -15.0100002       0.00000000    
  -15.0000000       0.00000000    
  -14.9899998       0.00000000    
  -14.9799995       0.00000000    
  -14.9700003       0.00000000    
  -14.9600000       0.00000000    
  -14.9499998       0.00000000    
  -14.9399996       0.00000000    
  -14.9300003       0.00000000    
  -14.9200001       0.00000000    
  -14.9099998       0.00000000    
  -14.8999996       0.00000000    
  -14.8900003       0.00000000    
  -14.8800001       0.00000000    
  -14.8699999       0.00000000    
  -14.8599997       0.00000000    
  -14.8500004       0.00000000    
  -14.8400002       0.00000000    
  -14.8299999       0.00000000    
  -14.8199997       0.00000000    
  -14.8100004       0.00000000    
  -14.8000002       0.00000000    
  -14.7900000       0.00000000    
  -14.7799997       0.00000000    
  -14.7700005       0.00000000    
  -14.7600002       0.00000000    
  -14.7500000       0.00000000    
  -14.7399998       0.00000000    
  -14.7299995       0.00000000    
  -14.7200003       0.00000000    
  -14.7100000       0.00000000    
  -14.6999998       0.00000000    
  -14.6899996       0.00000000    
  -14.6800003       0.00000000    
  -14.6700001       0.00000000    
  -14.6599998       0.00000000    
  -14.6499996       0.00000000    
  -14.6400003       0.00000000    
  -14.6300001       0.00000000    
  -14.6199999       0.00000000    
  -14.6099997       0.00000000    
  -14.6000004       0.00000000    
  -14.5900002       0.00000000    
  -14.5799999       0.00000000    
  -14.5699997       0.00000000    
  -14.5600004       0.00000000    
  -14.5500002       0.00000000    
  -14.5400000       0.00000000    
  -14.5299997       0.00000000    
  -14.5200005       0.00000000    
  -14.5100002       0.00000000    
  -14.5000000       0.00000000    
  -14.4899998       0.00000000    
  -14.4799995       0.00000000    
  -14.4700003       0.00000000    
  -14.4600000       0.00000000    
  -14.4499998       0.00000000    
  -14.4399996       0.00000000    
  -14.4300003       0.00000000    
  -14.4200001       0.00000000    
  -14.4099998       0.00000000    
  -14.3999996       0.00000000    
  -14.3900003       0.00000000    
  -14.3800001       0.00000000    
  -14.3699999       0.00000000    
  -14.3599997       0.00000000    
  -14.3500004       0.00000000    
  -14.3400002       0.00000000    
  -14.3299999       0.00000000    
  -14.3199997       0.00000000    
  -14.3100004       0.00000000    
  -14.3000002       0.00000000    
  -14.2900000       0.00000000    
  -14.2799997       0.00000000    
  -14.2700005       0.00000000    
  -14.2600002       0.00000000    
  -14.2500000       0.00000000    
  -14.2399998       0.00000000    
  -14.2299995       0.00000000    
  -14.2200003       0.00000000    
  -14.2100000       0.00000000    
  -14.1999998       0.00000000    
  -14.1899996       0.00000000    
  -14.1800003       0.00000000    
  -14.1700001       0.00000000    
  -14.1599998       0.00000000    
  -14.1499996       0.00000000    
  -14.1400003       0.00000000    
  -14.1300001      -0.00000000    
  -14.1199999       0.00000000    
  -14.1099997       0.00000000    
  -14.1000004      -0.00000000    
  -14.0900002      -0.00000000    
  -14.0799999      -0.00000000    
  -14.0699997      -0.00000000    
  -14.0600004      -0.00000000    
  -14.0500002      -1.40129846E-45
  -14.0400000      -1.40129846E-45
  -14.0299997      -1.40129846E-45
  -14.0200005      -2.80259693E-45
  -14.0100002      -4.20389539E-45
  -14.0000000      -4.20389539E-45
  -13.9899998      -4.20389539E-45
  -13.9799995      -4.20389539E-45
  -13.9700003      -5.60519386E-45
  -13.9600000      -7.00649232E-45
  -13.9499998      -7.00649232E-45
  -13.9399996      -5.60519386E-45
  -13.9300003      -8.40779079E-45
  -13.9200001      -5.60519386E-45
  -13.9099998      -2.80259693E-45
  -13.8999996      -5.60519386E-45
  -13.8900003      -9.80908925E-45
  -13.8800001      -1.12103877E-44
  -13.8699999      -1.26116862E-44
  -13.8599997      -1.82168800E-44
  -13.8500004      -2.10194770E-44
  -13.8400002      -2.80259693E-44
  -13.8299999      -3.78350585E-44
  -13.8199997      -4.90454463E-44
  -13.8100004      -6.16571324E-44
  -13.8000002      -7.70714155E-44
  -13.7900000      -9.94921910E-44
  -13.7799997      -1.26116862E-43
  -13.7700005      -1.54142831E-43
  -13.7600002      -1.90576591E-43
  -13.7500000      -2.36819440E-43
  -13.7399998      -2.97075274E-43
  -13.7299995      -3.68541496E-43
  -13.7200003      -4.54020702E-43
  -13.7100000      -5.61920684E-43
  -13.6999998      -6.99247934E-43
  -13.6899996      -8.67403749E-43
  -13.6800003      -1.07339462E-42
  -13.6700001      -1.32562835E-42
  -13.6599998      -1.63111141E-42
  -13.6499996      -2.00385680E-42
  -13.6400003      -2.45507491E-42
  -13.6300001      -3.00438391E-42
  -13.6199999      -3.67280327E-42
  -13.6099997      -4.48275379E-42
  -13.6000004      -5.46366271E-42
  -13.5900002      -6.63935212E-42
  -13.5799999      -8.05466357E-42
  -13.5699997      -9.75443861E-42
  -13.5600004      -1.17961305E-41
  -13.5500002      -1.42287846E-41
  -13.5400000      -1.71336763E-41
  -13.5299997      -2.05962848E-41
  -13.5200005      -2.47118984E-41
  -13.5100002      -2.95940223E-41
  -13.5000000      -3.53757797E-41
  -13.4899998      -4.22141162E-41
  -13.4799995      -5.02926019E-41
  -13.4700003      -5.98172275E-41
  -13.4600000      -7.10220101E-41
  -13.4499998      -8.41802026E-41
  -13.4399996      -9.96084987E-41
  -13.4300003      -1.17679644E-40
  -13.4200001      -1.38814027E-40
  -13.4099998      -1.63489492E-40
  -13.3999996      -1.92252544E-40
  -13.3900003      -2.25728163E-40
  -13.3800001      -2.64632412E-40
  -13.3699999      -3.09782249E-40
  -13.3599997      -3.62103931E-40
  -13.3500004      -4.22656840E-40
  -13.3400002      -4.92639087E-40
  -13.3299999      -5.73405726E-40
  -13.3199997      -6.66493983E-40
  -13.3100004      -7.73645672E-40
  -13.3000002      -8.96824011E-40
  -13.2900000      -1.03824025E-39
  -13.2799997      -1.20039150E-39
  -13.2700005      -1.38608457E-39
  -13.2600002      -1.59847237E-39
  -13.2500000      -1.84109599E-39
  -13.2399998      -2.11793511E-39
  -13.2299995      -2.43342485E-39
  -13.2200003      -2.79254822E-39
  -13.2100000      -3.20086837E-39
  -13.1999998      -3.66457485E-39
  -13.1899996      -4.19059427E-39
  -13.1800003      -4.78663937E-39
  -13.1700001      -5.46127070E-39
  -13.1599998      -6.22401286E-39
  -13.1499996      -7.08544008E-39
  -13.1400003      -8.05728540E-39
  -13.1300001      -9.15254168E-39
  -13.1199999      -1.03855890E-38
  -13.1099997      -1.17723182E-38
  -13.1000004      -1.33302832E-38
  -13.0900002      -1.50788543E-38
  -13.0799999      -1.70393872E-38
  -13.0699997      -1.92353998E-38
  -13.0600004      -2.16927504E-38
  -13.0500002      -2.44398587E-38
  -13.0400000      -2.75079401E-38
  -13.0299997      -3.09312366E-38
  -13.0200005      -3.47472609E-38
  -13.0100002      -3.89970909E-38
  -13.0000000      -4.37256408E-38
  -12.9899998      -4.89820235E-38
  -12.9799995      -5.48198497E-38
  -12.9700003      -6.12975873E-38
  -12.9600000      -6.84789897E-38
  -12.9499998      -7.64334100E-38
  -12.9399996      -8.52363277E-38
  -12.9300003      -9.49698421E-38
  -12.9200001      -1.05723014E-37
  -12.9099998      -1.17592483E-37
  -12.8999996      -1.30683077E-37
  -12.8900003      -1.45108200E-37
  -12.8800001      -1.60990696E-37
  -12.8699999      -1.78463397E-37
  -12.8599997      -1.97669583E-37
  -12.8500004      -2.18764214E-37
  -12.8400002      -2.41914113E-37
  -12.8299999      -2.67299117E-37
  -12.8199997      -2.95112918E-37
  -12.8100004      -3.25563470E-37
  -12.8000002      -3.58875048E-37
  -12.7900000      -3.95287553E-37
  -12.7799997      -4.35059184E-37
  -12.7700005      -4.78466208E-37
  -12.7600002      -5.25804896E-37
  -12.7500000      -5.77391647E-37
  -12.7399998      -6.33564972E-37
  -12.7299995      -6.94687503E-37
  -12.7200003      -7.61145148E-37
  -12.7100000      -8.33350269E-37
  -12.6999998      -9.11741461E-37
  -12.6899996      -9.96786780E-37
  -12.6800003      -1.08898325E-36
  -12.6700001      -1.18885973E-36
  -12.6599998      -1.29697774E-36
  -12.6499996      -1.41393302E-36
  -12.6400003      -1.54035660E-36
  -12.6300001      -1.67691813E-36
  -12.6199999      -1.82432522E-36
  -12.6099997      -1.98332870E-36
  -12.6000004      -2.15471795E-36
  -12.5900002      -2.33932900E-36
  -12.5799999      -2.53804021E-36
  -12.5699997      -2.75178338E-36
  -12.5600004      -2.98153463E-36
  -12.5500002      -3.22832010E-36
  -12.5400000      -3.49322102E-36
  -12.5299997      -3.77737117E-36
  -12.5200005      -4.08195902E-36
  -12.5100002      -4.40823081E-36
  -12.5000000      -4.75749196E-36
  -12.4899998      -5.13110387E-36
  -12.4799995      -5.53049357E-36
  -12.4700003      -5.95714479E-36
  -12.4600000      -6.41261584E-36
  -12.4499998      -6.89851387E-36
  -12.4399996      -7.41652275E-36
  -12.4300003      -7.96838664E-36
  -12.4200001      -8.55591427E-36
  -12.4099998      -9.18099544E-36
  -12.3999996      -9.84556444E-36
  -12.3900003      -1.05516374E-35
  -12.3800001      -1.13012962E-35
  -12.3699999      -1.20966820E-35
  -12.3599997      -1.29400074E-35
  -12.3500004      -1.38335410E-35
  -12.3400002      -1.47796188E-35
  -12.3299999      -1.57806414E-35
  -12.3199997      -1.68390656E-35
  -12.3100004      -1.79573795E-35
  -12.3000002      -1.91381501E-35
  -12.2900000      -2.03839976E-35
  -12.2799997      -2.16975551E-35
  -12.2700005      -2.30815203E-35
  -12.2600002      -2.45386254E-35
  -12.2500000      -2.60716095E-35
  -12.2399998      -2.76832478E-35
  -12.2299995      -2.93763156E-35
  -12.2200003      -3.11536165E-35
  -12.2100000      -3.30179144E-35
  -12.1999998      -3.49719872E-35
  -12.1899996      -3.70185900E-35
  -12.1800003      -3.91604090E-35
  -12.1700001      -4.14001161E-35
  -12.1599998      -4.37402940E-35
  -12.1499996      -4.61834511E-35
  -12.1400003      -4.87320296E-35
  -12.1300001      -5.13882910E-35
  -12.1199999      -5.41544393E-35
  -12.1099997      -5.70324489E-35
  -12.1000004      -6.00242370E-35
  -12.0900002      -6.31313992E-35
  -12.0799999      -6.63553761E-35
  -12.0699997      -6.96973387E-35
  -12.0600004      -7.31581938E-35
  -12.0500002      -7.67385442E-35
  -12.0400000      -8.04385791E-35
  -12.0299997      -8.42582469E-35
  -12.0200005      -8.81969853E-35
  -12.0100002      -9.22537724E-35
  -12.0000000      -9.64272021E-35
  -11.9899998      -1.00715162E-34
  -11.9799995      -1.05115138E-34
  -11.9700003      -1.09623837E-34
  -11.9600000      -1.14237388E-34
  -11.9499998      -1.18951143E-34
  -11.9399996      -1.23759673E-34
  -11.9300003      -1.28656663E-34
  -11.9200001      -1.33634835E-34
  -11.9099998      -1.38685960E-34
  -11.8999996      -1.43800761E-34
  -11.8900003      -1.48968735E-34
  -11.8800001      -1.54178229E-34
  -11.8699999      -1.59416342E-34
  -11.8599997      -1.64668564E-34
  -11.8500004      -1.69919017E-34
  -11.8400002      -1.75150162E-34
  -11.8299999      -1.80342748E-34
  -11.8199997      -1.85475766E-34
  -11.8100004      -1.90526099E-34
  -11.8000002      -1.95468731E-34
  -11.7900000      -2.00276159E-34
  -11.7799997      -2.04918879E-34
  -11.7700005      -2.09364406E-34
  -11.7600002      -2.13578025E-34
  -11.7500000      -2.17521855E-34
  -11.7399998      -2.21155165E-34
  -11.7299995      -2.24433853E-34
  -11.7200003      -2.27310531E-34
  -11.7100000      -2.29734139E-34
  -11.6999998      -2.31649460E-34
  -11.6899996      -2.32997536E-34
  -11.6800003      -2.33714749E-34
  -11.6700001      -2.33733162E-34
  -11.6599998      -2.32979514E-34
  -11.6499996      -2.31375492E-34
  -11.6400003      -2.28837182E-34
  -11.6300001      -2.25274814E-34
  -11.6199999      -2.20592168E-34
  -11.6099997      -2.14686503E-34
  -11.6000004      -2.07447845E-34
  -11.5900002      -1.98758899E-34
  -11.5799999      -1.88494078E-34
  -11.5699997      -1.76519544E-34
  -11.5600004      -1.62692275E-34
  -11.5500002      -1.46859755E-34
  -11.5400000      -1.28859195E-34
  -11.5299997      -1.08517058E-34
  -11.5200005      -8.56483322E-35
  -11.5100002      -6.00558055E-35
  -11.5000000      -3.15291979E-35
  -11.4899998       1.55491172E-37
  -11.4799995       3.52368293E-35
  -11.4700003       7.39689291E-35
  -11.4600000       1.16622436E-34
  -11.4499998       1.63485585E-34
  -11.4399996       2.14865214E-34
  -11.4300003       2.71087778E-34
  -11.4200001       3.32500929E-34
  -11.4099998       3.99474490E-34
  -11.3999996       4.72402022E-34
  -11.3900003       5.51702156E-34
  -11.3800001       6.37820663E-34
  -11.3699999       7.31231001E-34
  -11.3599997       8.32437345E-34
  -11.3500004       9.41975419E-34
  -11.3400002       1.06041465E-33
  -11.3299999       1.18836170E-33
  -11.3199997       1.32645960E-33
  -11.3100004       1.47539327E-33
  -11.3000002       1.63589030E-33
  -11.2900000       1.80872324E-33
  -11.2799997       1.99471473E-33
  -11.2700005       2.19473612E-33
  -11.2600002       2.40971511E-33
  -11.2500000       2.64063675E-33
  -11.2399998       2.88854557E-33
  -11.2299995       3.15455150E-33
  -11.2200003       3.43983479E-33
  -11.2100000       3.74564479E-33
  -11.1999998       4.07330943E-33
  -11.1899996       4.42423931E-33
  -11.1800003       4.79992841E-33
  -11.1700001       5.20195923E-33
  -11.1599998       5.63201678E-33
  -11.1499996       6.09188450E-33
  -11.1400003       6.58345236E-33
  -11.1300001       7.10872201E-33
  -11.1199999       7.66981338E-33
  -11.1099997       8.26897901E-33
  -11.1000004       8.90860443E-33
  -11.0900002       9.59121032E-33
  -11.0799999       1.03194629E-32
  -11.0699997       1.10961913E-32
  -11.0600004       1.19243873E-32
  -11.0500002       1.28072123E-32
  -11.0400000       1.37480177E-32
  -11.0299997       1.47503441E-32
  -11.0200005       1.58179295E-32
  -11.0100002       1.69547251E-32
  -11.0000000       1.81649113E-32
  -10.9899998       1.94528960E-32
  -10.9799995       2.08233358E-32
  -10.9700003       2.22811472E-32
  -10.9600000       2.38315170E-32
  -10.9499998       2.54799186E-32
  -10.9399996       2.72321251E-32
  -10.9300003       2.90942111E-32
  -10.9200001       3.10726004E-32
  -10.9099998       3.31740493E-32
  -10.8999996       3.54056665E-32
  -10.8900003       3.77749459E-32
  -10.8800001       4.02897603E-32
  -10.8699999       4.29583999E-32
  -10.8599997       4.57896016E-32
  -10.8500004       4.87925194E-32
  -10.8400002       5.19768337E-32
  -10.8299999       5.53526419E-32
  -10.8199997       5.89305528E-32
  -10.8100004       6.27217455E-32
  -10.8000002       6.67379453E-32
  -10.7900000       7.09914187E-32
  -10.7799997       7.54951138E-32
  -10.7700005       8.02624486E-32
  -10.7600002       8.53075881E-32
  -10.7500000       9.06454080E-32
  -10.7399998       9.62914367E-32
  -10.7299995       1.02261837E-31
  -10.7200003       1.08573642E-31
  -10.7100000       1.15244632E-31
  -10.6999998       1.22293319E-31
  -10.6899996       1.29739112E-31
  -10.6800003       1.37602334E-31
  -10.6700001       1.45904063E-31
  -10.6599998       1.54666292E-31
  -10.6499996       1.63912190E-31
  -10.6400003       1.73665596E-31
  -10.6300001       1.83951606E-31
  -10.6199999       1.94796094E-31
  -10.6099997       2.06226260E-31
  -10.6000004       2.18270328E-31
  -10.5900002       2.30957510E-31
  -10.5799999       2.44318343E-31
  -10.5699997       2.58384449E-31
  -10.5600004       2.73188766E-31
  -10.5500002       2.88765218E-31
  -10.5400000       3.05149376E-31
  -10.5299997       3.22377892E-31
  -10.5200005       3.40488851E-31
  -10.5100002       3.59521656E-31
  -10.5000000       3.79516932E-31
  -10.4899998       4.00516880E-31
  -10.4799995       4.22565111E-31
  -10.4700003       4.45706833E-31
  -10.4600000       4.69988596E-31
  -10.4499998       4.95458362E-31
  -10.4399996       5.22165828E-31
  -10.4300003       5.50161825E-31
  -10.4200001       5.79498826E-31
  -10.4099998       6.10231185E-31
  -10.3999996       6.42414904E-31
  -10.3900003       6.76107111E-31
  -10.3800001       7.11366346E-31
  -10.3699999       7.48253641E-31
  -10.3599997       7.86830356E-31
  -10.3500004       8.27160768E-31
  -10.3400002       8.69309670E-31
  -10.3299999       9.13343406E-31
  -10.3199997       9.59330250E-31
  -10.3100004       1.00734026E-30
  -10.3000002       1.05744387E-30
  -10.2900000       1.10971406E-30
  -10.2799997       1.16422409E-30
  -10.2700005       1.22105021E-30
  -10.2600002       1.28026795E-30
  -10.2500000       1.34195441E-30
  -10.2399998       1.40618888E-30
  -10.2299995       1.47305081E-30
  -10.2200003       1.54262164E-30
  -10.2100000       1.61498310E-30
  -10.1999998       1.69021624E-30
  -10.1899996       1.76840449E-30
  -10.1800003       1.84963096E-30
  -10.1700001       1.93398067E-30
  -10.1599998       2.02153600E-30
  -10.1499996       2.11238328E-30
  -10.1400003       2.20660452E-30
  -10.1300001       2.30428377E-30
  -10.1199999       2.40550474E-30
  -10.1099997       2.51034981E-30
  -10.1000004       2.61890117E-30
  -10.0900002       2.73123761E-30
  -10.0799999       2.84743909E-30
  -10.0699997       2.96758213E-30
  -10.0600004       3.09174292E-30
  -10.0500002       3.21999312E-30
  -10.0400000       3.35240381E-30
  -10.0299997       3.48904252E-30
  -10.0200005       3.62997358E-30
  -10.0100002       3.77525640E-30
  -10.0000000       3.92494592E-30
  -9.98999977       4.07909442E-30
  -9.97999954       4.23774816E-30
  -9.97000027       4.40094816E-30
  -9.96000004       4.56873126E-30
  -9.94999981       4.74112268E-30
  -9.93999958       4.91814310E-30
  -9.93000031       5.09980833E-30
  -9.92000008       5.28612625E-30
  -9.90999985       5.47708785E-30
  -9.89999962       5.67268710E-30
  -9.89000034       5.87289278E-30
  -9.88000011       6.07767744E-30
  -9.86999989       6.28699142E-30
  -9.85999966       6.50077415E-30
  -9.85000038       6.71895794E-30
  -9.84000015       6.94145852E-30
  -9.82999992       7.16816982E-30
  -9.81999969       7.39898124E-30
  -9.81000042       7.63376037E-30
  -9.80000019       7.87234924E-30
  -9.78999996       8.11458910E-30
  -9.77999973       8.36028208E-30
  -9.77000046       8.60921756E-30
  -9.76000023       8.86116756E-30
  -9.75000000       9.11587932E-30
  -9.73999977       9.37306996E-30
  -9.72999954       9.63243480E-30
  -9.72000027       9.89364130E-30
  -9.71000004       1.01563336E-29
  -9.69999981       1.04201274E-29
  -9.68999958       1.06845967E-29
  -9.68000031       1.09492894E-29
  -9.67000008       1.12137203E-29
  -9.65999985       1.14773749E-29
  -9.64999962       1.17397008E-29
  -9.64000034       1.20000948E-29
  -9.63000011       1.22579355E-29
  -9.61999989       1.25125396E-29
  -9.60999966       1.27631934E-29
  -9.60000038       1.30091392E-29
  -9.59000015       1.32495645E-29
  -9.57999992       1.34836266E-29
  -9.56999969       1.37104079E-29
  -9.56000042       1.39289648E-29
  -9.55000019       1.41382833E-29
  -9.53999996       1.43373101E-29
  -9.52999973       1.45249123E-29
  -9.52000046       1.46999236E-29
  -9.51000023       1.48611029E-29
  -9.50000000       1.50071501E-29
  -9.48999977       1.51366989E-29
  -9.47999954       1.52483261E-29
  -9.47000027       1.53405315E-29
  -9.46000004       1.54117428E-29
  -9.44999981       1.54603304E-29
  -9.43999958       1.54845685E-29
  -9.43000031       1.54826862E-29
  -9.42000008       1.54528042E-29
  -9.40999985       1.53929891E-29
  -9.39999962       1.53012050E-29
  -9.39000034       1.51753394E-29
  -9.38000011       1.50132002E-29
  -9.36999989       1.48125123E-29
  -9.35999966       1.45708983E-29
  -9.35000038       1.42859013E-29
  -9.34000015       1.39549754E-29
  -9.32999992       1.35754694E-29
  -9.31999969       1.31446509E-29
  -9.31000042       1.26596807E-29
  -9.30000019       1.21176194E-29
  -9.28999996       1.15154346E-29
  -9.27999973       1.08499942E-29
  -9.27000046       1.01180535E-29
  -9.26000023       9.31628136E-30
  -9.25000000       8.44122832E-30
  -9.23999977       7.48935550E-30
  -9.22999954       6.45699837E-30
  -9.22000027       5.34040211E-30
  -9.21000004       4.13569870E-30
  -9.19999981       2.83892042E-30
  -9.18999958       1.44598284E-30
  -9.18000031      -4.72995593E-32
  -9.17000008      -1.64522020E-30
  -9.15999985      -3.35218037E-30
  -9.14999962      -5.17268484E-30
  -9.14000034      -7.11134435E-30
  -9.13000011      -9.17287556E-30
  -9.11999989      -1.13620922E-29
  -9.10999966      -1.36839113E-29
  -9.10000038      -1.61433494E-29
  -9.09000015      -1.87455185E-29
  -9.07999992      -2.14956396E-29
  -9.06999969      -2.43990091E-29
  -9.06000042      -2.74610105E-29
  -9.05000019      -3.06871358E-29
  -9.03999996      -3.40829204E-29
  -9.02999973      -3.76540128E-29
  -9.02000046      -4.14061366E-29
  -9.01000023      -4.53450546E-29
  -9.00000000      -4.94766076E-29
  -8.98999977      -5.38067150E-29
  -8.97999954      -5.83412930E-29
  -8.97000027      -6.30863872E-29
  -8.96000004      -6.80480040E-29
  -8.94999981      -7.32322222E-29
  -8.93999958      -7.86451507E-29
  -8.93000031      -8.42928500E-29
  -8.92000008      -9.01814771E-29
  -8.90999985      -9.63171769E-29
  -8.89999962      -1.02705992E-28
  -8.89000034      -1.09354013E-28
  -8.88000011      -1.16267283E-28
  -8.86999989      -1.23451748E-28
  -8.85999966      -1.30913451E-28
  -8.85000038      -1.38658157E-28
  -8.84000015      -1.46691644E-28
  -8.82999992      -1.55019618E-28
  -8.81999969      -1.63647676E-28
  -8.81000042      -1.72581150E-28
  -8.80000019      -1.81825409E-28
  -8.78999996      -1.91385497E-28
  -8.77999973      -2.01266324E-28
  -8.77000046      -2.11472669E-28
  -8.76000023      -2.22009095E-28
  -8.75000000      -2.32879790E-28
  -8.73999977      -2.44088678E-28
  -8.72999954      -2.55639611E-28
  -8.72000027      -2.67535960E-28
  -8.71000004      -2.79780710E-28
  -8.69999981      -2.92376749E-28
  -8.68999958      -3.05326244E-28
  -8.68000031      -3.18631267E-28
  -8.67000008      -3.32293188E-28
  -8.65999985      -3.46312971E-28
  -8.64999962      -3.60691314E-28
  -8.64000034      -3.75428313E-28
  -8.63000011      -3.90523102E-28
  -8.61999989      -4.05975006E-28
  -8.60999966      -4.21781836E-28
  -8.60000038      -4.37941543E-28
  -8.59000015      -4.54450952E-28
  -8.57999992      -4.71306161E-28
  -8.56999969      -4.88502597E-28
  -8.56000042      -5.06034963E-28
  -8.55000019      -5.23897386E-28
  -8.53999996      -5.42082450E-28
  -8.52999973      -5.60582547E-28
  -8.52000046      -5.79388435E-28
  -8.51000023      -5.98490386E-28
  -8.50000000      -6.17877182E-28
  -8.48999977      -6.37537075E-28
  -8.47999954      -6.57456775E-28
  -8.47000027      -6.77622418E-28
  -8.46000004      -6.98018064E-28
  -8.44999981      -7.18626959E-28
  -8.43999958      -7.39431239E-28
  -8.43000031      -7.60411405E-28
  -8.42000008      -7.81546849E-28
  -8.40999985      -8.02814942E-28
  -8.39999962      -8.24192186E-28
  -8.39000034      -8.45653209E-28
  -8.38000011      -8.67170661E-28
  -8.36999989      -8.88716232E-28
  -8.35999966      -9.10259781E-28
  -8.35000038      -9.31769529E-28
  -8.34000015      -9.53211389E-28
  -8.32999992      -9.74549441E-28
  -8.31999969      -9.95746418E-28
  -8.31000042      -1.01676313E-27
  -8.30000019      -1.03755739E-27
  -8.28999996      -1.05808550E-27
  -8.27999973      -1.07830179E-27
  -8.27000046      -1.09815832E-27
  -8.26000023      -1.11760607E-27
  -8.25000000      -1.13659093E-27
  -8.23999977      -1.15505982E-27
  -8.22999954      -1.17295508E-27
  -8.22000027      -1.19021642E-27
  -8.21000004      -1.20678221E-27
  -8.19999981      -1.22258851E-27
  -8.18999958      -1.23756763E-27
  -8.18000031      -1.25165080E-27
  -8.17000008      -1.26476513E-27
  -8.15999985      -1.27683589E-27
  -8.14999962      -1.28778481E-27
  -8.14000034      -1.29753194E-27
  -8.13000011      -1.30599380E-27
  -8.11999989      -1.31308478E-27
  -8.10999966      -1.31871505E-27
  -8.10000038      -1.32279272E-27
  -8.09000015      -1.32522392E-27
  -8.07999992      -1.32591071E-27
  -8.06999969      -1.32475091E-27
  -8.06000042      -1.32164265E-27
  -8.05000019      -1.31647789E-27
  -8.03999996      -1.30914722E-27
  -8.02999973      -1.29953808E-27
  -8.02000046      -1.28753386E-27
  -8.01000023      -1.27301620E-27
  -8.00000000      -1.25586271E-27
  -7.98999977      -1.23594850E-27
  -7.98000002      -1.21314587E-27
  -7.96999979      -1.18732329E-27
  -7.96000004      -1.15834719E-27
  -7.94999981      -1.12607968E-27
  -7.94000006      -1.09038180E-27
  -7.92999983      -1.05111074E-27
  -7.92000008      -1.00812013E-27
  -7.90999985      -9.61262258E-28
  -7.90000010      -9.10385544E-28
  -7.88999987      -8.55335533E-28
  -7.88000011      -7.95956705E-28
  -7.86999989      -7.32090028E-28
  -7.86000013      -6.63573240E-28
  -7.84999990      -5.90243169E-28
  -7.84000015      -5.11933701E-28
  -7.82999992      -4.28476175E-28
  -7.82000017      -3.39700748E-28
  -7.80999994      -2.45434879E-28
  -7.80000019      -1.45504669E-28
  -7.78999996      -3.97350042E-29
  -7.78000021       7.20514948E-29
  -7.76999998       1.90033024E-28
  -7.76000023       3.14389406E-28
  -7.75000000       4.45300859E-28
  -7.73999977       5.82948564E-28
  -7.73000002       7.27514307E-28
  -7.71999979       8.79180471E-28
  -7.71000004       1.03812901E-27
  -7.69999981       1.20454245E-27
  -7.69000006       1.37860213E-27
  -7.67999983       1.56048897E-27
  -7.67000008       1.75038451E-27
  -7.65999985       1.94846621E-27
  -7.65000010       2.15491242E-27
  -7.63999987       2.36989840E-27
  -7.63000011       2.59359824E-27
  -7.61999989       2.82618259E-27
  -7.61000013       3.06781997E-27
  -7.59999990       3.31867581E-27
  -7.59000015       3.57891209E-27
  -7.57999992       3.84868480E-27
  -7.57000017       4.12814879E-27
  -7.55999994       4.41745082E-27
  -7.55000019       4.71673648E-27
  -7.53999996       5.02614021E-27
  -7.53000021       5.34579450E-27
  -7.51999998       5.67582417E-27
  -7.51000023       6.01634707E-27
  -7.50000000       6.36747492E-27
  -7.48999977       6.72930708E-27
  -7.48000002       7.10193523E-27
  -7.46999979       7.48544335E-27
  -7.46000004       7.87991155E-27
  -7.44999981       8.28539838E-27
  -7.44000006       8.70195392E-27