  -16.0000000       0.00000000    
  -15.9899998       0.00000000    
  -15.9799995       0.00000000    
  -15.9700003       0.00000000    
  -15.9600000       0.00000000    
  -15.9499998       0.00000000    
  -15.9399996       0.00000000    
  -15.9300003       0.00000000    
  -15.9200001       0.00000000    
  -15.9099998       0.00000000    
  -15.8999996       0.00000000    
  -15.8900003       0.00000000    
  -15.8800001       0.00000000    
  -15.8699999       0.00000000    
  -15.8599997       0.00000000    
  -15.8500004       0.00000000    
  -15.8400002       0.00000000    
  -15.8299999       0.00000000    
  -15.8199997       0.00000000    
  -15.8100004       0.00000000    
  -15.8000002       0.00000000    
  -15.7900000       0.00000000    
  -15.7799997       0.00000000    
  -15.7700005       0.00000000    
  -15.7600002       0.00000000    
  -15.7500000       0.00000000    
  -15.7399998       0.00000000    
  -15.7299995       0.00000000    
  -15.7200003       0.00000000    
  -15.7100000       0.00000000    
  -15.6999998       0.00000000    
  -15.6899996       0.00000000    
  -15.6800003       0.00000000    
  -15.6700001       0.00000000    
  -15.6599998       0.00000000    
  -15.6499996       0.00000000    
  -15.6400003       0.00000000    
  -15.6300001       0.00000000    
  -15.6199999       0.00000000    
  -15.6099997       0.00000000    
  -15.6000004       0.00000000    
  -15.5900002       0.00000000    
  -15.5799999       0.00000000    
  -15.5699997       0.00000000    
  -15.5600004       0.00000000    
  -15.5500002       0.00000000    
  -15.5400000       0.00000000    
  -15.5299997       0.00000000    
  -15.5200005       0.00000000    
  -15.5100002       0.00000000    
  -15.5000000       0.00000000    
  -15.4899998       0.00000000    
  -15.4799995       0.00000000    
  -15.4700003       0.00000000    
  -15.4600000       0.00000000    
  -15.4499998       0.00000000    
  -15.4399996       0.00000000    
  -15.4300003       0.00000000    
  -15.4200001       0.00000000    
  -15.4099998       0.00000000    
  -15.3999996       0.00000000    
  -15.3900003       0.00000000    
  -15.3800001       0.00000000    
  -15.3699999       0.00000000    
  -15.3599997       0.00000000    
  -15.3500004       0.00000000    
  -15.3400002       0.00000000    
  -15.3299999       0.00000000    
  -15.3199997       0.00000000    
  -15.3100004       0.00000000    
  -15.3000002       0.00000000    
  -15.2900000       0.00000000    
  -15.2799997       0.00000000    
  -15.2700005       0.00000000    
  -15.2600002       0.00000000    
  -15.2500000       0.00000000    
  -15.2399998       0.00000000    
  -15.2299995       0.00000000    
  -15.2200003       0.00000000    
  -15.2100000       0.00000000    
  -15.1999998       0.00000000    
  -15.1899996       0.00000000    
  -15.1800003       0.00000000    
  -15.1700001       0.00000000    
  -15.1599998       0.00000000    
  -15.1499996       0.00000000    
  -15.1400003       0.00000000    
  -15.1300001       0.00000000    
  -15.1199999       0.00000000    
  -15.1099997       0.00000000    
  -15.1000004       0.00000000    
  -15.0900002       0.00000000    
  -15.0799999       0.00000000    
  -15.0699997       0.00000000    
  -15.0600004       0.00000000    
  -15.0500002       0.00000000    
  -15.0400000       0.00000000    
  -15.0299997       0.00000000    
  -15.0200005       0.00000000    
  -15.0100002       0.00000000    
  -15.0000000       0.00000000    
  -14.9899998       0.00000000    
  -14.9799995       0.00000000    
  -14.9700003       0.00000000    
  -14.9600000       0.00000000    
  -14.9499998       0.00000000    
  -14.9399996       0.00000000    
  -14.9300003       0.00000000    
  -14.9200001       0.00000000    
  -14.9099998       0.00000000    
  -14.8999996       0.00000000    
  -14.8900003       0.00000000    
  -14.8800001       0.00000000    
  -14.8699999       0.00000000    
  -14.8599997       0.00000000    
  -14.8500004       0.00000000    
  -14.8400002       0.00000000    
  -14.8299999       0.00000000    
  -14.8199997       0.00000000    
  -14.8100004       0.00000000    
  -14.8000002       0.00000000    
  -14.7900000       0.00000000    
  -14.7799997       0.00000000    
  -14.7700005       0.00000000    
  -14.7600002       0.00000000    
  -14.7500000       0.00000000    
  -14.7399998       0.00000000    
  -14.7299995       0.00000000    
  -14.7200003       0.00000000    
  -14.7100000       0.00000000    
  -14.6999998       0.00000000    
  -14.6899996       0.00000000    
  -14.6800003       0.00000000    
  -14.6700001       0.00000000    
  -14.6599998       0.00000000    
  -14.6499996       0.00000000    
  -14.6400003       0.00000000    
  -14.6300001       0.00000000    
  -14.6199999       0.00000000    
  -14.6099997       0.00000000    
  -14.6000004       0.00000000    
  -14.5900002       0.00000000    
  -14.5799999       0.00000000    
  -14.5699997       0.00000000    
  -14.5600004       0.00000000    
  -14.5500002       0.00000000    
  -14.5400000       0.00000000    
  -14.5299997       0.00000000    
  -14.5200005       0.00000000    
  -14.5100002       0.00000000    
  -14.5000000       0.00000000    
  -14.4899998       0.00000000    
  -14.4799995       0.00000000    
  -14.4700003       0.00000000    
  -14.4600000       0.00000000    
  -14.4499998       0.00000000    
  -14.4399996       0.00000000    
  -14.4300003       0.00000000    
  -14.4200001       0.00000000    
  -14.4099998       0.00000000    
  -14.3999996       0.00000000    
  -14.3900003       0.00000000    
  -14.3800001       0.00000000    
  -14.3699999       0.00000000    
  -14.3599997       0.00000000    
  -14.3500004       0.00000000    
  -14.3400002       0.00000000    
  -14.3299999       0.00000000    
  -14.3199997       0.00000000    
  -14.3100004       0.00000000    
  -14.3000002       0.00000000    
  -14.2900000       0.00000000    
  -14.2799997       0.00000000    
  -14.2700005       0.00000000    
  -14.2600002       0.00000000    
  -14.2500000       0.00000000    
  -14.2399998       0.00000000    
  -14.2299995       0.00000000    
  -14.2200003       0.00000000    
  -14.2100000       0.00000000    
  -14.1999998       0.00000000    
  -14.1899996       0.00000000    
  -14.1800003       0.00000000    
  -14.1700001       0.00000000    
  -14.1599998       0.00000000    
  -14.1499996       0.00000000    
  -14.1400003       0.00000000    
  -14.1300001       0.00000000    
  -14.1199999       0.00000000    
  -14.1099997       0.00000000    
  -14.1000004       0.00000000    
  -14.0900002       0.00000000    
  -14.0799999       0.00000000    
  -14.0699997       0.00000000    
  -14.0600004       0.00000000    
  -14.0500002       0.00000000    
  -14.0400000       0.00000000    
  -14.0299997       0.00000000    
  -14.0200005       0.00000000    
  -14.0100002       0.00000000    
  -14.0000000       0.00000000    
  -13.9899998       0.00000000    
  -13.9799995       0.00000000    
  -13.9700003       0.00000000    
  -13.9600000       0.00000000    
  -13.9499998       0.00000000    
  -13.9399996       0.00000000    
  -13.9300003       0.00000000    
  -13.9200001       0.00000000    
  -13.9099998       0.00000000    
  -13.8999996       0.00000000    
  -13.8900003       0.00000000    
  -13.8800001       0.00000000    
  -13.8699999       0.00000000    
  -13.8599997       0.00000000    
  -13.8500004       0.00000000    
  -13.8400002       0.00000000    
  -13.8299999       0.00000000    
  -13.8199997       0.00000000    
  -13.8100004       0.00000000    
  -13.8000002       0.00000000    
  -13.7900000       0.00000000    
  -13.7799997       0.00000000    
  -13.7700005       0.00000000    
  -13.7600002       0.00000000    
  -13.7500000       0.00000000    
  -13.7399998       0.00000000    
  -13.7299995       0.00000000    
  -13.7200003       0.00000000    
  -13.7100000       0.00000000    
  -13.6999998       0.00000000    
  -13.6899996       0.00000000    
  -13.6800003       0.00000000    
  -13.6700001       0.00000000    
  -13.6599998       0.00000000    
  -13.6499996       0.00000000    
  -13.6400003       0.00000000    
  -13.6300001       0.00000000    
  -13.6199999       0.00000000    
  -13.6099997       0.00000000    
  -13.6000004       0.00000000    
  -13.5900002       0.00000000    
  -13.5799999       0.00000000    
  -13.5699997       0.00000000    
  -13.5600004       0.00000000    
  -13.5500002       0.00000000    
  -13.5400000       0.00000000    
  -13.5299997       0.00000000    
  -13.5200005       0.00000000    
  -13.5100002       0.00000000    
  -13.5000000       0.00000000    
  -13.4899998       0.00000000    
  -13.4799995       0.00000000    
  -13.4700003       0.00000000    
  -13.4600000       0.00000000    
  -13.4499998       0.00000000    
  -13.4399996       0.00000000    
  -13.4300003       0.00000000    
  -13.4200001       0.00000000    
  -13.4099998       0.00000000    
  -13.3999996       0.00000000    
  -13.3900003       0.00000000    
  -13.3800001       0.00000000    
  -13.3699999       0.00000000    
  -13.3599997       0.00000000    
  -13.3500004       0.00000000    
  -13.3400002       0.00000000    
  -13.3299999       0.00000000    
  -13.3199997       0.00000000    
  -13.3100004       0.00000000    
  -13.3000002       0.00000000    
  -13.2900000       0.00000000    
  -13.2799997       0.00000000    
  -13.2700005       0.00000000    
  -13.2600002       0.00000000    
  -13.2500000       0.00000000    
  -13.2399998       0.00000000    
  -13.2299995       0.00000000    
  -13.2200003       0.00000000    
  -13.2100000       0.00000000    
  -13.1999998       0.00000000    
  -13.1899996       0.00000000    
  -13.1800003       0.00000000    
  -13.1700001       0.00000000    
  -13.1599998       0.00000000    
  -13.1499996       0.00000000    
  -13.1400003       0.00000000    
  -13.1300001       0.00000000    
  -13.1199999       0.00000000    
  -13.1099997       0.00000000    
  -13.1000004       0.00000000    
  -13.0900002       0.00000000    
  -13.0799999       0.00000000    
  -13.0699997       0.00000000    
  -13.0600004       0.00000000    
  -13.0500002       0.00000000    
  -13.0400000       0.00000000    
  -13.0299997       0.00000000    
  -13.0200005       0.00000000    
  -13.0100002       0.00000000    
  -13.0000000       0.00000000    
  -12.9899998       0.00000000    
  -12.9799995       0.00000000    
  -12.9700003       0.00000000    
  -12.9600000       0.00000000    
  -12.9499998       0.00000000    
  -12.9399996       0.00000000    
  -12.9300003       0.00000000    
  -12.9200001       0.00000000    
  -12.9099998       0.00000000    
  -12.8999996       0.00000000    
  -12.8900003       0.00000000    
  -12.8800001       0.00000000    
  -12.8699999       0.00000000    
  -12.8599997       0.00000000    
  -12.8500004       0.00000000    
  -12.8400002       0.00000000    
  -12.8299999       0.00000000    
  -12.8199997       0.00000000    
  -12.8100004       0.00000000    
  -12.8000002       0.00000000    
  -12.7900000       0.00000000    
  -12.7799997       0.00000000    
  -12.7700005       0.00000000    
  -12.7600002       0.00000000    
  -12.7500000       0.00000000    
  -12.7399998       0.00000000    
  -12.7299995       0.00000000    
  -12.7200003       0.00000000    
  -12.7100000       0.00000000    
  -12.6999998       0.00000000    
  -12.6899996       0.00000000    
  -12.6800003       0.00000000    
  -12.6700001       0.00000000    
  -12.6599998       0.00000000    
  -12.6499996       0.00000000    
  -12.6400003       0.00000000    
  -12.6300001       0.00000000    
  -12.6199999       0.00000000    
  -12.6099997      -0.00000000    
  -12.6000004      -0.00000000    
  -12.5900002      -0.00000000    
  -12.5799999      -0.00000000    
  -12.5699997      -0.00000000    
  -12.5600004       0.00000000    
  -12.5500002       0.00000000    
  -12.5400000       0.00000000    
  -12.5299997       0.00000000    
  -12.5200005       0.00000000    
  -12.5100002       0.00000000    
  -12.5000000       0.00000000    
  -12.4899998       0.00000000    
  -12.4799995      -0.00000000    
  -12.4700003      -0.00000000    
  -12.4600000      -0.00000000    
  -12.4499998      -0.00000000    
  -12.4399996      -0.00000000    
  -12.4300003       0.00000000    
  -12.4200001       0.00000000    
  -12.4099998       1.40129846E-45
  -12.3999996       2.80259693E-45
  -12.3900003       4.20389539E-45
  -12.3800001       2.80259693E-45
  -12.3699999       2.80259693E-45
  -12.3599997       2.80259693E-45
  -12.3500004       2.80259693E-45
  -12.3400002       4.20389539E-45
  -12.3299999       4.20389539E-45
  -12.3199997       4.20389539E-45
  -12.3100004       7.00649232E-45
  -12.3000002       7.00649232E-45
  -12.2900000       8.40779079E-45
  -12.2799997       8.40779079E-45
  -12.2700005       1.26116862E-44
  -12.2600002       1.40129846E-44
  -12.2500000       1.68155816E-44
  -12.2399998       1.68155816E-44
  -12.2299995       1.96181785E-44
  -12.2200003       2.10194770E-44
  -12.2100000       2.24207754E-44
  -12.1999998       2.10194770E-44
  -12.1899996       1.96181785E-44
  -12.1800003       1.40129846E-44
  -12.1700001       5.60519386E-45
  -12.1599998      -1.12103877E-44
  -12.1499996      -3.64337601E-44
  -12.1400003      -7.42688186E-44
  -12.1300001      -1.30320757E-43
  -12.1199999      -2.10194770E-43
  -12.1099997      -3.23699945E-43
  -12.1000004      -4.82046672E-43
  -12.0900002      -7.03451829E-43
  -12.0799999      -1.00473100E-42
  -12.0699997      -1.40690366E-42
  -12.0600004      -1.94640357E-42
  -12.0500002      -2.66526968E-42
  -12.0400000      -3.61114614E-42
  -12.0299997      -4.86670957E-42
  -12.0200005      -6.51743916E-42
  -12.0100002      -8.66142581E-42
  -12.0000000      -1.14275890E-41
  -11.9899998      -1.50009001E-41
  -11.9799995      -1.95957577E-41
  -11.9700003      -2.54714022E-41
  -11.9600000      -3.29571386E-41
  -11.9499998      -4.24649487E-41
  -11.9399996      -5.44936947E-41
  -11.9300003      -6.96487376E-41
  -11.9200001      -8.86769694E-41
  -11.9099998      -1.12492037E-40
  -11.8999996      -1.42216380E-40
  -11.8900003      -1.79182633E-40
  -11.8800001      -2.25005093E-40
  -11.8699999      -2.81658189E-40
  -11.8599997      -3.51484891E-40
  -11.8500004      -4.37279390E-40
  -11.8400002      -5.42435629E-40
  -11.8299999      -6.70987948E-40
  -11.8199997      -8.27695155E-40
  -11.8100004      -1.01823251E-39
  -11.8000002      -1.24934586E-39
  -11.7900000      -1.52896937E-39
  -11.7799997      -1.86646650E-39
  -11.7700005      -2.27286827E-39
  -11.7600002      -2.76110028E-39
  -11.7500000      -3.34631895E-39
  -11.7399998      -4.04625772E-39
  -11.7299995      -4.88157174E-39
  -11.7200003      -5.87631849E-39
  -11.7100000      -7.05845667E-39
  -11.6999998      -8.46040394E-39
  -11.6899996      -1.01197081E-38
  -11.6800003      -1.20797351E-38
  -11.6700001      -1.43904860E-38
  -11.6599998      -1.71095390E-38
  -11.6499996      -2.03030575E-38
  -11.6400003      -2.40469431E-38
  -11.6300001      -2.84281195E-38
  -11.6199999      -3.35459782E-38
  -11.6099997      -3.95139654E-38
  -11.6000004      -4.64613370E-38
  -11.5900002      -5.45351283E-38
  -11.5799999      -6.39023881E-38
  -11.5699997      -7.47525637E-38
  -11.5600004      -8.73001937E-38
  -11.5500002      -1.01787821E-37
  -11.5400000      -1.18489269E-37
  -11.5299997      -1.37713111E-37
  -11.5200005      -1.59806835E-37
  -11.5100002      -1.85160943E-37
  -11.5000000      -2.14213738E-37
  -11.4899998      -2.47456439E-37
  -11.4799995      -2.85438825E-37
  -11.4700003      -3.28775359E-37
  -11.4600000      -3.78152072E-37
  -11.4499998      -4.34333378E-37
  -11.4399996      -4.98170393E-37
  -11.4300003      -5.70609228E-37
  -11.4200001      -6.52700296E-37
  -11.4099998      -7.45608402E-37
  -11.3999996      -8.50623413E-37
  -11.3900003      -9.69171918E-37
  -11.3800001      -1.10282951E-36
  -11.3699999      -1.25333480E-36
  -11.3599997      -1.42260322E-36
  -11.3500004      -1.61274288E-36
  -11.3400002      -1.82607064E-36
  -11.3299999      -2.06513099E-36
  -11.3199997      -2.33271290E-36
  -11.3100004      -2.63187080E-36
  -11.3000002      -2.96594681E-36
  -11.2900000      -3.33859301E-36
  -11.2799997      -3.75379348E-36
  -11.2700005      -4.21589356E-36
  -11.2600002      -4.72962204E-36
  -11.2500000      -5.30012423E-36
  -11.2399998      -5.93298811E-36
  -11.2299995      -6.63427660E-36
  -11.2200003      -7.41056492E-36
  -11.2100000      -8.26896493E-36
  -11.1999998      -9.21717360E-36
  -11.1899996      -1.02635020E-35
  -11.1800003      -1.14169164E-35
  -11.1700001      -1.26870853E-35
  -11.1599998      -1.40844126E-35
  -11.1499996      -1.56200872E-35
  -11.1400003      -1.73061280E-35
  -11.1300001      -1.91554280E-35
  -11.1199999      -2.11818127E-35
  -11.1099997      -2.34000647E-35
  -11.1000004      -2.58260098E-35
  -11.0900002      -2.84765429E-35
  -11.0799999      -3.13696968E-35
  -11.0699997      -3.45246737E-35
  -11.0600004      -3.79619128E-35
  -11.0500002      -4.17031646E-35
  -11.0400000      -4.57715087E-35
  -11.0299997      -5.01914449E-35
  -11.0200005      -5.49888968E-35
  -11.0100002      -6.01913202E-35
  -11.0000000      -6.58277525E-35
  -10.9899998      -7.19288150E-35
  -10.9799995      -7.85267936E-35
  -10.9700003      -8.56556733E-35
  -10.9600000      -9.33512640E-35
  -10.9499998      -1.01651115E-34
  -10.9399996      -1.10594641E-34
  -10.9300003      -1.20223111E-34
  -10.9200001      -1.30579687E-34
  -10.9099998      -1.41709506E-34
  -10.8999996      -1.53659623E-34
  -10.8900003      -1.66479066E-34
  -10.8800001      -1.80218827E-34
  -10.8699999      -1.94931861E-34
  -10.8599997      -2.10673085E-34
  -10.8500004      -2.27499368E-34
  -10.8400002      -2.45469439E-34
  -10.8299999      -2.64643888E-34
  -10.8199997      -2.85085137E-34
  -10.8100004      -3.06857359E-34
  -10.8000002      -3.30026330E-34
  -10.7900000      -3.54659457E-34
  -10.7799997      -3.80825479E-34
  -10.7700005      -4.08594535E-34
  -10.7600002      -4.38037868E-34
  -10.7500000      -4.69227682E-34
  -10.7399998      -5.02237125E-34
  -10.7299995      -5.37139710E-34
  -10.7200003      -5.74009458E-34
  -10.7100000      -6.12920295E-34
  -10.6999998      -6.53946104E-34
  -10.6899996      -6.97160169E-34
  -10.6800003      -7.42634765E-34
  -10.6700001      -7.90441248E-34
  -10.6599998      -8.40648908E-34
  -10.6499996      -8.93325197E-34
  -10.6400003      -9.48534677E-34
  -10.6300001      -1.00633915E-33
  -10.6199999      -1.06679676E-33
  -10.6099997      -1.12996084E-33
  -10.6000004      -1.19588082E-33
  -10.5900002      -1.26459949E-33
  -10.5799999      -1.33615394E-33
  -10.5699997      -1.41057449E-33
  -10.5600004      -1.48788280E-33
  -10.5500002      -1.56809293E-33
  -10.5400000      -1.65120828E-33
  -10.5299997      -1.73722269E-33
  -10.5200005      -1.82611743E-33
  -10.5100002      -1.91786201E-33
  -10.5000000      -2.01241125E-33
  -10.4899998      -2.10970636E-33
  -10.4799995      -2.20967151E-33
  -10.4700003      -2.31221300E-33
  -10.4600000      -2.41721973E-33
  -10.4499998      -2.52455908E-33
  -10.4399996      -2.63407805E-33
  -10.4300003      -2.74559903E-33
  -10.4200001      -2.85892055E-33
  -10.4099998      -2.97381502E-33
  -10.3999996      -3.09002531E-33
  -10.3900003      -3.20726544E-33
  -10.3800001      -3.32521675E-33
  -10.3699999      -3.44352768E-33
  -10.3599997      -3.56180849E-33
  -10.3500004      -3.67963417E-33
  -10.3400002      -3.79653672E-33
  -10.3299999      -3.91200773E-33
  -10.3199997      -4.02549289E-33
  -10.3100004      -4.13638977E-33
  -10.3000002      -4.24404595E-33
  -10.2900000      -4.34775724E-33
  -10.2799997      -4.44676252E-33
  -10.2700005      -4.54024150E-33
  -10.2600002      -4.62731368E-33
  -10.2500000      -4.70703387E-33
  -10.2399998      -4.77838601E-33
  -10.2299995      -4.84028460E-33
  -10.2200003      -4.89156774E-33
  -10.2100000      -4.93099456E-33
  -10.1999998      -4.95723967E-33
  -10.1899996      -4.96889213E-33
  -10.1800003      -4.96444619E-33
  -10.1700001      -4.94230171E-33
  -10.1599998      -4.90075533E-33
  -10.1499996      -4.83799643E-33
  -10.1400003      -4.75210342E-33
  -10.1300001      -4.64103463E-33
  -10.1199999      -4.50262274E-33
  -10.1099997      -4.33457224E-33
  -10.1000004      -4.13444726E-33
  -10.0900002      -3.89966651E-33
  -10.0799999      -3.62749585E-33
  -10.0699997      -3.31503660E-33
  -10.0600004      -2.95922052E-33
  -10.0500002      -2.55679921E-33
  -10.0400000      -2.10433068E-33
  -10.0299997      -1.59817236E-33
  -10.0200005      -1.03446680E-33
  -10.0100002      -4.09129064E-34
  -10.0000000       2.82165733E-34
  -9.98999977       1.04399823E-33
  -9.97999954       1.88121873E-33
  -9.97000027       2.79896776E-33
  -9.96000004       3.80268969E-33
  -9.94999981       4.89815492E-33
  -9.93999958       6.09147858E-33
  -9.93000031       7.38914867E-33
  -9.92000008       8.79804037E-33
  -9.90999985       1.03254535E-32
  -9.89999962       1.19791257E-32
  -9.89000034       1.37672782E-32
  -9.88000011       1.56986404E-32
  -9.86999989       1.77824774E-32
  -9.85999966       2.00286385E-32
  -9.85000038       2.24475884E-32
  -9.84000015       2.50504576E-32
  -9.82999992       2.78490775E-32
  -9.81999969       3.08560420E-32
  -9.81000042       3.40847429E-32
  -9.80000019       3.75494302E-32
  -9.78999996       4.12652943E-32
  -9.77999973       4.52484804E-32
  -9.77000046       4.95162243E-32
  -9.76000023       5.40868343E-32
  -9.75000000       5.89798766E-32
  -9.73999977       6.42161749E-32
  -9.72999954       6.98179169E-32
  -9.72000027       7.58087592E-32
  -9.71000004       8.22139221E-32
  -9.69999981       8.90602892E-32
  -9.68999958       9.63765366E-32
  -9.68000031       1.04193233E-31
  -9.67000008       1.12542946E-31
  -9.65999985       1.21460446E-31
  -9.64999962       1.30982738E-31
  -9.64000034       1.41149353E-31
  -9.63000011       1.52002363E-31
  -9.61999989       1.63586649E-31
  -9.60999966       1.75949981E-31
  -9.60000038       1.89143330E-31
  -9.59000015       2.03220968E-31
  -9.57999992       2.18240730E-31
  -9.56999969       2.34264128E-31
  -9.56000042       2.51356733E-31
  -9.55000019       2.69588321E-31
  -9.53999996       2.89033161E-31
  -9.52999973       3.09770221E-31
  -9.52000046       3.31883409E-31
  -9.51000023       3.55462063E-31
  -9.50000000       3.80601067E-31
  -9.48999977       4.07401327E-31
  -9.47999954       4.35969931E-31
  -9.47000027       4.66420595E-31
  -9.46000004       4.98873972E-31
  -9.44999981       5.33458097E-31
  -9.43999958       5.70308858E-31
  -9.43000031       6.09570040E-31
  -9.42000008       6.51394223E-31
  -9.40999985       6.95942920E-31
  -9.39999962       7.43387188E-31
  -9.39000034       7.93908008E-31
  -9.38000011       8.47696843E-31
  -9.36999989       9.04956019E-31
  -9.35999966       9.65899288E-31
  -9.35000038       1.03075263E-30
  -9.34000015       1.09975480E-30
  -9.32999992       1.17315709E-30
  -9.31999969       1.25122525E-30
  -9.31000042       1.33423903E-30
  -9.30000019       1.42249327E-30
  -9.28999996       1.51629856E-30
  -9.27999973       1.61598180E-30
  -9.27000046       1.72188669E-30
  -9.26000023       1.83437492E-30
  -9.25000000       1.95382659E-30
  -9.23999977       2.08064061E-30
  -9.22999954       2.21523584E-30
  -9.22000027       2.35805182E-30
  -9.21000004       2.50954972E-30
  -9.19999981       2.67021272E-30
  -9.18999958       2.84054655E-30
  -9.18000031       3.02108067E-30
  -9.17000008       3.21236952E-30
  -9.15999985       3.41499277E-30
  -9.14999962       3.62955566E-30
  -9.14000034       3.85668938E-30
  -9.13000011       4.09705560E-30
  -9.11999989       4.35134192E-30
  -9.10999966       4.62026682E-30
  -9.10000038       4.90457696E-30
  -9.09000015       5.20505137E-30
  -9.07999992       5.52249917E-30
  -9.06999969       5.85776445E-30
  -9.06000042       6.21172066E-30
  -9.05000019       6.58527584E-30
  -9.03999996       6.97937452E-30
  -9.02999973       7.39499396E-30
  -9.02000046       7.83314678E-30
  -9.01000023       8.29488322E-30
  -9.00000000       8.78128661E-30
  -8.98999977       9.29348392E-30
  -8.97999954       9.83263070E-30
  -8.97000027       1.03999277E-29
  -8.96000004       1.09966101E-29
  -8.94999981       1.16239502E-29
  -8.93999958       1.22832599E-29
  -8.93000031       1.29758913E-29
  -8.92000008       1.37032293E-29
  -8.90999985       1.44667010E-29
  -8.89999962       1.52677690E-29
  -8.89000034       1.61079319E-29
  -8.88000011       1.69887304E-29
  -8.86999989       1.79117338E-29
  -8.85999966       1.88785536E-29
  -8.85000038       1.98908284E-29
  -8.84000015       2.09502358E-29
  -8.82999992       2.20584821E-29
  -8.81999969       2.32173052E-29
  -8.81000042       2.44284713E-29
  -8.80000019       2.56937742E-29
  -8.78999996       2.70150253E-29
  -8.77999973       2.83940694E-29
  -8.77000046       2.98327572E-29
  -8.76000023       3.13329723E-29
  -8.75000000       3.28965987E-29
  -8.73999977       3.45255443E-29
  -8.72999954       3.62217108E-29
  -8.72000027       3.79870121E-29
  -8.71000004       3.98233382E-29
  -8.69999981       4.17326239E-29
  -8.68999958       4.37167350E-29
  -8.68000031       4.57775582E-29
  -8.67000008       4.79169565E-29
  -8.65999985       5.01367412E-29
  -8.64999962       5.24387090E-29
  -8.64000034       5.48246292E-29
  -8.63000011       5.72961992E-29
  -8.61999989       5.98550619E-29
  -8.60999966       6.25028063E-29
  -8.60000038       6.52409431E-29
  -8.59000015       6.80709166E-29
  -8.57999992       7.09940509E-29
  -8.56999969       7.40116040E-29
  -8.56000042       7.71246892E-29
  -8.55000019       8.03343477E-29
  -8.53999996       8.36414222E-29
  -8.52999973       8.70466228E-29
  -8.52000046       9.05505695E-29
  -8.51000023       9.41536353E-29
  -8.50000000       9.78560130E-29
  -8.48999977       1.01657732E-28
  -8.47999954       1.05558571E-28
  -8.47000027       1.09558114E-28
  -8.46000004       1.13655638E-28
  -8.44999981       1.17850217E-28
  -8.43999958       1.22140575E-28
  -8.43000031       1.26525195E-28
  -8.42000008       1.31002236E-28
  -8.40999985       1.35569447E-28
  -8.39999962       1.40224263E-28
  -8.39000034       1.44963784E-28
  -8.38000011       1.49784603E-28
  -8.36999989       1.54682917E-28
  -8.35999966       1.59654525E-28
  -8.35000038       1.64694683E-28
  -8.34000015       1.69798169E-28
  -8.32999992       1.74959264E-28
  -8.31999969       1.80171649E-28
  -8.31000042       1.85428451E-28
  -8.30000019       1.90722146E-28
  -8.28999996       1.96044622E-28
  -8.27999973       2.01387104E-28
  -8.27000046       2.06740057E-28
  -8.26000023       2.12093324E-28
  -8.25000000       2.17435878E-28
  -8.23999977       2.22755922E-28
  -8.22999954       2.28040867E-28
  -8.22000027       2.33277302E-28
  -8.21000004       2.38450879E-28
  -8.19999981       2.43546288E-28
  -8.18999958       2.48547422E-28
  -8.18000031       2.53436949E-28
  -8.17000008       2.58196644E-28
  -8.15999985       2.62807224E-28
  -8.14999962       2.67248250E-28
  -8.14000034       2.71498176E-28
  -8.13000011       2.75534323E-28
  -8.11999989       2.79332714E-28
  -8.10999966       2.82868192E-28
  -8.10000038       2.86114275E-28
  -8.09000015       2.89043133E-28
  -8.07999992       2.91625684E-28
  -8.06999969       2.93831332E-28
  -8.06000042       2.95628176E-28
  -8.05000019       2.96982755E-28
  -8.03999996       2.97860040E-28
  -8.02999973       2.98223632E-28
  -8.02000046       2.98035516E-28
  -8.01000023       2.97255900E-28
  -8.00000000       2.95843567E-28
  -7.98999977       2.93755498E-28
  -7.98000002       2.90947083E-28
  -7.96999979       2.87371835E-28
  -7.96000004       2.82981581E-28
  -7.94999981       2.77726368E-28
  -7.94000006       2.71554533E-28
  -7.92999983       2.64412318E-28
  -7.92000008       2.56244329E-28
  -7.90999985       2.46993173E-28
  -7.90000010       2.36599651E-28
  -7.88999987       2.25002495E-28
  -7.88000011       2.12138752E-28
  -7.86999989       1.97943288E-28
  -7.86000013       1.82349166E-28
  -7.84999990       1.65287485E-28
  -7.84000015       1.46687383E-28
  -7.82999992       1.26476000E-28
  -7.82000017       1.04578610E-28
  -7.80999994       8.09184943E-29
  -7.80000019       5.54170754E-29
  -7.78999996       2.79938522E-29
  -7.78000021      -1.43357348E-30
  -7.76999998      -3.29494204E-29
  -7.76000023      -6.66397279E-29
  -7.75000000      -1.02592362E-28
  -7.73999977      -1.40896882E-28
  -7.73000002      -1.81644540E-28
  -7.71999979      -2.24928251E-28
  -7.71000004      -2.70842469E-28
  -7.69999981      -3.19483105E-28
  -7.69000006      -3.70947613E-28
  -7.67999983      -4.25334791E-28
  -7.67000008      -4.82744644E-28
  -7.65999985      -5.43278356E-28
  -7.65000010      -6.07038144E-28
  -7.63999987      -6.74127384E-28
  -7.63000011      -7.44649980E-28
  -7.61999989      -8.18710605E-28
  -7.61000013      -8.96414848E-28
  -7.59999990      -9.77868300E-28
  -7.59000015      -1.06317708E-27
  -7.57999992      -1.15244720E-27
  -7.57000017      -1.24578480E-27
  -7.55999994      -1.34329579E-27
  -7.55000019      -1.44508523E-27
  -7.53999996      -1.55125828E-27
  -7.53000021      -1.66191808E-27
  -7.51999998      -1.77716803E-27
  -7.51000023      -1.89710917E-27
  -7.50000000      -2.02184164E-27
  -7.48999977      -2.15146270E-27
  -7.48000002      -2.28606883E-27
  -7.46999979      -2.42575287E-27
  -7.46000004      -2.57060591E-27
  -7.44999981      -2.72071520E-27
  -7.44000006      -2.87616490E-27