  -16.0000000       0.00000000    
  -15.9899998       0.00000000    
  -15.9799995       0.00000000    
  -15.9700003       0.00000000    
  -15.9600000       0.00000000    
  -15.9499998       0.00000000    
  -15.9399996       0.00000000    
  -15.9300003       0.00000000    
  -15.9200001       0.00000000    
  -15.9099998       0.00000000    
  -15.8999996       0.00000000    
  -15.8900003       0.00000000    
  -15.8800001       0.00000000    
  -15.8699999       0.00000000    
  -15.8599997      -0.00000000    
  -15.8500004      -0.00000000    
  -15.8400002      -9.80908925E-45
  -15.8299999      -8.12753109E-44
  -15.8199997      -5.01664850E-43
  -15.8100004      -2.54475801E-42
  -15.8000002      -1.08600631E-41
  -15.7900000      -3.93862959E-41
  -15.7799997      -1.20620969E-40
  -15.7700005      -3.02679067E-40
  -15.7600002      -5.60972005E-40
  -15.7500000      -4.01523858E-40
  -15.7399998       2.36046905E-39
  -15.7299995       1.45560649E-38
  -15.7200003       5.34068756E-38
  -15.7100000       1.55093674E-37
  -15.6999998       3.82405562E-37
  -15.6899996       8.19562478E-37
  -15.6800003       1.53015030E-36
  -15.6700001       2.44438845E-36
  -15.6599998       3.15170562E-36
  -15.6499996       2.63294699E-36
  -15.6400003      -8.96491208E-37
  -15.6300001      -9.64924383E-36
  -15.6199999      -2.48654363E-35
  -15.6099997      -4.38949393E-35
  -15.6000004      -5.61722546E-35
  -15.5900002      -4.05225562E-35
  -15.5799999       3.07782246E-35
  -15.5699997       1.73609736E-34
  -15.5600004       3.54501798E-34
  -15.5500002       4.42775156E-34
  -15.5400000       1.88669116E-34
  -15.5299997      -7.02071577E-34
  -15.5200005      -2.31432779E-33
  -15.5100002      -4.06848880E-33
  -15.5000000      -4.22970822E-33
  -15.4899998       1.40190340E-34
  -15.4799995       1.20154485E-32
  -15.4700003       3.13215377E-32
  -15.4600000       5.01516730E-32
  -15.4499998       4.85897702E-32
  -15.4399996      -3.73525930E-33
  -15.4300003      -1.33482520E-31
  -15.4200001      -3.32484627E-31
  -15.4099998      -5.15642258E-31
  -15.3999996      -4.92379319E-31
  -15.3900003       3.52122896E-33
  -15.3800001       1.17564641E-30
  -15.3699999       2.90189965E-30
  -15.3599997       4.42100078E-30
  -15.3500004       4.17946471E-30
  -15.3400002       1.67696236E-31
  -15.3299999      -8.95162834E-30
  -15.3199997      -2.19318553E-29
  -15.3100004      -3.29187409E-29
  -15.3000002      -3.08397627E-29
  -15.2900000      -2.28590055E-30
  -15.2799997       6.05510208E-29
  -15.2700005       1.47635025E-28
  -15.2600002       2.19447319E-28
  -15.2500000       2.05531657E-28
  -15.2399998       2.48905080E-29
  -15.2299995      -3.64758613E-28
  -15.2200003      -8.96385478E-28
  -15.2100000      -1.33237952E-27
  -15.1999998      -1.26621699E-27
  -15.1899996      -2.46519442E-28
  -15.1800003       1.94838186E-27
  -15.1700001       4.93746924E-27
  -15.1599998       7.43430298E-27
  -15.1499996       7.28716732E-27
  -15.1400003       2.14310397E-27
  -15.1300001      -9.15856803E-27
  -15.1199999      -2.47557772E-26
  -15.1099997      -3.83296944E-26
  -15.1000004      -3.93458212E-26
  -15.0900002      -1.62248797E-26
  -15.0799999       3.71563624E-26
  -15.0699997       1.13037851E-25
  -15.0600004       1.83173280E-25
  -15.0500002       1.99636672E-25
  -15.0400000       1.08404021E-25
  -15.0299997      -1.22634135E-25
  -15.0200005      -4.67095241E-25
  -15.0100002      -8.10434821E-25
  -15.0000000      -9.50059306E-25
  -14.9899998      -6.47301098E-25
  -14.9799995       2.61059194E-25
  -14.9700003       1.71314458E-24
  -14.9600000       3.29277405E-24
  -14.9499998       4.20861553E-24
  -14.9399996       3.46909708E-24
  -14.9300003       2.90379009E-25
  -14.9200001      -5.32941885E-24
  -14.9099998      -1.20726058E-23
  -14.8999996      -1.71167797E-23
  -14.8900003      -1.66321998E-23
  -14.8800001      -7.13784618E-24
  -14.8699999       1.24522641E-23
  -14.8599997       3.87274190E-23
  -14.8500004       6.26767155E-23
  -14.8400002       7.07591508E-23
  -14.8299999       4.89158069E-23
  -14.8199997      -1.07482472E-23
  -14.8100004      -1.02374235E-22
  -14.8000002      -2.01077262E-22
  -14.7900000      -2.63882631E-22
  -14.7799997      -2.39900982E-22
  -14.7700005      -8.99542823E-23
  -14.7600002       1.88529931E-22
  -14.7500000       5.40252691E-22
  -14.7399998       8.46204807E-22
  -14.7299995       9.43942932E-22
  -14.7200003       6.77987149E-22
  -14.7100000      -2.73749218E-23
  -14.6999998      -1.09445042E-21
  -14.6899996      -2.24988179E-21
  -14.6800003      -3.04710982E-21
  -14.6700001      -2.97378236E-21
  -14.6599998      -1.63674002E-21
  -14.6499996       1.01941559E-21
  -14.6400003       4.53725934E-21
  -14.6300001       7.90577063E-21
  -14.6199999       9.72679501E-21
  -14.6099997       8.60482791E-21
  -14.6000004       3.69328833E-21
  -14.5900002      -4.75836778E-21
  -14.5799999      -1.50688219E-20
  -14.5699997      -2.42043274E-20
  -14.5600004      -2.83898758E-20
  -14.5500002      -2.42028281E-20
  -14.5400000      -9.90866489E-21
  -14.5299997       1.33640520E-20
  -14.5200005       4.10658339E-20
  -14.5100002       6.56484591E-20
  -14.5000000       7.80836656E-20
  -14.4899998       7.02593254E-20
  -14.4799995       3.77069345E-20
  -14.4700003      -1.80799758E-20
  -14.4600000      -8.84740169E-20
  -14.4499998      -1.58175247E-19
  -14.4399996      -2.07446506E-19
  -14.4300003      -2.15827371E-19
  -14.4200001      -1.66792608E-19
  -14.4099998      -5.26798277E-20
  -14.3999996       1.20769843E-19
  -14.3900003       3.30922496E-19
  -14.3800001       5.36704870E-19
  -14.3699999       6.80307457E-19
  -14.3599997       6.93889711E-19
  -14.3500004       5.12936559E-19
  -14.3400002       9.68887056E-20
  -14.3299999      -5.45003301E-19
  -14.3199997      -1.32844731E-18
  -14.3100004      -2.07961044E-18
  -14.3000002      -2.54386100E-18
  -14.2900000      -2.42880225E-18
  -14.2799997      -1.48541558E-18
  -14.2700005       3.82139555E-19
  -14.2600002       3.00432474E-18
  -14.2500000       5.87291659E-18
  -14.2399998       8.15380054E-18
  -14.2299995       8.82356455E-18
  -14.2200003       6.93807251E-18
  -14.2100000       1.99523408E-18
  -14.1999998      -5.69806880E-18
  -14.1899996      -1.47844522E-17
  -14.1800003      -2.28798224E-17
  -14.1700001      -2.69617006E-17
  -14.1599998      -2.41311531E-17
  -14.1499996      -1.26264025E-17
  -14.1400003       7.16447350E-18
  -14.1300001       3.20407054E-17
  -14.1199999       5.60237319E-17
  -14.1099997       7.13206837E-17
  -14.1000004       7.02090191E-17
  -14.0900002       4.75212350E-17
  -14.0799999       3.10892152E-18
  -14.0699997      -5.65251291E-17
  -14.0600004      -1.18204268E-16
  -14.0500002      -1.64149757E-16
  -14.0400000      -1.76093637E-16
  -14.0299997      -1.40703316E-16
  -14.0200005      -5.49803958E-17
  -14.0100002       7.00529268E-17
  -14.0000000       2.08961559E-16
  -13.9899998       3.25746610E-16
  -13.9799995       3.81802801E-16
  -13.9700003       3.46553737E-16
  -13.9600000       2.08187900E-16
  -13.9499998      -1.86865874E-17
  -13.9399996      -2.91405460E-16
  -13.9300003      -5.45390539E-16
  -13.9200001      -7.07867552E-16
  -13.9099998      -7.16668489E-16
  -13.8999996      -5.39663272E-16
  -13.8900003      -1.89312274E-16
  -13.8800001       2.72689472E-16
  -13.8699999       7.43788101E-16
  -13.8599997       1.10180214E-15
  -13.8500004       1.23513116E-15
  -13.8400002       1.07488248E-15
  -13.8299999       6.20151572E-16
  -13.8199997      -5.16599836E-17
  -13.8100004      -7.94646130E-16
  -13.8000002      -1.42446770E-15
  -13.7900000      -1.76321184E-15
  -13.7799997      -1.68859089E-15
  -13.7700005      -1.17436798E-15
  -13.7600002      -3.09586625E-16
  -13.7500000       7.11492164E-16
  -13.7399998       1.62979960E-15
  -13.7299995       2.18483043E-15
  -13.7200003       2.18632184E-15
  -13.7100000       1.57537350E-15
  -13.6999998       4.56763152E-16
  -13.6899996      -9.09972577E-16
  -13.6800003      -2.16330076E-15
  -13.6700001      -2.92690117E-15
  -13.6599998      -2.91144642E-15
  -13.6499996      -2.00474742E-15
  -13.6400003      -3.24407372E-16
  -13.6300001       1.78527673E-15
  -13.6199999       3.81694391E-15
  -13.6099997       5.21308503E-15
  -13.6000004       5.50249204E-15
  -13.5900002       4.42614949E-15
  -13.5799999       2.01900573E-15
  -13.5699997      -1.37559495E-15
  -13.5600004      -5.16456698E-15
  -13.5500002      -8.62247099E-15
  -13.5400000      -1.10367317E-14
  -13.5299997      -1.18422228E-14
  -13.5200005      -1.07115575E-14
  -13.5100002      -7.58380192E-15
  -13.5000000      -2.63715323E-15
  -13.4899998       3.76718666E-15
  -13.4799995       1.11310827E-14
  -13.4700003       1.88217887E-14
  -13.4600000       2.60195223E-14
  -13.4499998       3.16344715E-14
  -13.4399996       3.42534398E-14
  -13.4300003       3.21971962E-14
  -13.4200001       2.37621863E-14
  -13.4099998       7.67723728E-15
  -13.3999996      -1.62692854E-14
  -13.3900003      -4.65658531E-14
  -13.3800001      -7.94879435E-14
  -13.3699999      -1.09025175E-13
  -13.3599997      -1.27431458E-13
  -13.3500004      -1.26486156E-13
  -13.3400002      -9.93721368E-14
  -13.3299999      -4.28610191E-14
  -13.3199997       4.06857436E-14
  -13.3100004       1.42091241E-13
  -13.3000002       2.45454780E-13
  -13.2900000       3.29897269E-13
  -13.2799997       3.72950938E-13
  -13.2700005       3.55154654E-13
  -13.2600002       2.65020292E-13
  -13.2500000       1.03273598E-13
  -13.2399998      -1.14767286E-13
  -13.2299995      -3.59553939E-13
  -13.2200003      -5.90791413E-13
  -13.2100000      -7.63740362E-13
  -13.1999998      -8.37340505E-13
  -13.1899996      -7.82620442E-13
  -13.1800003      -5.89623511E-13
  -13.1700001      -2.71250877E-13
  -13.1599998       1.37005980E-13
  -13.1499996       5.81617545E-13
  -13.1400003       9.99090892E-13
  -13.1300001       1.32598327E-12
  -13.1199999       1.50885250E-12
  -13.1099997       1.51217493E-12
  -13.1000004       1.32280807E-12
  -13.0900002       9.50489904E-13
  -13.0799999       4.24867281E-13
  -13.0699997      -2.09585591E-13
  -13.0600004      -8.99018273E-13
  -13.0500002      -1.58445577E-12
  -13.0400000      -2.20401692E-12
  -13.0299997      -2.69335465E-12
  -13.0200005      -2.98566814E-12
  -13.0100002      -3.01335584E-12
  -13.0000000      -2.71334951E-12
  -12.9899998      -2.03735943E-12
  -12.9799995      -9.66646901E-13
  -12.9700003       4.71032447E-13
  -12.9600000       2.18640665E-12
  -12.9499998       4.02077980E-12
  -12.9399996       5.75010655E-12
  -12.9300003       7.10427463E-12
  -12.9200001       7.80177485E-12
  -12.9099998       7.59623441E-12
  -12.8999996       6.32762419E-12
  -12.8900003       3.96840807E-12
  -12.8800001       6.54169210E-13
  -12.8699999      -3.31015966E-12
  -12.8599997      -7.47346629E-12
  -12.8500004      -1.12907001E-11
  -12.8400002      -1.41977775E-11
  -12.8299999      -1.56977088E-11
  -12.8199997      -1.54432786E-11
  -12.8100004      -1.33012837E-11
  -12.8000002      -9.38604056E-12
  -12.7900000      -4.05516679E-12
  -12.7799997       2.13262329E-12
  -12.7700005       8.49106202E-12
  -12.7600002       1.42991235E-11
  -12.7500000       1.88979804E-11
  -12.7399998       2.17768893E-11
  -12.7299995       2.26357266E-11
  -12.7200003       2.14163028E-11
  -12.7100000       1.83004566E-11
  -12.6999998       1.36775539E-11
  -12.6899996       8.08757315E-12
  -12.6800003       2.14820132E-12
  -12.6700001      -3.52634718E-12
  -12.6599998      -8.40735641E-12
  -12.6499996      -1.21277190E-11
  -12.6400003      -1.45458116E-11
  -12.6300001      -1.57894583E-11
  -12.6199999      -1.62706567E-11
  -12.6099997      -1.66606780E-11
  -12.6000004      -1.78162398E-11
  -12.5900002      -2.06506322E-11
  -12.5799999      -2.59522924E-11
  -12.5699997      -3.41644699E-11
  -12.5600004      -4.51527669E-11
  -12.5500002      -5.79995253E-11
  -12.5400000      -7.08723497E-11
  -12.5299997      -8.10140913E-11
  -12.5200005      -8.48930717E-11
  -12.5100002      -7.85330342E-11
  -12.5000000      -5.80150476E-11
  -12.4899998      -2.01123805E-11
  -12.4799995       3.70108770E-11
  -12.4700003       1.13130519E-10
  -12.4600000       2.05425121E-10
  -12.4499998       3.08171155E-10
  -12.4399996       4.12748780E-10
  -12.4300003       5.08004749E-10
  -12.4200001       5.80972437E-10
  -12.4099998       6.17910889E-10
  -12.3999996       6.05578532E-10
  -12.3900003       5.32634048E-10
  -12.3800001       3.91038452E-10
  -12.3699999       1.77333481E-10
  -12.3599997      -1.06309246E-10
  -12.3500004      -4.51361060E-10
  -12.3400002      -8.42583781E-10
  -12.3299999      -1.25808597E-09
  -12.3199997      -1.66978753E-09
  -12.3100004      -2.04428097E-09
  -12.3000002      -2.34404562E-09
  -12.2900000      -2.52897547E-09
  -12.2799997      -2.55813859E-09
  -12.2700005      -2.39170506E-09
  -12.2600002      -1.99292183E-09
  -12.2500000      -1.33005196E-09
  -12.2399998      -3.78144321E-10
  -12.2299995       8.79476603E-10
  -12.2200003       2.45009968E-09
  -12.2100000       4.33093783E-09
  -12.1999998       6.50891296E-09
  -12.1899996       8.96086405E-09
  -12.1800003       1.16541052E-08
  -12.1700001       1.45472603E-08
  -12.1599998       1.75911641E-08
  -12.1499996       2.07298179E-08
  -12.1400003       2.39011229E-08
  -12.1300001       2.70375580E-08
  -12.1199999       3.00666265E-08
  -12.1099997       3.29111636E-08
  -12.1000004       3.54897196E-08
  -12.0900002       3.77170224E-08
  -12.0799999       3.95046911E-08
  -12.0699997       4.07624228E-08
  -12.0600004       4.13995060E-08
  -12.0500002       4.13269241E-08
  -12.0400000       4.04597458E-08
  -12.0299997       3.87198824E-08
  -12.0200005       3.60389194E-08
  -12.0100002       3.23609051E-08
  -12.0000000       2.76449015E-08
  -11.9899998       2.18671925E-08
  -11.9799995       1.50229287E-08
  -11.9700003       7.12726633E-09
  -11.9600000      -1.78407533E-09
  -11.9499998      -1.16548842E-08
  -11.9399996      -2.24090417E-08
  -11.9300003      -3.39515118E-08
  -11.9200001      -4.61697951E-08
  -11.9099998      -5.89356404E-08
  -11.8999996      -7.21069924E-08
  -11.8900003      -8.55300257E-08
  -11.8800001      -9.90412303E-08
  -11.8699999      -1.12469394E-07
  -11.8599997      -1.25637683E-07
  -11.8500004      -1.38365266E-07
  -11.8400002      -1.50469120E-07
  -11.8299999      -1.61765556E-07
  -11.8199997      -1.72071779E-07
  -11.8100004      -1.81207398E-07
  -11.8000002      -1.88996282E-07
  -11.7900000      -1.95268427E-07
  -11.7799997      -1.99862015E-07
  -11.7700005      -2.02625799E-07
  -11.7600002      -2.03421564E-07
  -11.7500000      -2.02126841E-07
  -11.7399998      -1.98637110E-07
  -11.7299995      -1.92868271E-07
  -11.7200003      -1.84758363E-07
  -11.7100000      -1.74269104E-07
  -11.6999998      -1.61386453E-07
  -11.6899996      -1.46121053E-07
  -11.6800003      -1.28507907E-07
  -11.6700001      -1.08605533E-07
  -11.6599998      -8.64947225E-08
  -11.6499996      -6.22770884E-08
  -11.6400003      -3.60735264E-08
  -11.6300001      -8.02260836E-09
  -11.6199999       2.17207887E-08
  -11.6099997       5.29866604E-08
  -11.6000004       8.55906919E-08
  -11.5900002       1.19334686E-07
  -11.5799999       1.54006869E-07
  -11.5699997       1.89381424E-07
  -11.5600004       2.25218457E-07
  -11.5500002       2.61263523E-07
  -11.5400000       2.97247283E-07
  -11.5299997       3.32885719E-07
  -11.5200005       3.67880858E-07
  -11.5100002       4.01921483E-07
  -11.5000000       4.34685546E-07
  -11.4899998       4.65842561E-07
  -11.4799995       4.95057066E-07
  -11.4700003       5.21992206E-07
  -11.4600000       5.46314880E-07
  -11.4499998       5.67699487E-07
  -11.4399996       5.85833277E-07
  -11.4300003       6.00420094E-07
  -11.4200001       6.11184475E-07
  -11.4099998       6.17874889E-07
  -11.3999996       6.20266746E-07
  -11.3900003       6.18162801E-07
  -11.3800001       6.11395421E-07
  -11.3699999       5.99825853E-07
  -11.3599997       5.83344217E-07
  -11.3500004       5.61868660E-07
  -11.3400002       5.35343474E-07
  -11.3299999       5.03738022E-07
  -11.3199997       4.67045624E-07
  -11.3100004       4.25281115E-07
  -11.3000002       3.78479854E-07
  -11.2900000       3.26696323E-07
  -11.2799997       2.70001777E-07
  -11.2700005       2.08483414E-07
  -11.2600002       1.42242470E-07
  -11.2500000       7.13928898E-08
  -11.2399998      -3.94036670E-09
  -11.2299995      -8.36222043E-08
  -11.2200003      -1.67508432E-07
  -11.2100000      -2.55446650E-07
  -11.1999998      -3.47275915E-07
  -11.1899996      -4.42826888E-07
  -11.1800003      -5.41921111E-07
  -11.1700001      -6.44369948E-07
  -11.1599998      -7.49974561E-07
  -11.1499996      -8.58523777E-07
  -11.1400003      -9.69794655E-07
  -11.1300001      -1.08355187E-06
  -11.1199999      -1.19954791E-06
  -11.1099997      -1.31752540E-06
  -11.1000004      -1.43721877E-06
  -11.0900002      -1.55835596E-06
  -11.0799999      -1.68066288E-06
  -11.0699997      -1.80386735E-06
  -11.0600004      -1.92770199E-06
  -11.0500002      -2.05190781E-06
  -11.0400000      -2.17624051E-06
  -11.0299997      -2.30047226E-06
  -11.0200005      -2.42439455E-06
  -11.0100002      -2.54782140E-06
  -11.0000000      -2.67059045E-06
  -10.9899998      -2.79256415E-06
  -10.9799995      -2.91363244E-06
  -10.9700003      -3.03370757E-06
  -10.9600000      -3.15272564E-06
  -10.9499998      -3.27064527E-06
  -10.9399996      -3.38744007E-06
  -10.9300003      -3.50309710E-06
  -10.9200001      -3.61760976E-06
  -10.9099998      -3.73097828E-06
  -10.8999996      -3.84319810E-06
  -10.8900003      -3.95425468E-06
  -10.8800001      -4.06412710E-06
  -10.8699999      -4.17277397E-06
  -10.8599997      -4.28014528E-06
  -10.8500004      -4.38616735E-06
  -10.8400002      -4.49075924E-06
  -10.8299999      -4.59382272E-06
  -10.8199997      -4.69525048E-06
  -10.8100004      -4.79492883E-06
  -10.8000002      -4.89274498E-06
  -10.7900000      -4.98858390E-06
  -10.7799997      -5.08233597E-06
  -10.7700005      -5.17389344E-06
  -10.7600002      -5.26315762E-06
  -10.7500000      -5.35003892E-06
  -10.7399998      -5.43445185E-06
  -10.7299995      -5.51632138E-06
  -10.7200003      -5.59558111E-06
  -10.7100000      -5.67217194E-06
  -10.6999998      -5.74604155E-06
  -10.6899996      -5.81714448E-06
  -10.6800003      -5.88544117E-06
  -10.6700001      -5.95088886E-06
  -10.6599998      -6.01344982E-06
  -10.6499996      -6.07307675E-06
  -10.6400003      -6.12971917E-06
  -10.6300001      -6.18331069E-06
  -10.6199999      -6.23377400E-06
  -10.6099997      -6.28101543E-06
  -10.6000004      -6.32492311E-06
  -10.5900002      -6.36536925E-06
  -10.5799999      -6.40221924E-06
  -10.5699997      -6.43532621E-06
  -10.5600004      -6.46454009E-06
  -10.5500002      -6.48971900E-06
  -10.5400000      -6.51072469E-06
  -10.5299997      -6.52743802E-06
  -10.5200005      -6.53975894E-06
  -10.5100002      -6.54760788E-06
  -10.5000000      -6.55093618E-06
  -10.4899998      -6.54972473E-06
  -10.4799995      -6.54398218E-06
  -10.4700003      -6.53375128E-06
  -10.4600000      -6.51910659E-06
  -10.4499998      -6.50015681E-06
  -10.4399996      -6.47704019E-06
  -10.4300003      -6.44992497E-06
  -10.4200001      -6.41900942E-06
  -10.4099998      -6.38451866E-06
  -10.3999996      -6.34669914E-06
  -10.3900003      -6.30581144E-06
  -10.3800001      -6.26213750E-06
  -10.3699999      -6.21596291E-06
  -10.3599997      -6.16757688E-06
  -10.3500004      -6.11726728E-06
  -10.3400002      -6.06531194E-06
  -10.3299999      -6.01198008E-06
  -10.3199997      -5.95752317E-06
  -10.3100004      -5.90217269E-06
  -10.3000002      -5.84614054E-06
  -10.2900000      -5.78961499E-06
  -10.2799997      -5.73275202E-06
  -10.2700005      -5.67568304E-06
  -10.2600002      -5.61850675E-06
  -10.2500000      -5.56128907E-06
  -10.2399998      -5.50406367E-06
  -10.2299995      -5.44683371E-06
  -10.2200003      -5.38957011E-06
  -10.2100000      -5.33221873E-06
  -10.1999998      -5.27470229E-06
  -10.1899996      -5.21692300E-06
  -10.1800003      -5.15877491E-06
  -10.1700001      -5.10014206E-06
  -10.1599998      -5.04090804E-06
  -10.1499996      -4.98095596E-06
  -10.1400003      -4.92017398E-06
  -10.1300001      -4.85845749E-06
  -10.1199999      -4.79570008E-06
  -10.1099997      -4.73180990E-06
  -10.1000004      -4.66669007E-06
  -10.0900002      -4.60025467E-06
  -10.0799999      -4.53241728E-06
  -10.0699997      -4.46309741E-06
  -10.0600004      -4.39222185E-06
  -10.0500002      -4.31972694E-06
  -10.0400000      -4.24556583E-06
  -10.0299997      -4.16970624E-06
  -10.0200005      -4.09213590E-06
  -10.0100002      -4.01286979E-06
  -10.0000000      -3.93194250E-06
  -9.98999977      -3.84941995E-06
  -9.97999954      -3.76538560E-06
  -9.97000027      -3.67995221E-06
  -9.96000004      -3.59325099E-06
  -9.94999981      -3.50543201E-06
  -9.93999958      -3.41666373E-06
  -9.93000031      -3.32712693E-06
  -9.92000008      -3.23701852E-06
  -9.90999985      -3.14654812E-06
  -9.89999962      -3.05593517E-06
  -9.89000034      -2.96540884E-06
  -9.88000011      -2.87520834E-06
  -9.86999989      -2.78558309E-06
  -9.85999966      -2.69678594E-06
  -9.85000038      -2.60907404E-06
  -9.84000015      -2.52270752E-06
  -9.82999992      -2.43794420E-06
  -9.81999969      -2.35503558E-06
  -9.81000042      -2.27422902E-06
  -9.80000019      -2.19576395E-06
  -9.78999996      -2.11986935E-06
  -9.77999973      -2.04676394E-06
  -9.77000046      -1.97666054E-06
  -9.76000023      -1.90975902E-06
  -9.75000000      -1.84625378E-06
  -9.73999977      -1.78633809E-06
  -9.72999954      -1.73019191E-06
  -9.72000027      -1.67799624E-06
  -9.71000004      -1.62992671E-06
  -9.69999981      -1.58615285E-06
  -9.68999958      -1.54683858E-06
  -9.68000031      -1.51213908E-06
  -9.67000008      -1.48220045E-06
  -9.65999985      -1.45715421E-06
  -9.64999962      -1.43712077E-06
  -9.64000034      -1.42220665E-06
  -9.63000011      -1.41250723E-06
  -9.61999989      -1.40810107E-06
  -9.60999966      -1.40905399E-06
  -9.60000038      -1.41542057E-06
  -9.59000015      -1.42723775E-06
  -9.57999992      -1.44452645E-06
  -9.56999969      -1.46728780E-06
  -9.56000042      -1.49550112E-06
  -9.55000019      -1.52912514E-06
  -9.53999996      -1.56808858E-06
  -9.52999973      -1.61229559E-06
  -9.52000046      -1.66162454E-06
  -9.51000023      -1.71592069E-06
  -9.50000000      -1.77500817E-06
  -9.48999977      -1.83868451E-06
  -9.47999954      -1.90672563E-06
  -9.47000027      -1.97888448E-06
  -9.46000004      -2.05489937E-06
  -9.44999981      -2.13449380E-06
  -9.43999958      -2.21738651E-06
  -9.43000031      -2.30329078E-06
  -9.42000008      -2.39192855E-06
  -9.40999985      -2.48302968E-06
  -9.39999962      -2.57634815E-06
  -9.39000034      -2.67165751E-06
  -9.38000011      -2.76876494E-06
  -9.36999989      -2.86750742E-06
  -9.35999966      -2.96775829E-06
  -9.35000038      -3.06942502E-06
  -9.34000015      -3.17244167E-06
  -9.32999992      -3.27677390E-06
  -9.31999969      -3.38241284E-06
  -9.31000042      -3.48936692E-06
  -9.30000019      -3.59766068E-06
  -9.28999996      -3.70732846E-06
  -9.27999973      -3.81842074E-06
  -9.27000046      -3.93099253E-06
  -9.26000023      -4.04510229E-06
  -9.25000000      -4.16081502E-06
  -9.23999977      -4.27819532E-06
  -9.22999954      -4.39730638E-06
  -9.22000027      -4.51820824E-06
  -9.21000004      -4.64094092E-06
  -9.19999981      -4.76553259E-06
  -9.18999958      -4.89198919E-06
  -9.18000031      -5.02028570E-06
  -9.17000008      -5.15035890E-06
  -9.15999985      -5.28211604E-06
  -9.14999962      -5.41541567E-06
  -9.14000034      -5.55007637E-06
  -9.13000011      -5.68587757E-06
  -9.11999989      -5.82254188E-06
  -9.10999966      -5.95975916E-06
  -9.10000038      -6.09716608E-06
  -9.09000015      -6.23435972E-06
  -9.07999992      -6.37089761E-06
  -9.06999969      -6.50629045E-06
  -9.06000042      -6.64002164E-06
  -9.05000019      -6.77153321E-06
  -9.03999996      -6.90024808E-06
  -9.02999973      -7.02555690E-06
  -9.02000046      -7.14684575E-06
  -9.01000023      -7.26348026E-06
  -9.00000000      -7.37482196E-06
  -8.98999977      -7.48023058E-06
  -8.97999954      -7.57906946E-06
  -8.97000027      -7.67071469E-06
  -8.96000004      -7.75456010E-06
  -8.94999981      -7.83001360E-06
  -8.93999958      -7.89651767E-06
  -8.93000031      -7.95355299E-06
  -8.92000008      -8.00065300E-06
  -8.90999985      -8.03738567E-06
  -8.89999962      -8.06340358E-06
  -8.89000034      -8.07840297E-06
  -8.88000011      -8.08217828E-06
  -8.86999989      -8.07459401E-06
  -8.85999966      -8.05560103E-06
  -8.85000038      -8.02523664E-06
  -8.84000015      -7.98362635E-06
  -8.82999992      -7.93099298E-06
  -8.81999969      -7.86762757E-06
  -8.81000042      -7.79392030E-06
  -8.80000019      -7.71033683E-06
  -8.78999996      -7.61742695E-06
  -8.77999973      -7.51581047E-06
  -8.77000046      -7.40619680E-06
  -8.76000023      -7.28935993E-06
  -8.75000000      -7.16614932E-06
  -8.73999977      -7.03748492E-06
  -8.72999954      -6.90435218E-06
  -8.72000027      -6.76779246E-06
  -8.71000004      -6.62890807E-06
  -8.69999981      -6.48884725E-06
  -8.68999958      -6.34880371E-06
  -8.68000031      -6.21002528E-06
  -8.67000008      -6.07379116E-06
  -8.65999985      -5.94142330E-06
  -8.64999962      -5.81428094E-06
  -8.64000034      -5.69375197E-06
  -8.63000011      -5.58125112E-06
  -8.61999989      -5.47820946E-06
  -8.60999966      -5.38606264E-06
  -8.60000038      -5.30624766E-06
  -8.59000015      -5.24018287E-06
  -8.57999992      -5.18927254E-06
  -8.56999969      -5.15488682E-06
  -8.56000042      -5.13836494E-06
  -8.55000019      -5.14100020E-06
  -8.53999996      -5.16403588E-06
  -8.52999973      -5.20866161E-06
  -8.52000046      -5.27600196E-06
  -8.51000023      -5.36710195E-06
  -8.50000000      -5.48293565E-06
  -8.48999977      -5.62438163E-06
  -8.47999954      -5.79222979E-06
  -8.47000027      -5.98717043E-06
  -8.46000004      -6.20979745E-06
  -8.44999981      -6.46060653E-06
  -8.43999958      -6.73998511E-06
  -8.43000031      -7.04822014E-06
  -8.42000008      -7.38549625E-06
  -8.40999985      -7.75189619E-06
  -8.39999962      -8.14738996E-06
  -8.39000034      -8.57186205E-06
  -8.38000011      -9.02509328E-06
  -8.36999989      -9.50677622E-06
  -8.35999966      -1.00165225E-05
  -8.35000038      -1.05538757E-05
  -8.34000015      -1.11183099E-05
  -8.32999992      -1.17092522E-05
  -8.31999969      -1.23260752E-05
  -8.31000042      -1.29681102E-05
  -8.30000019      -1.36346480E-05
  -8.28999996      -1.43249526E-05
  -8.27999973      -1.50382457E-05
  -8.27000046      -1.57737377E-05
  -8.26000023      -1.65306337E-05
  -8.25000000      -1.73081153E-05
  -8.23999977      -1.81053874E-05
  -8.22999954      -1.89216425E-05
  -8.22000027      -1.97561058E-05
  -8.21000004      -2.06080131E-05
  -8.19999981      -2.14766169E-05
  -8.18999958      -2.23611933E-05
  -8.18000031      -2.32610473E-05
  -8.17000008      -2.41754879E-05
  -8.15999985      -2.51038728E-05
  -8.14999962      -2.60455527E-05
  -8.14000034      -2.69999400E-05
  -8.13000011      -2.79664509E-05
  -8.11999989      -2.89445306E-05
  -8.10999966      -2.99336298E-05
  -8.10000038      -3.09332281E-05
  -8.09000015      -3.19428036E-05
  -8.07999992      -3.29618124E-05
  -8.06999969      -3.39896906E-05
  -8.06000042      -3.50258888E-05
  -8.05000019      -3.60697668E-05
  -8.03999996      -3.71207025E-05
  -8.02999973      -3.81780228E-05
  -8.02000046      -3.92409893E-05
  -8.01000023      -4.03088270E-05
  -8.00000000      -4.13807247E-05
  -7.98999977      -4.24557584E-05
  -7.98000002      -4.35330003E-05
  -7.96999979      -4.46114136E-05
  -7.96000004      -4.56899070E-05
  -7.94999981      -4.67672908E-05
  -7.94000006      -4.78423499E-05
  -7.92999983      -4.89137783E-05
  -7.92000008      -4.99802154E-05
  -7.90999985      -5.10402460E-05
  -7.90000010      -5.20924077E-05
  -7.88999987      -5.31351652E-05
  -7.88000011      -5.41669579E-05
  -7.86999989      -5.51861631E-05
  -7.86000013      -5.61911547E-05
  -7.84999990      -5.71802375E-05
  -7.84000015      -5.81517597E-05
  -7.82999992      -5.91040298E-05
  -7.82000017      -6.00353851E-05
  -7.80999994      -6.09441995E-05
  -7.80000019      -6.18288686E-05
  -7.78999996      -6.26878682E-05
  -7.78000021      -6.35196411E-05
  -7.76999998      -6.43227904E-05
  -7.76000023      -6.50958827E-05
  -7.75000000      -6.58376084E-05
  -7.73999977      -6.65466723E-05
  -7.73000002      -6.72219467E-05
  -7.71999979      -6.78623037E-05
  -7.71000004      -6.84667684E-05
  -7.69999981      -6.90344386E-05
  -7.69000006      -6.95645504E-05
  -7.67999983      -7.00564342E-05
  -7.67000008      -7.05095299E-05
  -7.65999985      -7.09234519E-05
  -7.65000010      -7.12978872E-05
  -7.63999987      -7.16326613E-05
  -7.63000011      -7.19277523E-05
  -7.61999989      -7.21832621E-05
  -7.61000013      -7.23993871E-05
  -7.59999990      -7.25765203E-05
  -7.59000015      -7.27152001E-05
  -7.57999992      -7.28160230E-05
  -7.57000017      -7.28797968E-05
  -7.55999994      -7.29073508E-05
  -7.55000019      -7.28996310E-05
  -7.53999996      -7.28577070E-05
  -7.53000021      -7.27827501E-05
  -7.51999998      -7.26759536E-05
  -7.51000023      -7.25386926E-05
  -7.50000000      -7.23722987E-05
  -7.48999977      -7.21782635E-05
  -7.48000002      -7.19581221E-05
  -7.46999979      -7.17134462E-05
  -7.46000004      -7.14458365E-05
  -7.44999981      -7.11569737E-05
  -7.44000006      -7.08485022E-05