  -16.0000000       0.00000000    
  -15.9899998       0.00000000    
  -15.9799995       0.00000000    
  -15.9700003       0.00000000    
  -15.9600000       0.00000000    
  -15.9499998       0.00000000    
  -15.9399996       0.00000000    
  -15.9300003       0.00000000    
  -15.9200001       0.00000000    
  -15.9099998       0.00000000    
  -15.8999996      -0.00000000    
  -15.8900003      -7.98740125E-44
  -15.8800001      -3.83815649E-42
  -15.8699999      -7.93457229E-41
  -15.8599997      -9.91065536E-40
  -15.8500004      -8.70016190E-39
  -15.8400002      -5.84666056E-38
  -15.8299999      -3.17362915E-37
  -15.8199997      -1.44260659E-36
  -15.8100004      -5.63259240E-36
  -15.8000002      -1.92402970E-35
  -15.7900000      -5.82760910E-35
  -15.7799997      -1.58040256E-34
  -15.7700005      -3.86328882E-34
  -15.7600002      -8.54655749E-34
  -15.7500000      -1.71308318E-33
  -15.7399998      -3.10401957E-33
  -15.7299995      -5.04651443E-33
  -15.7200003      -7.23803594E-33
  -15.7100000      -8.80707477E-33
  -15.6999998      -8.12484210E-33
  -15.6899996      -2.85773183E-33
  -15.6800003       9.54208641E-33
  -15.6700001       3.08029949E-32
  -15.6599998       6.03357799E-32
  -15.6499996       9.34938660E-32
  -15.6400003       1.19736254E-31
  -15.6300001       1.20543184E-31
  -15.6199999       6.69827185E-32
  -15.6099997      -8.15301664E-32
  -15.6000004      -3.71238184E-31
  -15.5900002      -8.28098907E-31
  -15.5799999      -1.39580428E-30
  -15.5699997      -1.83317065E-30
  -15.5600004      -1.60641365E-30
  -15.5500002       1.16574504E-31
  -15.5400000       4.18816563E-30
  -15.5299997       1.07358407E-29
  -15.5200005       1.79508768E-29
  -15.5100002       2.08668972E-29
  -15.5000000       1.12448677E-29
  -15.4899998      -1.98036906E-29
  -15.4799995      -7.51238586E-29
  -15.4700003      -1.41305697E-28
  -15.4600000      -1.79255195E-28
  -15.4499998      -1.24450162E-28
  -15.4399996       9.17037020E-29
  -15.4300003       4.92093975E-28
  -15.4200001       9.83111933E-28
  -15.4099998       1.29535111E-27
  -15.3999996       9.94774209E-28
  -15.3900003      -3.68236385E-28
  -15.3800001      -2.93936006E-27
  -15.3699999      -6.13310041E-27
  -15.3599997      -8.30452518E-27
  -15.3500004      -6.85947298E-27
  -15.3400002       8.44291095E-28
  -15.3299999       1.56818414E-26
  -15.3199997       3.44409584E-26
  -15.3100004       4.81410718E-26
  -15.3000002       4.27396611E-26
  -15.2900000       3.91553884E-27
  -15.2799997      -7.36427046E-26
  -15.2700005      -1.74654778E-25
  -15.2600002      -2.55006116E-25
  -15.2500000      -2.45068737E-25
  -15.2399998      -7.21979983E-26
  -15.2299995       2.95987736E-25
  -15.2200003       7.97787655E-25
  -15.2100000       1.23809402E-24
  -15.1999998       1.29934670E-24
  -15.1899996       6.35529962E-25
  -15.1800003      -9.43302910E-25
  -15.1700001      -3.23717967E-24
  -15.1599998      -5.47422097E-24
  -15.1499996      -6.32547407E-24
  -15.1400003      -4.25185339E-24
  -15.1300001       1.77636409E-24
  -15.1199999       1.13312399E-23
  -15.1099997       2.17228359E-23
  -15.1000004       2.78861699E-23
  -15.0900002       2.34930288E-23
  -15.0799999       3.50475162E-24
  -15.0699997      -3.22597915E-23
  -15.0600004      -7.57896853E-23
  -15.0500002      -1.09702267E-22
  -15.0400000      -1.10208816E-22
  -15.0299997      -5.52792197E-23
  -15.0200005       6.29988800E-23
  -15.0100002       2.25639185E-22
  -15.0000000       3.79791365E-22
  -14.9899998       4.44549803E-22
  -14.9799995       3.34113693E-22
  -14.9700003      -3.15061914E-24
  -14.9600000      -5.39866364E-22
  -14.9499998      -1.13761406E-21
  -14.9399996      -1.55028258E-21
  -14.9300003      -1.48053455E-21
  -14.9200001      -6.91183113E-22
  -14.9099998       8.51861937E-22
  -14.8999996       2.85541617E-21
  -14.8900003       4.66100442E-21
  -14.8800001       5.35450530E-21
  -14.8699999       4.04763627E-21
  -14.8599997       2.88788952E-22
  -14.8500004      -5.51863683E-21
  -14.8400002      -1.18739572E-20
  -14.8299999      -1.63045328E-20
  -14.8199997      -1.59761147E-20
  -14.8100004      -8.74569741E-21
  -14.8000002       5.59884387E-21
  -14.7900000       2.43635597E-20
  -14.7799997       4.17735483E-20
  -14.7700005       5.00234761E-20
  -14.7600002       4.16384917E-20
  -14.7500000       1.27109492E-20
  -14.7399998      -3.39709894E-20
  -14.7299995      -8.72460221E-20
  -14.7200003      -1.28637791E-19
  -14.7100000      -1.36815389E-19
  -14.6999998      -9.49895700E-20
  -14.6899996       6.01147553E-22
  -14.6800003       1.34109474E-19
  -14.6700001       2.68760106E-19
  -14.6599998       3.53289848E-19
  -14.6499996       3.36466209E-19
  -14.6400003       1.86918339E-19
  -14.6300001      -8.75723190E-20
  -14.6199999      -4.29021025E-19
  -14.6099997      -7.33592623E-19
  -14.6000004      -8.74999200E-19
  -14.5900002      -7.44457330E-19
  -14.5799999      -2.97528310E-19
  -14.5699997       4.07674130E-19
  -14.5600004       1.19819480E-18
  -14.5500002       1.81291066E-18
  -14.5400000       1.97067861E-18
  -14.5299997       1.46769468E-18
  -14.5200005       2.77046413E-19
  -14.5100002      -1.38570268E-18
  -14.5000000      -3.06557271E-18
  -14.4899998      -4.15976350E-18
  -14.4799995      -4.09120222E-18
  -14.4700003      -2.52561299E-18
  -14.4600000       4.33460038E-19
  -14.4499998       4.14853328E-18
  -14.4399996       7.51465628E-18
  -14.4300003       9.21256691E-18
  -14.4200001       8.11330591E-18
  -14.4099998       3.73564567E-18
  -14.3999996      -3.38866718E-18
  -14.3900003      -1.15955667E-17
  -14.3800001      -1.83268317E-17
  -14.3699999      -2.07457791E-17
  -14.3599997      -1.66275843E-17
  -14.3500004      -5.30066311E-18
  -14.3400002       1.16622052E-17
  -14.3299999       3.03021239E-17
  -14.3199997       4.48799613E-17
  -14.3100004       4.92366885E-17
  -14.3000002       3.86732579E-17
  -14.2900000       1.18879420E-17
  -14.2799997      -2.76279582E-17
  -14.2700005      -7.13173353E-17
  -14.2600002      -1.06785702E-16
  -14.2500000      -1.20541100E-16
  -14.2399998      -1.01796837E-16
  -14.2299995      -4.64587248E-17
  -14.2200003       3.98478875E-17
  -14.2100000       1.40842044E-16
  -14.1999998       2.31523407E-16
  -14.1899996       2.83105648E-16
  -14.1800003       2.70235300E-16
  -14.1700001       1.78973085E-16
  -14.1599998       1.34629327E-17
  -14.1499996      -2.00864692E-16
  -14.1400003      -4.19199755E-16
  -14.1300001      -5.84942160E-16
  -14.1199999      -6.42104443E-16
  -14.1099997      -5.50175163E-16
  -14.1000004      -2.97965333E-16
  -14.0900002       8.74236932E-17
  -14.0799999       5.39789586E-16
  -14.0699997       9.62883867E-16
  -14.0600004       1.24874595E-15
  -14.0500002       1.30220802E-15
  -14.0400000       1.06636080E-15
  -14.0299997       5.42704597E-16
  -14.0200005      -1.99860547E-16
  -14.0100002      -1.03105213E-15
  -14.0000000      -1.78079085E-15
  -13.9899998      -2.27307348E-15
  -13.9799995      -2.36537445E-15
  -13.9700003      -1.98468798E-15
  -13.9600000      -1.15122980E-15
  -13.9499998       1.69875055E-17
  -13.9399996       1.32136727E-15
  -13.9300003       2.51924518E-15
  -13.9200001       3.37234140E-15
  -13.9099998       3.69644882E-15
  -13.8999996       3.40088768E-15
  -13.8900003       2.50836716E-15
  -13.8800001       1.15052453E-15
  -13.8699999      -4.59621994E-16
  -13.8599997      -2.07130896E-15
  -13.8500004      -3.44478813E-15
  -13.8400002      -4.39323887E-15
  -13.8299999      -4.80816770E-15
  -13.8199997      -4.66363847E-15
  -13.8100004      -4.00103424E-15
  -13.8000002      -2.90181333E-15
  -13.7900000      -1.45922707E-15
  -13.7799997       2.40112162E-16
  -13.7700005       2.11756204E-15
  -13.7600002       4.08585570E-15
  -13.7500000       6.02100750E-15
  -13.7399998       7.73499815E-15
  -13.7299995       8.96394470E-15
  -13.7200003       9.38428565E-15
  -13.7100000       8.66274995E-15
  -13.6999998       6.53606325E-15
  -13.6899996       2.90574716E-15
  -13.6800003      -2.07481440E-15
  -13.6700001      -7.94730272E-15
  -13.6599998      -1.39524343E-14
  -13.6499996      -1.91042691E-14
  -13.6400003      -2.23334111E-14
  -13.6300001      -2.26807742E-14
  -13.6199999      -1.95087138E-14
  -13.6099997      -1.26867604E-14
  -13.6000004      -2.70851279E-15
  -13.5900002       9.29544036E-15
  -13.5799999       2.16660084E-14
  -13.5699997       3.24398609E-14
  -13.5600004       3.96594446E-14
  -13.5500002       4.17182056E-14
  -13.5400000       3.76787191E-14
  -13.5299997       2.75016013E-14
  -13.5200005       1.21359391E-14
  -13.5100002      -6.55420923E-15
  -13.5000000      -2.60229731E-14
  -13.4899998      -4.34012398E-14
  -13.4799995      -5.59228330E-14
  -13.4700003      -6.13486313E-14
  -13.4600000      -5.83210170E-14
  -13.4499998      -4.65964344E-14
  -13.4399996      -2.71276582E-14
  -13.4300003      -1.99432595E-15
  -13.4200001       2.57975861E-14
  -13.4099998       5.26140411E-14
  -13.3999996       7.45538139E-14
  -13.3900003       8.78451161E-14
  -13.3800001       8.92624665E-14
  -13.3699999       7.65554612E-14
  -13.3599997       4.88789781E-14
  -13.3500004       7.19915579E-15
  -13.3400002      -4.53790346E-14
  -13.3299999      -1.03442130E-13
  -13.3199997      -1.59357933E-13
  -13.3100004      -2.03722117E-13
  -13.3000002      -2.26226644E-13
  -13.2900000      -2.16949017E-13
  -13.2799997      -1.67972244E-13
  -13.2700005      -7.51491697E-14
  -13.2600002       6.02567245E-14
  -13.2500000       2.30363742E-13
  -13.2399998       4.20196023E-13
  -13.2299995       6.08162500E-13
  -13.2200003       7.67586407E-13
  -13.2100000       8.69222337E-13
  -13.1999998       8.84535934E-13
  -13.1899996       7.89386514E-13
  -13.1800003       5.67676602E-13
  -13.1700001       2.14525907E-13
  -13.1599998      -2.61402418E-13
  -13.1499996      -8.36688574E-13
  -13.1400003      -1.47316491E-12
  -13.1300001      -2.11910394E-12
  -13.1199999      -2.71145107E-12
  -13.1099997      -3.17887231E-12
  -13.1000004      -3.44536595E-12
  -13.0900002      -3.43425483E-12
  -13.0799999      -3.07234793E-12
  -13.0699997      -2.29415423E-12
  -13.0600004      -1.04608152E-12
  -13.0500002       7.09585439E-13
  -13.0400000       2.99099157E-12
  -13.0299997       5.79352712E-12
  -13.0200005       9.08743567E-12
  -13.0100002       1.28165248E-11
  -13.0000000       1.68981686E-11
  -12.9899998       2.12248639E-11
  -12.9799995       2.56674248E-11
  -12.9700003       3.00796818E-11
  -12.9600000       3.43043649E-11
  -12.9499998       3.81798065E-11
  -12.9399996       4.15469395E-11
  -12.9300003       4.42558351E-11
  -12.9200001       4.61712821E-11
  -12.9099998       4.71771476E-11
  -12.8999996       4.71790350E-11
  -12.8900003       4.61052967E-11
  -12.8800001       4.39068018E-11
  -12.8699999       4.05555381E-11
  -12.8599997       3.60427244E-11
  -12.8500004       3.03767983E-11
  -12.8400002       2.35817095E-11
  -12.8299999       1.56957433E-11
  -12.8199997       6.77092497E-12
  -12.8100004      -3.12706978E-12
  -12.8000002      -1.39186510E-11
  -12.7900000      -2.55100559E-11
  -12.7799997      -3.77931783E-11
  -12.7700005      -5.06457376E-11
  -12.7600002      -6.39317904E-11
  -12.7500000      -7.75023726E-11
  -12.7399998      -9.11965850E-11
  -12.7299995      -1.04842419E-10
  -12.7200003      -1.18258014E-10
  -12.7100000      -1.31252703E-10
  -12.6999998      -1.43628276E-10
  -12.6899996      -1.55180840E-10
  -12.6800003      -1.65703160E-10
  -12.6700001      -1.74987705E-10
  -12.6599998      -1.82830764E-10
  -12.6499996      -1.89036814E-10
  -12.6400003      -1.93423610E-10
  -12.6300001      -1.95827202E-10
  -12.6199999      -1.96106520E-10
  -12.6099997      -1.94147018E-10
  -12.6000004      -1.89863514E-10
  -12.5900002      -1.83201357E-10
  -12.5799999      -1.74136580E-10
  -12.5699997      -1.62674818E-10
  -12.5600004      -1.48849322E-10
  -12.5500002      -1.32718017E-10
  -12.5400000      -1.14361062E-10
  -12.5299997      -9.38776834E-11
  -12.5200005      -7.13836698E-11
  -12.5100002      -4.70091674E-11
  -12.5000000      -2.08969179E-11
  -12.4899998       6.79859554E-12
  -12.4799995       3.59117111E-11
  -12.4700003       6.62656111E-11
  -12.4600000       9.76714265E-11
  -12.4499998       1.29927180E-10
  -12.4399996       1.62816788E-10
  -12.4300003       1.96109073E-10
  -12.4200001       2.29557359E-10
  -12.4099998       2.62899952E-10
  -12.3999996       2.95861863E-10
  -12.3900003       3.28157473E-10
  -12.3800001       3.59495211E-10
  -12.3699999       3.89581867E-10
  -12.3599997       4.18128532E-10
  -12.3500004       4.44855847E-10
  -12.3400002       4.69498163E-10
  -12.3299999       4.91806706E-10
  -12.3199997       5.11550635E-10
  -12.3100004       5.28516897E-10
  -12.3000002       5.42507317E-10
  -12.2900000       5.53335211E-10
  -12.2799997       5.60820779E-10
  -12.2700005       5.64786162E-10
  -12.2600002       5.65052172E-10
  -12.2500000       5.61436286E-10
  -12.2399998       5.53752377E-10
  -12.2299995       5.41812761E-10
  -12.2200003       5.25433363E-10
  -12.2100000       5.04439879E-10
  -12.1999998       4.78678153E-10
  -12.1899996       4.48022008E-10
  -12.1800003       4.12384016E-10
  -12.1700001       3.71724707E-10
  -12.1599998       3.26058180E-10
  -12.1499996       2.75457074E-10
  -12.1400003       2.20053809E-10
  -12.1300001       1.60038080E-10
  -12.1199999       9.56499602E-11
  -12.1099997       2.71717874E-11
  -12.1000004      -4.50833815E-11
  -12.0900002      -1.20784202E-10
  -12.0799999      -1.99593911E-10
  -12.0699997      -2.81182910E-10
  -12.0600004      -3.65238895E-10
  -12.0500002      -4.51475579E-10
  -12.0400000      -5.39638556E-10
  -12.0299997      -6.29508334E-10
  -12.0200005      -7.20900728E-10
  -12.0100002      -8.13664913E-10
  -12.0000000      -9.07679931E-10
  -11.9899998      -1.00284758E-09
  -11.9799995      -1.09908616E-09
  -11.9700003      -1.19632315E-09
  -11.9600000      -1.29448685E-09
  -11.9499998      -1.39349654E-09
  -11.9399996      -1.49325807E-09
  -11.9300003      -1.59365343E-09
  -11.9200001      -1.69453629E-09
  -11.9099998      -1.79572779E-09
  -11.8999996      -1.89701099E-09
  -11.8900003      -1.99813410E-09
  -11.8800001      -2.09880868E-09
  -11.8699999      -2.19871521E-09
  -11.8599997      -2.29750818E-09
  -11.8500004      -2.39482434E-09
  -11.8400002      -2.49029375E-09
  -11.8299999      -2.58354715E-09
  -11.8199997      -2.67423372E-09
  -11.8100004      -2.76203016E-09
  -11.8000002      -2.84665536E-09
  -11.7900000      -2.92788438E-09
  -11.7799997      -3.00555536E-09
  -11.7700005      -3.07958437E-09
  -11.7600002      -3.14996873E-09
  -11.7500000      -3.21678995E-09
  -11.7399998      -3.28021521E-09
  -11.7299995      -3.34048500E-09
  -11.7200003      -3.39790573E-09
  -11.7100000      -3.45283002E-09
  -11.6999998      -3.50563845E-09
  -11.6899996      -3.55671537E-09
  -11.6800003      -3.60643626E-09
  -11.6700001      -3.65514441E-09
  -11.6599998      -3.70312248E-09
  -11.6499996      -3.75059850E-09
  -11.6400003      -3.79771237E-09
  -11.6300001      -3.84453314E-09
  -11.6199999      -3.89103638E-09
  -11.6099997      -3.93711197E-09
  -11.6000004      -3.98256939E-09
  -11.5900002      -4.02714040E-09
  -11.5799999      -4.07049550E-09
  -11.5699997      -4.11225143E-09
  -11.5600004      -4.15198809E-09
  -11.5500002      -4.18926671E-09
  -11.5400000      -4.22364410E-09
  -11.5299997      -4.25470015E-09
  -11.5200005      -4.28205338E-09
  -11.5100002      -4.30536673E-09
  -11.5000000      -4.32438352E-09
  -11.4899998      -4.33891856E-09
  -11.4799995      -4.34888037E-09
  -11.4700003      -4.35426140E-09
  -11.4600000      -4.35514202E-09
  -11.4499998      -4.35167413E-09
  -11.4399996      -4.34408243E-09
  -11.4300003      -4.33264180E-09
  -11.4200001      -4.31766489E-09
  -11.4099998      -4.29947944E-09
  -11.3999996      -4.27844205E-09
  -11.3900003      -4.25490887E-09
  -11.3800001      -4.22922808E-09
  -11.3699999      -4.20175050E-09
  -11.3599997      -4.17283319E-09
  -11.3500004      -4.14281676E-09
  -11.3400002      -4.11204004E-09
  -11.3299999      -4.08082768E-09
  -11.3199997      -4.04949407E-09
  -11.3100004      -4.01830480E-09
  -11.3000002      -3.98750855E-09
  -11.2900000      -3.95729405E-09
  -11.2799997      -3.92781274E-09
  -11.2700005      -3.89915567E-09
  -11.2600002      -3.87136501E-09
  -11.2500000      -3.84441812E-09
  -11.2399998      -3.81824616E-09
  -11.2299995      -3.79273235E-09
  -11.2200003      -3.76770393E-09
  -11.2100000      -3.74296061E-09
  -11.1999998      -3.71825570E-09
  -11.1899996      -3.69333786E-09
  -11.1800003      -3.66793751E-09
  -11.1700001      -3.64178643E-09
  -11.1599998      -3.61463548E-09
  -11.1499996      -3.58628194E-09
  -11.1400003      -3.55655949E-09
  -11.1300001      -3.52536977E-09
  -11.1199999      -3.49266993E-09
  -11.1099997      -3.45848594E-09
  -11.1000004      -3.42291062E-09
  -11.0900002      -3.38610917E-09
  -11.0799999      -3.34829542E-09
  -11.0699997      -3.30973737E-09
  -11.0600004      -3.27074279E-09
  -11.0500002      -3.23163674E-09
  -11.0400000      -3.19276405E-09
  -11.0299997      -3.15447912E-09
  -11.0200005      -3.11710946E-09
  -11.0100002      -3.08098103E-09
  -11.0000000      -3.04638248E-09
  -10.9899998      -3.01359160E-09
  -10.9799995      -2.98284708E-09
  -10.9700003      -2.95436209E-09
  -10.9600000      -2.92833779E-09
  -10.9499998      -2.90494473E-09
  -10.9399996      -2.88435653E-09
  -10.9300003      -2.86673418E-09
  -10.9200001      -2.85223578E-09
  -10.9099998      -2.84101653E-09
  -10.8999996      -2.83324075E-09
  -10.8900003      -2.82906298E-09
  -10.8800001      -2.82863399E-09
  -10.8699999      -2.83208013E-09
  -10.8599997      -2.83952795E-09
  -10.8500004      -2.85108070E-09
  -10.8400002      -2.86682589E-09
  -10.8299999      -2.88684499E-09
  -10.8199997      -2.91120128E-09
  -10.8100004      -2.93995317E-09
  -10.8000002      -2.97316993E-09
  -10.7900000      -3.01090952E-09
  -10.7799997      -3.05325010E-09
  -10.7700005      -3.10026538E-09
  -10.7600002      -3.15202686E-09
  -10.7500000      -3.20861449E-09
  -10.7399998      -3.27010219E-09
  -10.7299995      -3.33656680E-09
  -10.7200003      -3.40807715E-09
  -10.7100000      -3.48470719E-09
  -10.6999998      -3.56651353E-09
  -10.6899996      -3.65356301E-09
  -10.6800003      -3.74590048E-09
  -10.6700001      -3.84355747E-09
  -10.6599998      -3.94655197E-09
  -10.6499996      -4.05486578E-09
  -10.6400003      -4.16846824E-09
  -10.6300001      -4.28730473E-09
  -10.6199999      -4.41129888E-09
  -10.6099997      -4.54037341E-09
  -10.6000004      -4.67442929E-09
  -10.5900002      -4.81336748E-09
  -10.5799999      -4.95709918E-09
  -10.5699997      -5.10551423E-09
  -10.5600004      -5.25851629E-09
  -10.5500002      -5.41598277E-09
  -10.5400000      -5.57777957E-09
  -10.5299997      -5.74374148E-09
  -10.5200005      -5.91370242E-09
  -10.5100002      -6.08744788E-09
  -10.5000000      -6.26472207E-09
  -10.4899998      -6.44524079E-09
  -10.4799995      -6.62866650E-09
  -10.4700003      -6.81462486E-09
  -10.4600000      -7.00269309E-09
  -10.4499998      -7.19241289E-09
  -10.4399996      -7.38333172E-09
  -10.4300003      -7.57498420E-09
  -10.4200001      -7.76691689E-09
  -10.4099998      -7.95871724E-09
  -10.3999996      -8.14999002E-09
  -10.3900003      -8.34038616E-09
  -10.3800001      -8.52960369E-09
  -10.3699999      -8.71735217E-09
  -10.3599997      -8.90336160E-09
  -10.3500004      -9.08740105E-09
  -10.3400002      -9.26922894E-09
  -10.3299999      -9.44863476E-09
  -10.3199997      -9.62544178E-09
  -10.3100004      -9.79951142E-09
  -10.3000002      -9.97072291E-09
  -10.2900000      -1.01390336E-08
  -10.2799997      -1.03044213E-08
  -10.2700005      -1.04669233E-08
  -10.2600002      -1.06265761E-08
  -10.2500000      -1.07834639E-08
  -10.2399998      -1.09377050E-08
  -10.2299995      -1.10894112E-08
  -10.2200003      -1.12387513E-08
  -10.2100000      -1.13858878E-08
  -10.1999998      -1.15310170E-08
  -10.1899996      -1.16743690E-08
  -10.1800003      -1.18161978E-08
  -10.1700001      -1.19567698E-08
  -10.1599998      -1.20963817E-08
  -10.1499996      -1.22353194E-08
  -10.1400003      -1.23738779E-08
  -10.1300001      -1.25123627E-08
  -10.1199999      -1.26510811E-08
  -10.1099997      -1.27903466E-08
  -10.1000004      -1.29304771E-08
  -10.0900002      -1.30718396E-08
  -10.0799999      -1.32148434E-08
  -10.0699997      -1.33599380E-08
  -10.0600004      -1.35076199E-08
  -10.0500002      -1.36584459E-08
  -10.0400000      -1.38130236E-08
  -10.0299997      -1.39719845E-08
  -10.0200005      -1.41360204E-08
  -10.0100002      -1.43058312E-08
  -10.0000000      -1.44821550E-08
  -9.98999977      -1.46657362E-08
  -9.97999954      -1.48573269E-08
  -9.97000027      -1.50577186E-08
  -9.96000004      -1.52676733E-08
  -9.94999981      -1.54879718E-08
  -9.93999958      -1.57193512E-08
  -9.93000031      -1.59625149E-08
  -9.92000008      -1.62181006E-08
  -9.90999985      -1.64866538E-08
  -9.89999962      -1.67686558E-08
  -9.89000034      -1.70644743E-08
  -9.88000011      -1.73744468E-08
  -9.86999989      -1.76988149E-08
  -9.85999966      -1.80377668E-08
  -9.85000038      -1.83913897E-08
  -9.84000015      -1.87597831E-08
  -9.82999992      -1.91429130E-08
  -9.81999969      -1.95406837E-08
  -9.81000042      -1.99529087E-08
  -9.80000019      -2.03793675E-08
  -9.78999996      -2.08197442E-08
  -9.77999973      -2.12736300E-08
  -9.77000046      -2.17406182E-08
  -9.76000023      -2.22202345E-08
  -9.75000000      -2.27120029E-08
  -9.73999977      -2.32154544E-08
  -9.72999954      -2.37300846E-08
  -9.72000027      -2.42553924E-08
  -9.71000004      -2.47908396E-08
  -9.69999981      -2.53358650E-08
  -9.68999958      -2.58899835E-08
  -9.68000031      -2.64526641E-08
  -9.67000008      -2.70233951E-08
  -9.65999985      -2.76017129E-08
  -9.64999962      -2.81871593E-08
  -9.64000034      -2.87792741E-08
  -9.63000011      -2.93776150E-08
  -9.61999989      -2.99816385E-08
  -9.60999966      -3.05908223E-08
  -9.60000038      -3.12045785E-08
  -9.59000015      -3.18222000E-08
  -9.57999992      -3.24430118E-08
  -9.56999969      -3.30662893E-08
  -9.56000042      -3.36912542E-08
  -9.55000019      -3.43171607E-08
  -9.53999996      -3.49432376E-08
  -9.52999973      -3.55686112E-08
  -9.52000046      -3.61924322E-08
  -9.51000023      -3.68137734E-08
  -9.50000000      -3.74316258E-08
  -9.48999977      -3.80450018E-08
  -9.47999954      -3.86528498E-08
  -9.47000027      -3.92541573E-08
  -9.46000004      -3.98479578E-08
  -9.44999981      -4.04332638E-08
  -9.43999958      -4.10091836E-08
  -9.43000031      -4.15748715E-08
  -9.42000008      -4.21295070E-08
  -9.40999985      -4.26723368E-08
  -9.39999962      -4.32026148E-08
  -9.39000034      -4.37196555E-08
  -9.38000011      -4.42228121E-08
  -9.36999989      -4.47115340E-08
  -9.35999966      -4.51853595E-08
  -9.35000038      -4.56439508E-08
  -9.34000015      -4.60870915E-08
  -9.32999992      -4.65145682E-08
  -9.31999969      -4.69264734E-08
  -9.31000042      -4.73227324E-08
  -9.30000019      -4.77034234E-08
  -9.28999996      -4.80687241E-08
  -9.27999973      -4.84188334E-08
  -9.27000046      -4.87539218E-08
  -9.26000023      -4.90743055E-08
  -9.25000000      -4.93802652E-08
  -9.23999977      -4.96721810E-08
  -9.22999954      -4.99504083E-08
  -9.22000027      -5.02153839E-08
  -9.21000004      -5.04674489E-08
  -9.19999981      -5.07070048E-08
  -9.18999958      -5.09343749E-08
  -9.18000031      -5.11498968E-08
  -9.17000008      -5.13538403E-08
  -9.15999985      -5.15464933E-08
  -9.14999962      -5.17281471E-08
  -9.14000034      -5.18990433E-08
  -9.13000011      -5.20594376E-08
  -9.11999989      -5.22095220E-08
  -9.10999966      -5.23497121E-08
  -9.10000038      -5.24800363E-08
  -9.09000015      -5.26007895E-08
  -9.07999992      -5.27120996E-08
  -9.06999969      -5.28140554E-08
  -9.06000042      -5.29067457E-08
  -9.05000019      -5.29902806E-08
  -9.03999996      -5.30647952E-08
  -9.02999973      -5.31304245E-08
  -9.02000046      -5.31873248E-08
  -9.01000023      -5.32358087E-08
  -9.00000000      -5.32761533E-08
  -8.98999977      -5.33086535E-08
  -8.97999954      -5.33335651E-08
  -8.97000027      -5.33512896E-08
  -8.96000004      -5.33622426E-08
  -8.94999981      -5.33666693E-08
  -8.93999958      -5.33650777E-08
  -8.93000031      -5.33579225E-08
  -8.92000008      -5.33458326E-08
  -8.90999985      -5.33294262E-08
  -8.89999962      -5.33094529E-08
  -8.89000034      -5.32867475E-08
  -8.88000011      -5.32620881E-08
  -8.86999989      -5.32364126E-08
  -8.85999966      -5.32106732E-08
  -8.85000038      -5.31858788E-08
  -8.84000015      -5.31630455E-08
  -8.82999992      -5.31432924E-08
  -8.81999969      -5.31279696E-08
  -8.81000042      -5.31182458E-08
  -8.80000019      -5.31155671E-08
  -8.78999996      -5.31212905E-08
  -8.77999973      -5.31368940E-08
  -8.77000046      -5.31637880E-08
  -8.76000023      -5.32035038E-08
  -8.75000000      -5.32574020E-08
  -8.73999977      -5.33269535E-08
  -8.72999954      -5.34136753E-08
  -8.72000027      -5.35187645E-08
  -8.71000004      -5.36439018E-08
  -8.69999981      -5.37903979E-08
  -8.68999958      -5.39595852E-08
  -8.68000031      -5.41530270E-08
  -8.67000008      -5.43718848E-08
  -8.65999985      -5.46174306E-08
  -8.64999962      -5.48907693E-08
  -8.64000034      -5.51929347E-08
  -8.63000011      -5.55250992E-08
  -8.61999989      -5.58880657E-08
  -8.60999966      -5.62830103E-08
  -8.60000038      -5.67107712E-08
  -8.59000015      -5.71723930E-08
  -8.57999992      -5.76685082E-08
  -8.56999969      -5.82000439E-08
  -8.56000042      -5.87675792E-08
  -8.55000019      -5.93715903E-08
  -8.53999996      -6.00125176E-08
  -8.52999973      -6.06907378E-08
  -8.52000046      -6.14063396E-08
  -8.51000023      -6.21596072E-08
  -8.50000000      -6.29506047E-08
  -8.48999977      -6.37794031E-08
  -8.47999954      -6.46458318E-08
  -8.47000027      -6.55497914E-08
  -8.46000004      -6.64908555E-08
  -8.44999981      -6.74686547E-08
  -8.43999958      -6.84827981E-08
  -8.43000031      -6.95323763E-08
  -8.42000008      -7.06168777E-08
  -8.40999985      -7.17355988E-08
  -8.39999962      -7.28877154E-08
  -8.39000034      -7.40726520E-08
  -8.38000011      -7.52892504E-08
  -8.36999989      -7.65370203E-08
  -8.35999966      -7.78150451E-08
  -8.35000038      -7.91223229E-08
  -8.34000015      -8.04581575E-08
  -8.32999992      -8.18213906E-08
  -8.31999969      -8.32111411E-08
  -8.31000042      -8.46265351E-08
  -8.30000019      -8.60666916E-08
  -8.28999996      -8.75305872E-08
  -8.27999973      -8.90173197E-08
  -8.27000046      -9.05260436E-08
  -8.26000023      -9.20557639E-08
  -8.25000000      -9.36056423E-08
  -8.23999977      -9.51747694E-08
  -8.22999954      -9.67624487E-08
  -8.22000027      -9.83677424E-08
  -8.21000004      -9.99900323E-08
  -8.19999981      -1.01628416E-07
  -8.18999958      -1.03282396E-07
  -8.18000031      -1.04951333E-07
  -8.17000008      -1.06634801E-07
  -8.15999985      -1.08331975E-07
  -8.14999962      -1.10042450E-07
  -8.14000034      -1.11765758E-07
  -8.13000011      -1.13501336E-07
  -8.11999989      -1.15248596E-07
  -8.10999966      -1.17007062E-07
  -8.10000038      -1.18776384E-07
  -8.09000015      -1.20556024E-07
  -8.07999992      -1.22345526E-07
  -8.06999969      -1.24144719E-07
  -8.06000042      -1.25953335E-07
  -8.05000019      -1.27771045E-07
  -8.03999996      -1.29598007E-07
  -8.02999973      -1.31434007E-07
  -8.02000046      -1.33278974E-07
  -8.01000023      -1.35133277E-07
  -8.00000000      -1.36996604E-07
  -7.98999977      -1.38869154E-07
  -7.98000002      -1.40751084E-07
  -7.96999979      -1.42642591E-07
  -7.96000004      -1.44543662E-07
  -7.94999981      -1.46454795E-07
  -7.94000006      -1.48376103E-07
  -7.92999983      -1.50307798E-07
  -7.92000008      -1.52250124E-07
  -7.90999985      -1.54203079E-07
  -7.90000010      -1.56167104E-07
  -7.88999987      -1.58142342E-07
  -7.88000011      -1.60128877E-07
  -7.86999989      -1.62126739E-07
  -7.86000013      -1.64136097E-07
  -7.84999990      -1.66157292E-07
  -7.84000015      -1.68190425E-07
  -7.82999992      -1.70235310E-07
  -7.82000017      -1.72292303E-07
  -7.80999994      -1.74360949E-07
  -7.80000019      -1.76441603E-07
  -7.78999996      -1.78533895E-07
  -7.78000021      -1.80637500E-07
  -7.76999998      -1.82752430E-07
  -7.76000023      -1.84878544E-07
  -7.75000000      -1.87015715E-07
  -7.73999977      -1.89163387E-07
  -7.73000002      -1.91321661E-07
  -7.71999979      -1.93490450E-07
  -7.71000004      -1.95669330E-07
  -7.69999981      -1.97858157E-07
  -7.69000006      -2.00056789E-07
  -7.67999983      -2.02265028E-07
  -7.67000008      -2.04482717E-07
  -7.65999985      -2.06709672E-07
  -7.65000010      -2.08946133E-07
  -7.63999987      -2.11191903E-07
  -7.63000011      -2.13447279E-07
  -7.61999989      -2.15711978E-07
  -7.61000013      -2.17986226E-07
  -7.59999990      -2.20270095E-07
  -7.59000015      -2.22563727E-07
  -7.57999992      -2.24867549E-07
  -7.57000017      -2.27181474E-07
  -7.55999994      -2.29506057E-07
  -7.55000019      -2.31841241E-07
  -7.53999996      -2.34187667E-07
  -7.53000021      -2.36545944E-07
  -7.51999998      -2.38916328E-07
  -7.51000023      -2.41299176E-07
  -7.50000000      -2.43694927E-07
  -7.48999977      -2.46104378E-07
  -7.48000002      -2.48527556E-07
  -7.46999979      -2.50965144E-07
  -7.46000004      -2.53417255E-07
  -7.44999981      -2.55885055E-07
  -7.44000006      -2.58368743E-07