  -16.0000000       0.00000000    
  -15.9899998       0.00000000    
  -15.9799995       0.00000000    
  -15.9700003       0.00000000    
  -15.9600000       0.00000000    
  -15.9499998       0.00000000    
  -15.9399996       0.00000000    
  -15.9300003       0.00000000    
  -15.9200001       0.00000000    
  -15.9099998      -1.68155816E-44
  -15.8999996       2.13698016E-42
  -15.8900003       2.60137047E-41
  -15.8800001       9.19801102E-40
  -15.8699999       1.16650838E-38
  -15.8599997       5.57439556E-38
  -15.8500004      -1.46391902E-37
  -15.8400002      -4.21273384E-36
  -15.8299999      -3.56925572E-35
  -15.8199997      -2.03530212E-34
  -15.8100004      -9.03097229E-34
  -15.8000002      -3.31045584E-33
  -15.7900000      -1.03527624E-32
  -15.7799997      -2.81571863E-32
  -15.7700005      -6.73797535E-32
  -15.7600002      -1.42737223E-31
  -15.7500000      -2.68017908E-31
  -15.7399998      -4.44229707E-31
  -15.7299995      -6.42324438E-31
  -15.7200003      -7.89968879E-31
  -15.7100000      -7.80933465E-31
  -15.6999998      -5.26418062E-31
  -15.6899996      -4.65619866E-32
  -15.6800003       4.49399061E-31
  -15.6700001       6.07104699E-31
  -15.6599998       2.25326327E-31
  -15.6499996      -1.70356697E-31
  -15.6400003       1.25261355E-30
  -15.6300001       7.54880805E-30
  -15.6199999       2.13334628E-29
  -15.6099997       4.10150886E-29
  -15.6000004       5.58012262E-29
  -15.5900002       4.26983483E-29
  -15.5799999      -2.90691079E-29
  -15.5699997      -1.80875576E-28
  -15.5600004      -3.94242217E-28
  -15.5500002      -5.77241408E-28
  -15.5400000      -5.51602081E-28
  -15.5299997      -9.32857571E-29
  -15.5200005       9.48263771E-28
  -15.5100002       2.46112315E-27
  -15.5000000       3.88121222E-27
  -15.4899998       4.13723648E-27
  -15.4799995       1.89641488E-27
  -15.4700003      -3.77935980E-27
  -15.4600000      -1.24370624E-26
  -15.4499998      -2.12524366E-26
  -15.4399996      -2.47180752E-26
  -15.4300003      -1.57749286E-26
  -15.4200001       1.10980750E-26
  -15.4099998       5.51078753E-26
  -15.3999996       1.04203866E-25
  -15.3900003       1.32816677E-25
  -15.3800001       1.05829561E-25
  -15.3699999      -8.47792975E-27
  -15.3599997      -2.16799142E-25
  -15.3500004      -4.76004587E-25
  -15.3400002      -6.76923614E-25
  -15.3299999      -6.52934551E-25
  -15.3199997      -2.28469649E-25
  -15.3100004       6.87986648E-25
  -15.3000002       1.98330695E-24
  -15.2900000       3.23747273E-24
  -15.2799997       3.71180868E-24
  -15.2700005       2.50609178E-24
  -15.2600002      -1.07010343E-24
  -15.2500000      -6.95102026E-24
  -15.2399998      -1.37608029E-23
  -15.2299995      -1.85525601E-23
  -15.2200003      -1.72066988E-23
  -15.2100000      -5.76521835E-24
  -15.1999998       1.73322712E-23
  -15.1899996       4.86647977E-23
  -15.1800003       7.80422050E-23
  -15.1700001       8.90366099E-23
  -15.1599998       6.31679613E-23
  -15.1499996      -1.19665971E-23
  -15.1400003      -1.32240843E-22
  -15.1300001      -2.68156541E-22
  -15.1199999      -3.63260349E-22
  -15.1099997      -3.45287220E-22
  -15.1000004      -1.52305627E-22
  -15.0900002       2.30239089E-22
  -15.0799999       7.33808966E-22
  -15.0699997       1.19125226E-21
  -15.0600004       1.36113438E-21
  -15.0500002       1.00268204E-21
  -15.0400000      -7.40954645E-24
  -15.0299997      -1.55109330E-21
  -15.0200005      -3.19558834E-21
  -15.0100002      -4.23413520E-21
  -15.0000000      -3.88165690E-21
  -14.9899998      -1.61049541E-21
  -14.9799995       2.46612267E-21
  -14.9700003       7.32685890E-21
  -14.9600000       1.10818606E-20
  -14.9499998       1.14549361E-20
  -14.9399996       6.69381128E-21
  -14.9300003      -3.32468647E-21
  -14.9200001      -1.62402389E-20
  -14.9099998      -2.71492083E-20
  -14.8999996      -2.97618841E-20
  -14.8900003      -1.88111373E-20
  -14.8800001       6.84834865E-21
  -14.8699999       4.16224553E-20
  -14.8599997       7.25540407E-20
  -14.8500004       8.19800287E-20
  -14.8400002       5.38054557E-20
  -14.8299999      -1.78348573E-20
  -14.8199997      -1.20483432E-19
  -14.8100004      -2.19946885E-19
  -14.8000002      -2.65452702E-19
  -14.7900000      -2.05145665E-19
  -14.7799997      -9.78145760E-21
  -14.7700005       3.02255725E-19
  -14.7600002       6.49273088E-19
  -14.7500000       8.91336224E-19
  -14.7399998       8.63545695E-19
  -14.7299995       4.36056118E-19
  -14.7200003      -4.12796652E-19
  -14.7100000      -1.53546611E-18
  -14.6999998      -2.59729935E-18
  -14.6899996      -3.12813755E-18
  -14.6800003      -2.65232920E-18
  -14.6700001      -8.77939827E-19
  -14.6599998       2.10563540E-18
  -14.6499996       5.69619193E-18
  -14.6400003       8.79143106E-18
  -14.6300001       9.99853573E-18
  -14.6199999       8.03811437E-18
  -14.6099997       2.26576640E-18
  -14.6000004      -6.83757627E-18
  -14.5900002      -1.73976481E-17
  -14.5799999      -2.62791426E-17
  -14.5699997      -2.97141970E-17
  -14.5600004      -2.43794363E-17
  -14.5500002      -8.70058595E-18
  -14.5400000       1.59875649E-17
  -14.5299997       4.48681095E-17
  -14.5200005       7.00385074E-17
  -14.5100002       8.20529286E-17
  -14.5000000       7.24613724E-17
  -14.4899998       3.68273349E-17
  -14.4799995      -2.25986951E-17
  -14.4700003      -9.54949048E-17
  -14.4600000      -1.64174374E-16
  -14.4499998      -2.06749082E-16
  -14.4399996      -2.02461283E-16
  -14.4300003      -1.38157850E-16
  -14.4200001      -1.42811525E-17
  -14.4099998       1.51509842E-16
  -14.3999996       3.24736365E-16
  -14.3900003       4.59388795E-16
  -14.3800001       5.07781799E-16
  -14.3699999       4.33282658E-16
  -14.3599997       2.23039789E-16
  -14.3500004      -1.02785920E-16
  -14.3400002      -4.88564422E-16
  -14.3299999      -8.49631856E-16
  -14.3199997      -1.08777485E-15
  -14.3100004      -1.11354244E-15
  -14.3000002      -8.70934417E-16
  -14.2900000      -3.58553546E-16
  -14.2799997       3.58866552E-16
  -14.2700005       1.15326363E-15
  -14.2600002       1.85226179E-15
  -14.2500000       2.27249538E-15
  -14.2399998       2.26143567E-15
  -14.2299995       1.73886176E-15
  -14.2200003       7.27829524E-16
  -14.2100000      -6.33929304E-16
  -14.1999998      -2.10775361E-15
  -14.1899996      -3.39316253E-15
  -14.1800003      -4.18643197E-15
  -14.1700001      -4.24731542E-15
  -14.1599998      -3.45932067E-15
  -14.1499996      -1.86892589E-15
  -14.1400003       3.07329441E-16
  -14.1300001       2.71230644E-15
  -14.1199999       4.91041771E-15
  -14.1099997       6.47060200E-15
  -14.1000004       7.05264916E-15
  -14.0900002       6.47777129E-15
  -14.0799999       4.76739831E-15
  -14.0699997       2.14136515E-15
  -14.0600004      -1.02366695E-15
  -14.0500002      -4.26512853E-15
  -14.0400000      -7.11746031E-15
  -14.0299997      -9.18742926E-15
  -14.0200005      -1.02054104E-14
  -14.0100002      -1.00439973E-14
  -14.0000000      -8.70548445E-15
  -13.9899998      -6.28920354E-15
  -13.9799995      -2.95543051E-15
  -13.9700003       1.09743442E-15
  -13.9600000       5.63191868E-15
  -13.9499998       1.03468878E-14
  -13.9399996       1.48413488E-14
  -13.9300003       1.85877484E-14
  -13.9200001       2.09388137E-14
  -13.9099998       2.11864827E-14
  -13.8999996       1.86783453E-14
  -13.8900003       1.29789291E-14
  -13.8800001       4.04506259E-15
  -13.8699999      -7.62811021E-15
  -13.8599997      -2.09367707E-14
  -13.8500004      -3.42105935E-14
  -13.8400002      -4.53836086E-14
  -13.8299999      -5.22821566E-14
  -13.8199997      -5.29893241E-14
  -13.8100004      -4.62230386E-14
  -13.8000002      -3.16542480E-14
  -13.7900000      -1.00974340E-14
  -13.7799997       1.64741572E-14
  -13.7700005       4.51039183E-14
  -13.7600002       7.21974902E-14
  -13.7500000       9.39855968E-14
  -13.7399998       1.07029511E-13
  -13.7299995       1.08689072E-13
  -13.7200003       9.74836124E-14
  -13.7100000       7.33002119E-14
  -13.6999998       3.74346753E-14
  -13.6899996      -7.51921481E-15
  -13.6800003      -5.78947562E-14
  -13.6700001      -1.09245071E-13
  -13.6599998      -1.56663324E-13
  -13.6499996      -1.95105556E-13
  -13.6400003      -2.19712866E-13
  -13.6300001      -2.26146589E-13
  -13.6199999      -2.10957160E-13
  -13.6099997      -1.71996179E-13
  -13.6000004      -1.08858892E-13
  -13.5900002      -2.33079394E-14
  -13.5799999       8.04013296E-14
  -13.5699997       1.95395959E-13
  -13.5600004       3.12358592E-13
  -13.5500002       4.20064591E-13
  -13.5400000       5.06290051E-13
  -13.5299997       5.59020332E-13
  -13.5200005       5.67813212E-13
  -13.5100002       5.25111638E-13
  -13.5000000       4.27282721E-13
  -13.4899998       2.75189702E-13
  -13.4799995       7.41826237E-14
  -13.4700003      -1.66497174E-13
  -13.4600000      -4.34763716E-13
  -13.4499998      -7.16947660E-13
  -13.4399996      -9.98963065E-13
  -13.4300003      -1.26706512E-12
  -13.4200001      -1.50795966E-12
  -13.4099998      -1.70814307E-12
  -13.3999996      -1.85253332E-12
  -13.3900003      -1.92260942E-12
  -13.3800001      -1.89441041E-12
  -13.3699999      -1.73682737E-12
  -13.3599997      -1.41062563E-12
  -13.3500004      -8.68524165E-13
  -13.3400002      -5.65564915E-14
  -13.3299999       1.08323517E-12
  -13.3199997       2.60890853E-12
  -13.3100004       4.57375977E-12
  -13.3000002       7.02084051E-12
  -13.2900000       9.97720656E-12
  -13.2799997       1.34483587E-11
  -13.2700005       1.74131473E-11
  -13.2600002       2.18195878E-11
  -13.2500000       2.65819207E-11
  -13.2399998       3.15792149E-11
  -13.2299995       3.66559144E-11
  -13.2200003       4.16246551E-11
  -13.2100000       4.62714346E-11
  -13.1999998       5.03633454E-11
  -13.1899996       5.36585568E-11
  -13.1800003       5.59182596E-11
  -13.1700001       5.69197814E-11
  -13.1599998       5.64698739E-11
  -13.1499996       5.44171097E-11
  -13.1400003       5.06621411E-11
  -13.1300001       4.51648406E-11
  -13.1199999       3.79474022E-11
  -13.1099997       2.90929312E-11
  -13.1000004       1.87397129E-11
  -13.0900002       7.07162801E-12
  -13.0799999      -5.69440805E-12
  -13.0699997      -1.93225852E-11
  -13.0600004      -3.35725094E-11
  -13.0500002      -4.82121600E-11
  -13.0400000      -6.30283672E-11
  -13.0299997      -7.78339268E-11
  -13.0200005      -9.24707672E-11
  -13.0100002      -1.06809270E-10
  -13.0000000      -1.20744179E-10
  -12.9899998      -1.34187786E-10
  -12.9799995      -1.47061668E-10
  -12.9700003      -1.59287417E-10
  -12.9600000      -1.70778044E-10
  -12.9499998      -1.81430468E-10
  -12.9399996      -1.91120009E-10
  -12.9300003      -1.99697509E-10
  -12.9200001      -2.06988413E-10
  -12.9099998      -2.12795614E-10
  -12.8999996      -2.16904134E-10
  -12.8900003      -2.19088622E-10
  -12.8800001      -2.19122345E-10
  -12.8699999      -2.16787574E-10
  -12.8599997      -2.11886772E-10
  -12.8500004      -2.04252559E-10
  -12.8400002      -1.93757455E-10
  -12.8299999      -1.80320023E-10
  -12.8199997      -1.63910163E-10
  -12.8100004      -1.44550219E-10
  -12.8000002      -1.22313409E-10
  -12.7900000      -9.73202144E-11
  -12.7799997      -6.97325808E-11
  -12.7700005      -3.97474588E-11
  -12.7600002      -7.59015854E-12
  -12.7500000       2.64917810E-11
  -12.7399998       6.22330798E-11
  -12.7299995       9.93542748E-11
  -12.7200003       1.37563808E-10
  -12.7100000       1.76558990E-10
  -12.6999998       2.16026405E-10
  -12.6899996       2.55642368E-10
  -12.6800003       2.95073382E-10
  -12.6700001       3.33977096E-10
  -12.6599998       3.72004566E-10
  -12.6499996       4.08802409E-10
  -12.6400003       4.44016907E-10
  -12.6300001       4.77297868E-10
  -12.6199999       5.08304177E-10
  -12.6099997       5.36709399E-10
  -12.6000004       5.62207947E-10
  -12.5900002       5.84521431E-10
  -12.5799999       6.03403105E-10
  -12.5699997       6.18641804E-10
  -12.5600004       6.30063002E-10
  -12.5500002       6.37527309E-10
  -12.5400000       6.40926812E-10
  -12.5299997       6.40177689E-10
  -12.5200005       6.35213437E-10
  -12.5100002       6.25974383E-10
  -12.5000000       6.12400630E-10
  -12.4899998       5.94425287E-10
  -12.4799995       5.71970360E-10
  -12.4700003       5.44945866E-10
  -12.4600000       5.13251441E-10
  -12.4499998       4.76780559E-10
  -12.4399996       4.35425945E-10
  -12.4300003       3.89087484E-10
  -12.4200001       3.37678080E-10
  -12.4099998       2.81131007E-10
  -12.3999996       2.19405383E-10
  -12.3900003       1.52492741E-10
  -12.3800001       8.04182346E-11
  -12.3699999       3.24584218E-12
  -12.3599997      -7.89207796E-11
  -12.3500004      -1.65936528E-10
  -12.3400002      -2.57614929E-10
  -12.3299999      -3.53727603E-10
  -12.3199997      -4.54004390E-10
  -12.3100004      -5.58134094E-10
  -12.3000002      -6.65766664E-10
  -12.2900000      -7.76514408E-10
  -12.2799997      -8.89955443E-10
  -12.2700005      -1.00563902E-09
  -12.2600002      -1.12309317E-09
  -12.2500000      -1.24183386E-09
  -12.2399998      -1.36137657E-09
  -12.2299995      -1.48124757E-09
  -12.2200003      -1.60099689E-09
  -12.2100000      -1.72020764E-09
  -12.1999998      -1.83850846E-09
  -12.1899996      -1.95558059E-09
  -12.1800003      -2.07116302E-09
  -12.1700001      -2.18506213E-09
  -12.1599998      -2.29715180E-09
  -12.1499996      -2.40737874E-09
  -12.1400003      -2.51576338E-09
  -12.1300001      -2.62239830E-09
  -12.1199999      -2.72744094E-09
  -12.1099997      -2.83110313E-09
  -12.1000004      -2.93363622E-09
  -12.0900002      -3.03530556E-09
  -12.0799999      -3.13636739E-09
  -12.0699997      -3.23704619E-09
  -12.0600004      -3.33750583E-09
  -12.0500002      -3.43783446E-09
  -12.0400000      -3.53803120E-09
  -12.0299997      -3.63800323E-09
  -12.0200005      -3.73756492E-09
  -12.0100002      -3.83644982E-09
  -12.0000000      -3.93432709E-09
  -11.9899998      -4.03081568E-09
  -11.9799995      -4.12549772E-09
  -11.9700003      -4.21794999E-09
  -11.9600000      -4.30775948E-09
  -11.9499998      -4.39454162E-09
  -11.9399996      -4.47796022E-09
  -11.9300003      -4.55774352E-09
  -11.9200001      -4.63369654E-09
  -11.9099998      -4.70571049E-09
  -11.8999996      -4.77376227E-09
  -11.8900003      -4.83790830E-09
  -11.8800001      -4.89827734E-09
  -11.8699999      -4.95505725E-09
  -11.8599997      -5.00848829E-09
  -11.8500004      -5.05884001E-09
  -11.8400002      -5.10639753E-09
  -11.8299999      -5.15146326E-09
  -11.8199997      -5.19433829E-09
  -11.8100004      -5.23531796E-09
  -11.8000002      -5.27468647E-09
  -11.7900000      -5.31270850E-09
  -11.7799997      -5.34962474E-09
  -11.7700005      -5.38564304E-09
  -11.7600002      -5.42093437E-09
  -11.7500000      -5.45561463E-09
  -11.7399998      -5.48975532E-09
  -11.7299995      -5.52337953E-09
  -11.7200003      -5.55644419E-09
  -11.7100000      -5.58885782E-09
  -11.6999998      -5.62046232E-09
  -11.6899996      -5.65105474E-09
  -11.6800003      -5.68038638E-09
  -11.6700001      -5.70818193E-09
  -11.6599998      -5.73414072E-09
  -11.6499996      -5.75798875E-09
  -11.6400003      -5.77944315E-09
  -11.6300001      -5.79828319E-09
  -11.6199999      -5.81430859E-09
  -11.6099997      -5.82739368E-09
  -11.6000004      -5.83746074E-09
  -11.5900002      -5.84448445E-09
  -11.5799999      -5.84847815E-09
  -11.5699997      -5.84950710E-09
  -11.5600004      -5.84766680E-09
  -11.5500002      -5.84309223E-09
  -11.5400000      -5.83595705E-09
  -11.5299997      -5.82647797E-09
  -11.5200005      -5.81492499E-09
  -11.5100002      -5.80160675E-09
  -11.5000000      -5.78687276E-09
  -11.4899998      -5.77113601E-09
  -11.4799995      -5.75480552E-09
  -11.4700003      -5.73829873E-09
  -11.4600000      -5.72206105E-09
  -11.4499998      -5.70648506E-09
  -11.4399996      -5.69195180E-09
  -11.4300003      -5.67880010E-09
  -11.4200001      -5.66733815E-09
  -11.4099998      -5.65783820E-09
  -11.3999996      -5.65051383E-09
  -11.3900003      -5.64555336E-09
  -11.3800001      -5.64307134E-09
  -11.3699999      -5.64315261E-09
  -11.3599997      -5.64579583E-09
  -11.3500004      -5.65097213E-09
  -11.3400002      -5.65860070E-09
  -11.3299999      -5.66854386E-09
  -11.3199997      -5.68063285E-09
  -11.3100004      -5.69469716E-09
  -11.3000002      -5.71057202E-09
  -11.2900000      -5.72811043E-09
  -11.2799997      -5.74719383E-09
  -11.2700005      -5.76775516E-09
  -11.2600002      -5.78976200E-09
  -11.2500000      -5.81322990E-09
  -11.2399998      -5.83820770E-09
  -11.2299995      -5.86481663E-09
  -11.2200003      -5.89320015E-09
  -11.2100000      -5.92352789E-09
  -11.1999998      -5.95600858E-09
  -11.1899996      -5.99088157E-09
  -11.1800003      -6.02841288E-09
  -11.1700001      -6.06888895E-09
  -11.1599998      -6.11261308E-09
  -11.1499996      -6.15988904E-09
  -11.1400003      -6.21105167E-09
  -11.1300001      -6.26644070E-09
  -11.1199999      -6.32639052E-09
  -11.1099997      -6.39124131E-09
  -11.1000004      -6.46132214E-09
  -11.0900002      -6.53693855E-09
  -11.0799999      -6.61837829E-09
  -11.0699997      -6.70594957E-09
  -11.0600004      -6.79988776E-09
  -11.0500002      -6.90044644E-09
  -11.0400000      -7.00786895E-09
  -11.0299997      -7.12235337E-09
  -11.0200005      -7.24411509E-09
  -11.0100002      -7.37333838E-09
  -11.0000000      -7.51021467E-09
  -10.9899998      -7.65488117E-09
  -10.9799995      -7.80748177E-09
  -10.9700003      -7.96812660E-09
  -10.9600000      -8.13690271E-09
  -10.9499998      -8.31391667E-09
  -10.9399996      -8.49923776E-09
  -10.9300003      -8.69289973E-09
  -10.9200001      -8.89497631E-09
  -10.9099998      -9.10552789E-09
  -10.8999996      -9.32461841E-09
  -10.8900003      -9.55231716E-09
  -10.8800001      -9.78866943E-09
  -10.8699999      -1.00337063E-08
  -10.8599997      -1.02874242E-08
  -10.8500004      -1.05497477E-08
  -10.8400002      -1.08205560E-08
  -10.8299999      -1.10996341E-08
  -10.8199997      -1.13866871E-08
  -10.8100004      -1.16813821E-08
  -10.8000002      -1.19833263E-08
  -10.7900000      -1.22920722E-08
  -10.7799997      -1.26071473E-08
  -10.7700005      -1.29280764E-08
  -10.7600002      -1.32543700E-08
  -10.7500000      -1.35855451E-08
  -10.7399998      -1.39211087E-08
  -10.7299995      -1.42605776E-08
  -10.7200003      -1.46034491E-08
  -10.7100000      -1.49492365E-08
  -10.6999998      -1.52974380E-08
  -10.6899996      -1.56475615E-08
  -10.6800003      -1.59990812E-08
  -10.6700001      -1.63514624E-08
  -10.6599998      -1.67041918E-08
  -10.6499996      -1.70566956E-08
  -10.6400003      -1.74084196E-08
  -10.6300001      -1.77587847E-08
  -10.6199999      -1.81072135E-08
  -10.6099997      -1.84531110E-08
  -10.6000004      -1.87958911E-08
  -10.5900002      -1.91350384E-08
  -10.5799999      -1.94700647E-08
  -10.5699997      -1.98005399E-08
  -10.5600004      -2.01261319E-08
  -10.5500002      -2.04465902E-08
  -10.5400000      -2.07617479E-08
  -10.5299997      -2.10715392E-08
  -10.5200005      -2.13759588E-08
  -10.5100002      -2.16751186E-08
  -10.5000000      -2.19691714E-08
  -10.4899998      -2.22583854E-08
  -10.4799995      -2.25430412E-08
  -10.4700003      -2.28235244E-08
  -10.4600000      -2.31001938E-08
  -10.4499998      -2.33734490E-08
  -10.4399996      -2.36437785E-08
  -10.4300003      -2.39116176E-08
  -10.4200001      -2.41774121E-08
  -10.4099998      -2.44415546E-08
  -10.3999996      -2.47044341E-08
  -10.3900003      -2.49664254E-08
  -10.3800001      -2.52278944E-08
  -10.3699999      -2.54891201E-08
  -10.3599997      -2.57504364E-08
  -10.3500004      -2.60121880E-08
  -10.3400002      -2.62746305E-08
  -10.3299999      -2.65381406E-08
  -10.3199997      -2.68030433E-08
  -10.3100004      -2.70696443E-08
  -10.3000002      -2.73382543E-08
  -10.2900000      -2.76091292E-08
  -10.2799997      -2.78826402E-08
  -10.2700005      -2.81590058E-08
  -10.2600002      -2.84384960E-08
  -10.2500000      -2.87214128E-08
  -10.2399998      -2.90080564E-08
  -10.2299995      -2.92986808E-08
  -10.2200003      -2.95936005E-08
  -10.2100000      -2.98930374E-08
  -10.1999998      -3.01972705E-08
  -10.1899996      -3.05064809E-08
  -10.1800003      -3.08208143E-08
  -10.1700001      -3.11404271E-08
  -10.1599998      -3.14654258E-08
  -10.1499996      -3.17959099E-08
  -10.1400003      -3.21320286E-08
  -10.1300001      -3.24738778E-08
  -10.1199999      -3.28215641E-08
  -10.1099997      -3.31751799E-08
  -10.1000004      -3.35347217E-08
  -10.0900002      -3.39001396E-08
  -10.0799999      -3.42713022E-08
  -10.0699997      -3.46479823E-08
  -10.0600004      -3.50298244E-08
  -10.0500002      -3.54164271E-08
  -10.0400000      -3.58074175E-08
  -10.0299997      -3.62022980E-08
  -10.0200005      -3.66005928E-08
  -10.0100002      -3.70018221E-08
  -10.0000000      -3.74055169E-08
  -9.98999977      -3.78111835E-08
  -9.97999954      -3.82183423E-08
  -9.97000027      -3.86265171E-08
  -9.96000004      -3.90353030E-08
  -9.94999981      -3.94443092E-08
  -9.93999958      -3.98530844E-08
  -9.93000031      -4.02614155E-08
  -9.92000008      -4.06689544E-08
  -9.90999985      -4.10753955E-08
  -9.89999962      -4.14805008E-08
  -9.89000034      -4.18840713E-08
  -9.88000011      -4.22857838E-08
  -9.86999989      -4.26854214E-08
  -9.85999966      -4.30826788E-08
  -9.85000038      -4.34773675E-08
  -9.84000015      -4.38692815E-08
  -9.82999992      -4.42582753E-08
  -9.81999969      -4.46443771E-08
  -9.81000042      -4.50274946E-08
  -9.80000019      -4.54076954E-08
  -9.78999996      -4.57851392E-08
  -9.77999973      -4.61598724E-08
  -9.77000046      -4.65320582E-08
  -9.76000023      -4.69020023E-08
  -9.75000000      -4.72698503E-08
  -9.73999977      -4.76359858E-08
  -9.72999954      -4.80007323E-08
  -9.72000027      -4.83644378E-08
  -9.71000004      -4.87276104E-08
  -9.69999981      -4.90906551E-08
  -9.68999958      -4.94540053E-08
  -9.68000031      -4.98180732E-08
  -9.67000008      -5.01831963E-08
  -9.65999985      -5.05496409E-08
  -9.64999962      -5.09176381E-08
  -9.64000034      -5.12874010E-08
  -9.63000011      -5.16591925E-08
  -9.61999989      -5.20331440E-08
  -9.60999966      -5.24095078E-08
  -9.60000038      -5.27883728E-08
  -9.59000015      -5.31698987E-08
  -9.57999992      -5.35540288E-08
  -9.56999969      -5.39407630E-08
  -9.56000042      -5.43299379E-08
  -9.55000019      -5.47213297E-08
  -9.53999996      -5.51147323E-08
  -9.52999973      -5.55099575E-08
  -9.52000046      -5.59066997E-08
  -9.51000023      -5.63046889E-08
  -9.50000000      -5.67037830E-08
  -9.48999977      -5.71037120E-08
  -9.47999954      -5.75041277E-08
  -9.47000027      -5.79048915E-08
  -9.46000004      -5.83055844E-08
  -9.44999981      -5.87059112E-08
  -9.43999958      -5.91054459E-08
  -9.43000031      -5.95038792E-08
  -9.42000008      -5.99008700E-08
  -9.40999985      -6.02962373E-08
  -9.39999962      -6.06898496E-08
  -9.39000034      -6.10814794E-08
  -9.38000011      -6.14712974E-08
  -9.36999989      -6.18592964E-08
  -9.35999966      -6.22454905E-08
  -9.35000038      -6.26300505E-08
  -9.34000015      -6.30130259E-08
  -9.32999992      -6.33946584E-08
  -9.31999969      -6.37751469E-08
  -9.31000042      -6.41549107E-08
  -9.30000019      -6.45344969E-08
  -9.28999996      -6.49146088E-08
  -9.27999973      -6.52958150E-08
  -9.27000046      -6.56789823E-08
  -9.26000023      -6.60649846E-08
  -9.25000000      -6.64546889E-08
  -9.23999977      -6.68489477E-08
  -9.22999954      -6.72490401E-08
  -9.22000027      -6.76560106E-08
  -9.21000004      -6.80709888E-08
  -9.19999981      -6.84954173E-08
  -9.18999958      -6.89306603E-08
  -9.18000031      -6.93781246E-08
  -9.17000008      -6.98392881E-08
  -9.15999985      -7.03158420E-08
  -9.14999962      -7.08089374E-08
  -9.14000034      -7.13200308E-08
  -9.13000011      -7.18503159E-08
  -9.11999989      -7.24012565E-08
  -9.10999966      -7.29740890E-08
  -9.10000038      -7.35700851E-08
  -9.09000015      -7.41904529E-08
  -9.07999992      -7.48366205E-08
  -9.06999969      -7.55098313E-08
  -9.06000042      -7.62115278E-08
  -9.05000019      -7.69427118E-08
  -9.03999996      -7.77048470E-08
  -9.02999973      -7.84988359E-08
  -9.02000046      -7.93256447E-08
  -9.01000023      -8.01863607E-08
  -9.00000000      -8.10818079E-08
  -8.98999977      -8.20129529E-08
  -8.97999954      -8.29805629E-08
  -8.97000027      -8.39854195E-08
  -8.96000004      -8.50283257E-08
  -8.94999981      -8.61097860E-08
  -8.93999958      -8.72303261E-08
  -8.93000031      -8.83901734E-08
  -8.92000008      -8.95895909E-08
  -8.90999985      -9.08287205E-08
  -8.89999962      -9.21075767E-08
  -8.89000034      -9.34261095E-08
  -8.88000011      -9.47841841E-08
  -8.86999989      -9.61817292E-08
  -8.85999966      -9.76185248E-08
  -8.85000038      -9.90942866E-08
  -8.84000015      -1.00608680E-07
  -8.82999992      -1.02161167E-07
  -8.81999969      -1.03751177E-07
  -8.81000042      -1.05377921E-07
  -8.80000019      -1.07040741E-07
  -8.78999996      -1.08738533E-07
  -8.77999973      -1.10470637E-07
  -8.77000046      -1.12236158E-07
  -8.76000023      -1.14034002E-07
  -8.75000000      -1.15863422E-07
  -8.73999977      -1.17723289E-07
  -8.72999954      -1.19612451E-07
  -8.72000027      -1.21529794E-07
  -8.71000004      -1.23474152E-07
  -8.69999981      -1.25444430E-07
  -8.68999958      -1.27439293E-07
  -8.68000031      -1.29457845E-07
  -8.67000008      -1.31498851E-07
  -8.65999985      -1.33561514E-07
  -8.64999962      -1.35644569E-07
  -8.64000034      -1.37747236E-07
  -8.63000011      -1.39868789E-07
  -8.61999989      -1.42008219E-07
  -8.60999966      -1.44164801E-07
  -8.60000038      -1.46337470E-07
  -8.59000015      -1.48525672E-07
  -8.57999992      -1.50728724E-07
  -8.56999969      -1.52945702E-07
  -8.56000042      -1.55175840E-07
  -8.55000019      -1.57418853E-07
  -8.53999996      -1.59673917E-07
  -8.52999973      -1.61940577E-07
  -8.52000046      -1.64218363E-07
  -8.51000023      -1.66506751E-07
  -8.50000000      -1.68805272E-07
  -8.48999977      -1.71113513E-07
  -8.47999954      -1.73431260E-07
  -8.47000027      -1.75757975E-07
  -8.46000004      -1.78093714E-07
  -8.44999981      -1.80437965E-07
  -8.43999958      -1.82790842E-07
  -8.43000031      -1.85152501E-07
  -8.42000008      -1.87522573E-07
  -8.40999985      -1.89901073E-07
  -8.39999962      -1.92287629E-07
  -8.39000034      -1.94682414E-07
  -8.38000011      -1.97085527E-07
  -8.36999989      -1.99496526E-07
  -8.35999966      -2.01915228E-07
  -8.35000038      -2.04341845E-07
  -8.34000015      -2.06776093E-07
  -8.32999992      -2.09217859E-07
  -8.31999969      -2.11667270E-07
  -8.31000042      -2.14124327E-07
  -8.30000019      -2.16588617E-07
  -8.28999996      -2.19060411E-07
  -8.27999973      -2.21539352E-07
  -8.27000046      -2.24025328E-07
  -8.26000023      -2.26517926E-07
  -8.25000000      -2.29017218E-07
  -8.23999977      -2.31522904E-07
  -8.22999954      -2.34034871E-07
  -8.22000027      -2.36553248E-07
  -8.21000004      -2.39077764E-07
  -8.19999981      -2.41608461E-07
  -8.18999958      -2.44145383E-07
  -8.18000031      -2.46687847E-07
  -8.17000008      -2.49236280E-07
  -8.15999985      -2.51790567E-07
  -8.14999962      -2.54350908E-07
  -8.14000034      -2.56917446E-07
  -8.13000011      -2.59490520E-07
  -8.11999989      -2.62070643E-07
  -8.10999966      -2.64657984E-07
  -8.10000038      -2.67253085E-07
  -8.09000015      -2.69856741E-07
  -8.07999992      -2.72469492E-07
  -8.06999969      -2.75091850E-07
  -8.06000042      -2.77724752E-07
  -8.05000019      -2.80368624E-07
  -8.03999996      -2.83024775E-07
  -8.02999973      -2.85693659E-07
  -8.02000046      -2.88376953E-07
  -8.01000023      -2.91075509E-07
  -8.00000000      -2.93790151E-07
  -7.98999977      -2.96521733E-07
  -7.98000002      -2.99272102E-07
  -7.96999979      -3.02041599E-07
  -7.96000004      -3.04832071E-07
  -7.94999981      -3.07644484E-07
  -7.94000006      -3.10479209E-07
  -7.92999983      -3.13338120E-07
  -7.92000008      -3.16222014E-07
  -7.90999985      -3.19131658E-07
  -7.90000010      -3.22068757E-07
  -7.88999987      -3.25033881E-07
  -7.88000011      -3.28028619E-07
  -7.86999989      -3.31053457E-07
  -7.86000013      -3.34110098E-07
  -7.84999990      -3.37199197E-07
  -7.84000015      -3.40321634E-07
  -7.82999992      -3.43478320E-07
  -7.82000017      -3.46669964E-07
  -7.80999994      -3.49897618E-07
  -7.80000019      -3.53162307E-07
  -7.78999996      -3.56464795E-07
  -7.78000021      -3.59805540E-07
  -7.76999998      -3.63185990E-07
  -7.76000023      -3.66605974E-07
  -7.75000000      -3.70066545E-07
  -7.73999977      -3.73568042E-07
  -7.73000002      -3.77111036E-07
  -7.71999979      -3.80696292E-07
  -7.71000004      -3.84324011E-07
  -7.69999981      -3.87994419E-07
  -7.69000006      -3.91708625E-07
  -7.67999983      -3.95466458E-07
  -7.67000008      -3.99268146E-07
  -7.65999985      -4.03114257E-07
  -7.65000010      -4.07004649E-07
  -7.63999987      -4.10939236E-07
  -7.63000011      -4.14918560E-07
  -7.61999989      -4.18941966E-07
  -7.61000013      -4.23009936E-07
  -7.59999990      -4.27121790E-07
  -7.59000015      -4.31276902E-07
  -7.57999992      -4.35475783E-07
  -7.57000017      -4.39717951E-07
  -7.55999994      -4.44002637E-07
  -7.55000019      -4.48329416E-07
  -7.53999996      -4.52697805E-07
  -7.53000021      -4.57108030E-07
  -7.51999998      -4.61559068E-07
  -7.51000023      -4.66049983E-07
  -7.50000000      -4.70580517E-07
  -7.48999977      -4.75150244E-07
  -7.48000002      -4.79759365E-07
  -7.46999979      -4.84406655E-07
  -7.46000004      -4.89092145E-07
  -7.44999981      -4.93815094E-07
  -7.44000006      -4.98576469E-07