  -16.0000000       0.00000000    
  -15.9899998       0.00000000    
  -15.9799995       0.00000000    
  -15.9700003       0.00000000    
  -15.9600000       0.00000000    
  -15.9499998       0.00000000    
  -15.9399996       0.00000000    
  -15.9300003       0.00000000    
  -15.9200001       0.00000000    
  -15.9099998       0.00000000    
  -15.8999996      -0.00000000    
  -15.8900003      -2.66246708E-44
  -15.8800001      -5.56315490E-43
  -15.8699999      -6.62533914E-42
  -15.8599997      -5.64695255E-41
  -15.8500004      -3.58980437E-40
  -15.8400002      -1.70622662E-39
  -15.8299999      -5.85082606E-39
  -15.8199997      -1.19823224E-38
  -15.8100004       7.51696994E-39
  -15.8000002       1.99703192E-37
  -15.7900000       1.08514311E-36
  -15.7799997       4.07745406E-36
  -15.7700005       1.22174945E-35
  -15.7600002       3.05627383E-35
  -15.7500000       6.47655487E-35
  -15.7399998       1.15561518E-34
  -15.7299995       1.67565618E-34
  -15.7200003       1.74818154E-34
  -15.7100000       5.34116164E-35
  -15.6999998      -3.01033818E-34
  -15.6899996      -9.57608759E-34
  -15.6800003      -1.87272707E-33
  -15.6700001      -2.86498830E-33
  -15.6599998      -3.76455115E-33
  -15.6499996      -4.81199045E-33
  -15.6400003      -7.13155745E-33
  -15.6300001      -1.26327542E-32
  -15.6199999      -2.22402135E-32
  -15.6099997      -3.15299264E-32
  -15.6000004      -2.45044654E-32
  -15.5900002       3.01668643E-32
  -15.5799999       1.71587369E-31
  -15.5699997       4.16916719E-31
  -15.5600004       7.05086291E-31
  -15.5500002       8.29907381E-31
  -15.5400000       4.12350347E-31
  -15.5299997      -1.00495382E-30
  -15.5200005      -3.65669924E-30
  -15.5100002      -7.03645953E-30
  -15.5000000      -9.32704776E-30
  -15.4899998      -7.20204061E-30
  -15.4799995       3.36599967E-30
  -15.4700003       2.47138219E-29
  -15.4600000       5.35360436E-29
  -15.4499998       7.66799318E-29
  -15.4399996       6.97062598E-29
  -15.4300003       2.51727394E-30
  -15.4200001      -1.44273398E-28
  -15.4099998      -3.52685993E-28
  -15.3999996      -5.39150992E-28
  -15.3900003      -5.43988542E-28
  -15.3800001      -1.65254371E-28
  -15.3699999       7.40869861E-28
  -15.3599997       2.09621046E-27
  -15.3500004       3.42493206E-27
  -15.3400002       3.77817728E-27
  -15.3299999       1.91204149E-27
  -15.3199997      -3.15433621E-27
  -15.3100004      -1.12131324E-26
  -15.3000002      -1.98500376E-26
  -15.2900000      -2.39312342E-26
  -15.2799997      -1.64082082E-26
  -15.2700005       8.87583227E-27
  -15.2600002       5.23909213E-26
  -15.2500000       1.03453561E-25
  -15.2399998       1.36992019E-25
  -15.2299995       1.16534527E-25
  -15.2200003       6.88124369E-27
  -15.2100000      -2.03226088E-25
  -15.1999998      -4.74051466E-25
  -15.1899996      -6.96308687E-25
  -15.1800003      -6.99155439E-25
  -15.1700001      -3.01112029E-25
  -15.1599998       5.92546065E-25
  -15.1499996       1.86707599E-24
  -15.1400003       3.10221010E-24
  -15.1300001       3.57801866E-24
  -15.1199999       2.45474246E-24
  -15.1099997      -8.48281458E-25
  -15.1000004      -6.14381202E-24
  -15.0900002      -1.20285945E-23
  -15.0799999      -1.57849505E-23
  -15.0699997      -1.39260724E-23
  -15.0600004      -3.52626938E-24
  -15.0500002       1.58535341E-23
  -15.0400000       4.02775213E-23
  -15.0299997       6.06048575E-23
  -15.0200005       6.38293612E-23
  -15.0100002       3.72622677E-23
  -15.0000000      -2.48282973E-23
  -14.9899998      -1.14008008E-22
  -14.9799995      -2.03208537E-22
  -14.9700003      -2.48885161E-22
  -14.9600000      -2.02617863E-22
  -14.9499998      -3.18841674E-23
  -14.9399996       2.54968225E-22
  -14.9300003       5.89368610E-22
  -14.9200001       8.41291504E-22
  -14.9099998       8.46674186E-22
  -14.8999996       4.65883075E-22
  -14.8900003      -3.37923374E-22
  -14.8800001      -1.42693624E-21
  -14.8699999      -2.46027910E-21
  -14.8599997      -2.94439665E-21
  -14.8500004      -2.37873334E-21
  -14.8400002      -4.77417408E-22
  -14.8299999       2.59654377E-21
  -14.8199997       6.08410324E-21
  -14.8100004       8.67739766E-21
  -14.8000002       8.83143420E-21
  -14.7900000       5.32460563E-21
  -14.7799997      -2.06488151E-21
  -14.7700005      -1.20099638E-20
  -14.7600002      -2.15076572E-20
  -14.7500000      -2.64129497E-20
  -14.7399998      -2.26887564E-20
  -14.7299995      -8.14283380E-21
  -14.7200003       1.58815107E-20
  -14.7100000       4.35930160E-20
  -14.6999998       6.53180392E-20
  -14.6899996       6.99012919E-20
  -14.6800003       4.86720569E-20
  -14.6700001      -5.25474543E-23
  -14.6599998      -6.75730369E-20
  -14.6499996      -1.34337401E-19
  -14.6400003      -1.73691553E-19
  -14.6300001      -1.59903745E-19
  -14.6199999      -7.87936321E-20
  -14.6099997       6.23651983E-20
  -14.6000004       2.29910819E-19
  -14.5900002       3.67588311E-19
  -14.5799999       4.10675968E-19
  -14.5699997       3.08499207E-19
  -14.5600004       4.93823013E-20
  -14.5500002      -3.20922917E-19
  -14.5400000      -6.96813484E-19
  -14.5299997      -9.32888194E-19
  -14.5200005      -8.86421427E-19
  -14.5100002      -4.73545598E-19
  -14.5000000       2.77726925E-19
  -14.4899998       1.19889283E-18
  -14.4799995       1.99578685E-18
  -14.4700003       2.31580524E-18
  -14.4600000       1.85990341E-18
  -14.4499998       5.12765746E-19
  -14.4399996      -1.55057456E-18
  -14.4300003      -3.82805167E-18
  -14.4200001      -5.55964551E-18
  -14.4099998      -5.91155047E-18
  -14.3999996      -4.24705835E-18
  -14.3900003      -4.16974250E-19
  -14.3800001       5.02471442E-18
  -14.3699999       1.07766571E-17
  -14.3599997       1.49848367E-17
  -14.3500004       1.56831872E-17
  -14.3400002       1.14079919E-17
  -14.3299999       1.83639824E-18
  -14.3199997      -1.17502396E-17
  -14.3100004      -2.63766109E-17
  -14.3000002      -3.77917017E-17
  -14.2900000      -4.14062957E-17
  -14.2799997      -3.36031040E-17
  -14.2700005      -1.31201698E-17
  -14.2600002       1.78914270E-17
  -14.2500000       5.35382295E-17
  -14.2399998       8.48698492E-17
  -14.2299995       1.01637720E-16
  -14.2200003       9.48852859E-17
  -14.2100000       5.98306685E-17
  -14.1999998      -1.70992936E-18
  -14.1899996      -8.01513661E-17
  -14.1800003      -1.58842739E-16
  -14.1700001      -2.16879424E-16
  -14.1599998      -2.33724316E-16
  -14.1499996      -1.94772976E-16
  -14.1400003      -9.65597906E-17
  -14.1300001       4.98730352E-17
  -14.1199999       2.18718717E-16
  -14.1099997       3.72951386E-16
  -14.1000004       4.71479555E-16
  -14.0900002       4.78716393E-16
  -14.0799999       3.74520779E-16
  -14.0699997       1.62008802E-16
  -14.0600004      -1.29133508E-16
  -14.0500002      -4.45415875E-16
  -14.0400000      -7.18637999E-16
  -14.0299997      -8.79966224E-16
  -14.0200005      -8.76162728E-16
  -14.0100002      -6.84206480E-16
  -14.0000000      -3.20459351E-16
  -13.9899998       1.58540573E-16
  -13.9799995       6.64777980E-16
  -13.9700003       1.09577275E-15
  -13.9600000       1.35649383E-15
  -13.9499998       1.38119045E-15
  -13.9399996       1.14976729E-15
  -13.9300003       6.94301684E-16
  -13.9200001       9.35453525E-17
  -13.9099998      -5.43777364E-16
  -13.8999996      -1.10307788E-15
  -13.8900003      -1.48947589E-15
  -13.8800001      -1.64822098E-15
  -13.8699999      -1.57446357E-15
  -13.8599997      -1.30959457E-15
  -13.8500004      -9.25062258E-16
  -13.8400002      -4.98225891E-16
  -13.8299999      -8.74253211E-17
  -13.8199997       2.85850326E-16
  -13.8100004       6.41356142E-16
  -13.8000002       1.02829249E-15
  -13.7900000       1.49932360E-15
  -13.7799997       2.07714756E-15
  -13.7700005       2.72368526E-15
  -13.7600002       3.32278680E-15
  -13.7500000       3.68521293E-15
  -13.7399998       3.57967431E-15
  -13.7299995       2.78701538E-15
  -13.7200003       1.16767706E-15
  -13.7100000      -1.27282116E-15
  -13.6999998      -4.33787341E-15
  -13.6899996      -7.62896910E-15
  -13.6800003      -1.05798032E-14
  -13.6700001      -1.25360275E-14
  -13.6599998      -1.28708918E-14
  -13.6499996      -1.11175454E-14
  -13.6400003      -7.09252069E-15
  -13.6300001      -9.83639456E-16
  -13.6199999       6.62001395E-15
  -13.6099997       1.47688411E-14
  -13.6000004       2.22639917E-14
  -13.5900002       2.78250171E-14
  -13.5799999       3.02883600E-14
  -13.5699997       2.88037992E-14
  -13.5600004       2.29958146E-14
  -13.5500002       1.30622145E-14
  -13.5400000      -2.06220680E-16
  -13.5299997      -1.54882719E-14
  -13.5200005      -3.10667189E-14
  -13.5100002      -4.50148985E-14
  -13.5000000      -5.54107541E-14
  -13.4899998      -6.05541008E-14
  -13.4799995      -5.91669725E-14
  -13.4700003      -5.05626255E-14
  -13.4600000      -3.47730403E-14
  -13.4499998      -1.26262229E-14
  -13.4399996       1.42369637E-14
  -13.4300003       4.34199727E-14
  -13.4200001       7.19164447E-14
  -13.4099998       9.63561913E-14
  -13.3999996       1.13350545E-13
  -13.3900003       1.19917639E-13
  -13.3800001       1.13942940E-13
  -13.3699999       9.46075358E-14
  -13.3599997       6.27006449E-14
  -13.3500004       2.07328068E-14
  -13.3400002      -2.72131476E-14
  -13.3299999      -7.59169271E-14
  -13.3199997      -1.19709405E-13
  -13.3100004      -1.53325486E-13
  -13.3000002      -1.72780667E-13
  -13.2900000      -1.76106403E-13
  -13.2799997      -1.63782223E-13
  -13.2700005      -1.38745637E-13
  -13.2600002      -1.05931113E-13
  -13.2500000      -7.13788566E-14
  -13.2399998      -4.10433270E-14
  -13.2299995      -1.95030691E-14
  -13.2200003      -8.80917823E-15
  -13.2100000      -7.70222390E-15
  -13.1999998      -1.13775236E-14
  -13.1899996      -1.18927602E-14
  -13.1800003       7.92613833E-16
  -13.1700001       3.72573269E-14
  -13.1599998       1.06731728E-13
  -13.1499996       2.15125484E-13
  -13.1400003       3.63220250E-13
  -13.1300001       5.45245218E-13
  -13.1199999       7.47999915E-13
  -13.1099997       9.50617731E-13
  -13.1000004       1.12499723E-12
  -13.0900002       1.23687714E-12
  -13.0799999       1.24749581E-12
  -13.0699997       1.11575733E-12
  -13.0600004       8.00836285E-13
  -13.0500002       2.65119334E-13
  -13.0400000      -5.22615913E-13
  -13.0299997      -1.58393231E-12
  -13.0200005      -2.92758114E-12
  -13.0100002      -4.54673191E-12
  -13.0000000      -6.41690867E-12
  -12.9899998      -8.49495127E-12
  -12.9799995      -1.07193334E-11
  -12.9700003      -1.30120047E-11
  -12.9600000      -1.52818140E-11
  -12.9499998      -1.74293687E-11
  -12.9399996      -1.93529151E-11
  -12.9300003      -2.09547327E-11
  -12.9200001      -2.21472805E-11
  -12.9099998      -2.28584842E-11
  -12.8999996      -2.30355197E-11
  -12.8900003      -2.26466380E-11
  -12.8800001      -2.16810198E-11
  -12.8699999      -2.01467523E-11
  -12.8599997      -1.80672716E-11
  -12.8500004      -1.54770502E-11
  -12.8400002      -1.24170787E-11
  -12.8299999      -8.93077452E-12
  -12.8199997      -5.06088010E-12
  -12.8100004      -8.47544203E-13
  -12.8000002       3.67240136E-12
  -12.7900000       8.46492754E-12
  -12.7799997       1.34976587E-11
  -12.7700005       1.87381846E-11
  -12.7600002       2.41523260E-11
  -12.7500000       2.97022650E-11
  -12.7399998       3.53452476E-11
  -12.7299995       4.10325211E-11
  -12.7200003       4.67085919E-11
  -12.7100000       5.23110583E-11
  -12.6999998       5.77707569E-11
  -12.6899996       6.30124772E-11
  -12.6800003       6.79561268E-11
  -12.6700001       7.25183802E-11
  -12.6599998       7.66147631E-11
  -12.6499996       8.01619812E-11
  -12.6400003       8.30802024E-11
  -12.6300001       8.52952847E-11
  -12.6199999       8.67404482E-11
  -12.6099997       8.73572742E-11
  -12.6000004       8.70963857E-11
  -12.5900002       8.59172525E-11
  -12.5799999       8.37879072E-11
  -12.5699997       8.06839803E-11
  -12.5600004       7.65888603E-11
  -12.5500002       7.14928533E-11
  -12.5400000       6.53938778E-11
  -12.5299997       5.82977000E-11
  -12.5200005       5.02187146E-11
  -12.5100002       4.11805763E-11
  -12.5000000       3.12168624E-11
  -12.4899998       2.03713626E-11
  -12.4799995       8.69795121E-12
  -12.4700003      -3.73959414E-12
  -12.4600000      -1.68684476E-11
  -12.4499998      -3.06067047E-11
  -12.4399996      -4.48643657E-11
  -12.4300003      -5.95433425E-11
  -12.4200001      -7.45375289E-11
  -12.4099998      -8.97331306E-11
  -12.3999996      -1.05008911E-10
  -12.3900003      -1.20237112E-10
  -12.3800001      -1.35284714E-10
  -12.3699999      -1.50015528E-10
  -12.3599997      -1.64292760E-10
  -12.3500004      -1.77982337E-10
  -12.3400002      -1.90956098E-10
  -12.3299999      -2.03094708E-10
  -12.3199997      -2.14289905E-10
  -12.3100004      -2.24445587E-10
  -12.3000002      -2.33477015E-10
  -12.2900000      -2.41309112E-10
  -12.2799997      -2.47872972E-10
  -12.2700005      -2.53101734E-10
  -12.2600002      -2.56925814E-10
  -12.2500000      -2.59269439E-10
  -12.2399998      -2.60047955E-10
  -12.2299995      -2.59166133E-10
  -12.2200003      -2.56520166E-10
  -12.2100000      -2.52000226E-10
  -12.1999998      -2.45495374E-10
  -12.1899996      -2.36898473E-10
  -12.1800003      -2.26112171E-10
  -12.1700001      -2.13054172E-10
  -12.1599998      -1.97661845E-10
  -12.1499996      -1.79894516E-10
  -12.1400003      -1.59736793E-10
  -12.1300001      -1.37198183E-10
  -12.1199999      -1.12315164E-10
  -12.1099997      -8.51495471E-11
  -12.1000004      -5.57881276E-11
  -12.0900002      -2.43417769E-11
  -12.0799999       9.05871905E-12
  -12.0699997       4.42640716E-11
  -12.0600004       8.11137130E-11
  -12.0500002       1.19441262E-10
  -12.0400000       1.59082067E-10
  -12.0299997       1.99880987E-10
  -12.0200005       2.41699494E-10
  -12.0100002       2.84420848E-10
  -12.0000000       3.27955441E-10
  -11.9899998       3.72242071E-10
  -11.9799995       4.17247820E-10
  -11.9700003       4.62966332E-10
  -11.9600000       5.09413400E-10
  -11.9499998       5.56621305E-10
  -11.9399996       6.04632566E-10
  -11.9300003       6.53491705E-10
  -11.9200001       7.03237635E-10
  -11.9099998       7.53895113E-10
  -11.8999996       8.05467526E-10
  -11.8900003       8.57929394E-10
  -11.8800001       9.11222597E-10
  -11.8699999       9.65254321E-10
  -11.8599997       1.01989683E-09
  -11.8500004       1.07499243E-09
  -11.8400002       1.13035936E-09
  -11.8299999       1.18579990E-09
  -11.8199997       1.24110988E-09
  -11.8100004       1.29608801E-09
  -11.8000002       1.35054512E-09
  -11.7900000       1.40431100E-09
  -11.7799997       1.45723933E-09
  -11.7700005       1.50921198E-09
  -11.7600002       1.56014168E-09
  -11.7500000       1.60997338E-09
  -11.7399998       1.65868486E-09
  -11.7299995       1.70628556E-09
  -11.7200003       1.75281778E-09
  -11.7100000       1.79835324E-09
  -11.6999998       1.84299231E-09
  -11.6899996       1.88686022E-09
  -11.6800003       1.93010297E-09
  -11.6700001       1.97287831E-09
  -11.6599998       2.01535522E-09
  -11.6499996       2.05769934E-09
  -11.6400003       2.10006590E-09
  -11.6300001       2.14259321E-09
  -11.6199999       2.18538831E-09
  -11.6099997       2.22852359E-09
  -11.6000004       2.27202168E-09
  -11.5900002       2.31586172E-09
  -11.5799999       2.35996689E-09
  -11.5699997       2.40421372E-09
  -11.5600004       2.44843257E-09
  -11.5500002       2.49241805E-09
  -11.5400000       2.53593568E-09
  -11.5299997       2.57874500E-09
  -11.5200005       2.62059152E-09
  -11.5100002       2.66123612E-09
  -11.5000000       2.70044964E-09
  -11.4899998       2.73802869E-09
  -11.4799995       2.77381029E-09
  -11.4700003       2.80765322E-09
  -11.4600000       2.83945711E-09
  -11.4499998       2.86917246E-09
  -11.4399996       2.89677993E-09
  -11.4300003       2.92230484E-09
  -11.4200001       2.94581071E-09
  -11.4099998       2.96739544E-09
  -11.3999996       2.98720026E-09
  -11.3900003       3.00537728E-09
  -11.3800001       3.02211789E-09
  -11.3699999       3.03762571E-09
  -11.3599997       3.05211856E-09
  -11.3500004       3.06582226E-09
  -11.3400002       3.07895576E-09
  -11.3299999       3.09174397E-09
  -11.3199997       3.10438319E-09
  -11.3100004       3.11706105E-09
  -11.3000002       3.12992565E-09
  -11.2900000       3.14310356E-09
  -11.2799997       3.15667292E-09
  -11.2700005       3.17067550E-09
  -11.2600002       3.18510973E-09
  -11.2500000       3.19995053E-09
  -11.2399998       3.21513771E-09
  -11.2299995       3.23057336E-09
  -11.2200003       3.24614335E-09
  -11.2100000       3.26171690E-09
  -11.1999998       3.27714189E-09
  -11.1899996       3.29226357E-09
  -11.1800003       3.30692584E-09
  -11.1700001       3.32096772E-09
  -11.1599998       3.33425465E-09
  -11.1499996       3.34665851E-09
  -11.1400003       3.35807582E-09
  -11.1300001       3.36846240E-09
  -11.1199999       3.37779027E-09
  -11.1099997       3.38607808E-09
  -11.1000004       3.39338646E-09
  -11.0900002       3.39982065E-09
  -11.0799999       3.40551276E-09
  -11.0699997       3.41061712E-09
  -11.0600004       3.41530360E-09
  -11.0500002       3.41975404E-09
  -11.0400000       3.42413120E-09
  -11.0299997       3.42860984E-09
  -11.0200005       3.43333229E-09
  -11.0100002       3.43843265E-09
  -11.0000000       3.44401418E-09
  -10.9899998       3.45017148E-09
  -10.9799995       3.45698070E-09
  -10.9700003       3.46449269E-09
  -10.9600000       3.47276008E-09
  -10.9499998       3.48182461E-09
  -10.9399996       3.49173246E-09
  -10.9300003       3.50253893E-09
  -10.9200001       3.51431084E-09
  -10.9099998       3.52714369E-09
  -10.8999996       3.54116270E-09
  -10.8900003       3.55650109E-09
  -10.8800001       3.57333918E-09
  -10.8699999       3.59186059E-09
  -10.8599997       3.61225849E-09
  -10.8500004       3.63473562E-09
  -10.8400002       3.65948738E-09
  -10.8299999       3.68668585E-09
  -10.8199997       3.71649223E-09
  -10.8100004       3.74902731E-09
  -10.8000002       3.78437948E-09
  -10.7900000       3.82261911E-09
  -10.7799997       3.86377552E-09
  -10.7700005       3.90783450E-09
  -10.7600002       3.95477961E-09
  -10.7500000       4.00456690E-09
  -10.7399998       4.05714973E-09
  -10.7299995       4.11248857E-09
  -10.7200003       4.17054924E-09
  -10.7100000       4.23131885E-09
  -10.6999998       4.29480806E-09
  -10.6899996       4.36104219E-09
  -10.6800003       4.43005677E-09
  -10.6700001       4.50188953E-09
  -10.6599998       4.57656979E-09
  -10.6499996       4.65409311E-09
  -10.6400003       4.73445105E-09
  -10.6300001       4.81758988E-09
  -10.6199999       4.90343766E-09
  -10.6099997       4.99189534E-09
  -10.6000004       5.08285991E-09
  -10.5900002       5.17621501E-09
  -10.5799999       5.27184030E-09
  -10.5699997       5.36961586E-09
  -10.5600004       5.46942802E-09
  -10.5500002       5.57116708E-09
  -10.5400000       5.67472691E-09
  -10.5299997       5.78002224E-09
  -10.5200005       5.88696869E-09
  -10.5100002       5.99551697E-09
  -10.5000000       6.10562845E-09
  -10.4899998       6.21727603E-09
  -10.4799995       6.33047126E-09
  -10.4700003       6.44520259E-09
  -10.4600000       6.56146693E-09
  -10.4499998       6.67924294E-09
  -10.4399996       6.79848089E-09
  -10.4300003       6.91910351E-09
  -10.4200001       7.04102909E-09
  -10.4099998       7.16413595E-09
  -10.3999996       7.28830107E-09
  -10.3900003       7.41338102E-09
  -10.3800001       7.53923235E-09
  -10.3699999       7.66572050E-09
  -10.3599997       7.79270337E-09
  -10.3500004       7.92005572E-09
  -10.3400002       8.04766742E-09
  -10.3299999       8.17543633E-09
  -10.3199997       8.30328517E-09
  -10.3100004       8.43116599E-09
  -10.3000002       8.55907611E-09
  -10.2900000       8.68701733E-09
  -10.2799997       8.81505180E-09
  -10.2700005       8.94323815E-09
  -10.2600002       9.07165632E-09
  -10.2500000       9.20041909E-09
  -10.2399998       9.32961441E-09
  -10.2299995       9.45937195E-09
  -10.2200003       9.58979385E-09
  -10.2100000       9.72102576E-09
  -10.1999998       9.85319648E-09
  -10.1899996       9.98645078E-09
  -10.1800003       1.01209316E-08
  -10.1700001       1.02567954E-08
  -10.1599998       1.03941931E-08
  -10.1499996       1.05332516E-08
  -10.1400003       1.06740758E-08
  -10.1300001       1.08167866E-08
  -10.1199999       1.09614859E-08
  -10.1099997       1.11082770E-08
  -10.1000004       1.12572787E-08
  -10.0900002       1.14086136E-08
  -10.0799999       1.15624221E-08
  -10.0699997       1.17188588E-08
  -10.0600004       1.18781118E-08
  -10.0500002       1.20403643E-08
  -10.0400000       1.22057999E-08
  -10.0299997       1.23745698E-08
  -10.0200005       1.25468382E-08
  -10.0100002       1.27227739E-08
  -10.0000000       1.29025324E-08
  -9.98999977       1.30862547E-08
  -9.97999954       1.32741231E-08
  -9.97000027       1.34662912E-08
  -9.96000004       1.36629872E-08
  -9.94999981       1.38644118E-08
  -9.93999958       1.40707863E-08
  -9.93000031       1.42823460E-08
  -9.92000008       1.44992818E-08
  -9.90999985       1.47217865E-08
  -9.89999962       1.49499968E-08
  -9.89000034       1.51840052E-08
  -9.88000011       1.54238808E-08
  -9.86999989       1.56696807E-08
  -9.85999966       1.59213513E-08
  -9.85000038       1.61788840E-08
  -9.84000015       1.64422165E-08
  -9.82999992       1.67113008E-08
  -9.81999969       1.69860694E-08
  -9.81000042       1.72664443E-08
  -9.80000019       1.75522938E-08
  -9.78999996       1.78435133E-08
  -9.77999973       1.81399820E-08
  -9.77000046       1.84415399E-08
  -9.76000023       1.87480431E-08
  -9.75000000       1.90593372E-08
  -9.73999977       1.93752303E-08
  -9.72999954       1.96955554E-08
  -9.72000027       2.00201242E-08
  -9.71000004       2.03486898E-08
  -9.69999981       2.06810373E-08
  -9.68999958       2.10169127E-08
  -9.68000031       2.13560494E-08
  -9.67000008       2.16981810E-08
  -9.65999985       2.20430199E-08
  -9.64999962       2.23903189E-08
  -9.64000034       2.27397816E-08
  -9.63000011       2.30911414E-08
  -9.61999989       2.34441533E-08
  -9.60999966       2.37985844E-08
  -9.60000038       2.41541667E-08
  -9.59000015       2.45106477E-08
  -9.57999992       2.48678091E-08
  -9.56999969       2.52254324E-08
  -9.56000042       2.55832937E-08
  -9.55000019       2.59412420E-08
  -9.53999996       2.62990802E-08
  -9.52999973       2.66566005E-08
  -9.52000046       2.70135718E-08
  -9.51000023       2.73697971E-08
  -9.50000000       2.77249654E-08
  -9.48999977       2.80787198E-08
  -9.47999954       2.84307635E-08
  -9.47000027       2.87807111E-08
  -9.46000004       2.91282145E-08
  -9.44999981       2.94729521E-08
  -9.43999958       2.98145437E-08
  -9.43000031       3.01527372E-08
  -9.42000008       3.04872501E-08
  -9.40999985       3.08177839E-08
  -9.39999962       3.11441077E-08
  -9.39000034       3.14659339E-08
  -9.38000011       3.17830882E-08
  -9.36999989       3.20953504E-08
  -9.35999966       3.24026033E-08
  -9.35000038       3.27047189E-08
  -9.34000015       3.30016761E-08
  -9.32999992       3.32934853E-08
  -9.31999969       3.35802071E-08
  -9.31000042       3.38619479E-08
  -9.30000019       3.41388251E-08
  -9.28999996       3.44109985E-08
  -9.27999973       3.46786280E-08
  -9.27000046       3.49419160E-08
  -9.26000023       3.52010616E-08
  -9.25000000       3.54563205E-08
  -9.23999977       3.57079983E-08
  -9.22999954       3.59564538E-08
  -9.22000027       3.62020209E-08
  -9.21000004       3.64451296E-08
  -9.19999981       3.66861457E-08
  -9.18999958       3.69254280E-08
  -9.18000031       3.71632858E-08
  -9.17000008       3.74000138E-08
  -9.15999985       3.76358997E-08
  -9.14999962       3.78711853E-08
  -9.14000034       3.81059913E-08
  -9.13000011       3.83406515E-08
  -9.11999989       3.85753260E-08
  -9.10999966       3.88101711E-08
  -9.10000038       3.90453927E-08
  -9.09000015       3.92811152E-08
  -9.07999992       3.95174204E-08
  -9.06999969       3.97543083E-08
  -9.06000042       3.99918427E-08
  -9.05000019       4.02299598E-08
  -9.03999996       4.04686240E-08
  -9.02999973       4.07079028E-08
  -9.02000046       4.09477074E-08
  -9.01000023       4.11882191E-08
  -9.00000000       4.14294092E-08
  -8.98999977       4.16713384E-08
  -8.97999954       4.19141308E-08
  -8.97000027       4.21579180E-08
  -8.96000004       4.24027178E-08
  -8.94999981       4.26486828E-08
  -8.93999958       4.28959872E-08
  -8.93000031       4.31447731E-08
  -8.92000008       4.33952856E-08
  -8.90999985       4.36477414E-08
  -8.89999962       4.39025101E-08
  -8.89000034       4.41598331E-08
  -8.88000011       4.44200872E-08
  -8.86999989       4.46836559E-08
  -8.85999966       4.49507915E-08
  -8.85000038       4.52219666E-08
  -8.84000015       4.54975790E-08
  -8.82999992       4.57780018E-08
  -8.81999969       4.60636898E-08
  -8.81000042       4.63552681E-08
  -8.80000019       4.66532590E-08
  -8.78999996       4.69582844E-08
  -8.77999973       4.72709658E-08
  -8.77000046       4.75919038E-08
  -8.76000023       4.79216808E-08
  -8.75000000       4.82608229E-08
  -8.73999977       4.86098735E-08
  -8.72999954       4.89693868E-08
  -8.72000027       4.93398140E-08
  -8.71000004       4.97217130E-08
  -8.69999981       5.01156059E-08
  -8.68999958       5.05218942E-08
  -8.68000031       5.09412530E-08
  -8.67000008       5.13740659E-08
  -8.65999985       5.18208765E-08
  -8.64999962       5.22820294E-08
  -8.64000034       5.27580433E-08
  -8.63000011       5.32493303E-08
  -8.61999989       5.37563345E-08
  -8.60999966       5.42794432E-08
  -8.60000038       5.48191252E-08
  -8.59000015       5.53757928E-08
  -8.57999992       5.59498332E-08
  -8.56999969       5.65414595E-08
  -8.56000042       5.71509382E-08
  -8.55000019       5.77786565E-08
  -8.53999996       5.84248845E-08
  -8.52999973       5.90896896E-08
  -8.52000046       5.97732921E-08
  -8.51000023       6.04759265E-08
  -8.50000000       6.11977953E-08
  -8.48999977       6.19388842E-08
  -8.47999954       6.26994563E-08
  -8.47000027       6.34795043E-08
  -8.46000004       6.42789502E-08
  -8.44999981       6.50978009E-08
  -8.43999958       6.59358435E-08
  -8.43000031       6.67929072E-08
  -8.42000008       6.76688003E-08
  -8.40999985       6.85632386E-08
  -8.39999962       6.94759876E-08
  -8.39000034       7.04067915E-08
  -8.38000011       7.13553518E-08
  -8.36999989       7.23214129E-08
  -8.35999966       7.33045127E-08
  -8.35000038       7.43042889E-08
  -8.34000015       7.53203864E-08
  -8.32999992       7.63523360E-08
  -8.31999969       7.73996547E-08
  -8.31000042       7.84620724E-08
  -8.30000019       7.95392765E-08
  -8.28999996       8.06308478E-08
  -8.27999973       8.17367294E-08
  -8.27000046       8.28567011E-08
  -8.26000023       8.39904430E-08
  -8.25000000       8.51377564E-08
  -8.23999977       8.62983072E-08
  -8.22999954       8.74719177E-08
  -8.22000027       8.86581617E-08
  -8.21000004       8.98568260E-08
  -8.19999981       9.10676832E-08
  -8.18999958       9.22904775E-08
  -8.18000031       9.35250952E-08
  -8.17000008       9.47712593E-08
  -8.15999985       9.60289981E-08
  -8.14999962       9.72979635E-08
  -8.14000034       9.85781696E-08
  -8.13000011       9.98692400E-08
  -8.11999989       1.01171160E-07
  -8.10999966       1.02483583E-07
  -8.10000038       1.03806393E-07
  -8.09000015       1.05139584E-07
  -8.07999992       1.06482922E-07
  -8.06999969       1.07836414E-07
  -8.06000042       1.09199895E-07
  -8.05000019       1.10573495E-07
  -8.03999996       1.11957029E-07
  -8.02999973       1.13350438E-07
  -8.02000046       1.14753881E-07
  -8.01000023       1.16167143E-07
  -8.00000000       1.17590439E-07
  -7.98999977       1.19023852E-07
  -7.98000002       1.20467362E-07
  -7.96999979       1.21921289E-07
  -7.96000004       1.23385689E-07
  -7.94999981       1.24860975E-07
  -7.94000006       1.26347061E-07
  -7.92999983       1.27844217E-07
  -7.92000008       1.29352614E-07
  -7.90999985       1.30872166E-07
  -7.90000010       1.32403031E-07
  -7.88999987       1.33944951E-07
  -7.88000011       1.35498240E-07
  -7.86999989       1.37062528E-07
  -7.86000013       1.38638029E-07
  -7.84999990       1.40224643E-07
  -7.84000015       1.41822298E-07
  -7.82999992       1.43430725E-07
  -7.82000017       1.45049995E-07
  -7.80999994       1.46679852E-07
  -7.80000019       1.48320098E-07
  -7.78999996       1.49970845E-07
  -7.78000021       1.51631980E-07
  -7.76999998       1.53303475E-07
  -7.76000023       1.54985457E-07
  -7.75000000       1.56677771E-07
  -7.73999977       1.58380729E-07
  -7.73000002       1.60094274E-07
  -7.71999979       1.61818207E-07
  -7.71000004       1.63552969E-07
  -7.69999981       1.65298346E-07
  -7.69000006       1.67054523E-07
  -7.67999983       1.68821515E-07
  -7.67000008       1.70599634E-07
  -7.65999985       1.72389278E-07
  -7.65000010       1.74190234E-07
  -7.63999987       1.76003141E-07
  -7.63000011       1.77828255E-07
  -7.61999989       1.79665705E-07
  -7.61000013       1.81515759E-07
  -7.59999990       1.83378944E-07
  -7.59000015       1.85255175E-07
  -7.57999992       1.87145289E-07
  -7.57000017       1.89049345E-07
  -7.55999994       1.90967612E-07
  -7.55000019       1.92900558E-07
  -7.53999996       1.94848539E-07
  -7.53000021       1.96812039E-07
  -7.51999998       1.98791341E-07
  -7.51000023       2.00786744E-07
  -7.50000000       2.02798347E-07
  -7.48999977       2.04826790E-07
  -7.48000002       2.06872500E-07
  -7.46999979       2.08935290E-07
  -7.46000004       2.11015788E-07
  -7.44999981       2.13113978E-07
  -7.44000006       2.15230529E-07