  -16.0000000       0.00000000    
  -15.9899998       0.00000000    
  -15.9799995       0.00000000    
  -15.9700003       0.00000000    
  -15.9600000       0.00000000    
  -15.9499998       0.00000000    
  -15.9399996       0.00000000    
  -15.9300003       4.34614041E-25
  -15.9200001       6.12117763E-24
  -15.9099998       4.38623009E-23
  -15.8999996       2.11816373E-22
  -15.8900003       7.68077790E-22
  -15.8800001       2.19788957E-21
  -15.8699999       5.03939916E-21
  -15.8599997       9.02923296E-21
  -15.8500004       1.10292394E-20
  -15.8400002       1.56366721E-21
  -15.8299999      -3.89714998E-20
  -15.8199997      -1.41157273E-19
  -15.8100004      -3.38649423E-19
  -15.8000002      -6.44580182E-19
  -15.7900000      -1.00822015E-18
  -15.7799997      -1.25724040E-18
  -15.7700005      -1.04709361E-18
  -15.7600002       1.41967897E-19
  -15.7500000       2.90730473E-18
  -15.7399998       7.68019993E-18
  -15.7299995       1.43300273E-17
  -15.7200003       2.16852892E-17
  -15.7100000       2.71378322E-17
  -15.6999998       2.65819618E-17
  -15.6899996       1.49650108E-17
  -15.6800003      -1.23608660E-17
  -15.6700001      -5.75188642E-17
  -15.6599998      -1.17591387E-16
  -15.6499996      -1.82449812E-16
  -15.6400003      -2.33936286E-16
  -15.6300001      -2.47409165E-16
  -15.6199999      -1.96289748E-16
  -15.6099997      -5.94830078E-17
  -15.6000004       1.69489162E-16
  -15.5900002       4.73832401E-16
  -15.5799999       8.08163558E-16
  -15.5699997       1.09936576E-15
  -15.5600004       1.25552454E-15
  -15.5500002       1.18307601E-15
  -15.5400000       8.10006437E-16
  -15.5299997       1.10689882E-16
  -15.5200005      -8.73573613E-16
  -15.5100002      -2.02451949E-15
  -15.5000000      -3.15225471E-15
  -15.4899998      -4.01805622E-15
  -15.4799995      -4.37296048E-15
  -15.4700003      -4.00661915E-15
  -15.4600000      -2.79778836E-15
  -15.4499998      -7.56327789E-16
  -15.4399996       1.95289735E-15
  -15.4300003       5.01122140E-15
  -15.4200001       7.97539796E-15
  -15.4099998       1.03327711E-14
  -15.3999996       1.15755955E-14
  -15.3900003       1.12840543E-14
  -15.3800001       9.20553544E-15
  -15.3699999       5.31783886E-15
  -15.3599997      -1.34196780E-16
  -15.3500004      -6.63589624E-15
  -15.3400002      -1.34371232E-14
  -15.3299999      -1.96230276E-14
  -15.3199997      -2.42165839E-14
  -15.3100004      -2.63046709E-14
  -15.3000002      -2.51758436E-14
  -15.2900000      -2.04542854E-14
  -15.2799997      -1.22110252E-14
  -15.2700005      -1.03060415E-15
  -15.2600002       1.19878532E-14
  -15.2500000       2.53115874E-14
  -15.2399998       3.71428962E-14
  -15.2299995       4.56645525E-14
  -15.2200003       4.93307821E-14
  -15.2100000       4.71548392E-14
  -15.1999998       3.89324125E-14
  -15.1899996       2.53438526E-14
  -15.1800003       7.89678314E-15
  -15.1700001      -1.12957163E-14
  -15.1599998      -2.98643353E-14
  -15.1499996      -4.55867101E-14
  -15.1400003      -5.67514243E-14
  -15.1300001      -6.23950422E-14
  -15.1199999      -6.23576914E-14
  -15.1099997      -5.71560147E-14
  -15.1000004      -4.77279823E-14
  -15.0900002      -3.51446099E-14
  -15.0799999      -2.03906563E-14
  -15.0699997      -4.28661140E-15
  -15.0600004       1.24358819E-14
  -15.0500002       2.89630109E-14
  -15.0400000       4.42400870E-14
  -15.0299997       5.69428402E-14
  -15.0200005       6.56521685E-14
  -15.0100002       6.92224327E-14
  -15.0000000       6.72356525E-14
  -14.9899998       6.03609231E-14
  -14.9799995       5.04292890E-14
  -14.9700003       4.00991225E-14
  -14.9600000       3.21200992E-14
  -14.9499998       2.83603114E-14
  -14.9399996       2.88903592E-14
  -14.9300003       3.14635064E-14
  -14.9200001       3.16628065E-14
  -14.9099998       2.38121189E-14
  -14.8999996       2.51170807E-15
  -14.8900003      -3.55621870E-14
  -14.8800001      -9.00909664E-14
  -14.8699999      -1.56269041E-13
  -14.8599997      -2.25013381E-13
  -14.8500004      -2.84287269E-13
  -14.8400002      -3.21294857E-13
  -14.8299999      -3.25057960E-13
  -14.8199997      -2.88778387E-13
  -14.8100004      -2.11438682E-13
  -14.8000002      -9.82995085E-14
  -14.7900000       3.97644428E-14
  -14.7799997       1.87885365E-13
  -14.7700005       3.29384984E-13
  -14.7600002       4.48075550E-13
  -14.7500000       5.30320145E-13
  -14.7399998       5.66655609E-13
  -14.7299995       5.52943271E-13
  -14.7200003       4.91135127E-13
  -14.7100000       3.89784261E-13
  -14.6999998       2.64331959E-13
  -14.6899996       1.37133130E-13
  -14.6800003       3.70532225E-14
  -14.6700001      -1.50886563E-15
  -14.6599998       5.97098122E-14
  -14.6499996       2.60477241E-13
  -14.6400003       6.39229772E-13
  -14.6300001       1.23000232E-12
  -14.6199999       2.05959945E-12
  -14.6099997       3.14522041E-12
  -14.6000004       4.49281844E-12
  -14.5900002       6.09638555E-12
  -14.5799999       7.93768436E-12
  -14.5699997       9.98698953E-12
  -14.5600004       1.22041786E-11
  -14.5500002       1.45401347E-11
  -14.5400000       1.69383309E-11
  -14.5299997       1.93367978E-11
  -14.5200005       2.16704901E-11
  -14.5100002       2.38730702E-11
  -14.5000000       2.58792675E-11
  -14.4899998       2.76267776E-11
  -14.4799995       2.90580233E-11
  -14.4700003       3.01218286E-11
  -14.4600000       3.07742720E-11
  -14.4499998       3.09795696E-11
  -14.4399996       3.07106077E-11
  -14.4300003       2.99493381E-11
  -14.4200001       2.86867283E-11
  -14.4099998       2.69217114E-11
  -14.3999996       2.46608688E-11
  -14.3900003       2.19167219E-11
  -14.3800001       1.87065363E-11
  -14.3699999       1.50507575E-11
  -14.3599997       1.09716784E-11
  -14.3500004       6.49228327E-12
  -14.3400002       1.63569212E-12
  -14.3299999      -3.57543856E-12
  -14.3199997      -9.11946126E-12
  -14.3100004      -1.49763570E-11
  -14.3000002      -2.11283803E-11
  -14.2900000      -2.75607523E-11
  -14.2799997      -3.42608199E-11
  -14.2700005      -4.12174704E-11
  -14.2600002      -4.84169579E-11
  -14.2500000      -5.58402283E-11
  -14.2399998      -6.34553243E-11
  -14.2299995      -7.12128759E-11
  -14.2200003      -7.90436258E-11
  -14.2100000      -8.68530109E-11
  -14.1999998      -9.45242010E-11
  -14.1899996      -1.01923470E-10
  -14.1800003      -1.08905357E-10
  -14.1700001      -1.15324791E-10
  -14.1599998      -1.21044272E-10
  -14.1499996      -1.25941604E-10
  -14.1400003      -1.29916120E-10
  -14.1300001      -1.32892752E-10
  -14.1199999      -1.34819017E-10
  -14.1099997      -1.35665826E-10
  -14.1000004      -1.35419786E-10
  -14.0900002      -1.34080039E-10
  -14.0799999      -1.31652675E-10
  -14.0699997      -1.28144925E-10
  -14.0600004      -1.23562452E-10
  -14.0500002      -1.17904866E-10
  -14.0400000      -1.11164723E-10
  -14.0299997      -1.03327409E-10
  -14.0200005      -9.43698800E-11
  -14.0100002      -8.42677178E-11
  -14.0000000      -7.29953736E-11
  -13.9899998      -6.05333839E-11
  -13.9799995      -4.68733038E-11
  -13.9700003      -3.20214133E-11
  -13.9600000      -1.60019133E-11
  -13.9499998       1.14080024E-12
  -13.9399996       1.93439240E-11
  -13.9300003       3.85276915E-11
  -13.9200001       5.85973076E-11
  -13.9099998       7.94484964E-11
  -13.8999996       1.00969073E-10
  -13.8900003       1.23041091E-10
  -13.8800001       1.45543008E-10
  -13.8699999       1.68350056E-10
  -13.8599997       1.91333657E-10
  -13.8500004       2.14356879E-10
  -13.8400002       2.37275255E-10
  -13.8299999       2.59933242E-10
  -13.8199997       2.82160434E-10
  -13.8100004       3.03764763E-10
  -13.8000002       3.24538396E-10
  -13.7900000       3.44250045E-10
  -13.7799997       3.62657154E-10
  -13.7700005       3.79499404E-10
  -13.7600002       3.94512673E-10
  -13.7500000       4.07434669E-10
  -13.7399998       4.18015317E-10
  -13.7299995       4.26016750E-10
  -13.7200003       4.31220004E-10
  -13.7100000       4.33432179E-10
  -13.6999998       4.32483799E-10
  -13.6899996       4.28223679E-10
  -13.6800003       4.20525004E-10
  -13.6700001       4.09268869E-10
  -13.6599998       3.94345889E-10
  -13.6499996       3.75655729E-10
  -13.6400003       3.53090890E-10
  -13.6300001       3.26548788E-10
  -13.6199999       2.95916902E-10
  -13.6099997       2.61084654E-10
  -13.6000004       2.21941271E-10
  -13.5900002       1.78387805E-10
  -13.5799999       1.30340988E-10
  -13.5699997       7.77439224E-11
  -13.5600004       2.05702105E-11
  -13.5500002      -4.11705288E-11
  -13.5400000      -1.07434513E-10
  -13.5299997      -1.78146553E-10
  -13.5200005      -2.53212090E-10
  -13.5100002      -3.32522426E-10
  -13.5000000      -4.15963208E-10
  -13.4899998      -5.03433017E-10
  -13.4799995      -5.94838734E-10
  -13.4700003      -6.90100754E-10
  -13.4600000      -7.89159571E-10
  -13.4499998      -8.91976215E-10
  -13.4399996      -9.98516159E-10
  -13.4300003      -1.10876941E-09
  -13.4200001      -1.22274180E-09
  -13.4099998      -1.34042621E-09
  -13.3999996      -1.46184886E-09
  -13.3900003      -1.58704683E-09
  -13.3800001      -1.71603276E-09
  -13.3699999      -1.84885174E-09
  -13.3599997      -1.98553618E-09
  -13.3500004      -2.12614260E-09
  -13.3400002      -2.27069497E-09
  -13.3299999      -2.41926368E-09
  -13.3199997      -2.57191002E-09
  -13.3100004      -2.72869594E-09
  -13.3000002      -2.88970803E-09
  -13.2900000      -3.05508419E-09
  -13.2799997      -3.22492921E-09
  -13.2700005      -3.39938477E-09
  -13.2600002      -3.57863561E-09
  -13.2500000      -3.76288112E-09
  -13.2399998      -3.95234956E-09
  -13.2299995      -4.14729140E-09
  -13.2200003      -4.34794600E-09
  -13.2100000      -4.55457849E-09
  -13.1999998      -4.76751127E-09
  -13.1899996      -4.98696506E-09
  -13.1800003      -5.21324894E-09
  -13.1700001      -5.44666046E-09
  -13.1599998      -5.68741720E-09
  -13.1499996      -5.93579408E-09
  -13.1400003      -6.19205531E-09
  -13.1300001      -6.45640874E-09
  -13.1199999      -6.72904532E-09
  -13.1099997      -7.01011293E-09
  -13.1000004      -7.29975147E-09
  -13.0900002      -7.59808128E-09
  -13.0799999      -7.90518939E-09
  -13.0699997      -8.22108692E-09
  -13.0600004      -8.54582627E-09
  -13.0500002      -8.87941098E-09
  -13.0400000      -9.22178245E-09
  -13.0299997      -9.57292468E-09
  -13.0200005      -9.93279681E-09
  -13.0100002      -1.03012807E-08
  -13.0000000      -1.06782760E-08
  -12.9899998      -1.10636229E-08
  -12.9799995      -1.14571330E-08
  -12.9700003      -1.18586465E-08
  -12.9600000      -1.22679182E-08
  -12.9499998      -1.26846800E-08
  -12.9399996      -1.31086688E-08
  -12.9300003      -1.35394451E-08
  -12.9200001      -1.39767034E-08
  -12.9099998      -1.44199559E-08
  -12.8999996      -1.48687196E-08
  -12.8900003      -1.53224722E-08
  -12.8800001      -1.57807563E-08
  -12.8699999      -1.62430336E-08
  -12.8599997      -1.67088139E-08
  -12.8500004      -1.71773618E-08
  -12.8400002      -1.76483432E-08
  -12.8299999      -1.81212201E-08
  -12.8199997      -1.85954416E-08
  -12.8100004      -1.90705141E-08
  -12.8000002      -1.95460128E-08
  -12.7900000      -2.00214227E-08
  -12.7799997      -2.04962074E-08
  -12.7700005      -2.09700204E-08
  -12.7600002      -2.14423093E-08
  -12.7500000      -2.19124523E-08
  -12.7399998      -2.23800125E-08
  -12.7299995      -2.28444250E-08
  -12.7200003      -2.33053132E-08
  -12.7100000      -2.37620963E-08
  -12.6999998      -2.42144242E-08
  -12.6899996      -2.46617358E-08
  -12.6800003      -2.51037218E-08
  -12.6700001      -2.55400252E-08
  -12.6599998      -2.59702766E-08
  -12.6499996      -2.63943356E-08
  -12.6400003      -2.68119411E-08
  -12.6300001      -2.72226863E-08
  -12.6199999      -2.76265979E-08
  -12.6099997      -2.80231873E-08
  -12.6000004      -2.84126269E-08
  -12.5900002      -2.87946147E-08
  -12.5799999      -2.91690174E-08
  -12.5699997      -2.95356468E-08
  -12.5600004      -2.98944443E-08
  -12.5500002      -3.02454595E-08
  -12.5400000      -3.05885273E-08
  -12.5299997      -3.09236761E-08
  -12.5200005      -3.12507566E-08
  -12.5100002      -3.15698223E-08
  -12.5000000      -3.18808020E-08
  -12.4899998      -3.21838129E-08
  -12.4799995      -3.24790008E-08
  -12.4700003      -3.27663621E-08
  -12.4600000      -3.30460637E-08
  -12.4499998      -3.33182548E-08
  -12.4399996      -3.35831132E-08
  -12.4300003      -3.38406601E-08
  -12.4200001      -3.40913004E-08
  -12.4099998      -3.43352724E-08
  -12.3999996      -3.45725581E-08
  -12.3900003      -3.48033353E-08
  -12.3800001      -3.50279450E-08
  -12.3699999      -3.52464760E-08
  -12.3599997      -3.54592125E-08
  -12.3500004      -3.56660017E-08
  -12.3400002      -3.58674512E-08
  -12.3299999      -3.60632981E-08
  -12.3199997      -3.62538124E-08
  -12.3100004      -3.64393102E-08
  -12.3000002      -3.66197881E-08
  -12.2900000      -3.67955622E-08
  -12.2799997      -3.69666999E-08
  -12.2700005      -3.71333186E-08
  -12.2600002      -3.72958091E-08
  -12.2500000      -3.74541287E-08
  -12.2399998      -3.76089417E-08
  -12.2299995      -3.77603300E-08
  -12.2200003      -3.79082117E-08
  -12.2100000      -3.80531944E-08
  -12.1999998      -3.81954486E-08
  -12.1899996      -3.83350383E-08
  -12.1800003      -3.84721623E-08
  -12.1700001      -3.86073715E-08
  -12.1599998      -3.87407262E-08
  -12.1499996      -3.88725745E-08
  -12.1400003      -3.90029413E-08
  -12.1300001      -3.91323525E-08
  -12.1199999      -3.92608364E-08
  -12.1099997      -3.93890325E-08
  -12.1000004      -3.95168485E-08
  -12.0900002      -3.96447248E-08
  -12.0799999      -3.97733260E-08
  -12.0699997      -3.99029751E-08
  -12.0600004      -4.00339282E-08
  -12.0500002      -4.01665332E-08
  -12.0400000      -4.03013729E-08
  -12.0299997      -4.04388274E-08
  -12.0200005      -4.05791738E-08
  -12.0100002      -4.07229770E-08
  -12.0000000      -4.08704111E-08
  -11.9899998      -4.10224565E-08
  -11.9799995      -4.11790815E-08
  -11.9700003      -4.13408117E-08
  -11.9600000      -4.15078176E-08
  -11.9499998      -4.16808028E-08
  -11.9399996      -4.18602539E-08
  -11.9300003      -4.20467536E-08
  -11.9200001      -4.22404796E-08
  -11.9099998      -4.24419717E-08
  -11.8999996      -4.26515605E-08
  -11.8900003      -4.28700524E-08
  -11.8800001      -4.30980265E-08
  -11.8699999      -4.33354579E-08
  -11.8599997      -4.35828689E-08
  -11.8500004      -4.38406609E-08
  -11.8400002      -4.41095338E-08
  -11.8299999      -4.43896297E-08
  -11.8199997      -4.46813893E-08
  -11.8100004      -4.49851250E-08
  -11.8000002      -4.53007516E-08
  -11.7900000      -4.56290792E-08
  -11.7799997      -4.59701717E-08
  -11.7700005      -4.63246650E-08
  -11.7600002      -4.66922643E-08
  -11.7500000      -4.70734385E-08
  -11.7399998      -4.74688200E-08
  -11.7299995      -4.78780677E-08
  -11.7200003      -4.83014730E-08
  -11.7100000      -4.87393130E-08
  -11.6999998      -4.91920638E-08
  -11.6899996      -4.96591390E-08
  -11.6800003      -5.01414483E-08
  -11.6700001      -5.06384268E-08
  -11.6599998      -5.11503124E-08
  -11.6499996      -5.16775742E-08
  -11.6400003      -5.22199386E-08
  -11.6300001      -5.27775903E-08
  -11.6199999      -5.33502060E-08
  -11.6099997      -5.39379919E-08
  -11.6000004      -5.45408589E-08
  -11.5900002      -5.51588890E-08
  -11.5799999      -5.57917730E-08
  -11.5699997      -5.64399940E-08
  -11.5600004      -5.71030654E-08
  -11.5500002      -5.77810972E-08
  -11.5400000      -5.84739865E-08
  -11.5299997      -5.91815450E-08
  -11.5200005      -5.99038401E-08
  -11.5100002      -6.06411490E-08
  -11.5000000      -6.13930808E-08
  -11.4899998      -6.21592804E-08
  -11.4799995      -6.29402095E-08
  -11.4700003      -6.37358752E-08
  -11.4600000      -6.45458584E-08
  -11.4499998      -6.53700596E-08
  -11.4399996      -6.62088198E-08
  -11.4300003      -6.70630058E-08
  -11.4200001      -6.79309338E-08
  -11.4099998      -6.88138826E-08
  -11.3999996      -6.97115752E-08
  -11.3900003      -7.06236420E-08
  -11.3800001      -7.15507298E-08
  -11.3699999      -7.24923268E-08
  -11.3599997      -7.34491650E-08
  -11.3500004      -7.44210951E-08
  -11.3400002      -7.54083800E-08
  -11.3299999      -7.64105224E-08
  -11.3199997      -7.74284388E-08
  -11.3100004      -7.84615466E-08
  -11.3000002      -7.95105422E-08
  -11.2900000      -8.05754325E-08
  -11.2799997      -8.16558696E-08
  -11.2700005      -8.27530044E-08
  -11.2600002      -8.38657357E-08
  -11.2500000      -8.49951221E-08
  -11.2399998      -8.61408012E-08
  -11.2299995      -8.73035901E-08
  -11.2200003      -8.84827855E-08
  -11.2100000      -8.96795100E-08
  -11.1999998      -9.08936855E-08
  -11.1899996      -9.21251413E-08
  -11.1800003      -9.33741191E-08
  -11.1700001      -9.46409600E-08
  -11.1599998      -9.59256710E-08
  -11.1499996      -9.72285292E-08
  -11.1400003      -9.85498190E-08
  -11.1300001      -9.98892205E-08
  -11.1199999      -1.01247352E-07
  -11.1099997      -1.02624327E-07
  -11.1000004      -1.04020565E-07
  -11.0900002      -1.05436278E-07
  -11.0799999      -1.06870971E-07
  -11.0699997      -1.08325018E-07
  -11.0600004      -1.09798798E-07
  -11.0500002      -1.11292877E-07
  -11.0400000      -1.12807363E-07
  -11.0299997      -1.14342207E-07
  -11.0200005      -1.15897528E-07
  -11.0100002      -1.17473149E-07
  -11.0000000      -1.19068766E-07
  -10.9899998      -1.20685172E-07
  -10.9799995      -1.22322433E-07
  -10.9700003      -1.23980755E-07
  -10.9600000      -1.25659952E-07
  -10.9499998      -1.27360238E-07
  -10.9399996      -1.29081428E-07
  -10.9300003      -1.30822571E-07
  -10.9200001      -1.32585527E-07
  -10.9099998      -1.34369230E-07
  -10.8999996      -1.36174151E-07
  -10.8900003      -1.37999862E-07
  -10.8800001      -1.39846080E-07
  -10.8699999      -1.41713997E-07
  -10.8599997      -1.43603259E-07
  -10.8500004      -1.45512814E-07
  -10.8400002      -1.47443359E-07
  -10.8299999      -1.49395831E-07
  -10.8199997      -1.51367544E-07
  -10.8100004      -1.53361100E-07
  -10.8000002      -1.55375631E-07
  -10.7900000      -1.57411264E-07
  -10.7799997      -1.59468001E-07
  -10.7700005      -1.61545302E-07
  -10.7600002      -1.63643335E-07
  -10.7500000      -1.65762856E-07
  -10.7399998      -1.67903352E-07
  -10.7299995      -1.70064837E-07
  -10.7200003      -1.72247809E-07
  -10.7100000      -1.74451401E-07
  -10.6999998      -1.76676465E-07
  -10.6899996      -1.78922747E-07
  -10.6800003      -1.81190501E-07
  -10.6700001      -1.83479472E-07
  -10.6599998      -1.85790256E-07
  -10.6499996      -1.88123423E-07
  -10.6400003      -1.90477365E-07
  -10.6300001      -1.92854273E-07
  -10.6199999      -1.95252511E-07
  -10.6099997      -1.97672918E-07
  -10.6000004      -2.00115124E-07
  -10.5900002      -2.02580537E-07
  -10.5799999      -2.05068787E-07
  -10.5699997      -2.07579902E-07
  -10.5600004      -2.10112930E-07
  -10.5500002      -2.12668340E-07
  -10.5400000      -2.15246274E-07
  -10.5299997      -2.17847514E-07
  -10.5200005      -2.20472074E-07
  -10.5100002      -2.23119713E-07
  -10.5000000      -2.25790657E-07
  -10.4899998      -2.28485035E-07
  -10.4799995      -2.31203913E-07
  -10.4700003      -2.33945599E-07
  -10.4600000      -2.36711088E-07
  -10.4499998      -2.39499656E-07
  -10.4399996      -2.42312467E-07
  -10.4300003      -2.45150090E-07
  -10.4200001      -2.48012213E-07
  -10.4099998      -2.50898069E-07
  -10.3999996      -2.53808992E-07
  -10.3900003      -2.56744897E-07
  -10.3800001      -2.59705359E-07
  -10.3699999      -2.62691117E-07
  -10.3599997      -2.65702369E-07
  -10.3500004      -2.68738688E-07
  -10.3400002      -2.71801468E-07
  -10.3299999      -2.74889061E-07
  -10.3199997      -2.78002659E-07
  -10.3100004      -2.81143599E-07
  -10.3000002      -2.84310090E-07
  -10.2900000      -2.87503497E-07
  -10.2799997      -2.90724472E-07
  -10.2700005      -2.93972164E-07
  -10.2600002      -2.97249073E-07
  -10.2500000      -3.00552898E-07
  -10.2399998      -3.03885031E-07
  -10.2299995      -3.07244960E-07
  -10.2200003      -3.10634874E-07
  -10.2100000      -3.14054461E-07
  -10.1999998      -3.17503265E-07
  -10.1899996      -3.20983190E-07
  -10.1800003      -3.24493669E-07
  -10.1700001      -3.28034616E-07
  -10.1599998      -3.31606856E-07
  -10.1499996      -3.35211354E-07
  -10.1400003      -3.38846434E-07
  -10.1300001      -3.42517524E-07
  -10.1199999      -3.46218968E-07
  -10.1099997      -3.49956139E-07
  -10.1000004      -3.53727700E-07
  -10.0900002      -3.57534702E-07
  -10.0799999      -3.61376948E-07
  -10.0699997      -3.65255431E-07
  -10.0600004      -3.69169612E-07
  -10.0500002      -3.73123243E-07
  -10.0400000      -3.77114901E-07
  -10.0299997      -3.81142996E-07
  -10.0200005      -3.85210512E-07
  -10.0100002      -3.89318444E-07
  -10.0000000      -3.93468099E-07
  -9.98999977      -3.97657885E-07
  -9.97999954      -4.01888968E-07
  -9.97000027      -4.06164560E-07
  -9.96000004      -4.10482897E-07
  -9.94999981      -4.14843413E-07
  -9.93999958      -4.19248948E-07
  -9.93000031      -4.23697657E-07
  -9.92000008      -4.28192266E-07
  -9.90999985      -4.32731895E-07
  -9.89999962      -4.37322115E-07
  -9.89000034      -4.41958235E-07
  -9.88000011      -4.46638467E-07
  -9.86999989      -4.51372046E-07
  -9.85999966      -4.56153430E-07
  -9.85000038      -4.60984893E-07
  -9.84000015      -4.65868339E-07
  -9.82999992      -4.70803286E-07
  -9.81999969      -4.75790671E-07
  -9.81000042      -4.80830465E-07
  -9.80000019      -4.85923465E-07
  -9.78999996      -4.91069216E-07
  -9.77999973      -4.96270559E-07
  -9.77000046      -5.01527040E-07
  -9.76000023      -5.06838774E-07
  -9.75000000      -5.12206555E-07
  -9.73999977      -5.17630042E-07
  -9.72999954      -5.23113044E-07
  -9.72000027      -5.28652038E-07
  -9.71000004      -5.34249637E-07
  -9.69999981      -5.39901862E-07
  -9.68999958      -5.45616786E-07
  -9.68000031      -5.51390201E-07
  -9.67000008      -5.57224325E-07
  -9.65999985      -5.63117851E-07
  -9.64999962      -5.69074473E-07
  -9.64000034      -5.75093338E-07
  -9.63000011      -5.81172458E-07
  -9.61999989      -5.87313309E-07
  -9.60999966      -5.93519133E-07
  -9.60000038      -5.99786574E-07
  -9.59000015      -6.06117169E-07
  -9.57999992      -6.12511826E-07
  -9.56999969      -6.18971399E-07
  -9.56000042      -6.25496000E-07
  -9.55000019      -6.32084095E-07
  -9.53999996      -6.38739039E-07
  -9.52999973      -6.45457078E-07
  -9.52000046      -6.52244296E-07
  -9.51000023      -6.59101431E-07
  -9.50000000      -6.66022231E-07
  -9.48999977      -6.73011698E-07
  -9.47999954      -6.80069832E-07
  -9.47000027      -6.87199929E-07
  -9.46000004      -6.94395794E-07
  -9.44999981      -7.01662657E-07
  -9.43999958      -7.08998357E-07
  -9.43000031      -7.16405395E-07
  -9.42000008      -7.23879225E-07
  -9.40999985      -7.31426837E-07
  -9.39999962      -7.39046357E-07
  -9.39000034      -7.46737896E-07
  -9.38000011      -7.54502139E-07
  -9.36999989      -7.62335105E-07
  -9.35999966      -7.70247993E-07
  -9.35000038      -7.78229378E-07
  -9.34000015      -7.86288808E-07
  -9.32999992      -7.94423386E-07
  -9.31999969      -8.02634020E-07
  -9.31000042      -8.10923552E-07
  -9.30000019      -8.19287379E-07
  -9.28999996      -8.27730048E-07
  -9.27999973      -8.36247409E-07
  -9.27000046      -8.44846397E-07
  -9.26000023      -8.53522408E-07
  -9.25000000      -8.62280103E-07
  -9.23999977      -8.71120903E-07
  -9.22999954      -8.80040943E-07
  -9.22000027      -8.89039939E-07
  -9.21000004      -8.98122380E-07
  -9.19999981      -9.07285596E-07
  -9.18999958      -9.16534646E-07
  -9.18000031      -9.25865834E-07
  -9.17000008      -9.35284220E-07
  -9.15999985      -9.44785199E-07
  -9.14999962      -9.54373945E-07
  -9.14000034      -9.64050741E-07
  -9.13000011      -9.73810529E-07
  -9.11999989      -9.83661948E-07
  -9.10999966      -9.93599542E-07
  -9.10000038      -1.00362900E-06
  -9.09000015      -1.01374849E-06
  -9.07999992      -1.02395688E-06
  -9.06999969      -1.03426032E-06
  -9.06000042      -1.04465619E-06
  -9.05000019      -1.05514493E-06
  -9.03999996      -1.06572656E-06
  -9.02999973      -1.07640744E-06
  -9.02000046      -1.08718314E-06
  -9.01000023      -1.09805217E-06
  -9.00000000      -1.10902181E-06
  -8.98999977      -1.12008411E-06
  -8.97999954      -1.13125679E-06
  -8.97000027      -1.14253055E-06
  -8.96000004      -1.15390185E-06
  -8.94999981      -1.16536967E-06
  -8.93999958      -1.17694412E-06
  -8.93000031      -1.18862636E-06
  -8.92000008      -1.20041329E-06
  -8.90999985      -1.21230994E-06
  -8.89999962      -1.22431209E-06
  -8.89000034      -1.23642576E-06
  -8.88000011      -1.24864789E-06
  -8.86999989      -1.26097689E-06
  -8.85999966      -1.27341821E-06
  -8.85000038      -1.28597628E-06
  -8.84000015      -1.29864577E-06
  -8.82999992      -1.31142951E-06
  -8.81999969      -1.32432911E-06
  -8.81000042      -1.33735216E-06
  -8.80000019      -1.35048379E-06
  -8.78999996      -1.36374433E-06
  -8.77999973      -1.37712561E-06
  -8.77000046      -1.39062934E-06
  -8.76000023      -1.40425288E-06
  -8.75000000      -1.41800433E-06
  -8.73999977      -1.43188390E-06
  -8.72999954      -1.44588500E-06
  -8.72000027      -1.46001798E-06
  -8.71000004      -1.47428261E-06
  -8.69999981      -1.48867355E-06
  -8.68999958      -1.50319340E-06
  -8.68000031      -1.51785707E-06
  -8.67000008      -1.53265444E-06
  -8.65999985      -1.54758527E-06
  -8.64999962      -1.56264980E-06
  -8.64000034      -1.57784621E-06
  -8.63000011      -1.59318813E-06
  -8.61999989      -1.60867501E-06
  -8.60999966      -1.62430490E-06
  -8.60000038      -1.64006804E-06
  -8.59000015      -1.65597623E-06
  -8.57999992      -1.67203461E-06
  -8.56999969      -1.68824795E-06
  -8.56000042      -1.70459680E-06
  -8.55000019      -1.72110163E-06
  -8.53999996      -1.73775675E-06
  -8.52999973      -1.75457330E-06
  -8.52000046      -1.77152901E-06
  -8.51000023      -1.78864082E-06
  -8.50000000      -1.80590644E-06
  -8.48999977      -1.82333451E-06
  -8.47999954      -1.84092221E-06
  -8.47000027      -1.85867680E-06
  -8.46000004      -1.87658748E-06
  -8.44999981      -1.89465686E-06
  -8.43999958      -1.91289109E-06
  -8.43000031      -1.93129631E-06
  -8.42000008      -1.94986319E-06
  -8.40999985      -1.96859332E-06
  -8.39999962      -1.98749581E-06
  -8.39000034      -2.00656382E-06
  -8.38000011      -2.02581327E-06
  -8.36999989      -2.04522985E-06
  -8.35999966      -2.06481741E-06
  -8.35000038      -2.08457777E-06
  -8.34000015      -2.10452504E-06
  -8.32999992      -2.12464352E-06
  -8.31999969      -2.14493616E-06
  -8.31000042      -2.16540116E-06
  -8.30000019      -2.18606533E-06
  -8.28999996      -2.20690913E-06
  -8.27999973      -2.22793324E-06
  -8.27000046      -2.24914993E-06
  -8.26000023      -2.27055625E-06
  -8.25000000      -2.29214265E-06
  -8.23999977      -2.31393119E-06
  -8.22999954      -2.33590345E-06
  -8.22000027      -2.35806692E-06
  -8.21000004      -2.38041798E-06
  -8.19999981      -2.40297845E-06
  -8.18999958      -2.42573037E-06
  -8.18000031      -2.44868625E-06
  -8.17000008      -2.47184244E-06
  -8.15999985      -2.49519007E-06
  -8.14999962      -2.51874940E-06
  -8.14000034      -2.54250904E-06
  -8.13000011      -2.56646149E-06
  -8.11999989      -2.59062926E-06
  -8.10999966      -2.61501418E-06
  -8.10000038      -2.63959782E-06
  -8.09000015      -2.66439110E-06
  -8.07999992      -2.68940153E-06
  -8.06999969      -2.71462727E-06
  -8.06000042      -2.74008494E-06
  -8.05000019      -2.76574883E-06
  -8.03999996      -2.79162759E-06
  -8.02999973      -2.81773123E-06
  -8.02000046      -2.84405405E-06
  -8.01000023      -2.87061380E-06
  -8.00000000      -2.89739660E-06
  -7.98999977      -2.92440609E-06
  -7.98000002      -2.95165114E-06
  -7.96999979      -2.97912243E-06
  -7.96000004      -3.00682927E-06
  -7.94999981      -3.03474621E-06
  -7.94000006      -3.06292463E-06
  -7.92999983      -3.09132770E-06
  -7.92000008      -3.11997564E-06
  -7.90999985      -3.14886506E-06
  -7.90000010      -3.17799913E-06
  -7.88999987      -3.20738059E-06
  -7.88000011      -3.23701374E-06
  -7.86999989      -3.26688314E-06
  -7.86000013      -3.29700833E-06
  -7.84999990      -3.32738614E-06
  -7.84000015      -3.35802338E-06
  -7.82999992      -3.38892119E-06
  -7.82000017      -3.42006706E-06
  -7.80999994      -3.45146896E-06
  -7.80000019      -3.48312005E-06
  -7.78999996      -3.51506219E-06
  -7.78000021      -3.54724398E-06
  -7.76999998      -3.57969839E-06
  -7.76000023      -3.61241450E-06
  -7.75000000      -3.64540142E-06
  -7.73999977      -3.67865960E-06
  -7.73000002      -3.71218471E-06
  -7.71999979      -3.74599972E-06
  -7.71000004      -3.78009099E-06
  -7.69999981      -3.81445693E-06
  -7.69000006      -3.84909572E-06
  -7.67999983      -3.88404669E-06
  -7.67000008      -3.91925687E-06
  -7.65999985      -3.95476809E-06
  -7.65000010      -3.99054625E-06
  -7.63999987      -4.02663682E-06
  -7.63000011      -4.06302388E-06
  -7.61999989      -4.09969289E-06
  -7.61000013      -4.13665930E-06
  -7.59999990      -4.17392221E-06
  -7.59000015      -4.21148206E-06
  -7.57999992      -4.24934251E-06
  -7.57000017      -4.28751173E-06
  -7.55999994      -4.32599199E-06
  -7.55000019      -4.36477330E-06
  -7.53999996      -4.40385884E-06
  -7.53000021      -4.44326361E-06
  -7.51999998      -4.48298351E-06
  -7.51000023      -4.52301629E-06
  -7.50000000      -4.56335556E-06
  -7.48999977      -4.60402271E-06
  -7.48000002      -4.64501591E-06
  -7.46999979      -4.68633652E-06
  -7.46000004      -4.72797183E-06
  -7.44999981      -4.76991909E-06
  -7.44000006      -4.81224106E-06