  -16.0000000       0.00000000    
  -15.9899998       0.00000000    
  -15.9799995       0.00000000    
  -15.9700003       0.00000000    
  -15.9600000       0.00000000    
  -15.9499998       0.00000000    
  -15.9399996       0.00000000    
  -15.9300003       0.00000000    
  -15.9200001       0.00000000    
  -15.9099998       0.00000000    
  -15.8999996       0.00000000    
  -15.8900003       1.29858329E-41
  -15.8800001       1.62184883E-40
  -15.8699999       1.29440742E-39
  -15.8599997       1.15357734E-38
  -15.8500004       1.17114371E-37
  -15.8400002       1.06655970E-36
  -15.8299999       7.91590121E-36
  -15.8199997       4.77200226E-35
  -15.8100004       2.37934039E-34
  -15.8000002       1.00005852E-33
  -15.7900000       3.59878110E-33
  -15.7799997       1.12154871E-32
  -15.7700005       3.04914889E-32
  -15.7600002       7.25148535E-32
  -15.7500000       1.50381392E-31
  -15.7399998       2.68497580E-31
  -15.7299995       3.99230184E-31
  -15.7200003       4.49144919E-31
  -15.7100000       2.32052929E-31
  -15.6999998      -5.16204520E-31
  -15.6899996      -2.04152956E-30
  -15.6800003      -4.38218351E-30
  -15.6700001      -7.13061042E-30
  -15.6599998      -9.22639234E-30
  -15.6499996      -8.78081792E-30
  -15.6400003      -2.71217918E-30
  -15.6300001       1.41784119E-29
  -15.6199999       5.05625462E-29
  -15.6099997       1.18392607E-28
  -15.6000004       2.26074420E-28
  -15.5900002       3.57732219E-28
  -15.5799999       4.35208071E-28
  -15.5699997       2.75566390E-28
  -15.5600004      -4.13219007E-28
  -15.5500002      -1.92496968E-27
  -15.5400000      -4.26402315E-27
  -15.5299997      -6.67661672E-27
  -15.5200005      -7.19778183E-27
  -15.5100002      -2.65975182E-27
  -15.5000000       1.02241442E-26
  -15.4899998       3.22631199E-26
  -15.4799995       5.80112224E-26
  -15.4700003       7.25068312E-26
  -15.4600000       5.17052841E-26
  -15.4499998      -2.97108036E-26
  -15.4399996      -1.81266012E-25
  -15.4300003      -3.73477321E-25
  -15.4200001      -5.18922120E-25
  -15.4099998      -4.74625362E-25
  -15.3999996      -8.32665057E-26
  -15.3900003       7.39608177E-25
  -15.3800001       1.88847522E-24
  -15.3699999       2.96715061E-24
  -15.3599997       3.27548380E-24
  -15.3500004       1.95620998E-24
  -15.3400002      -1.65953674E-24
  -15.3299999      -7.54158283E-24
  -15.3199997      -1.44143410E-23
  -15.3100004      -1.93986655E-23
  -15.3000002      -1.81357513E-23
  -15.2900000      -5.70860456E-24
  -15.2799997       2.13745996E-23
  -15.2700005       6.20663202E-23
  -15.2600002       1.06921740E-22
  -15.2500000       1.34758243E-22
  -15.2399998       1.12360008E-22
  -15.2299995       1.05177582E-24
  -15.2200003      -2.25829925E-22
  -15.2100000      -5.53087672E-22
  -15.1999998      -8.86879586E-22
  -15.1899996      -1.02793660E-21
  -15.1800003      -6.84407997E-22
  -15.1700001       4.40213920E-22
  -15.1599998       2.46156490E-21
  -15.1499996       5.05133957E-21
  -15.1400003       7.18974402E-21
  -15.1300001       7.11096234E-21
  -15.1199999       2.66759729E-21
  -15.1099997      -7.71151728E-21
  -15.1000004      -2.35100240E-20
  -15.0900002      -4.04829300E-20
  -15.0799999      -4.97735383E-20
  -15.0699997      -3.89972329E-20
  -15.0600004       3.63571648E-21
  -15.0500002       8.19836800E-20
  -15.0400000       1.82994931E-19
  -15.0299997       2.69895334E-19
  -15.0200005       2.83177605E-19
  -15.0100002       1.55062786E-19
  -15.0000000      -1.60036882E-19
  -14.9899998      -6.43444101E-19
  -14.9799995      -1.17257867E-18
  -14.9700003      -1.50691411E-18
  -14.9600000      -1.32579785E-18
  -14.9499998      -3.35894446E-19
  -14.9399996       1.55816229E-18
  -14.9300003       4.06333368E-18
  -14.9200001       6.37173752E-18
  -14.9099998       7.20601368E-18
  -14.8999996       5.12963070E-18
  -14.8900003      -8.55300876E-19
  -14.8800001      -1.05284566E-17
  -14.8699999      -2.17525340E-17
  -14.8599997      -3.02456043E-17
  -14.8500004      -3.02321742E-17
  -14.8400002      -1.62135540E-17
  -14.8299999       1.42872836E-17
  -14.8199997       5.76956558E-17
  -14.8100004       1.02308345E-16
  -14.8000002       1.28694189E-16
  -14.7900000       1.13858698E-16
  -14.7799997       3.94776513E-17
  -14.7700005      -9.71628053E-17
  -14.7600002      -2.72862982E-16
  -14.7500000      -4.33791248E-16
  -14.7399998      -5.01574901E-16
  -14.7299995      -3.93503105E-16
  -14.7200003      -5.58273725E-17
  -14.7100000       4.97140524E-16
  -14.6999998       1.15182018E-15
  -14.6899996       1.68956826E-15
  -14.6800003       1.82220949E-15
  -14.6700001       1.27548053E-15
  -14.6599998      -8.96632219E-17
  -14.6499996      -2.14905007E-15
  -14.6400003      -4.43016951E-15
  -14.6300001      -6.12641270E-15
  -14.6199999      -6.25469118E-15
  -14.6099997      -3.96285974E-15
  -14.6000004       1.06368672E-15
  -14.5900002       8.21188532E-15
  -14.5799999       1.57309045E-14
  -14.5699997       2.08712171E-14
  -14.5600004       2.04825848E-14
  -14.5500002       1.20498035E-14
  -14.5400000      -5.03573835E-15
  -14.5299997      -2.83556697E-14
  -14.5200005      -5.19957815E-14
  -14.5100002      -6.72017170E-14
  -14.5000000      -6.44085547E-14
  -14.4899998      -3.64766065E-14
  -14.4799995       1.75648036E-14
  -14.4700003       8.94526898E-14
  -14.4600000       1.60744153E-13
  -14.4499998       2.05228575E-13
  -14.4399996       1.95216740E-13
  -14.4300003       1.10992467E-13
  -14.4200001      -4.87356364E-14
  -14.4099998      -2.58782796E-13
  -14.3999996      -4.65702021E-13
  -14.3900003      -5.95402633E-13
  -14.3800001      -5.71117806E-13
  -14.3699999      -3.39353410E-13
  -14.3599997       1.02319798E-13
  -14.3500004       6.84692266E-13
  -14.3400002       1.26347175E-12
  -14.3299999       1.64050772E-12
  -14.3199997       1.61139125E-12
  -14.3100004       1.03257149E-12
  -14.3000002      -1.07903412E-13
  -14.2900000      -1.63880921E-12
  -14.2799997      -3.19747961E-12
  -14.2700005      -4.28246241E-12
  -14.2600002      -4.37045495E-12
  -14.2500000      -3.08024461E-12
  -14.2399998      -3.45425918E-13
  -14.2299995       3.45795658E-12
  -14.2200003       7.48485648E-12
  -14.2100000       1.05368674E-11
  -14.1999998       1.13279750E-11
  -14.1899996       8.86236397E-12
  -14.1800003       2.83922191E-12
  -14.1700001      -6.03479332E-12
  -14.1599998      -1.59515283E-11
  -14.1499996      -2.42193453E-11
  -14.1400003      -2.78179649E-11
  -14.1300001      -2.42177545E-11
  -14.1199999      -1.22889563E-11
  -14.1099997       6.94864825E-12
  -14.1000004       3.00065355E-11
  -14.0900002       5.12525439E-11
  -14.0799999       6.39608783E-11
  -14.0699997       6.19716778E-11
  -14.0600004       4.16385190E-11
  -14.0500002       3.56996117E-12
  -14.0400000      -4.63905060E-11
  -14.0299997      -9.74263448E-11
  -14.0200005      -1.35494227E-10
  -14.0100002      -1.46434281E-10
  -14.0000000      -1.19907570E-10
  -13.9899998      -5.32578148E-11
  -13.9799995       4.57947326E-11
  -13.9700003       1.58668065E-10
  -13.9600000       2.58298133E-10
  -13.9499998       3.14426679E-10
  -13.9399996       3.01023872E-10
  -13.9300003       2.04337491E-10
  -13.9200001       2.95206429E-11
  -13.9099998      -1.96272221E-10
  -13.8999996      -4.25961766E-10
  -13.8900003      -6.00410721E-10
  -13.8800001      -6.61272370E-10
  -13.8699999      -5.66497016E-10
  -13.8599997      -3.04976822E-10
  -13.8500004       9.37374137E-11
  -13.8400002       5.58276259E-10
  -13.8299999       9.84955228E-10
  -13.8199997       1.25771016E-09
  -13.8100004       1.27533617E-09
  -13.8000002       9.80484360E-10
  -13.7900000       3.83123894E-10
  -13.7799997      -4.28672514E-10
  -13.7700005      -1.29594746E-09
  -13.7600002      -2.01561079E-09
  -13.7500000      -2.38349873E-09
  -13.7399998      -2.24556396E-09
  -13.7299995      -1.54552260E-09
  -13.7200003      -3.55929453E-10
  -13.7100000       1.11813192E-09
  -13.6999998       2.56834665E-09
  -13.6899996       3.64341246E-09
  -13.6800003       4.02970990E-09
  -13.6700001       3.53487550E-09
  -13.6599998       2.15321450E-09
  -13.6499996       9.34319080E-11
  -13.6400003      -2.24397390E-09
  -13.6300001      -4.34100755E-09
  -13.6199999      -5.67604008E-09
  -13.6099997      -5.85328941E-09
  -13.6000004      -4.71626471E-09
  -13.5900002      -2.41358156E-09
  -13.5799999       6.05786199E-10
  -13.5699997       3.67547970E-09
  -13.5600004       6.06047212E-09
  -13.5500002       7.13999082E-09
  -13.5400000       6.57996280E-09
  -13.5299997       4.44745396E-09
  -13.5200005       1.22943289E-09
  -13.5100002      -2.26074270E-09
  -13.5000000      -5.07742959E-09
  -13.4899998      -6.39551656E-09
  -13.4799995      -5.76006265E-09
  -13.4700003      -3.26160055E-09
  -13.4600000       4.22113317E-10
  -13.4499998       4.14896562E-09
  -13.4399996       6.58939214E-09
  -13.4300003       6.60276767E-09
  -13.4200001       3.62167230E-09
  -13.4099998      -2.06379780E-09
  -13.3999996      -9.21901577E-09
  -13.3900003      -1.58352460E-08
  -13.3800001      -1.95558130E-08
  -13.3699999      -1.82870199E-08
  -13.3599997      -1.08598952E-08
  -13.3500004       2.42845921E-09
  -13.3400002       1.95620302E-08
  -13.3299999       3.69644475E-08
  -13.3199997       5.01032851E-08
  -13.3100004       5.44649410E-08
  -13.3000002       4.67179220E-08
  -13.2900000       2.57986592E-08
  -13.2799997      -6.36530828E-09
  -13.2700005      -4.47403252E-08
  -13.2600002      -8.18102066E-08
  -13.2500000      -1.08907841E-07
  -13.2399998      -1.18043459E-07
  -13.2299995      -1.03868729E-07
  -13.2200003      -6.53264252E-08
  -13.2100000      -6.55277210E-09
  -13.1999998       6.32841122E-08
  -13.1899996       1.31313044E-07
  -13.1800003       1.83292684E-07
  -13.1700001       2.06537763E-07
  -13.1599998       1.92832431E-07
  -13.1499996       1.40673606E-07
  -13.1400003       5.62643940E-08
  -13.1300001      -4.70787853E-08
  -13.1199999      -1.51110640E-07
  -13.1099997      -2.36077653E-07
  -13.1000004      -2.84700178E-07
  -13.0900002      -2.85866690E-07
  -13.0799999      -2.37207189E-07
  -13.0699997      -1.45909823E-07
  -13.0600004      -2.75279124E-08
  -13.0500002       9.70404699E-08
  -13.0400000       2.05777610E-07
  -13.0299997       2.80042457E-07
  -13.0200005       3.08338201E-07
  -13.0100002       2.88450593E-07
  -13.0000000       2.27477202E-07
  -12.9899998       1.39718779E-07
  -12.9799995       4.29647926E-08
  -12.9700003      -4.58964813E-08
  -12.9600000      -1.14819265E-07
  -12.9499998      -1.59052775E-07
  -12.9399996      -1.81428447E-07
  -12.9300003      -1.90376070E-07
  -12.9200001      -1.96175534E-07
  -12.9099998      -2.06491308E-07
  -12.8999996      -2.22512526E-07
  -12.8900003      -2.36974657E-07
  -12.8800001      -2.34921998E-07
  -12.8699999      -1.97377204E-07
  -12.8599997      -1.07274673E-07
  -12.8500004       4.37213750E-08
  -12.8400002       2.49351558E-07
  -12.8299999       4.85689441E-07
  -12.8199997       7.12244571E-07
  -12.8100004       8.77715991E-07
  -12.8000002       9.29755743E-07
  -12.7900000       8.26997336E-07
  -12.7799997       5.50731500E-07
  -12.7700005       1.13521637E-07
  -12.7600002      -4.37791840E-07
  -12.7500000      -1.02599677E-06
  -12.7399998      -1.55434088E-06
  -12.7299995      -1.92263064E-06
  -12.7200003      -2.04569346E-06
  -12.7100000      -1.87052831E-06
  -12.6999998      -1.38854512E-06
  -12.6899996      -6.40172743E-07
  -12.6800003       2.89363015E-07
  -12.6700001       1.28247837E-06
  -12.6599998       2.20749575E-06
  -12.6499996       2.93918310E-06
  -12.6400003       3.37765300E-06
  -12.6300001       3.46197953E-06
  -12.6199999       3.17653962E-06
  -12.6099997       2.54934662E-06
  -12.6000004       1.64377821E-06
  -12.5900002       5.46163847E-07
  -12.5799999      -6.47419540E-07
  -12.5699997      -1.84221710E-06
  -12.5600004      -2.95157247E-06
  -12.5500002      -3.89887600E-06
  -12.5400000      -4.61567106E-06
  -12.5299997      -5.03798765E-06
  -12.5200005      -5.10388963E-06
  -12.5100002      -4.75475190E-06
  -12.5000000      -3.94192557E-06
  -12.4899998      -2.63895890E-06
  -12.4799995      -8.57872521E-07
  -12.4700003       1.33365302E-06
  -12.4600000       3.79817538E-06
  -12.4499998       6.32132878E-06
  -12.4399996       8.61520130E-06
  -12.4300003       1.03338562E-05
  -12.4200001       1.11006384E-05
  -12.4099998       1.05449262E-05
  -12.3999996       8.34388902E-06
  -12.3900003       4.26313454E-06
  -12.3800001      -1.80865129E-06
  -12.3699999      -9.83784867E-06
  -12.3599997      -1.96386900E-05
  -12.3500004      -3.08833951E-05
  -12.3400002      -4.31266599E-05
  -12.3299999      -5.58421052E-05
  -12.3199997      -6.84641927E-05
  -12.3100004      -8.04298907E-05
  -12.3000002      -9.12154283E-05
  -12.2900000      -1.00363024E-04
  -12.2799997      -1.07498083E-04
  -12.2700005      -1.12335161E-04
  -12.2600002      -1.14677270E-04
  -12.2500000      -1.14409995E-04
  -12.2399998      -1.11494504E-04
  -12.2299995      -1.05959443E-04
  -12.2200003      -9.78906755E-05
  -12.2100000      -8.74226171E-05
  -12.1999998      -7.47208105E-05
  -12.1899996      -5.99618506E-05
  -12.1800003      -4.33050009E-05
  -12.1700001      -2.48642118E-05
  -12.1599998      -4.68364397E-06
  -12.1499996       1.72805758E-05
  -12.1400003       4.11551118E-05
  -12.1300001       6.71265807E-05
  -12.1199999       9.53937706E-05
  -12.1099997       1.26102706E-04
  -12.1000004       1.59273870E-04
  -12.0900002       1.94733177E-04
  -12.0799999       2.32063860E-04
  -12.0699997       2.70591292E-04
  -12.0600004       3.09404131E-04
  -12.0500002       3.47417779E-04
  -12.0400000       3.83466628E-04
  -12.0299997       4.16414434E-04
  -12.0200005       4.45261801E-04
  -12.0100002       4.69230668E-04
  -12.0000000       4.87812649E-04
  -11.9899998       5.00770868E-04
  -11.9799995       5.08093275E-04
  -11.9700003       5.09911333E-04
  -11.9600000       5.06396347E-04
  -11.9499998       4.97657864E-04
  -11.9399996       4.83659969E-04
  -11.9300003       4.64179233E-04
  -11.9200001       4.38809511E-04
  -11.9099998       4.07008571E-04
  -11.8999996       3.68193781E-04
  -11.8900003       3.21847008E-04
  -11.8800001       2.67630763E-04
  -11.8699999       2.05480144E-04
  -11.8599997       1.35662849E-04
  -11.8500004       5.87920840E-05
  -11.8400002      -2.41994494E-05
  -11.8299999      -1.12127003E-04
  -11.8199997      -2.03645468E-04
  -11.8100004      -2.97345367E-04
  -11.8000002      -3.91846697E-04
  -11.7900000      -4.85874421E-04
  -11.7799997      -5.78311097E-04
  -11.7700005      -6.68227731E-04
  -11.7600002      -7.54895213E-04
  -11.7500000      -8.37783213E-04
  -11.7399998      -9.16546385E-04
  -11.7299995      -9.91004286E-04
  -11.7200003      -1.06111192E-03
  -11.7100000      -1.12691079E-03
  -11.6999998      -1.18846749E-03
  -11.6899996      -1.24579133E-03
  -11.6800003      -1.29874097E-03
  -11.6700001      -1.34692783E-03
  -11.6599998      -1.38964329E-03
  -11.6499996      -1.42581505E-03
  -11.6400003      -1.45402225E-03
  -11.6300001      -1.47257315E-03
  -11.6199999      -1.47963769E-03
  -11.6099997      -1.47342868E-03
  -11.6000004      -1.45240035E-03
  -11.5900002      -1.41542370E-03
  -11.5799999      -1.36192353E-03
  -11.5699997      -1.29193114E-03
  -11.5600004      -1.20606157E-03
  -11.5500002      -1.10540597E-03
  -11.5400000      -9.91370413E-04
  -11.5299997      -8.65490816E-04
  -11.5200005      -7.29259802E-04
  -11.5100002      -5.83997578E-04
  -11.5000000      -4.30780143E-04
  -11.4899998      -2.70436984E-04
  -11.4799995      -1.03591774E-04
  -11.4700003       6.92691901E-05
  -11.4600000       2.47737073E-04
  -11.4499998       4.31434601E-04
  -11.4399996       6.20014733E-04
  -11.4300003       8.13182036E-04
  -11.4200001       1.01072656E-03
  -11.4099998       1.21253869E-03
  -11.3999996       1.41858577E-03
  -11.3900003       1.62884570E-03
  -11.3800001       1.84319017E-03
  -11.3699999       2.06125574E-03
  -11.3599997       2.28232727E-03
  -11.3500004       2.50528660E-03
  -11.3400002       2.72864383E-03
  -11.3299999       2.95067951E-03
  -11.3199997       3.16966022E-03
  -11.3100004       3.38411354E-03
  -11.3000002       3.59308464E-03
  -11.2900000       3.79632856E-03
  -11.2799997       3.99437547E-03
  -11.2700005       4.18844307E-03
  -11.2600002       4.38021356E-03
  -11.2500000       4.57147975E-03
  -11.2399998       4.76376573E-03
  -11.2299995       4.95796464E-03
  -11.2200003       5.15406812E-03
  -11.2100000       5.35106333E-03
  -11.1999998       5.54700196E-03
  -11.1899996       5.73923253E-03
  -11.1800003       5.92477154E-03
  -11.1700001       6.10072957E-03
  -11.1599998       6.26470707E-03
  -11.1499996       6.41513057E-03
  -11.1400003       6.55142171E-03
  -11.1300001       6.67399447E-03
  -11.1199999       6.78408705E-03
  -11.1099997       6.88345963E-03
  -11.1000004       6.97403261E-03
  -11.0900002       7.05752103E-03
  -11.0799999       7.13518681E-03
  -11.0699997       7.20770983E-03
  -11.0600004       7.27525773E-03
  -11.0500002       7.33770570E-03
  -11.0400000       7.39494385E-03
  -11.0299997       7.44723389E-03
  -11.0200005       7.49543356E-03
  -11.0100002       7.54110701E-03
  -11.0000000       7.58638233E-03
  -10.9899998       7.63365533E-03
  -10.9799995       7.68511649E-03
  -10.9700003       7.74227269E-03
  -10.9600000       7.80557981E-03
  -10.9499998       7.87422806E-03
  -10.9399996       7.94624444E-03
  -10.9300003       8.01878143E-03
  -10.9200001       8.08863621E-03
  -10.9099998       8.15278571E-03
  -10.8999996       8.20886251E-03
  -10.8900003       8.25542212E-03
  -10.8800001       8.29196163E-03
  -10.8699999       8.31872318E-03
  -10.8599997       8.33629351E-03
  -10.8500004       8.34522024E-03
  -10.8400002       8.34566355E-03
  -10.8299999       8.33725464E-03
  -10.8199997       8.31915531E-03
  -10.8100004       8.29030294E-03
  -10.8000002       8.24971218E-03
  -10.7900000       8.19679163E-03
  -10.7799997       8.13153572E-03
  -10.7700005       8.05453677E-03
  -10.7600002       7.96683133E-03
  -10.7500000       7.86962360E-03
  -10.7399998       7.76396645E-03
  -10.7299995       7.65046384E-03
  -10.7200003       7.52910040E-03
  -10.7100000       7.39918929E-03
  -10.6999998       7.25943549E-03
  -10.6899996       7.10812956E-03
  -10.6800003       6.94337720E-03
  -10.6700001       6.76339818E-03
  -10.6599998       6.56683883E-03
  -10.6499996       6.35307981E-03
  -10.6400003       6.12252206E-03
  -10.6300001       5.87680005E-03
  -10.6199999       5.61882369E-03
  -10.6099997       5.35262935E-03
  -10.6000004       5.08294394E-03
  -10.5900002       4.81454050E-03
  -10.5799999       4.55140881E-03
  -10.5699997       4.29600663E-03
  -10.5600004       4.04867483E-03
  -10.5500002       3.80752166E-03
  -10.5400000       3.56879178E-03
  -10.5299997       3.32774315E-03
  -10.5200005       3.07986862E-03
  -10.5100002       2.82212836E-03
  -10.5000000       2.55394867E-03
  -10.4899998       2.27765227E-03
  -10.4799995       1.99817540E-03
  -10.4700003       1.72211276E-03
  -10.4600000       1.45632867E-03
  -10.4499998       1.20645319E-03
  -10.4399996       9.75665345E-04
  -10.4300003       7.64098135E-04
  -10.4200001       5.68963762E-04
  -10.4099998       3.85397405E-04
  -10.3999996       2.07737306E-04
  -10.3900003       3.08773378E-05
  -10.3800001      -1.48623381E-04
  -10.3699999      -3.32037453E-04
  -10.3599997      -5.18538291E-04
  -10.3500004      -7.05883082E-04
  -10.3400002      -8.91357486E-04
  -10.3299999      -1.07273401E-03
  -10.3199997      -1.24897168E-03
  -10.3100004      -1.42045692E-03
  -10.3000002      -1.58882630E-03
  -10.2900000      -1.75644842E-03
  -10.2799997      -1.92582619E-03
  -10.2700005      -2.09904928E-03
  -10.2600002      -2.27753259E-03
  -10.2500000      -2.46199942E-03
  -10.2399998      -2.65269028E-03
  -10.2299995      -2.84968340E-03
  -10.2200003      -3.05312639E-03
  -10.2100000      -3.26336198E-03
  -10.1999998      -3.48085677E-03
  -10.1899996      -3.70605011E-03
  -10.1800003      -3.93912150E-03
  -10.1700001      -4.17984696E-03
  -10.1599998      -4.42753080E-03
  -10.1499996      -4.68104845E-03
  -10.1400003      -4.93889302E-03
  -10.1300001      -5.19920839E-03
  -10.1199999      -5.45978686E-03
  -10.1099997      -5.71798533E-03
  -10.1000004      -5.97066851E-03
  -10.0900002      -6.21427735E-03
  -10.0799999      -6.44504791E-03
  -10.0699997      -6.65949052E-03
  -10.0600004      -6.85493788E-03
  -10.0500002      -7.03010801E-03
  -10.0400000      -7.18545076E-03
  -10.0299997      -7.32315425E-03
  -10.0200005      -7.44670117E-03
  -10.0100002      -7.56001938E-03
  -10.0000000      -7.66648399E-03
  -9.98999977      -7.76791153E-03
  -9.97999954      -7.86392763E-03
  -9.97000027      -7.95181748E-03
  -9.96000004      -8.02697707E-03
  -9.94999981      -8.08384921E-03
  -9.93999958      -8.11708253E-03
  -9.93000031      -8.12264718E-03
  -9.92000008      -8.09854735E-03
  -9.90999985      -8.04506708E-03
  -9.89999962      -7.96436984E-03
  -9.89000034      -7.85974506E-03
  -9.88000011      -7.73464143E-03
  -9.86999989      -7.59179192E-03
  -9.85999966      -7.43275508E-03
  -9.85000038      -7.25785876E-03
  -9.84000015      -7.06660189E-03
  -9.82999992      -6.85830601E-03
  -9.81999969      -6.63275784E-03
  -9.81000042      -6.39064051E-03
  -9.80000019      -6.13356335E-03
  -9.78999996      -5.86369960E-03
  -9.77999973      -5.58317685E-03
  -9.77000046      -5.29339304E-03
  -9.76000023      -4.99456143E-03
  -9.75000000      -4.68563568E-03
  -9.73999977      -4.36464511E-03
  -9.72999954      -4.02946630E-03
  -9.72000027      -3.67861404E-03
  -9.71000004      -3.31202545E-03
  -9.69999981      -2.93137296E-03
  -9.68999958      -2.53996346E-03
  -9.68000031      -2.14211550E-03
  -9.67000008      -1.74231245E-03
  -9.65999985      -1.34435401E-03
  -9.64999962      -9.50775633E-04
  -9.64000034      -5.62791887E-04
  -9.63000011      -1.80679519E-04
  -9.61999989       1.95447428E-04
  -9.60999966       5.64853661E-04
  -9.60000038       9.25590866E-04
  -9.59000015       1.27450656E-03
  -9.57999992       1.60772877E-03
  -9.56999969       1.92160904E-03
  -9.56000042       2.21382757E-03
  -9.55000019       2.48419936E-03
  -9.53999996       2.73492583E-03
  -9.52999973       2.97016883E-03
  -9.52000046       3.19499103E-03
  -9.51000023       3.41403461E-03
  -9.50000000       3.63034918E-03
  -9.48999977       3.84477270E-03
  -9.47999954       4.05605044E-03
  -9.47000027       4.26172093E-03
  -9.46000004       4.45935922E-03
  -9.44999981       4.64780862E-03
  -9.43999958       4.82786819E-03
  -9.43000031       5.00218570E-03
  -9.42000008       5.17435232E-03
  -9.40999985       5.34750428E-03
  -9.39999962       5.52297151E-03
  -9.39000034       5.69943246E-03
  -9.38000011       5.87301003E-03
  -9.36999989       6.03827555E-03
  -9.35999966       6.18985575E-03
  -9.35000038       6.32400764E-03
  -9.34000015       6.43965974E-03
  -9.32999992       6.53838133E-03
  -9.31999969       6.62323833E-03
  -9.31000042       6.69688359E-03
  -9.30000019       6.75963005E-03
  -9.28999996       6.80801459E-03
  -9.27999973       6.83474261E-03
  -9.27000046       6.82982570E-03
  -9.26000023       6.78286608E-03
  -9.25000000       6.68554008E-03
  -9.23999977       6.53358782E-03
  -9.22999954       6.32755738E-03
  -9.22000027       6.07189676E-03
  -9.21000004       5.77292824E-03
  -9.19999981       5.43618016E-03
  -9.18999958       5.06411819E-03
  -9.18000031       4.65514045E-03
  -9.17000008       4.20406321E-03
  -9.15999985       3.70410015E-03
  -9.14999962       3.14939325E-03
  -9.14000034       2.53738137E-03
  -9.13000011       1.86989107E-03
  -9.11999989       1.15266710E-03
  -9.10999966       3.93463910E-04
  -9.10000038      -4.00634366E-04
  -9.09000015      -1.22552924E-03
  -9.07999992      -2.08118837E-03
  -9.06999969      -2.97097093E-03
  -9.06000042      -3.89936357E-03
  -9.05000019      -4.86887991E-03
  -9.03999996      -5.87730715E-03
  -9.02999973      -6.91628223E-03
  -9.02000046      -7.97190610E-03
  -9.01000023      -9.02718399E-03
  -9.00000000      -1.00656012E-02
  -8.98999977      -1.10745663E-02
  -8.97999954      -1.20475115E-02
  -8.97000027      -1.29839685E-02
  -8.96000004      -1.38875404E-02
  -8.94999981      -1.47626083E-02
  -8.93999958      -1.56108830E-02
  -8.93000031      -1.64291468E-02
  -8.92000008      -1.72090083E-02
  -8.90999985      -1.79386884E-02
  -8.89999962      -1.86062623E-02
  -8.89000034      -1.92029756E-02
  -8.88000011      -1.97254941E-02
  -8.86999989      -2.01760773E-02
  -8.85999966      -2.05606502E-02
  -8.85000038      -2.08854079E-02
  -8.84000015      -2.11531278E-02
  -8.82999992      -2.13607438E-02
  -8.81999969      -2.14989875E-02
  -8.81000042      -2.15542577E-02
  -8.80000019      -2.15122141E-02
  -8.78999996      -2.13617012E-02
  -8.77999973      -2.10976880E-02
  -8.77000046      -2.07220595E-02
  -8.76000023      -2.02420633E-02
  -8.75000000      -1.96670350E-02
  -8.73999977      -1.90045331E-02
  -8.72999954      -1.82573795E-02
  -8.72000027      -1.74226668E-02
  -8.71000004      -1.64931603E-02
  -8.69999981      -1.54604279E-02
  -8.68999958      -1.43186618E-02
  -8.68000031      -1.30676413E-02
  -8.67000008      -1.17138075E-02
  -8.65999985      -1.02689583E-02
  -8.64999962      -8.74710642E-03
  -8.64000034      -7.16057047E-03
  -8.63000011      -5.51677495E-03
  -8.61999989      -3.81684117E-03
  -8.60999966      -2.05651531E-03
  -8.60000038      -2.28963559E-04
  -8.59000015       1.67156546E-03
  -8.57999992       3.64663359E-03
  -8.56999969       5.69209643E-03
  -8.56000042       7.79883564E-03
  -8.55000019       9.95531492E-03
  -8.53999996       1.21509265E-02
  -8.52999973       1.43790646E-02
  -8.52000046       1.66385025E-02
  -8.51000023       1.89328566E-02
  -8.50000000       2.12681834E-02
  -8.48999977       2.36497279E-02
  -8.47999954       2.60789115E-02
  -8.47000027       2.85518840E-02
  -8.46000004       3.10598463E-02
  -8.44999981       3.35911736E-02
  -8.43999958       3.61345001E-02
  -8.43000031       3.86815816E-02
  -8.42000008       4.12289724E-02
  -8.40999985       4.37779054E-02
  -8.39999962       4.63325642E-02
  -8.39000034       4.88973595E-02
  -8.38000011       5.14740571E-02
  -8.36999989       5.40599488E-02
  -8.35999966       5.66473454E-02
  -8.35000038       5.92244491E-02
  -8.34000015       6.17772117E-02
  -8.32999992       6.42912984E-02
  -8.31999969       6.67536333E-02
  -8.31000042       6.91529214E-02
  -8.30000019       7.14793950E-02
  -8.28999996       7.37238228E-02
  -8.27999973       7.58767426E-02
  -8.27000046       7.79279172E-02
  -8.26000023       7.98663646E-02
  -8.25000000       8.16810131E-02
  -8.23999977       8.33613947E-02
  -8.22999954       8.48980919E-02
  -8.22000027       8.62826705E-02
  -8.21000004       8.75073597E-02
  -8.19999981       8.85643214E-02
  -8.18999958       8.94454569E-02
  -8.18000031       9.01425332E-02
  -8.17000008       9.06481296E-02
  -8.15999985       9.09566730E-02
  -8.14999962       9.10656378E-02
  -8.14000034       9.09759924E-02
  -8.13000011       9.06916633E-02
  -8.11999989       9.02184248E-02
  -8.10999966       8.95619392E-02
  -8.10000038       8.87262970E-02
  -8.09000015       8.77130553E-02
  -8.07999992       8.65216702E-02
  -8.06999969       8.51506814E-02
  -8.06000042       8.35997611E-02
  -8.05000019       8.18714872E-02
  -8.03999996       7.99721181E-02
  -8.02999973       7.79114887E-02
  -8.02000046       7.57013261E-02
  -8.01000023       7.33531639E-02
  -8.00000000       7.08763972E-02
  -7.98999977       6.82771131E-02
  -7.98000002       6.55584484E-02
  -7.96999979       6.27220199E-02
  -7.96000004       5.97703084E-02
  -7.94999981       5.67085743E-02
  -7.94000006       5.35459667E-02
  -7.92999983       5.02951927E-02
  -7.92000008       4.69707251E-02
  -7.90999985       4.35862020E-02
  -7.90000010       4.01521623E-02
  -7.88999987       3.66747044E-02
  -7.88000011       3.31557728E-02
  -7.86999989       2.95951553E-02
  -7.86000013       2.59934552E-02
  -7.84999990       2.23549493E-02
  -7.84000015       1.86897293E-02
  -7.82999992       1.50137926E-02
  -7.82000017       1.13476161E-02
  -7.80999994       7.71306455E-03
  -7.80000019       4.13011061E-03
  -7.78999996       6.13918062E-04
  -7.78000021      -2.82657845E-03
  -7.76999998      -6.18833816E-03
  -7.76000023      -9.47229099E-03
  -7.75000000      -1.26807773E-02
  -7.73999977      -1.58147663E-02
  -7.73000002      -1.88720152E-02
  -7.71999979      -2.18466874E-02
  -7.71000004      -2.47299187E-02
  -7.69999981      -2.75116153E-02
  -7.69000006      -3.01821698E-02
  -7.67999983      -3.27338949E-02
  -7.67000008      -3.51616293E-02
  -7.65999985      -3.74623835E-02
  -7.65000010      -3.96344662E-02
  -7.63999987      -4.16760854E-02
  -7.63000011      -4.35847044E-02
  -7.61999989      -4.53564450E-02
  -7.61000013      -4.69866097E-02
  -7.59999990      -4.84704711E-02
  -7.59000015      -4.98043746E-02
  -7.57999992      -5.09868227E-02
  -7.57000017      -5.20188734E-02
  -7.55999994      -5.29042557E-02
  -7.55000019      -5.36486283E-02
  -7.53999996      -5.42586856E-02
  -7.53000021      -5.47408499E-02
  -7.51999998      -5.51003590E-02
  -7.51000023      -5.53404205E-02
  -7.50000000      -5.54622300E-02
  -7.48999977      -5.54654039E-02
  -7.48000002      -5.53488582E-02
  -7.46999979      -5.51121831E-02
  -7.46000004      -5.47570214E-02
  -7.44999981      -5.42878397E-02
  -7.44000006      -5.37122265E-02