  -16.0000000       0.00000000    
  -15.9899998       0.00000000    
  -15.9799995       0.00000000    
  -15.9700003       0.00000000    
  -15.9600000       0.00000000    
  -15.9499998       0.00000000    
  -15.9399996       0.00000000    
  -15.9300003       0.00000000    
  -15.9200001       0.00000000    
  -15.9099998       0.00000000    
  -15.8999996       0.00000000    
  -15.8900003       0.00000000    
  -15.8800001       4.34402524E-44
  -15.8699999       6.24979115E-43
  -15.8599997       3.51585785E-42
  -15.8500004       2.05990874E-42
  -15.8400002      -1.23590321E-40
  -15.8299999      -1.22533321E-39
  -15.8199997      -7.74158827E-39
  -15.8100004      -3.91826228E-38
  -15.8000002      -1.71781872E-37
  -15.7900000      -6.73745468E-37
  -15.7799997      -2.39046110E-36
  -15.7700005      -7.68263044E-36
  -15.7600002      -2.23074461E-35
  -15.7500000      -5.82639515E-35
  -15.7399998      -1.36001379E-34
  -15.7299995      -2.80621152E-34
  -15.7200003      -5.01105390E-34
  -15.7100000      -7.38218029E-34
  -15.6999998      -7.75789262E-34
  -15.6899996      -1.46530146E-34
  -15.6800003       1.86445600E-33
  -15.6700001       5.93038737E-33
  -15.6599998       1.19031807E-32
  -15.6499996       1.75311156E-32
  -15.6400003       1.71875920E-32
  -15.6300001       1.91841027E-33
  -15.6199999      -3.73074224E-32
  -15.6099997      -1.01876040E-31
  -15.6000004      -1.74965998E-31
  -15.5900002      -2.15058478E-31
  -15.5799999      -1.65686046E-31
  -15.5699997       7.06175366E-33
  -15.5600004       2.52021522E-31
  -15.5500002       3.79801402E-31
  -15.5400000       9.26590593E-32
  -15.5299997      -8.13156587E-31
  -15.5200005      -2.04016862E-30
  -15.5100002      -2.31596217E-30
  -15.5000000       7.42116291E-31
  -15.4899998       9.79195145E-30
  -15.4799995       2.54107317E-29
  -15.4700003       4.23729655E-29
  -15.4600000       4.61801378E-29
  -15.4499998       1.32993407E-29
  -15.4399996      -8.03646570E-29
  -15.4300003      -2.39742095E-28
  -15.4200001      -4.22327837E-28
  -15.4099998      -5.14080150E-28
  -15.3999996      -3.33149577E-28
  -15.3900003       3.10483259E-28
  -15.3800001       1.48354634E-27
  -15.3699999       2.94665221E-27
  -15.3599997       3.99842778E-27
  -15.3500004       3.48349266E-27
  -15.3400002       1.20138523E-28
  -15.3299999      -6.76658384E-27
  -15.3199997      -1.62124721E-26
  -15.3100004      -2.46818507E-26
  -15.3000002      -2.59255470E-26
  -15.2900000      -1.24193269E-26
  -15.2799997       2.11387467E-26
  -15.2700005       7.26564806E-26
  -15.2600002       1.27514386E-25
  -15.2500000       1.56545626E-25
  -15.2399998       1.20823945E-25
  -15.2299995      -1.40789747E-26
  -15.2200003      -2.55024013E-25
  -15.2100000      -5.55486169E-25
  -15.1999998      -7.99070590E-25
  -15.1899996      -8.08273244E-25
  -15.1800003      -3.92502772E-25
  -15.1700001       5.61165326E-25
  -15.1599998       1.97061872E-24
  -15.1499996       3.45574048E-24
  -15.1400003       4.31219494E-24
  -15.1300001       3.62951786E-24
  -15.1199999       5.96896436E-25
  -15.1099997      -5.02131936E-24
  -15.1000004      -1.23525639E-23
  -15.0900002      -1.90430171E-23
  -15.0799999      -2.13371871E-23
  -15.0699997      -1.48919600E-23
  -15.0600004       3.54319676E-24
  -15.0500002       3.37671153E-23
  -15.0400000       6.97327734E-23
  -15.0299997       9.82419225E-23
  -15.0200005       1.00142926E-22
  -15.0100002       5.52684407E-23
  -15.0000000      -4.85593806E-23
  -14.9899998      -2.03868429E-22
  -14.9799995      -3.72967352E-22
  -14.9700003      -4.84427946E-22
  -14.9600000      -4.43461654E-22
  -14.9499998      -1.61162617E-22
  -14.9399996       3.98140775E-22
  -14.9300003       1.16171772E-21
  -14.9200001       1.90702795E-21
  -14.9099998       2.26420296E-21
  -14.8999996       1.79213506E-21
  -14.8900003       1.42283522E-22
  -14.8800001      -2.70924693E-21
  -14.8699999      -6.22786787E-21
  -14.8599997      -9.19773385E-21
  -14.8500004      -9.84470945E-21
  -14.8400002      -6.30983509E-21
  -14.8299999       2.52302184E-21
  -14.8199997       1.60108385E-20
  -14.8100004       3.09099947E-20
  -14.8000002       4.12227591E-20
  -14.7900000       3.92416324E-20
  -14.7799997       1.80524107E-20
  -14.7700005      -2.47700123E-20
  -14.7600002      -8.32622686E-20
  -14.7500000      -1.40654321E-19
  -14.7399998      -1.70439467E-19
  -14.7299995      -1.42519394E-19
  -14.7200003      -3.46146490E-20
  -14.7100000       1.53160413E-19
  -14.6999998       3.85300186E-19
  -14.6899996       5.86201652E-19
  -14.6800003       6.50516030E-19
  -14.6700001       4.72380411E-19
  -14.6599998      -8.91409572E-21
  -14.6499996      -7.57794480E-19
  -14.6400003      -1.60505154E-18
  -14.6300001      -2.24772207E-18
  -14.6199999      -2.30586419E-18
  -14.6099997      -1.44170281E-18
  -14.6000004       4.77122740E-19
  -14.5900002       3.21637994E-18
  -14.5799999       6.08448375E-18
  -14.5699997       7.98490101E-18
  -14.5600004       7.66058335E-18
  -14.5500002       4.12363432E-18
  -14.5400000      -2.81562210E-18
  -14.5299997      -1.20870592E-17
  -14.5200005      -2.11839731E-17
  -14.5100002      -2.64740958E-17
  -14.5000000      -2.40988947E-17
  -14.4899998      -1.13732851E-17
  -14.4799995       1.16390169E-17
  -14.4700003       4.09100668E-17
  -14.4600000       6.82213901E-17
  -14.4499998       8.24418954E-17
  -14.4399996       7.24640723E-17
  -14.4300003       3.13838446E-17
  -14.4200001      -3.91366842E-17
  -14.4099998      -1.25886963E-16
  -14.3999996      -2.04181884E-16
  -14.3900003      -2.42195281E-16
  -14.3800001      -2.09649045E-16
  -14.3699999      -8.93836348E-17
  -14.3599997       1.11289012E-16
  -14.3500004       3.53645149E-16
  -14.3400002       5.69191370E-16
  -14.3299999       6.72505938E-16
  -14.3199997       5.84842898E-16
  -14.3100004       2.64068636E-16
  -14.3000002      -2.67325875E-16
  -14.2900000      -9.06605516E-16
  -14.2799997      -1.47733642E-15
  -14.2700005      -1.76349221E-15
  -14.2600002      -1.56880529E-15
  -14.2500000      -7.89560332E-16
  -14.2399998       5.19403409E-16
  -14.2299995       2.11003467E-15
  -14.2200003       3.55948232E-15
  -14.2100000       4.35233226E-15
  -14.1999998       4.01938690E-15
  -14.1899996       2.30466505E-15
  -14.1800003      -6.85636748E-16
  -14.1700001      -4.40630054E-15
  -14.1599998      -7.91465214E-15
  -14.1499996      -1.00516798E-14
  -14.1400003      -9.74460669E-15
  -14.1300001      -6.36862474E-15
  -14.1199999      -6.92411715E-17
  -14.1099997       8.06751194E-15
  -14.1000004       1.60916406E-14
  -14.0900002       2.15542153E-14
  -14.0799999       2.21226168E-14
  -14.0699997       1.63199125E-14
  -14.0600004       4.19176573E-15
  -14.0500002      -1.23216350E-14
  -14.0400000      -2.94944157E-14
  -14.0299997      -4.24871930E-14
  -14.0200005      -4.65125375E-14
  -14.0100002      -3.82578592E-14
  -14.0000000      -1.71981299E-14
  -13.9899998       1.36176631E-14
  -13.9799995       4.76552493E-14
  -13.9700003       7.60218711E-14
  -13.9600000       8.95192869E-14
  -13.9499998       8.12142711E-14
  -13.9399996       4.88810449E-14
  -13.9300003      -3.41882170E-15
  -13.9200001      -6.52464533E-14
  -13.9099998      -1.21496278E-13
  -13.8999996      -1.55754343E-13
  -13.8900003      -1.54646193E-13
  -13.8800001      -1.12108788E-13
  -13.8699999      -3.23579935E-14
  -13.8599997       6.95155603E-14
  -13.8500004       1.69893234E-13
  -13.8400002       2.41739083E-13
  -13.8299999       2.61482405E-13
  -13.8199997       2.16016387E-13
  -13.8100004       1.07861216E-13
  -13.8000002      -4.32292718E-14
  -13.7900000      -2.03199098E-13
  -13.7799997      -3.30996163E-13
  -13.7700005      -3.88830271E-13
  -13.7600002      -3.52925263E-13
  -13.7500000      -2.21819674E-13
  -13.7399998      -1.95632000E-14
  -13.7299995       2.07763467E-13
  -13.7200003       4.02098575E-13
  -13.7100000       5.08037406E-13
  -13.6999998       4.88514719E-13
  -13.6899996       3.37229756E-13
  -13.6800003       8.38837531E-14
  -13.6700001      -2.10159676E-13
  -13.6599998      -4.65755960E-13
  -13.6499996      -6.06622337E-13
  -13.6400003      -5.81676471E-13
  -13.6300001      -3.82843876E-13
  -13.6199999      -5.25947185E-14
  -13.6099997       3.22314766E-13
  -13.6000004       6.30931071E-13
  -13.5900002       7.68045566E-13
  -13.5799999       6.66615038E-13
  -13.5699997       3.23531756E-13
  -13.5600004      -1.89762336E-13
  -13.5500002      -7.37153557E-13
  -13.5400000      -1.14843898E-12
  -13.5299997      -1.26488371E-12
  -13.5200005      -9.88818185E-13
  -13.5100002      -3.23558834E-13
  -13.5000000       6.09416434E-13
  -13.4899998       1.58465537E-12
  -13.4799995       2.31933244E-12
  -13.4700003       2.54429268E-12
  -13.4600000       2.08347944E-12
  -13.4499998       9.20841094E-13
  -13.4399996      -7.66039576E-13
  -13.4300003      -2.62021329E-12
  -13.4200001      -4.17136985E-12
  -13.4099998      -4.94375764E-12
  -13.3999996      -4.58325825E-12
  -13.3900003      -2.97235630E-12
  -13.3800001      -3.00302724E-13
  -13.3699999       2.93691959E-12
  -13.3599997       6.01719586E-12
  -13.3500004       8.14381462E-12
  -13.3400002       8.63822121E-12
  -13.3299999       7.12956647E-12
  -13.3199997       3.69137576E-12
  -13.3100004      -1.11668238E-12
  -13.3000002      -6.32484733E-12
  -13.2900000      -1.07420748E-11
  -13.2799997      -1.32230745E-11
  -13.2700005      -1.29548004E-11
  -13.2600002      -9.69201368E-12
  -13.2500000      -3.87728955E-12
  -13.2399998       3.39675835E-12
  -13.2299995       1.05889585E-11
  -13.2200003       1.60401605E-11
  -13.2100000       1.83615345E-11
  -13.1999998       1.67887319E-11
  -13.1899996       1.14112018E-11
  -13.1800003       3.20930066E-12
  -13.1700001      -6.12359382E-12
  -13.1599998      -1.45443059E-11
  -13.1499996      -2.01299637E-11
  -13.1400003      -2.15428370E-11
  -13.1300001      -1.83735024E-11
  -13.1199999      -1.12696137E-11
  -13.1099997      -1.80645733E-12
  -13.1000004       7.87836983E-12
  -13.0900002       1.56030692E-11
  -13.0799999       1.96841900E-11
  -13.0699997       1.93624578E-11
  -13.0600004       1.49957755E-11
  -13.0500002       7.95863896E-12
  -13.0400000       2.64193696E-13
  -13.0299997      -5.99910226E-12
  -13.0200005      -9.26731955E-12
  -13.0100002      -8.97089954E-12
  -13.0000000      -5.73198693E-12
  -12.9899998      -1.21550968E-12
  -12.9799995       2.34927876E-12
  -12.9700003       2.86323699E-12
  -12.9600000      -9.14689006E-13
  -12.9499998      -8.81768790E-12
  -12.9399996      -1.90798852E-11
  -12.9300003      -2.86031320E-11
  -12.9200001      -3.36624860E-11
  -12.9099998      -3.09080296E-11
  -12.8999996      -1.84218474E-11
  -12.8900003       3.45466364E-12
  -12.8800001       3.17768485E-11
  -12.8699999       6.12932899E-11
  -12.8599997       8.53859969E-11
  -12.8500004       9.74884756E-11
  -12.8400002       9.26780458E-11
  -12.8299999       6.90551852E-11
  -12.8199997       2.85463719E-11
  -12.8100004      -2.31287663E-11
  -12.8000002      -7.73913433E-11
  -12.7900000      -1.24483257E-10
  -12.7799997      -1.55535307E-10
  -12.7700005      -1.64540062E-10
  -12.7600002      -1.49733101E-10
  -12.7500000      -1.14002328E-10
  -12.7399998      -6.41726533E-11
  -12.7299995      -9.29469349E-12
  -12.7200003       4.16565324E-11
  -12.7100000       8.20856924E-11
  -12.6999998       1.09444752E-10
  -12.6899996       1.25754809E-10
  -12.6800003       1.36745046E-10
  -12.6700001       1.49738763E-10
  -12.6599998       1.70781694E-10
  -12.6499996       2.01778927E-10
  -12.6400003       2.38491116E-10
  -12.6300001       2.70107270E-10
  -12.6199999       2.80762275E-10
  -12.6099997       2.52882992E-10
  -12.6000004       1.71735029E-10
  -12.5900002       3.01427945E-11
  -12.5799999      -1.67822756E-10
  -12.5699997      -4.05270012E-10
  -12.5600004      -6.53697485E-10
  -12.5500002      -8.77033501E-10
  -12.5400000      -1.03784670E-09
  -12.5299997      -1.10446619E-09
  -12.5200005      -1.05741749E-09
  -12.5100002      -8.93609742E-10
  -12.5000000      -6.27138563E-10
  -12.4899998      -2.86317497E-10
  -12.4799995       9.25430704E-11
  -12.4700003       4.73241057E-10
  -12.4600000       8.27724611E-10
  -12.4499998       1.14196663E-09
  -12.4399996       1.41793755E-09
  -12.4300003       1.67072900E-09
  -12.4200001       1.92098892E-09
  -12.4099998       2.18396146E-09
  -12.3999996       2.45733434E-09
  -12.3900003       2.71058109E-09
  -12.3800001       2.87836932E-09
  -12.3699999       2.85989277E-09
  -12.3599997       2.52486032E-09
  -12.3500004       1.72548464E-09
  -12.3400002       3.12588788E-10
  -12.3299999      -1.84701054E-09
  -12.3199997      -4.85488227E-09
  -12.3100004      -8.76992257E-09
  -12.3000002      -1.36035680E-08
  -12.2900000      -1.93216678E-08
  -12.2799997      -2.58519712E-08
  -12.2700005      -3.30949845E-08
  -12.2600002      -4.09351024E-08
  -12.2500000      -4.92492909E-08
  -12.2399998      -5.79108281E-08
  -12.2299995      -6.67872300E-08
  -12.2200003      -7.57330625E-08
  -12.2100000      -8.45794759E-08
  -12.1999998      -9.31237665E-08
  -12.1899996      -1.01122382E-07
  -12.1800003      -1.08290124E-07
  -12.1700001      -1.14307852E-07
  -12.1599998      -1.18838145E-07
  -12.1499996      -1.21547401E-07
  -12.1400003      -1.22130928E-07
  -12.1300001      -1.20336537E-07
  -12.1199999      -1.15982161E-07
  -12.1099997      -1.08964294E-07
  -12.1000004      -9.92552742E-08
  -12.0900002      -8.68903243E-08
  -12.0799999      -7.19469995E-08
  -12.0699997      -5.45214931E-08
  -12.0600004      -3.47076856E-08
  -12.0500002      -1.25833521E-08
  -12.0400000       1.17926104E-08
  -12.0299997       3.83709668E-08
  -12.0200005       6.70924436E-08
  -12.0100002       9.78621912E-08
  -12.0000000       1.30523418E-07
  -11.9899998       1.64837203E-07
  -11.9799995       2.00473366E-07
  -11.9700003       2.37015271E-07
  -11.9600000       2.73978571E-07
  -11.9499998       3.10840818E-07
  -11.9399996       3.47075968E-07
  -11.9300003       3.82186840E-07
  -11.9200001       4.15728408E-07
  -11.9099998       4.47318001E-07
  -11.8999996       4.76629054E-07
  -11.8900003       5.03371211E-07
  -11.8800001       5.27261875E-07
  -11.8699999       5.47995171E-07
  -11.8599997       5.65217590E-07
  -11.8500004       5.78515824E-07
  -11.8400002       5.87421198E-07
  -11.8299999       5.91430478E-07
  -11.8199997       5.90040429E-07
  -11.8100004       5.82787209E-07
  -11.8000002       5.69286328E-07
  -11.7900000       5.49260847E-07
  -11.7799997       5.22555638E-07
  -11.7700005       4.89133981E-07
  -11.7600002       4.49057723E-07
  -11.7500000       4.02457147E-07
  -11.7399998       3.49497157E-07
  -11.7299995       2.90348027E-07
  -11.7200003       2.25169018E-07
  -11.7100000       1.54106019E-07
  -11.6999998       7.73069715E-08
  -11.6899996      -5.05077447E-09
  -11.6800003      -9.27256778E-08
  -11.6700001      -1.85378894E-07
  -11.6599998      -2.82549337E-07
  -11.6499996      -3.83643368E-07
  -11.6400003      -4.87940781E-07
  -11.6300001      -5.94617518E-07
  -11.6199999      -7.02778550E-07
  -11.6099997      -8.11496761E-07
  -11.6000004      -9.19849015E-07
  -11.5900002      -1.02694310E-06
  -11.5799999      -1.13193209E-06
  -11.5699997      -1.23401412E-06
  -11.5600004      -1.33241872E-06
  -11.5500002      -1.42638726E-06
  -11.5400000      -1.51514917E-06
  -11.5299997      -1.59790204E-06
  -11.5200005      -1.67380210E-06
  -11.5100002      -1.74196339E-06
  -11.5000000      -1.80147129E-06
  -11.4899998      -1.85140175E-06
  -11.4799995      -1.89084824E-06
  -11.4700003      -1.91894810E-06
  -11.4600000      -1.93490359E-06
  -11.4499998      -1.93799565E-06
  -11.4399996      -1.92758853E-06
  -11.4300003      -1.90312562E-06
  -11.4200001      -1.86411796E-06
  -11.4099998      -1.81013013E-06
  -11.3999996      -1.74076388E-06
  -11.3900003      -1.65565109E-06
  -11.3800001      -1.55444468E-06
  -11.3699999      -1.43682485E-06
  -11.3599997      -1.30250589E-06
  -11.3500004      -1.15125113E-06
  -11.3400002      -9.82889105E-07
  -11.3299999      -7.97326095E-07
  -11.3199997      -5.94556695E-07
  -11.3100004      -3.74662847E-07
  -11.3000002      -1.37805372E-07
  -11.2900000       1.15793505E-07
  -11.2799997       3.85874586E-07
  -11.2700005       6.72167914E-07
  -11.2600002       9.74417389E-07
  -11.2500000       1.29239527E-06
  -11.2399998       1.62590743E-06
  -11.2299995       1.97478175E-06
  -11.2200003       2.33884612E-06
  -11.2100000       2.71789418E-06
  -11.1999998       3.11165104E-06
  -11.1899996       3.51974154E-06
  -11.1800003       3.94167000E-06
  -11.1700001       4.37681547E-06
  -11.1599998       4.82445557E-06
  -11.1499996       5.28378723E-06
  -11.1400003       5.75398462E-06
  -11.1300001       6.23423966E-06
  -11.1199999       6.72381157E-06
  -11.1099997       7.22205550E-06
  -11.1000004       7.72843396E-06
  -11.0900002       8.24250583E-06
  -11.0799999       8.76390004E-06
  -11.0699997       9.29227008E-06
  -11.0600004       9.82724305E-06
  -11.0500002       1.03683815E-05
  -11.0400000       1.09151488E-05
  -11.0299997       1.14669028E-05
  -11.0200005       1.20229079E-05
  -11.0100002       1.25823744E-05
  -11.0000000       1.31445058E-05
  -10.9899998       1.37085617E-05
  -10.9799995       1.42739091E-05
  -10.9700003       1.48400695E-05
  -10.9600000       1.54067311E-05
  -10.9499998       1.59737501E-05
  -10.9399996       1.65411020E-05
  -10.9300003       1.71088377E-05
  -10.9200001       1.76770154E-05
  -10.9099998       1.82456370E-05
  -10.8999996       1.88145987E-05
  -10.8900003       1.93836531E-05
  -10.8800001       1.99524311E-05
  -10.8699999       2.05204451E-05
  -10.8599997       2.10871294E-05
  -10.8500004       2.16519165E-05
  -10.8400002       2.22142553E-05
  -10.8299999       2.27736382E-05
  -10.8199997       2.33296178E-05
  -10.8100004       2.38817975E-05
  -10.8000002       2.44297535E-05
  -10.7900000       2.49730474E-05
  -10.7799997       2.55111445E-05
  -10.7700005       2.60434099E-05
  -10.7600002       2.65690942E-05
  -10.7500000       2.70873388E-05
  -10.7399998       2.75972252E-05
  -10.7299995       2.80977911E-05
  -10.7200003       2.85880851E-05
  -10.7100000       2.90672069E-05
  -10.6999998       2.95342907E-05
  -10.6899996       2.99885432E-05
  -10.6800003       3.04292207E-05
  -10.6700001       3.08556082E-05
  -10.6599998       3.12670018E-05
  -10.6499996       3.16627156E-05
  -10.6400003       3.20420259E-05
  -10.6300001       3.24042157E-05
  -10.6199999       3.27485650E-05
  -10.6099997       3.30743569E-05
  -10.6000004       3.33809512E-05
  -10.5900002       3.36677513E-05
  -10.5799999       3.39342805E-05
  -10.5699997       3.41801824E-05
  -10.5600004       3.44052387E-05
  -10.5500002       3.46093620E-05
  -10.5400000       3.47925779E-05
  -10.5299997       3.49549955E-05
  -10.5200005       3.50967675E-05
  -10.5100002       3.52180505E-05
  -10.5000000       3.53189607E-05
  -10.4899998       3.53995529E-05
  -10.4799995       3.54598487E-05
  -10.4700003       3.54998265E-05
  -10.4600000       3.55194861E-05
  -10.4499998       3.55188931E-05
  -10.4399996       3.54982294E-05
  -10.4300003       3.54578333E-05
  -10.4200001       3.53981741E-05
  -10.4099998       3.53198629E-05
  -10.3999996       3.52235911E-05
  -10.3900003       3.51100934E-05
  -10.3800001       3.49800466E-05
  -10.3699999       3.48340545E-05
  -10.3599997       3.46725319E-05
  -10.3500004       3.44957298E-05
  -10.3400002       3.43037063E-05
  -10.3299999       3.40963234E-05
  -10.3199997       3.38733116E-05
  -10.3100004       3.36342928E-05
  -10.3000002       3.33788303E-05
  -10.2900000       3.31065239E-05
  -10.2799997       3.28170208E-05
  -10.2700005       3.25101428E-05
  -10.2600002       3.21858497E-05
  -10.2500000       3.18443454E-05
  -10.2399998       3.14859790E-05
  -10.2299995       3.11112635E-05
  -10.2200003       3.07207774E-05
  -10.2100000       3.03151046E-05
  -10.1999998       2.98947289E-05
  -10.1899996       2.94599831E-05
  -10.1800003       2.90110111E-05
  -10.1700001       2.85477654E-05
  -10.1599998       2.80700642E-05
  -10.1499996       2.75776474E-05
  -10.1400003       2.70702822E-05
  -10.1300001       2.65478338E-05
  -10.1199999       2.60103225E-05
  -10.1099997       2.54579772E-05
  -10.1000004       2.48912220E-05
  -10.0900002       2.43106369E-05
  -10.0799999       2.37169406E-05
  -10.0699997       2.31109134E-05
  -10.0600004       2.24933756E-05
  -10.0500002       2.18651294E-05
  -10.0400000       2.12269570E-05
  -10.0299997       2.05796186E-05
  -10.0200005       1.99238348E-05
  -10.0100002       1.92602947E-05
  -10.0000000       1.85896588E-05
  -9.98999977       1.79125527E-05
  -9.97999954       1.72295659E-05
  -9.97000027       1.65412694E-05
  -9.96000004       1.58482453E-05
  -9.94999981       1.51511058E-05
  -9.93999958       1.44505466E-05
  -9.93000031       1.37473917E-05
  -9.92000008       1.30426097E-05
  -9.90999985       1.23373502E-05
  -9.89999962       1.16329038E-05
  -9.89000034       1.09306839E-05
  -9.88000011       1.02321656E-05
  -9.86999989       9.53880317E-06
  -9.85999966       8.85198460E-06
  -9.85000038       8.17298405E-06
  -9.84000015       7.50294112E-06
  -9.82999992       6.84288580E-06
  -9.81999969       6.19376988E-06
  -9.81000042       5.55652014E-06
  -9.80000019       4.93210018E-06
  -9.78999996       4.32153138E-06
  -9.77999973       3.72589898E-06
  -9.77000046       3.14634622E-06
  -9.76000023       2.58399314E-06
  -9.75000000       2.03990976E-06
  -9.73999977       1.51503968E-06
  -9.72999954       1.01017929E-06
  -9.72000027       5.25985854E-07
  -9.71000004       6.30000017E-08
  -9.69999981      -3.78282294E-07
  -9.68999958      -7.97345194E-07
  -9.68000031      -1.19361130E-06
  -9.67000008      -1.56640760E-06
  -9.65999985      -1.91499885E-06
  -9.64999962      -2.23862935E-06
  -9.64000034      -2.53660710E-06
  -9.63000011      -2.80838231E-06
  -9.61999989      -3.05359686E-06
  -9.60999966      -3.27210637E-06
  -9.60000038      -3.46396337E-06
  -9.59000015      -3.62936476E-06
  -9.57999992      -3.76859134E-06
  -9.56999969      -3.88195849E-06
  -9.56000042      -3.96977885E-06
  -9.55000019      -4.03236936E-06
  -9.53999996      -4.07007474E-06
  -9.52999973      -4.08330106E-06
  -9.52000046      -4.07256130E-06
  -9.51000023      -4.03845161E-06
  -9.50000000      -3.98164639E-06
  -9.48999977      -3.90281684E-06
  -9.47999954      -3.80257529E-06
  -9.47000027      -3.68139490E-06
  -9.46000004      -3.53958944E-06
  -9.44999981      -3.37729875E-06
  -9.43999958      -3.19454011E-06
  -9.43000031      -2.99126532E-06
  -9.42000008      -2.76741707E-06
  -9.40999985      -2.52301197E-06
  -9.39999962      -2.25812596E-06
  -9.39000034      -1.97290456E-06
  -9.38000011      -1.66752727E-06
  -9.36999989      -1.34217566E-06
  -9.35999966      -9.96998551E-07
  -9.35000038      -6.32131787E-07
  -9.34000015      -2.47711966E-07
  -9.32999992       1.56064203E-07
  -9.31999969       5.78898607E-07
  -9.31000042       1.02034414E-06
  -9.30000019       1.47979256E-06
  -9.28999996       1.95648954E-06
  -9.27999973       2.44952662E-06
  -9.27000046       2.95788186E-06
  -9.26000023       3.48040226E-06
  -9.25000000       4.01579973E-06
  -9.23999977       4.56259704E-06
  -9.22999954       5.11908138E-06
  -9.22000027       5.68330552E-06
  -9.21000004       6.25305665E-06
  -9.19999981       6.82591099E-06
  -9.18999958       7.39930147E-06
  -9.18000031       7.97061330E-06
  -9.17000008       8.53724669E-06
  -9.15999985       9.09668142E-06
  -9.14999962       9.64650189E-06
  -9.14000034       1.01843534E-05
  -9.13000011       1.07079250E-05
  -9.11999989       1.12148873E-05
  -9.10999966       1.17028712E-05
  -9.10000038       1.21694438E-05
  -9.09000015       1.26121558E-05
  -9.07999992       1.30285734E-05
  -9.06999969       1.34163283E-05
  -9.06000042       1.37731722E-05
  -9.05000019       1.40970214E-05
  -9.03999996       1.43859788E-05
  -9.02999973       1.46383645E-05
  -9.02000046       1.48527924E-05
  -9.01000023       1.50282103E-05
  -9.00000000       1.51639742E-05
  -8.98999977       1.52598914E-05
  -8.97999954       1.53162746E-05
  -8.97000027       1.53338842E-05
  -8.96000004       1.53139081E-05
  -8.94999981       1.52577950E-05
  -8.93999958       1.51671784E-05
  -8.93000031       1.50437372E-05
  -8.92000008       1.48891386E-05
  -8.90999985       1.47050878E-05
  -8.89999962       1.44933501E-05
  -8.89000034       1.42558947E-05
  -8.88000011       1.39949670E-05
  -8.86999989       1.37131819E-05
  -8.85999966       1.34135216E-05
  -8.85000038       1.30992858E-05
  -8.84000015       1.27740168E-05
  -8.82999992       1.24413818E-05
  -8.81999969       1.21051053E-05
  -8.81000042       1.17690042E-05
  -8.80000019       1.14369550E-05
  -8.78999996       1.11130366E-05
  -8.77999973       1.08014938E-05
  -8.77000046       1.05068566E-05
  -8.76000023       1.02338081E-05
  -8.75000000       9.98707947E-06
  -8.73999977       9.77134550E-06
  -8.72999954       9.59103454E-06
  -8.72000027       9.45026932E-06
  -8.71000004       9.35284879E-06
  -8.69999981       9.30235728E-06
  -8.68999958       9.30229180E-06
  -8.68000031       9.35620483E-06
  -8.67000008       9.46778437E-06
  -8.65999985       9.64087121E-06
  -8.64999962       9.87940257E-06
  -8.64000034       1.01872365E-05
  -8.63000011       1.05680338E-05
  -8.61999989       1.10251340E-05
  -8.60999966       1.15615794E-05
  -8.60000038       1.21801659E-05
  -8.59000015       1.28836355E-05
  -8.57999992       1.36747976E-05
  -8.56999969       1.45566846E-05
  -8.56000042       1.55325688E-05
  -8.55000019       1.66058617E-05
  -8.53999996       1.77799375E-05
  -8.52999973       1.90579321E-05
  -8.52000046       2.04425833E-05
  -8.51000023       2.19361991E-05
  -8.50000000       2.35406023E-05
  -8.48999977       2.52573627E-05
  -8.47999954       2.70879482E-05
  -8.47000027       2.90338721E-05
  -8.46000004       3.10967844E-05
  -8.44999981       3.32784184E-05
  -8.43999958       3.55804295E-05
  -8.43000031       3.80042075E-05
  -8.42000008       4.05506762E-05
  -8.40999985       4.32202178E-05
  -8.39999962       4.60126466E-05
  -8.39000034       4.89273734E-05
  -8.38000011       5.19635796E-05
  -8.36999989       5.51204175E-05
  -8.35999966       5.83970905E-05
  -8.35000038       6.17928818E-05
  -8.34000015       6.53070456E-05
  -8.32999992       6.89385852E-05
  -8.31999969       7.26861253E-05
  -8.31000042       7.65477016E-05
  -8.30000019       8.05207601E-05
  -8.28999996       8.46022303E-05
  -8.27999973       8.87886781E-05
  -8.27000046       9.30764872E-05
  -8.26000023       9.74619179E-05
  -8.25000000       1.01941208E-04
  -8.23999977       1.06510415E-04
  -8.22999954       1.11165369E-04
  -8.22000027       1.15901377E-04
  -8.21000004       1.20713179E-04
  -8.19999981       1.25594932E-04
  -8.18999958       1.30540153E-04
  -8.18000031       1.35542039E-04
  -8.17000008       1.40593489E-04
  -8.15999985       1.45687343E-04
  -8.14999962       1.50816370E-04
  -8.14000034       1.55973335E-04
  -8.13000011       1.61150834E-04
  -8.11999989       1.66341386E-04
  -8.10999966       1.71537016E-04
  -8.10000038       1.76729591E-04
  -8.09000015       1.81910596E-04
  -8.07999992       1.87071419E-04
  -8.06999969       1.92203399E-04
  -8.06000042       1.97297995E-04
  -8.05000019       2.02346622E-04
  -8.03999996       2.07340956E-04
  -8.02999973       2.12272571E-04
  -8.02000046       2.17133114E-04
  -8.01000023       2.21914146E-04
  -8.00000000       2.26607313E-04
  -7.98999977       2.31204438E-04
  -7.98000002       2.35697516E-04
  -7.96999979       2.40079258E-04
  -7.96000004       2.44342809E-04
  -7.94999981       2.48481956E-04
  -7.94000006       2.52491038E-04
  -7.92999983       2.56364845E-04
  -7.92000008       2.60098634E-04
  -7.90999985       2.63688009E-04
  -7.90000010       2.67128984E-04
  -7.88999987       2.70417921E-04
  -7.88000011       2.73551996E-04
  -7.86999989       2.76528677E-04
  -7.86000013       2.79346365E-04
  -7.84999990       2.82003894E-04
  -7.84000015       2.84500740E-04
  -7.82999992       2.86836730E-04
  -7.82000017       2.89012038E-04
  -7.80999994       2.91027012E-04
  -7.80000019       2.92882527E-04
  -7.78999996       2.94579746E-04
  -7.78000021       2.96120415E-04
  -7.76999998       2.97506864E-04
  -7.76000023       2.98741856E-04
  -7.75000000       2.99828680E-04
  -7.73999977       3.00770713E-04
  -7.73000002       3.01571476E-04
  -7.71999979       3.02234141E-04
  -7.71000004       3.02761997E-04
  -7.69999981       3.03158042E-04
  -7.69000006       3.03425564E-04
  -7.67999983       3.03567998E-04
  -7.67000008       3.03589128E-04
  -7.65999985       3.03493085E-04
  -7.65000010       3.03284411E-04
  -7.63999987       3.02967645E-04
  -7.63000011       3.02547385E-04
  -7.61999989       3.02027998E-04
  -7.61000013       3.01413675E-04
  -7.59999990       3.00708663E-04
  -7.59000015       2.99917418E-04
  -7.57999992       2.99044623E-04
  -7.57000017       2.98095576E-04
  -7.55999994       2.97076098E-04
  -7.55000019       2.95992213E-04
  -7.53999996       2.94850004E-04
  -7.53000021       2.93655379E-04
  -7.51999998       2.92413606E-04
  -7.51000023       2.91129516E-04
  -7.50000000       2.89807416E-04
  -7.48999977       2.88451294E-04
  -7.48000002       2.87065021E-04
  -7.46999979       2.85652699E-04
  -7.46000004       2.84218928E-04
  -7.44999981       2.82768218E-04
  -7.44000006       2.81305285E-04