  -16.0000000       0.00000000    
  -15.9899998       0.00000000    
  -15.9799995       0.00000000    
  -15.9700003       0.00000000    
  -15.9600000       0.00000000    
  -15.9499998       0.00000000    
  -15.9399996       0.00000000    
  -15.9300003       0.00000000    
  -15.9200001       0.00000000    
  -15.9099998       0.00000000    
  -15.8999996      -0.00000000    
  -15.8900003       0.00000000    
  -15.8800001       0.00000000    
  -15.8699999       1.40129846E-45
  -15.8599997       5.60519386E-45
  -15.8500004      -1.12103877E-44
  -15.8400002      -3.33509035E-43
  -15.8299999      -2.77036706E-42
  -15.8199997      -1.63223245E-41
  -15.8100004      -7.95320956E-41
  -15.8000002      -3.39670544E-40
  -15.7900000      -1.30029427E-39
  -15.7799997      -4.48849631E-39
  -15.7700005      -1.39586101E-38
  -15.7600002      -3.89690789E-38
  -15.7500000      -9.71343886E-38
  -15.7399998      -2.14252056E-37
  -15.7299995      -4.11216438E-37
  -15.7200003      -6.62219933E-37
  -15.7100000      -8.10414174E-37
  -15.6999998      -4.53766944E-37
  -15.6899996       1.11761503E-36
  -15.6800003       4.74450585E-36
  -15.6700001       1.07079873E-35
  -15.6599998       1.73280007E-35
  -15.6499996       1.90837533E-35
  -15.6400003       5.36837881E-36
  -15.6300001      -3.79371143E-35
  -15.6199999      -1.21475804E-34
  -15.6099997      -2.39058977E-34
  -15.6000004      -3.51851586E-34
  -15.5900002      -3.81506990E-34
  -15.5799999      -2.29662301E-34
  -15.5699997       1.62366994E-34
  -15.5600004       7.21915988E-34
  -15.5500002       1.17191488E-33
  -15.5400000       1.07350460E-33
  -15.5299997       9.10681073E-35
  -15.5200005      -1.49719859E-33
  -15.5100002      -2.23443587E-33
  -15.5000000       6.37100857E-34
  -15.4899998       1.01332197E-32
  -15.4799995       2.67550302E-32
  -15.4700003       4.42801992E-32
  -15.4600000       4.60509198E-32
  -15.4499998       5.62042016E-33
  -15.4399996      -1.03421674E-31
  -15.4300003      -2.85469743E-31
  -15.4200001      -4.91990418E-31
  -15.4099998      -5.95260230E-31
  -15.3999996      -3.91380162E-31
  -15.3900003       3.38389418E-31
  -15.3800001       1.69062080E-30
  -15.3699999       3.44448282E-30
  -15.3599997       4.88122167E-30
  -15.3500004       4.74952756E-30
  -15.3400002       1.53401975E-30
  -15.3299999      -5.86475761E-30
  -15.3199997      -1.70852164E-29
  -15.3100004      -2.91933544E-29
  -15.3000002      -3.60840188E-29
  -15.2900000      -2.91471171E-29
  -15.2799997       1.51075580E-31
  -15.2700005       5.56341517E-29
  -15.2600002       1.30534368E-28
  -15.2500000       2.02366896E-28
  -15.2399998       2.31630174E-28
  -15.2299995       1.67799270E-28
  -15.2200003      -3.47733603E-29
  -15.2100000      -3.90959806E-28
  -15.1999998      -8.53166839E-28
  -15.1899996      -1.28370848E-27
  -15.1800003      -1.44693354E-27
  -15.1700001      -1.04070581E-27
  -15.1599998       2.14541181E-28
  -15.1499996       2.42194800E-27
  -15.1400003       5.30713531E-27
  -15.1300001       8.02725136E-27
  -15.1199999       9.09622259E-27
  -15.1099997       6.57159190E-27
  -15.1000004      -1.35450393E-27
  -15.0900002      -1.53038600E-26
  -15.0799999      -3.33457760E-26
  -15.0699997      -4.97731018E-26
  -15.0600004      -5.48195282E-26
  -15.0500002      -3.63137881E-26
  -15.0400000       1.59304251E-26
  -15.0299997       1.03021105E-25
  -15.0200005       2.08764717E-25
  -15.0100002       2.93860967E-25
  -15.0000000       2.97707453E-25
  -14.9899998       1.53102889E-25
  -14.9799995      -1.83633260E-25
  -14.9700003      -6.91001182E-25
  -14.9600000      -1.24233385E-24
  -14.9499998      -1.59010279E-24
  -14.9399996      -1.40153052E-24
  -14.9300003      -3.65716803E-25
  -14.9200001       1.63019270E-24
  -14.9099998       4.29631004E-24
  -14.8999996       6.79170664E-24
  -14.8900003       7.74931515E-24
  -14.8800001       5.58481809E-24
  -14.8699999      -8.66885855E-25
  -14.8599997      -1.14796743E-23
  -14.8500004      -2.40020113E-23
  -14.8400002      -3.36996298E-23
  -14.8299999      -3.39709507E-23
  -14.8199997      -1.82797689E-23
  -14.8100004       1.66684384E-23
  -14.8000002       6.72298818E-23
  -14.7900000       1.20038440E-22
  -14.7799997       1.52031962E-22
  -14.7700005       1.35034433E-22
  -14.7600002       4.55690424E-23
  -14.7500000      -1.21452255E-22
  -14.7399998      -3.39123755E-22
  -14.7299995      -5.41291413E-22
  -14.7200003      -6.28685084E-22
  -14.7100000      -4.93482756E-22
  -14.6999998      -6.19543398E-23
  -14.6899996       6.53430830E-22
  -14.6800003       1.51004274E-21
  -14.6700001       2.22301841E-21
  -14.6599998       2.40784158E-21
  -14.6499996       1.68894156E-21
  -14.6400003      -1.36673194E-22
  -14.6300001      -2.92098134E-21
  -14.6199999      -6.03912933E-21
  -14.6099997      -8.39610294E-21
  -14.6000004      -8.63094226E-21
  -14.5900002      -5.53421877E-21
  -14.5799999       1.38555701E-21
  -14.5699997       1.13432869E-20
  -14.5600004       2.19556531E-20
  -14.5500002       2.93996663E-20
  -14.5400000       2.92168400E-20
  -14.5299997       1.77487902E-20
  -14.5200005      -6.06583499E-21
  -14.5100002      -3.90678179E-20
  -14.5000000      -7.31342110E-20
  -14.4899998      -9.59954927E-20
  -14.4799995      -9.39908593E-20
  -14.4700003      -5.65623841E-20
  -14.4600000       1.84549795E-20
  -14.4499998       1.20388681E-19
  -14.4399996       2.24136581E-19
  -14.4300003       2.93199726E-19
  -14.4200001       2.88121742E-19
  -14.4099998       1.79447632E-19
  -14.3999996      -3.76857380E-20
  -14.3900003      -3.31930571E-19
  -14.3800001      -6.32387592E-19
  -14.3699999      -8.37907491E-19
  -14.3599997      -8.40543767E-19
  -14.3500004      -5.60228439E-19
  -14.3400002       1.72610137E-20
  -14.3299999       8.10976558E-19
  -14.3199997       1.63729773E-18
  -14.3100004       2.23453661E-18
  -14.3000002       2.32250975E-18
  -14.2900000       1.68903819E-18
  -14.2799997       2.83531690E-19
  -14.2700005      -1.71111522E-18
  -14.2600002      -3.85925871E-18
  -14.2500000      -5.52931941E-18
  -14.2399998      -6.03249255E-18
  -14.2299995      -4.82422280E-18
  -14.2200003      -1.72294959E-18
  -14.2100000       2.91866812E-18
  -14.1999998       8.15898613E-18
  -14.1899996       1.25810292E-17
  -14.1800003       1.45881755E-17
  -14.1700001       1.28418880E-17
  -14.1599998       6.74576129E-18
  -14.1499996      -3.16069517E-18
  -14.1400003      -1.50443739E-17
  -14.1300001      -2.59690293E-17
  -14.1199999      -3.24689335E-17
  -14.1099997      -3.14331280E-17
  -14.1000004      -2.11152244E-17
  -14.0900002      -1.99959953E-18
  -14.0799999       2.27687419E-17
  -14.0699997       4.76242852E-17
  -14.0600004       6.55825252E-17
  -14.0500002       6.98916068E-17
  -14.0400000       5.60069236E-17
  -14.0299997       2.33939151E-17
  -14.0200005      -2.33969327E-17
  -14.0100002      -7.48503097E-17
  -14.0000000      -1.18027172E-16
  -13.9899998      -1.39395842E-16
  -13.9799995      -1.28428207E-16
  -13.9700003      -8.11143169E-17
  -13.9600000      -2.40058009E-18
  -13.9499998       9.33375052E-17
  -13.9399996       1.84302828E-16
  -13.9300003       2.45689424E-16
  -13.9200001       2.55747146E-16
  -13.9099998       2.02152830E-16
  -13.8999996       8.70141462E-17
  -13.8900003      -7.10924414E-17
  -13.8800001      -2.39120074E-16
  -13.8699999      -3.75747177E-16
  -13.8599997      -4.40820986E-16
  -13.8500004      -4.06065742E-16
  -13.8400002      -2.64401943E-16
  -13.8299999      -3.51680172E-17
  -13.8199997       2.36798992E-16
  -13.8100004       4.88944792E-16
  -13.8000002       6.54635343E-16
  -13.7900000       6.79920441E-16
  -13.7799997       5.39439232E-16
  -13.7700005       2.47110348E-16
  -13.7600002      -1.42010394E-16
  -13.7500000      -5.40493471E-16
  -13.7399998      -8.47125591E-16
  -13.7299995      -9.71777819E-16
  -13.7200003      -8.60789715E-16
  -13.7100000      -5.16129838E-16
  -13.6999998      -2.28205358E-18
  -13.6899996       5.62764561E-16
  -13.6800003       1.03226751E-15
  -13.6700001       1.26677959E-15
  -13.6599998       1.17332889E-15
  -13.6499996       7.37498776E-16
  -13.6400003       3.85927434E-17
  -13.6300001      -7.58792602E-16
  -13.6199999      -1.43801493E-15
  -13.6099997      -1.78309943E-15
  -13.6000004      -1.63942359E-15
  -13.5900002      -9.66936073E-16
  -13.5799999       1.29866615E-16
  -13.5699997       1.40708679E-15
  -13.5600004       2.52586813E-15
  -13.5500002       3.13028310E-15
  -13.5400000       2.94284466E-15
  -13.5299997       1.85461019E-15
  -13.5200005      -1.53084595E-17
  -13.5100002      -2.31167616E-15
  -13.5000000      -4.49687971E-15
  -13.4899998      -5.96201335E-15
  -13.4799995      -6.17500740E-15
  -13.4700003      -4.83270201E-15
  -13.4600000      -1.97788398E-15
  -13.4499998       1.95431507E-15
  -13.4399996       6.18306438E-15
  -13.4300003       9.72316151E-15
  -13.4200001       1.15986508E-14
  -13.4099998       1.10848940E-14
  -13.3999996       7.92232880E-15
  -13.3900003       2.44478061E-15
  -13.3800001      -4.42038840E-15
  -13.3699999      -1.12963998E-14
  -13.3599997      -1.66274821E-14
  -13.3500004      -1.90243973E-14
  -13.3400002      -1.76093881E-14
  -13.3299999      -1.22769455E-14
  -13.3199997      -3.79832528E-15
  -13.3100004       6.27120070E-15
  -13.3000002       1.58794063E-14
  -13.2900000       2.29077858E-14
  -13.2799997       2.56555048E-14
  -13.2700005       2.32648305E-14
  -13.2600002       1.59807910E-14
  -13.2500000       5.16884322E-15
  -13.2399998      -6.93319464E-15
  -13.2299995      -1.76894716E-14
  -13.2200003      -2.46688639E-14
  -13.2100000      -2.62386446E-14
  -13.1999998      -2.20027447E-14
  -13.1899996      -1.29649556E-14
  -13.1800003      -1.35559682E-15
  -13.1700001       9.86117536E-15
  -13.1599998       1.77013064E-14
  -13.1499996       1.99345392E-14
  -13.1400003       1.57274232E-14
  -13.1300001       5.98118467E-15
  -13.1199999      -6.74923560E-15
  -13.1099997      -1.87742244E-14
  -13.1000004      -2.61378782E-14
  -13.0900002      -2.56509698E-14
  -13.0799999      -1.58443984E-14
  -13.0699997       2.40564112E-15
  -13.0600004       2.57735829E-14
  -13.0500002       4.89854840E-14
  -13.0400000       6.58692800E-14
  -13.0299997       7.07589234E-14
  -13.0200005       5.99508507E-14
  -13.0100002       3.28688662E-14
  -13.0000000      -7.37189376E-15
  -12.9899998      -5.41979012E-14
  -12.9799995      -9.86339442E-14
  -12.9700003      -1.31019856E-13
  -12.9600000      -1.43055340E-13
  -12.9499998      -1.29736540E-13
  -12.9399996      -9.07383096E-14
  -12.9300003      -3.08885235E-14
  -12.9200001       4.04365940E-14
  -12.9099998       1.10933188E-13
  -12.8999996       1.67709772E-13
  -12.8900003       1.99869499E-13
  -12.8800001       2.00778752E-13
  -12.8699999       1.69512109E-13
  -12.8599997       1.11129605E-13
  -12.8500004       3.56958420E-14
  -12.8400002      -4.37650235E-14
  -12.8299999      -1.13935852E-13
  -12.8199997      -1.63899750E-13
  -12.8100004      -1.87249454E-13
  -12.8000002      -1.83133727E-13
  -12.7900000      -1.56009456E-13
  -12.7799997      -1.14180868E-13
  -12.7700005      -6.75033827E-14
  -12.7600002      -2.48412944E-14
  -12.7500000       8.06623377E-15
  -12.7399998       2.97739399E-14
  -12.7299995       4.30227821E-14
  -12.7200003       5.33785628E-14
  -12.7100000       6.69814139E-14
  -12.6999998       8.80306028E-14
  -12.6899996       1.16737024E-13
  -12.6800003       1.48393464E-13
  -12.6700001       1.73951836E-13
  -12.6599998       1.82111731E-13
  -12.6499996       1.62507770E-13
  -12.6400003       1.09240077E-13
  -12.6300001       2.38140823E-14
  -12.6199999      -8.33963635E-14
  -12.6099997      -1.93771648E-13
  -12.6000004      -2.83306907E-13
  -12.5900002      -3.27324214E-13
  -12.5799999      -3.06151480E-13
  -12.5699997      -2.10557917E-13
  -12.5600004      -4.56614862E-14
  -12.5500002       1.67757152E-13
  -12.5400000       3.95108534E-13
  -12.5299997       5.92943175E-13
  -12.5200005       7.16236857E-13
  -12.5100002       7.26696318E-13
  -12.5000000       6.00477838E-13
  -12.4899998       3.33745672E-13
  -12.4799995      -5.50989816E-14
  -12.4700003      -5.27026231E-13
  -12.4600000      -1.02753006E-12
  -12.4499998      -1.49426587E-12
  -12.4399996      -1.86558364E-12
  -12.4300003      -2.08817685E-12
  -12.4200001      -2.12229756E-12
  -12.4099998      -1.94355469E-12
  -12.3999996      -1.54120900E-12
  -12.3900003      -9.13688071E-13
  -12.3800001      -6.28063682E-14
  -12.3699999       1.01145318E-12
  -12.3599997       2.31384009E-12
  -12.3500004       3.85321809E-12
  -12.3400002       5.63808332E-12
  -12.3299999       7.66897570E-12
  -12.3199997       9.92945309E-12
  -12.3100004       1.23778583E-11
  -12.3000002       1.49422887E-11
  -12.2900000       1.75204278E-11
  -12.2799997       1.99853675E-11
  -12.2700005       2.21966733E-11
  -12.2600002       2.40151805E-11
  -12.2500000       2.53187193E-11
  -12.2399998       2.60157226E-11
  -12.2299995       2.60538726E-11
  -12.2200003       2.54217238E-11
  -12.2100000       2.41430678E-11
  -12.1999998       2.22649902E-11
  -12.1899996       1.98421453E-11
  -12.1800003       1.69207894E-11
  -12.1700001       1.35260813E-11
  -12.1599998       9.65572761E-12
  -12.1499996       5.28157943E-12
  -12.1400003       3.59169102E-13
  -12.1300001      -5.15673095E-12
  -12.1199999      -1.12936856E-11
  -12.1099997      -1.80443386E-11
  -12.1000004      -2.53540591E-11
  -12.0900002      -3.31164610E-11
  -12.0799999      -4.11780228E-11
  -12.0699997      -4.93510649E-11
  -12.0600004      -5.74328501E-11
  -12.0500002      -6.52268378E-11
  -12.0400000      -7.25620883E-11
  -12.0299997      -7.93070193E-11
  -12.0200005      -8.53746449E-11
  -12.0100002      -9.07189532E-11
  -12.0000000      -9.53229995E-11
  -11.9899998      -9.91818225E-11
  -11.9799995      -1.02283980E-10
  -11.9700003      -1.04595700E-10
  -11.9600000      -1.06051147E-10
  -11.9499998      -1.06551011E-10
  -11.9399996      -1.05969657E-10
  -11.9300003      -1.04169451E-10
  -11.9200001      -1.01019353E-10
  -11.9099998      -9.64135993E-11
  -11.8999996      -9.02873817E-11
  -11.8900003      -8.26257465E-11
  -11.8800001      -7.34645955E-11
  -11.8699999      -6.28836011E-11
  -11.8599997      -5.09932964E-11
  -11.8500004      -3.79187827E-11
  -11.8400002      -2.37842003E-11
  -11.8299999      -8.70092019E-12
  -11.8199997       7.23789735E-12
  -11.8100004       2.39553967E-11
  -11.8000002       4.13827722E-11
  -11.7900000       5.94464269E-11
  -11.7799997       7.80540077E-11
  -11.7700005       9.70827377E-11
  -11.7600002       1.16372682E-10
  -11.7500000       1.35727193E-10
  -11.7399998       1.54920271E-10
  -11.7299995       1.73710102E-10
  -11.7200003       1.91855948E-10
  -11.7100000       2.09134599E-10
  -11.6999998       2.25353916E-10
  -11.6899996       2.40360426E-10
  -11.6800003       2.54039401E-10
  -11.6700001       2.66308031E-10
  -11.6599998       2.77103174E-10
  -11.6499996       2.86366403E-10
  -11.6400003       2.94029051E-10
  -11.6300001       3.00002134E-10
  -11.6199999       3.04170356E-10
  -11.6099997       3.06394327E-10
  -11.6000004       3.06518172E-10
  -11.5900002       3.04382547E-10
  -11.5799999       2.99839820E-10
  -11.5699997       2.92768337E-10
  -11.5600004       2.83084028E-10
  -11.5500002       2.70746953E-10
  -11.5400000       2.55761967E-10
  -11.5299997       2.38174563E-10
  -11.5200005       2.18062055E-10
  -11.5100002       1.95522584E-10
  -11.5000000       1.70663816E-10
  -11.4899998       1.43593790E-10
  -11.4799995       1.14413881E-10
  -11.4700003       8.32159064E-11
  -11.4600000       5.00822682E-11
  -11.4499998       1.50894800E-11
  -11.4399996      -2.16868051E-11
  -11.4300003      -6.01665523E-11
  -11.4200001      -1.00259884E-10
  -11.4099998      -1.41863535E-10
  -11.3999996      -1.84859406E-10
  -11.3900003      -2.29114561E-10
  -11.3800001      -2.74484602E-10
  -11.3699999      -3.20817650E-10
  -11.3599997      -3.67959524E-10
  -11.3500004      -4.15759482E-10
  -11.3400002      -4.64075889E-10
  -11.3299999      -5.12779985E-10
  -11.3199997      -5.61758695E-10
  -11.3100004      -6.10914597E-10
  -11.3000002      -6.60165089E-10
  -11.2900000      -7.09438785E-10
  -11.2799997      -7.58671681E-10
  -11.2700005      -8.07801492E-10
  -11.2600002      -8.56764659E-10
  -11.2500000      -9.05491460E-10
  -11.2399998      -9.53906398E-10
  -11.2299995      -1.00192665E-09
  -11.2200003      -1.04946518E-09
  -11.2100000      -1.09643383E-09
  -11.1999998      -1.14274501E-09
  -11.1899996      -1.18831622E-09
  -11.1800003      -1.23306898E-09
  -11.1700001      -1.27693245E-09
  -11.1599998      -1.31984146E-09
  -11.1499996      -1.36173417E-09
  -11.1400003      -1.40255119E-09
  -11.1300001      -1.44223677E-09
  -11.1199999      -1.48073198E-09
  -11.1099997      -1.51797852E-09
  -11.1000004      -1.55391644E-09
  -11.0900002      -1.58848779E-09
  -11.0799999      -1.62163183E-09
  -11.0699997      -1.65328962E-09
  -11.0600004      -1.68340775E-09
  -11.0500002      -1.71193637E-09
  -11.0400000      -1.73883341E-09
  -11.0299997      -1.76407078E-09
  -11.0200005      -1.78763726E-09
  -11.0100002      -1.80953386E-09
  -11.0000000      -1.82978344E-09
  -10.9899998      -1.84842497E-09
  -10.9799995      -1.86550109E-09
  -10.9700003      -1.88105909E-09
  -10.9600000      -1.89514227E-09
  -10.9499998      -1.90777838E-09
  -10.9399996      -1.91898009E-09
  -10.9300003      -1.92874672E-09
  -10.9200001      -1.93707028E-09
  -10.9099998      -1.94394056E-09
  -10.8999996      -1.94935756E-09
  -10.8900003      -1.95333749E-09
  -10.8800001      -1.95590966E-09
  -10.8699999      -1.95712424E-09
  -10.8599997      -1.95702565E-09
  -10.8500004      -1.95565253E-09
  -10.8400002      -1.95300864E-09
  -10.8299999      -1.94905336E-09
  -10.8199997      -1.94369498E-09
  -10.8100004      -1.93678051E-09
  -10.8000002      -1.92811389E-09
  -10.7900000      -1.91746286E-09
  -10.7799997      -1.90458072E-09
  -10.7700005      -1.88922566E-09
  -10.7600002      -1.87118210E-09
  -10.7500000      -1.85028082E-09
  -10.7399998      -1.82639737E-09
  -10.7299995      -1.79948212E-09
  -10.7200003      -1.76952941E-09
  -10.7100000      -1.73660264E-09
  -10.6999998      -1.70081149E-09
  -10.6899996      -1.66230862E-09
  -10.6800003      -1.62126956E-09
  -10.6700001      -1.57789914E-09
  -10.6599998      -1.53240820E-09
  -10.6499996      -1.48502044E-09
  -10.6400003      -1.43596268E-09
  -10.6300001      -1.38548117E-09
  -10.6199999      -1.33384315E-09
  -10.6099997      -1.28135214E-09
  -10.6000004      -1.22836075E-09
  -10.5900002      -1.17526255E-09
  -10.5799999      -1.12249010E-09
  -10.5699997      -1.07049836E-09
  -10.5600004      -1.01973285E-09
  -10.5500002      -9.70598824E-10
  -10.5400000      -9.23422228E-10
  -10.5299997      -8.78450201E-10
  -10.5200005      -8.35818303E-10
  -10.5100002      -7.95579547E-10
  -10.5000000      -7.57732821E-10
  -10.4899998      -7.22240767E-10
  -10.4799995      -6.89085344E-10
  -10.4700003      -6.58282762E-10
  -10.4600000      -6.29910624E-10
  -10.4499998      -6.04094053E-10
  -10.4399996      -5.80993420E-10
  -10.4300003      -5.60776092E-10
  -10.4200001      -5.43578127E-10
  -10.4099998      -5.29470079E-10
  -10.3999996      -5.18435128E-10
  -10.3900003      -5.10363030E-10
  -10.3800001      -5.05046505E-10
  -10.3699999      -5.02205222E-10
  -10.3599997      -5.01504338E-10
  -10.3500004      -5.02595465E-10
  -10.3400002      -5.05137820E-10
  -10.3299999      -5.08832643E-10
  -10.3199997      -5.13443288E-10
  -10.3100004      -5.18820598E-10
  -10.3000002      -5.24895905E-10
  -10.2900000      -5.31686251E-10
  -10.2799997      -5.39265910E-10
  -10.2700005      -5.47758283E-10
  -10.2600002      -5.57303259E-10
  -10.2500000      -5.68013581E-10
  -10.2399998      -5.79960691E-10
  -10.2299995      -5.93161464E-10
  -10.2200003      -6.07566997E-10
  -10.2100000      -6.23090468E-10
  -10.1999998      -6.39605369E-10
  -10.1899996      -6.56998289E-10
  -10.1800003      -6.75163425E-10
  -10.1700001      -6.94022784E-10
  -10.1599998      -7.13528736E-10
  -10.1499996      -7.33633043E-10
  -10.1400003      -7.54278529E-10
  -10.1300001      -7.75377484E-10
  -10.1199999      -7.96794908E-10
  -10.1099997      -8.18367596E-10
  -10.1000004      -8.39918246E-10
  -10.0900002      -8.61281768E-10
  -10.0799999      -8.82349360E-10
  -10.0699997      -9.03096986E-10
  -10.0600004      -9.23587928E-10
  -10.0500002      -9.43973344E-10
  -10.0400000      -9.64453073E-10
  -10.0299997      -9.85255322E-10
  -10.0200005      -1.00656694E-09
  -10.0100002      -1.02851772E-09
  -10.0000000      -1.05115694E-09
  -9.98999977      -1.07445519E-09
  -9.97999954      -1.09834353E-09
  -9.97000027      -1.12273346E-09
  -9.96000004      -1.14757404E-09
  -9.94999981      -1.17287924E-09
  -9.93999958      -1.19874666E-09
  -9.93000031      -1.22535271E-09
  -9.92000008      -1.25293176E-09
  -9.90999985      -1.28173405E-09
  -9.89999962      -1.31198630E-09
  -9.89000034      -1.34385070E-09
  -9.88000011      -1.37740264E-09
  -9.86999989      -1.41261935E-09
  -9.85999966      -1.44938628E-09
  -9.85000038      -1.48753243E-09
  -9.84000015      -1.52685531E-09
  -9.82999992      -1.56715640E-09
  -9.81999969      -1.60827673E-09
  -9.81000042      -1.65011349E-09
  -9.80000019      -1.69262904E-09
  -9.78999996      -1.73585479E-09
  -9.77999973      -1.77987136E-09
  -9.77000046      -1.82479798E-09
  -9.76000023      -1.87077132E-09
  -9.75000000      -1.91792826E-09
  -9.73999977      -1.96638283E-09
  -9.72999954      -2.01620276E-09
  -9.72000027      -2.06738271E-09
  -9.71000004      -2.11983275E-09
  -9.69999981      -2.17335749E-09
  -9.68999958      -2.22764496E-09
  -9.68000031      -2.28227148E-09
  -9.67000008      -2.33672059E-09
  -9.65999985      -2.39040898E-09
  -9.64999962      -2.44272558E-09
  -9.64000034      -2.49308041E-09
  -9.63000011      -2.54094346E-09
  -9.61999989      -2.58587463E-09
  -9.60999966      -2.62753708E-09
  -9.60000038      -2.66570543E-09
  -9.59000015      -2.70025424E-09
  -9.57999992      -2.73113954E-09
  -9.56999969      -2.75838485E-09
  -9.56000042      -2.78208390E-09
  -9.55000019      -2.80238721E-09
  -9.53999996      -2.81953283E-09
  -9.52999973      -2.83384027E-09
  -9.52000046      -2.84572255E-09
  -9.51000023      -2.85568436E-09
  -9.50000000      -2.86430679E-09
  -9.48999977      -2.87221380E-09
  -9.47999954      -2.88003754E-09
  -9.47000027      -2.88838242E-09
  -9.46000004      -2.89780289E-09
  -9.44999981      -2.90878632E-09
  -9.43999958      -2.92173952E-09
  -9.43000031      -2.93699709E-09
  -9.42000008      -2.95481284E-09
  -9.40999985      -2.97537550E-09
  -9.39999962      -2.99877967E-09
  -9.39000034      -3.02504044E-09
  -9.38000011      -3.05407588E-09
  -9.36999989      -3.08569525E-09
  -9.35999966      -3.11961967E-09
  -9.35000038      -3.15548787E-09
  -9.34000015      -3.19286197E-09
  -9.32999992      -3.23123817E-09
  -9.31999969      -3.27005178E-09
  -9.31000042      -3.30866801E-09
  -9.30000019      -3.34636208E-09
  -9.28999996      -3.38231354E-09
  -9.27999973      -3.41561912E-09
  -9.27000046      -3.44529738E-09
  -9.26000023      -3.47035178E-09
  -9.25000000      -3.48981777E-09
  -9.23999977      -3.50280671E-09
  -9.22999954      -3.50857055E-09
  -9.22000027      -3.50647533E-09
  -9.21000004      -3.49600526E-09
  -9.19999981      -3.47669737E-09
  -9.18999958      -3.44809892E-09
  -9.18000031      -3.40970874E-09
  -9.17000008      -3.36099659E-09
  -9.15999985      -3.30140071E-09
  -9.14999962      -3.23043259E-09
  -9.14000034      -3.14772342E-09
  -9.13000011      -3.05311887E-09
  -9.11999989      -2.94670088E-09
  -9.10999966      -2.82880586E-09
  -9.10000038      -2.69996070E-09
  -9.09000015      -2.56082133E-09
  -9.07999992      -2.41209719E-09
  -9.06999969      -2.25452079E-09
  -9.06000042      -2.08883089E-09
  -9.05000019      -1.91581040E-09
  -9.03999996      -1.73634895E-09
  -9.02999973      -1.55148550E-09
  -9.02000046      -1.36243872E-09
  -9.01000023      -1.17059962E-09
  -9.00000000      -9.77451675E-10
  -8.98999977      -7.84505183E-10
  -8.97999954      -5.93214589E-10
  -8.97000027      -4.04943162E-10
  -8.96000004      -2.20960292E-10
  -8.94999981      -4.25061514E-11
  -8.93999958       1.29128624E-10
  -8.93000031       2.92541685E-10
  -8.92000008       4.46159554E-10
  -8.90999985       5.88302074E-10
  -8.89999962       7.17236492E-10
  -8.89000034       8.31292202E-10
  -8.88000011       9.28963961E-10
  -8.86999989       1.00898745E-09
  -8.85999966       1.07032738E-09
  -8.85000038       1.11210119E-09
  -8.84000015       1.13350618E-09
  -8.82999992       1.13370724E-09
  -8.81999969       1.11178744E-09
  -8.81000042       1.06677145E-09
  -8.80000019       9.97712468E-10
  -8.78999996       9.03827624E-10
  -8.77999973       7.84647458E-10
  -8.77000046       6.40071496E-10
  -8.76000023       4.70383177E-10
  -8.75000000       2.76170448E-10
  -8.73999977       5.81497663E-11
  -8.72999954      -1.82996923E-10
  -8.72000027      -4.46758741E-10
  -8.71000004      -7.32858552E-10
  -8.69999981      -1.04122522E-09
  -8.68999958      -1.37188871E-09
  -8.68000031      -1.72484438E-09
  -8.67000008      -2.09994466E-09
  -8.65999985      -2.49684073E-09
  -8.64999962      -2.91501445E-09
  -8.64000034      -3.35387029E-09
  -8.63000011      -3.81285847E-09
  -8.61999989      -4.29155511E-09
  -8.60999966      -4.78972284E-09
  -8.60000038      -5.30726396E-09
  -8.59000015      -5.84411053E-09
  -8.57999992      -6.40011022E-09
  -8.56999969      -6.97489400E-09
  -8.56000042      -7.56781926E-09
  -8.55000019      -8.17800849E-09
  -8.53999996      -8.80441497E-09
  -8.52999973      -9.44594536E-09
  -8.52000046      -1.01015267E-08
  -8.51000023      -1.07701696E-08
  -8.50000000      -1.14509673E-08
  -8.48999977      -1.21429613E-08
  -8.47999954      -1.28451179E-08
  -8.47000027      -1.35562033E-08
  -8.46000004      -1.42748355E-08
  -8.44999981      -1.49994666E-08
  -8.43999958      -1.57285509E-08
  -8.43000031      -1.64606409E-08
  -8.42000008      -1.71944734E-08
  -8.40999985      -1.79290129E-08
  -8.39999962      -1.86633855E-08
  -8.39000034      -1.93967615E-08
  -8.38000011      -2.01282280E-08
  -8.36999989      -2.08566764E-08
  -8.35999966      -2.15807567E-08
  -8.35000038      -2.22988721E-08
  -8.34000015      -2.30093242E-08
  -8.32999992      -2.37104025E-08
  -8.31999969      -2.44004354E-08
  -8.31000042      -2.50779078E-08
  -8.30000019      -2.57413983E-08
  -8.28999996      -2.63894684E-08
  -8.27999973      -2.70206275E-08
  -8.27000046      -2.76332131E-08
  -8.26000023      -2.82253740E-08
  -8.25000000      -2.87951440E-08
  -8.23999977      -2.93404465E-08
  -8.22999954      -2.98592902E-08
  -8.22000027      -3.03498737E-08
  -8.21000004      -3.08105186E-08
  -8.19999981      -3.12397077E-08
  -8.18999958      -3.16360165E-08
  -8.18000031      -3.19979812E-08
  -8.17000008      -3.23240243E-08
  -8.15999985      -3.26125367E-08
  -8.14999962      -3.28617915E-08
  -8.14000034      -3.30701688E-08
  -8.13000011      -3.32362085E-08
  -8.11999989      -3.33586705E-08
  -8.10999966      -3.34366455E-08
  -8.10000038      -3.34695045E-08
  -8.09000015      -3.34568355E-08
  -8.07999992      -3.33982868E-08
  -8.06999969      -3.32936487E-08
  -8.06000042      -3.31427046E-08
  -8.05000019      -3.29453016E-08
  -8.03999996      -3.27015037E-08
  -8.02999973      -3.24116414E-08
  -8.02000046      -3.20763007E-08
  -8.01000023      -3.16965831E-08
  -8.00000000      -3.12738493E-08
  -7.98999977      -3.08097974E-08
  -7.98000002      -3.03063459E-08
  -7.96999979      -2.97656531E-08
  -7.96000004      -2.91899660E-08
  -7.94999981      -2.85817165E-08
  -7.94000006      -2.79435497E-08
  -7.92999983      -2.72782934E-08
  -7.92000008      -2.65889497E-08
  -7.90999985      -2.58787214E-08
  -7.90000010      -2.51508396E-08
  -7.88999987      -2.44086102E-08
  -7.88000011      -2.36551578E-08
  -7.86999989      -2.28935164E-08
  -7.86000013      -2.21265903E-08
  -7.84999990      -2.13571596E-08
  -7.84000015      -2.05879260E-08
  -7.82999992      -1.98215826E-08
  -7.82000017      -1.90607921E-08
  -7.80999994      -1.83081035E-08
  -7.80000019      -1.75659967E-08
  -7.78999996      -1.68367258E-08
  -7.78000021      -1.61223301E-08
  -7.76999998      -1.54246020E-08
  -7.76000023      -1.47451624E-08
  -7.75000000      -1.40855150E-08
  -7.73999977      -1.34471678E-08
  -7.73000002      -1.28315767E-08
  -7.71999979      -1.22402604E-08
  -7.71000004      -1.16746683E-08
  -7.69999981      -1.11361702E-08
  -7.69000006      -1.06260556E-08
  -7.67999983      -1.01453583E-08
  -7.67000008      -9.69505631E-09
  -7.65999985      -9.27600752E-09
  -7.65000010      -8.88916585E-09
  -7.63999987      -8.53557669E-09
  -7.63000011      -8.21646040E-09
  -7.61999989      -7.93314303E-09
  -7.61000013      -7.68703146E-09
  -7.59999990      -7.47945261E-09
  -7.59000015      -7.31145722E-09
  -7.57999992      -7.18392101E-09
  -7.57000017      -7.09734493E-09
  -7.55999994      -7.05195902E-09
  -7.55000019      -7.04787562E-09
  -7.53999996      -7.08514625E-09
  -7.53000021      -7.16382864E-09
  -7.51999998      -7.28393967E-09
  -7.51000023      -7.44553130E-09
  -7.50000000      -7.64853958E-09
  -7.48999977      -7.89259502E-09
  -7.48000002      -8.17709900E-09
  -7.46999979      -8.50105586E-09
  -7.46000004      -8.86323903E-09
  -7.44999981      -9.26224608E-09
  -7.44000006      -9.69653158E-09