  -16.0000000       0.00000000    
  -15.9899998       0.00000000    
  -15.9799995       0.00000000    
  -15.9700003       0.00000000    
  -15.9600000       0.00000000    
  -15.9499998       0.00000000    
  -15.9399996       0.00000000    
  -15.9300003       0.00000000    
  -15.9200001       0.00000000    
  -15.9099998       0.00000000    
  -15.8999996       0.00000000    
  -15.8900003       0.00000000    
  -15.8800001      -0.00000000    
  -15.8699999      -7.00649232E-45
  -15.8599997      -7.00649232E-44
  -15.8500004      -5.47907700E-43
  -15.8400002      -3.52146304E-42
  -15.8299999      -2.02711836E-41
  -15.8199997      -1.06650024E-40
  -15.8100004      -5.09408426E-40
  -15.8000002      -2.18506712E-39
  -15.7900000      -8.36875061E-39
  -15.7799997      -2.86049438E-38
  -15.7700005      -8.74586301E-38
  -15.7600002      -2.39886984E-37
  -15.7500000      -5.91469966E-37
  -15.7399998      -1.31085709E-36
  -15.7299995      -2.60189655E-36
  -15.7200003      -4.57864951E-36
  -15.7100000      -6.97483849E-36
  -15.6999998      -8.64919545E-36
  -15.6899996      -6.94735313E-36
  -15.6800003       2.85016359E-36
  -15.6700001       2.75709675E-35
  -15.6599998       7.51117702E-35
  -15.6499996       1.51643065E-34
  -15.6400003       2.56194586E-34
  -15.6300001       3.71316120E-34
  -15.6199999       4.48151298E-34
  -15.6099997       3.85764736E-34
  -15.6000004       1.16855847E-35
  -15.5900002      -9.12435429E-34
  -15.5799999      -2.61032865E-33
  -15.5699997      -5.06684901E-33
  -15.5600004      -7.61650471E-33
  -15.5500002      -8.42596922E-33
  -15.5400000      -4.21025085E-33
  -15.5299997       9.14214944E-33
  -15.5200005       3.41774894E-32
  -15.5100002       6.72560268E-32
  -15.5000000       9.26796951E-32
  -15.4899998       7.91384645E-32
  -15.4799995      -1.50560608E-32
  -15.4700003      -2.20536870E-31
  -15.4600000      -5.16272276E-31
  -15.4499998      -7.79571303E-31
  -15.4399996      -7.56903163E-31
  -15.4300003      -1.05714076E-31
  -15.4200001       1.44021305E-30
  -15.4099998       3.76695497E-30
  -15.3999996       6.01618648E-30
  -15.3900003       6.37442187E-30
  -15.3800001       2.35019106E-30
  -15.3699999      -8.13011691E-30
  -15.3599997      -2.47320686E-29
  -15.3500004      -4.23283441E-29
  -15.3400002      -4.95185026E-29
  -15.3299999      -3.00257022E-29
  -15.3199997       3.11056163E-29
  -15.3100004       1.36009714E-28
  -15.3000002       2.59797742E-28
  -15.2900000       3.40492449E-28
  -15.2799997       2.83529123E-28
  -15.2700005      -8.71100973E-30
  -15.2600002      -5.78466637E-28
  -15.2500000      -1.33609637E-27
  -15.2399998      -1.99674543E-27
  -15.2299995      -2.07968579E-27
  -15.2200003      -1.02325448E-27
  -15.2100000       1.55687940E-27
  -15.1999998       5.49948602E-27
  -15.1899996       9.74203313E-27
  -15.1800003       1.21870751E-26
  -15.1700001       1.00355040E-26
  -15.1599998       7.57511918E-28
  -15.1499996      -1.63478450E-26
  -15.1400003      -3.84023867E-26
  -15.1300001      -5.77878885E-26
  -15.1199999      -6.25925445E-26
  -15.1099997      -3.95587274E-26
  -15.1000004       2.02310867E-26
  -15.0900002       1.13897858E-25
  -15.0799999       2.20011038E-25
  -15.0699997       2.96265366E-25
  -15.0600004       2.85586211E-25
  -15.0500002       1.33208285E-25
  -15.0400000      -1.86247866E-25
  -15.0299997      -6.37872336E-25
  -15.0200005      -1.10340233E-24
  -15.0100002      -1.38123125E-24
  -15.0000000      -1.22364948E-24
  -14.9899998      -4.17604524E-25
  -14.9799995       1.09982918E-24
  -14.9700003       3.12026102E-24
  -14.9600000       5.08556616E-24
  -14.9499998       6.11136341E-24
  -14.9399996       5.16355335E-24
  -14.9300003       1.40559670E-24
  -14.9200001      -5.32645825E-24
  -14.9099998      -1.40425650E-23
  -14.8999996      -2.23073361E-23
  -14.8900003      -2.63743795E-23
  -14.8800001      -2.19473031E-23
  -14.8699999      -5.63130566E-24
  -14.8599997       2.31081940E-23
  -14.8500004       5.99850274E-23
  -14.8400002       9.47403582E-23
  -14.8299999       1.11766444E-22
  -14.8199997       9.33200994E-23
  -14.8100004       2.55504064E-23
  -14.8000002      -9.34694528E-23
  -14.7900000      -2.45843187E-22
  -14.7799997      -3.89439096E-22
  -14.7700005      -4.60852894E-22
  -14.7600002      -3.88846352E-22
  -14.7500000      -1.18817977E-22
  -14.7399998       3.55410767E-22
  -14.7299995       9.61374915E-22
  -14.7200003       1.53258937E-21
  -14.7100000       1.82265431E-21
  -14.6999998       1.55949466E-21
  -14.6899996       5.39803103E-22
  -14.6800003      -1.25257066E-21
  -14.6700001      -3.53907852E-21
  -14.6599998      -5.69863707E-21
  -14.6499996      -6.82994308E-21
  -14.6400003      -5.95641208E-21
  -14.6300001      -2.36614893E-21
  -14.6199999       3.97820681E-21
  -14.6099997       1.20849359E-20
  -14.6000004       1.97985130E-20
  -14.5900002       2.40443439E-20
  -14.5799999       2.15411160E-20
  -14.5699997       9.93138327E-21
  -14.5600004      -1.09028980E-20
  -14.5500002      -3.77493437E-20
  -14.5400000      -6.37099872E-20
  -14.5299997      -7.90442290E-20
  -14.5200005      -7.34288682E-20
  -14.5100002      -3.94249531E-20
  -14.5000000       2.35957713E-20
  -14.4899998       1.06290886E-19
  -14.4799995       1.88413688E-19
  -14.4700003       2.41356646E-19
  -14.4600000       2.34681635E-19
  -14.4499998       1.45927727E-19
  -14.4399996      -2.84526252E-20
  -14.4300003      -2.64393161E-19
  -14.4200001      -5.07623371E-19
  -14.4099998      -6.80375286E-19
  -14.3999996      -6.98551029E-19
  -14.3900003      -4.97356147E-19
  -14.3800001      -5.98154140E-20
  -14.3699999       5.60348846E-19
  -14.3599997       1.23104327E-18
  -14.3500004       1.75708858E-18
  -14.3400002       1.92122127E-18
  -14.3299999       1.54601318E-18
  -14.3199997       5.63540212E-19
  -14.3100004      -9.27088935E-19
  -14.3000002      -2.63654783E-18
  -14.2900000      -4.11454898E-18
  -14.2799997      -4.83839282E-18
  -14.2700005      -4.35106018E-18
  -14.2600002      -2.42064108E-18
  -14.2500000       8.21922587E-19
  -14.2399998       4.81524789E-18
  -14.2299995       8.61061351E-18
  -14.2200003       1.10434617E-17
  -14.2100000       1.10169431E-17
  -14.1999998       7.84281868E-18
  -14.1899996       1.55353453E-18
  -14.1800003      -6.91427122E-18
  -14.1700001      -1.57519822E-17
  -14.1599998      -2.25720285E-17
  -14.1499996      -2.49416561E-17
  -14.1400003      -2.10621707E-17
  -14.1300001      -1.04335393E-17
  -14.1199999       5.68933626E-18
  -14.1099997       2.42274419E-17
  -14.1000004       4.07047605E-17
  -14.0900002       5.01644311E-17
  -14.0799999       4.84268059E-17
  -14.0699997       3.34132892E-17
  -14.0600004       6.18151617E-18
  -14.0500002      -2.86780375E-17
  -14.0400000      -6.35302173E-17
  -14.0299997      -8.91196319E-17
  -14.0200005      -9.67358940E-17
  -14.0100002      -8.06768508E-17
  -14.0000000      -4.03972677E-17
  -13.9899998       1.83091515E-17
  -13.9799995       8.36085708E-17
  -13.9700003       1.39618611E-16
  -13.9600000       1.69882159E-16
  -13.9499998       1.61665688E-16
  -13.9399996       1.10071673E-16
  -13.9300003       2.08126004E-17
  -13.9200001      -8.93594084E-17
  -13.9099998      -1.95123820E-16
  -13.8999996      -2.67831103E-16
  -13.8900003      -2.82596158E-16
  -13.8800001      -2.25654977E-16
  -13.8699999      -1.00032090E-16
  -13.8599997       7.23311477E-17
  -13.8500004       2.53199456E-16
  -13.8400002       3.95548637E-16
  -13.8299999       4.54768072E-16
  -13.8199997       4.01154195E-16
  -13.8100004       2.30509720E-16
  -13.8000002      -3.03709884E-17
  -13.7900000      -3.25707012E-16
  -13.7799997      -5.80961105E-16
  -13.7700005      -7.19899125E-16
  -13.7600002      -6.84983951E-16
  -13.7500000      -4.56109666E-16
  -13.7399998      -6.23155654E-17
  -13.7299995       4.17853476E-16
  -13.7200003       8.69282385E-16
  -13.7100000       1.16516762E-15
  -13.6999998       1.19905169E-15
  -13.6899996       9.16539094E-16
  -13.6800003       3.38157787E-16
  -13.6700001      -4.34077095E-16
  -13.6599998      -1.23061912E-15
  -13.6499996      -1.84822060E-15
  -13.6400003      -2.09764427E-15
  -13.6300001      -1.85475567E-15
  -13.6199999      -1.10213333E-15
  -13.6099997       5.09212948E-17
  -13.6000004       1.37808639E-15
  -13.5900002       2.57689128E-15
  -13.5799999       3.33434731E-15
  -13.5699997       3.40373858E-15
  -13.5600004       2.67446312E-15
  -13.5500002       1.21639988E-15
  -13.5400000      -7.15387987E-16
  -13.5299997      -2.72139277E-15
  -13.5200005      -4.33876534E-15
  -13.5100002      -5.14696818E-15
  -13.5000000      -4.87429218E-15
  -13.4899998      -3.47880815E-15
  -13.4799995      -1.18098352E-15
  -13.4700003       1.56497744E-15
  -13.4600000       4.16004774E-15
  -13.4499998       5.99323498E-15
  -13.4399996       6.58948773E-15
  -13.4300003       5.73707740E-15
  -13.4200001       3.56059701E-15
  -13.4099998       5.16031318E-16
  -13.3999996      -2.69817411E-15
  -13.3900003      -5.29941547E-15
  -13.3800001      -6.61477082E-15
  -13.3699999      -6.26395518E-15
  -13.3599997      -4.28291749E-15
  -13.3500004      -1.14977523E-15
  -13.3400002       2.30404121E-15
  -13.3299999       5.08650188E-15
  -13.3199997       6.30217881E-15
  -13.3100004       5.41300810E-15
  -13.3000002       2.43333762E-15
  -13.2900000      -2.00109374E-15
  -13.2799997      -6.72499818E-15
  -13.2700005      -1.02927844E-14
  -13.2600002      -1.13398459E-14
  -13.2500000      -8.97493326E-15
  -13.2399998      -3.10380168E-15
  -13.2299995       5.41104171E-15
  -13.2200003       1.48194631E-14
  -13.2100000       2.27957505E-14
  -13.1999998       2.69467523E-14
  -13.1899996       2.54125588E-14
  -13.1800003       1.74193427E-14
  -13.1700001       3.63856174E-15
  -13.1599998      -1.37622093E-14
  -13.1499996      -3.14275414E-14
  -13.1400003      -4.54485862E-14
  -13.1300001      -5.22060388E-14
  -13.1199999      -4.92399463E-14
  -13.1099997      -3.59398248E-14
  -13.1000004      -1.38725955E-14
  -13.0900002       1.33630289E-14
  -13.0799999       4.07613227E-14
  -13.0699997       6.29040819E-14
  -13.0600004       7.51175990E-14
  -13.0500002       7.45310457E-14
  -13.0400000       6.07811802E-14
  -13.0299997       3.61786779E-14
  -13.0200005       5.27010983E-15
  -13.0100002      -2.61268193E-14
  -13.0000000      -5.22048157E-14
  -12.9899998      -6.84676653E-14
  -12.9799995      -7.27338586E-14
  -12.9700003      -6.55862761E-14
  -12.9600000      -5.01383399E-14
  -12.9499998      -3.11542513E-14
  -12.9399996      -1.37270854E-14
  -12.9300003      -1.84378384E-15
  -12.9200001       2.78602308E-15
  -12.9099998       1.30593189E-15
  -12.8999996      -2.50446340E-15
  -12.8900003      -3.24318116E-15
  -12.8800001       4.51020142E-15
  -12.8699999       2.43807592E-14
  -12.8599997       5.66452165E-14
  -12.8500004       9.73901745E-14
  -12.8400002       1.38693256E-13
  -12.8299999       1.69912166E-13
  -12.8199997       1.79894700E-13
  -12.8100004       1.59672948E-13
  -12.8000002       1.05039865E-13
  -12.7900000       1.83697136E-14
  -12.7799997      -9.08377174E-14
  -12.7700005      -2.06959409E-13
  -12.7600002      -3.10730093E-13
  -12.7500000      -3.82782808E-13
  -12.7399998      -4.07551624E-13
  -12.7299995      -3.76696856E-13
  -12.7200003      -2.91261617E-13
  -12.7100000      -1.61996772E-13
  -12.6999998      -7.67270226E-15
  -12.6899996       1.48362645E-13
  -12.6800003       2.82708481E-13
  -12.6700001       3.76567999E-13
  -12.6599998       4.19510834E-13
  -12.6499996       4.11472126E-13
  -12.6400003       3.62483806E-13
  -12.6300001       2.90134534E-13
  -12.6199999       2.15274535E-13
  -12.6099997       1.56908219E-13
  -12.6000004       1.27438099E-13
  -12.5900002       1.29382019E-13
  -12.5799999       1.54382149E-13
  -12.5699997       1.84814810E-13
  -12.5600004       1.97707749E-13
  -12.5500002       1.70123071E-13
  -12.5400000       8.47885808E-14
  -12.5299997      -6.53347412E-14
  -12.5200005      -2.74647303E-13
  -12.5100002      -5.25279635E-13
  -12.5000000      -7.90196901E-13
  -12.4899998      -1.03833001E-12
  -12.4799995      -1.24050596E-12
  -12.4700003      -1.37469322E-12
  -12.4600000      -1.42919346E-12
  -12.4499998      -1.40285461E-12
  -12.4399996      -1.30208019E-12
  -12.4300003      -1.13521898E-12
  -12.4200001      -9.05633587E-13
  -12.4099998      -6.05198292E-13
  -12.3999996      -2.10029111E-13
  -12.3900003       3.20095946E-13
  -12.3800001       1.03792940E-12
  -12.3699999       2.00080143E-12
  -12.3599997       3.25974642E-12
  -12.3500004       4.84769299E-12
  -12.3400002       6.76905016E-12
  -12.3299999       8.99294875E-12
  -12.3199997       1.14516721E-11
  -12.3100004       1.40449258E-11
  -12.3000002       1.66493277E-11
  -12.2900000       1.91314516E-11
  -12.2799997       2.13620753E-11
  -12.2700005       2.32288772E-11
  -12.2600002       2.46453465E-11
  -12.2500000       2.55543624E-11
  -12.2399998       2.59261085E-11
  -12.2299995       2.57512258E-11
  -12.2200003       2.50310727E-11
  -12.2100000       2.37676372E-11
  -12.1999998       2.19555433E-11
  -12.1899996       1.95781742E-11
  -12.1800003       1.66086866E-11
  -12.1700001       1.30158323E-11
  -12.1599998       8.77312112E-12
  -12.1499996       3.86897632E-12
  -12.1400003      -1.68418068E-12
  -12.1300001      -7.84441609E-12
  -12.1199999      -1.45394616E-11
  -12.1099997      -2.16707277E-11
  -12.1000004      -2.91213754E-11
  -12.0900002      -3.67663608E-11
  -12.0799999      -4.44824108E-11
  -12.0699997      -5.21554536E-11
  -12.0600004      -5.96843269E-11
  -12.0500002      -6.69798869E-11
  -12.0400000      -7.39603656E-11
  -12.0299997      -8.05444600E-11
  -12.0200005      -8.66443028E-11
  -12.0100002      -9.21604737E-11
  -12.0000000      -9.69808053E-11
  -11.9899998      -1.00983798E-10
  -11.9799995      -1.04046022E-10
  -11.9700003      -1.06052479E-10
  -11.9600000      -1.06907615E-10
  -11.9499998      -1.06544391E-10
  -11.9399996      -1.04929891E-10
  -11.9300003      -1.02065731E-10
  -11.9200001      -9.79834269E-11
  -11.9099998      -9.27351113E-11
  -11.8999996      -8.63822000E-11
  -11.8900003      -7.89836530E-11
  -11.8800001      -7.05860856E-11
  -11.8699999      -6.12184956E-11
  -11.8599997      -5.08906632E-11
  -11.8500004      -3.95971242E-11
  -11.8400002      -2.73244032E-11
  -11.8299999      -1.40605071E-11
  -11.8199997       1.95388939E-13
  -11.8100004       1.54244898E-11
  -11.8000002       3.15826289E-11
  -11.7900000       4.85974906E-11
  -11.7799997       6.63692504E-11
  -11.7700005       8.47733411E-11
  -11.7600002       1.03664133E-10
  -11.7500000       1.22879790E-10
  -11.7399998       1.42246187E-10
  -11.7299995       1.61580402E-10
  -11.7200003       1.80693141E-10
  -11.7100000       1.99390157E-10
  -11.6999998       2.17473956E-10
  -11.6899996       2.34745390E-10
  -11.6800003       2.51006271E-10
  -11.6700001       2.66062256E-10
  -11.6599998       2.79726853E-10
  -11.6499996       2.91825897E-10
  -11.6400003       3.02201542E-10
  -11.6300001       3.10715648E-10
  -11.6199999       3.17252391E-10
  -11.6099997       3.21717430E-10
  -11.6000004       3.24037214E-10
  -11.5900002       3.24154287E-10
  -11.5799999       3.22022270E-10
  -11.5699997       3.17599780E-10
  -11.5600004       3.10844572E-10
  -11.5500002       3.01708741E-10
  -11.5400000       2.90136942E-10
  -11.5299997       2.76065781E-10
  -11.5200005       2.59427424E-10
  -11.5100002       2.40155423E-10
  -11.5000000       2.18189439E-10
  -11.4899998       1.93483771E-10
  -11.4799995       1.66012037E-10
  -11.4700003       1.35770770E-10
  -11.4600000       1.02780506E-10
  -11.4499998       6.70855108E-11
  -11.4399996       2.87491142E-11
  -11.4300003      -1.21474046E-11
  -11.4200001      -5.55094685E-11
  -11.4099998      -1.01229691E-10
  -11.3999996      -1.49187801E-10
  -11.3900003      -1.99247507E-10
  -11.3800001      -2.51255572E-10
  -11.3699999      -3.05036996E-10
  -11.3599997      -3.60395241E-10
  -11.3500004      -4.17111873E-10
  -11.3400002      -4.74950856E-10
  -11.3299999      -5.33664224E-10
  -11.3199997      -5.93000093E-10
  -11.3100004      -6.52710996E-10
  -11.3000002      -7.12562342E-10
  -11.2900000      -7.72339581E-10
  -11.2799997      -8.31852975E-10
  -11.2700005      -8.90940932E-10
  -11.2600002      -9.49470058E-10
  -11.2500000      -1.00733422E-09
  -11.2399998      -1.06445108E-09
  -11.2299995      -1.12075860E-09
  -11.2200003      -1.17620869E-09
  -11.2100000      -1.23076027E-09
  -11.1999998      -1.28437194E-09
  -11.1899996      -1.33699340E-09
  -11.1800003      -1.38855805E-09
  -11.1700001      -1.43897416E-09
  -11.1599998      -1.48812329E-09
  -11.1499996      -1.53586077E-09
  -11.1400003      -1.58201596E-09
  -11.1300001      -1.62640512E-09
  -11.1199999      -1.66884262E-09
  -11.1099997      -1.70915060E-09
  -11.1000004      -1.74717596E-09
  -11.0900002      -1.78279191E-09
  -11.0799999      -1.81590676E-09
  -11.0699997      -1.84645854E-09
  -11.0600004      -1.87440929E-09
  -11.0500002      -1.89973837E-09
  -11.0400000      -1.92243643E-09
  -11.0299997      -1.94250083E-09
  -11.0200005      -1.95993577E-09
  -11.0100002      -1.97476258E-09
  -11.0000000      -1.98703076E-09
  -10.9899998      -1.99683270E-09
  -10.9799995      -2.00430295E-09
  -10.9700003      -2.00963424E-09
  -10.9600000      -2.01306039E-09
  -10.9499998      -2.01484385E-09
  -10.9399996      -2.01524997E-09
  -10.9300003      -2.01451922E-09
  -10.9200001      -2.01284100E-09
  -10.9099998      -2.01033146E-09
  -10.8999996      -2.00702144E-09
  -10.8900003      -2.00286610E-09
  -10.8800001      -1.99774641E-09
  -10.8699999      -1.99150629E-09
  -10.8599997      -1.98395811E-09
  -10.8500004      -1.97493466E-09
  -10.8400002      -1.96428052E-09
  -10.8299999      -1.95188932E-09
  -10.8199997      -1.93769267E-09
  -10.8100004      -1.92165106E-09
  -10.8000002      -1.90375848E-09
  -10.7900000      -1.88402849E-09
  -10.7799997      -1.86247384E-09
  -10.7700005      -1.83912086E-09
  -10.7600002      -1.81399784E-09
  -10.7500000      -1.78713622E-09
  -10.7399998      -1.75857895E-09
  -10.7299995      -1.72837666E-09
  -10.7200003      -1.69661230E-09
  -10.7100000      -1.66336944E-09
  -10.6999998      -1.62875413E-09
  -10.6899996      -1.59287938E-09
  -10.6800003      -1.55584157E-09
  -10.6700001      -1.51775503E-09
  -10.6599998      -1.47871937E-09
  -10.6499996      -1.43882295E-09
  -10.6400003      -1.39815681E-09
  -10.6300001      -1.35681255E-09
  -10.6199999      -1.31489220E-09
  -10.6099997      -1.27249822E-09
  -10.6000004      -1.22976529E-09
  -10.5900002      -1.18681476E-09
  -10.5799999      -1.14379783E-09
  -10.5699997      -1.10087017E-09
  -10.5600004      -1.05819276E-09
  -10.5500002      -1.01594411E-09
  -10.5400000      -9.74284653E-10
  -10.5299997      -9.33383593E-10
  -10.5200005      -8.93397911E-10
  -10.5100002      -8.54486426E-10
  -10.5000000      -8.16788137E-10
  -10.4899998      -7.80418619E-10
  -10.4799995      -7.45482620E-10
  -10.4700003      -7.12059245E-10
  -10.4600000      -6.80199119E-10
  -10.4499998      -6.49944709E-10
  -10.4399996      -6.21311891E-10
  -10.4300003      -5.94307770E-10
  -10.4200001      -5.68939340E-10
  -10.4099998      -5.45206325E-10
  -10.3999996      -5.23113719E-10
  -10.3900003      -5.02666075E-10
  -10.3800001      -4.83862506E-10
  -10.3699999      -4.66702121E-10
  -10.3599997      -4.51162635E-10
  -10.3500004      -4.37203052E-10
  -10.3400002      -4.24778407E-10
  -10.3299999      -4.13846846E-10
  -10.3199997      -4.04373424E-10
  -10.3100004      -3.96340988E-10
  -10.3000002      -3.89765747E-10
  -10.2900000      -3.84706045E-10
  -10.2799997      -3.81265713E-10
  -10.2700005      -3.79584725E-10
  -10.2600002      -3.79814680E-10
  -10.2500000      -3.82123277E-10
  -10.2399998      -3.86641524E-10
  -10.2299995      -3.93470728E-10
  -10.2200003      -4.02641864E-10
  -10.2100000      -4.14136475E-10
  -10.1999998      -4.27863051E-10
  -10.1899996      -4.43666437E-10
  -10.1800003      -4.61368638E-10
  -10.1700001      -4.80731954E-10
  -10.1599998      -5.01525765E-10
  -10.1499996      -5.23528665E-10
  -10.1400003      -5.46523271E-10
  -10.1300001      -5.70340497E-10
  -10.1199999      -5.94843064E-10
  -10.1099997      -6.19947982E-10
  -10.1000004      -6.45618670E-10
  -10.0900002      -6.71841416E-10
  -10.0799999      -6.98654801E-10
  -10.0699997      -7.26103178E-10
  -10.0600004      -7.54230289E-10
  -10.0500002      -7.83080267E-10
  -10.0400000      -8.12659606E-10
  -10.0299997      -8.42951708E-10
  -10.0200005      -8.73908723E-10
  -10.0100002      -9.05461317E-10
  -10.0000000      -9.37548927E-10
  -9.98999977      -9.70099112E-10
  -9.97999954      -1.00308917E-09
  -9.97000027      -1.03653230E-09
  -9.96000004      -1.07050058E-09
  -9.94999981      -1.10512710E-09
  -9.93999958      -1.14060139E-09
  -9.93000031      -1.17713583E-09
  -9.92000008      -1.21496402E-09
  -9.90999985      -1.25431276E-09
  -9.89999962      -1.29536704E-09
  -9.89000034      -1.33826450E-09
  -9.88000011      -1.38307610E-09
  -9.86999989      -1.42980683E-09
  -9.85999966      -1.47839940E-09
  -9.85000038      -1.52875268E-09
  -9.84000015      -1.58074520E-09
  -9.82999992      -1.63424152E-09
  -9.81999969      -1.68913683E-09
  -9.81000042      -1.74536097E-09
  -9.80000019      -1.80288395E-09
  -9.78999996      -1.86174209E-09
  -9.77999973      -1.92199257E-09
  -9.77000046      -1.98373806E-09
  -9.76000023      -2.04710138E-09
  -9.75000000      -2.11219731E-09
  -9.73999977      -2.17913554E-09
  -9.72999954      -2.24802621E-09
  -9.72000027      -2.31891528E-09
  -9.71000004      -2.39183695E-09
  -9.69999981      -2.46676857E-09
  -9.68999958      -2.54363974E-09
  -9.68000031      -2.62233968E-09
  -9.67000008      -2.70268963E-09
  -9.65999985      -2.78447354E-09
  -9.64999962      -2.86743052E-09
  -9.64000034      -2.95130076E-09
  -9.63000011      -3.03582981E-09
  -9.61999989      -3.12077408E-09
  -9.60999966      -3.20594506E-09
  -9.60000038      -3.29118066E-09
  -9.59000015      -3.37637962E-09
  -9.57999992      -3.46144891E-09
  -9.56999969      -3.54633434E-09
  -9.56000042      -3.63096819E-09
  -9.55000019      -3.71525122E-09
  -9.53999996      -3.79908949E-09
  -9.52999973      -3.88234112E-09
  -9.52000046      -3.96483424E-09
  -9.51000023      -4.04638056E-09
  -9.50000000      -4.12679535E-09
  -9.48999977      -4.20589608E-09
  -9.47999954      -4.28349667E-09
  -9.47000027      -4.35944658E-09
  -9.46000004      -4.43357351E-09
  -9.44999981      -4.50573179E-09
  -9.43999958      -4.57578908E-09
  -9.43000031      -4.64362060E-09
  -9.42000008      -4.70914685E-09
  -9.40999985      -4.77229900E-09
  -9.39999962      -4.83306772E-09
  -9.39000034      -4.89148544E-09
  -9.38000011      -4.94759211E-09
  -9.36999989      -5.00147079E-09
  -9.35999966      -5.05318942E-09
  -9.35000038      -5.10282616E-09
  -9.34000015      -5.15044096E-09
  -9.32999992      -5.19609378E-09
  -9.31999969      -5.23987032E-09
  -9.31000042      -5.28186384E-09
  -9.30000019      -5.32219468E-09
  -9.28999996      -5.36102718E-09
  -9.27999973      -5.39852740E-09
  -9.27000046      -5.43492185E-09
  -9.26000023      -5.47042145E-09
  -9.25000000      -5.50522339E-09
  -9.23999977      -5.53953150E-09
  -9.22999954      -5.57348789E-09
  -9.22000027      -5.60729019E-09
  -9.21000004      -5.64110048E-09
  -9.19999981      -5.67512126E-09
  -9.18999958      -5.70955594E-09
  -9.18000031      -5.74459325E-09
  -9.17000008      -5.78045523E-09
  -9.15999985      -5.81729465E-09
  -9.14999962      -5.85525006E-09
  -9.14000034      -5.89441074E-09
  -9.13000011      -5.93481131E-09
  -9.11999989      -5.97644334E-09
  -9.10999966      -6.01929706E-09
  -9.10000038      -6.06335027E-09
  -9.09000015      -6.10862561E-09
  -9.07999992      -6.15519147E-09
  -9.06999969      -6.20313978E-09
  -9.06000042      -6.25259222E-09
  -9.05000019      -6.30363717E-09
  -9.03999996      -6.35632835E-09
  -9.02999973      -6.41073017E-09
  -9.02000046      -6.46684306E-09
  -9.01000023      -6.52460752E-09
  -9.00000000      -6.58399424E-09
  -8.98999977      -6.64496280E-09
  -8.97999954      -6.70749456E-09
  -8.97000027      -6.77158596E-09
  -8.96000004      -6.83729917E-09
  -8.94999981      -6.90465995E-09
  -8.93999958      -6.97373936E-09
  -8.93000031      -7.04455561E-09
  -8.92000008      -7.11713488E-09
  -8.90999985      -7.19147764E-09
  -8.89999962      -7.26756122E-09
  -8.89000034      -7.34532835E-09
  -8.88000011      -7.42467332E-09
  -8.86999989      -7.50552687E-09
  -8.85999966      -7.58775975E-09
  -8.85000038      -7.67122899E-09
  -8.84000015      -7.75580133E-09
  -8.82999992      -7.84126364E-09
  -8.81999969      -7.92750310E-09
  -8.81000042      -8.01435185E-09
  -8.80000019      -8.10169087E-09
  -8.78999996      -8.18939494E-09
  -8.77999973      -8.27745694E-09
  -8.77000046      -8.36587599E-09
  -8.76000023      -8.45464765E-09
  -8.75000000      -8.54374882E-09
  -8.73999977      -8.63328076E-09
  -8.72999954      -8.72325856E-09
  -8.72000027      -8.81374973E-09
  -8.71000004      -8.90486529E-09
  -8.69999981      -8.99669583E-09
  -8.68999958      -9.08946873E-09
  -8.68000031      -9.18345311E-09
  -8.67000008      -9.27894739E-09
  -8.65999985      -9.37633704E-09
  -8.64999962      -9.47604395E-09
  -8.64000034      -9.57857882E-09
  -8.63000011      -9.68440617E-09
  -8.61999989      -9.79399406E-09
  -8.60999966      -9.90785676E-09
  -8.60000038      -1.00264215E-08
  -8.59000015      -1.01501501E-08
  -8.57999992      -1.02794271E-08
  -8.56999969      -1.04146656E-08
  -8.56000042      -1.05561462E-08
  -8.55000019      -1.07042251E-08
  -8.53999996      -1.08591358E-08
  -8.52999973      -1.10210649E-08
  -8.52000046      -1.11901892E-08
  -8.51000023      -1.13666712E-08
  -8.50000000      -1.15506147E-08
  -8.48999977      -1.17420083E-08
  -8.47999954      -1.19408767E-08
  -8.47000027      -1.21471464E-08
  -8.46000004      -1.23606645E-08
  -8.44999981      -1.25812667E-08
  -8.43999958      -1.28086066E-08
  -8.43000031      -1.30423938E-08
  -8.42000008      -1.32822047E-08
  -8.40999985      -1.35275631E-08
  -8.39999962      -1.37781022E-08
  -8.39000034      -1.40332848E-08
  -8.38000011      -1.42925423E-08
  -8.36999989      -1.45552530E-08
  -8.35999966      -1.48207180E-08
  -8.35000038      -1.50882524E-08
  -8.34000015      -1.53568980E-08
  -8.32999992      -1.56258775E-08
  -8.31999969      -1.58942708E-08
  -8.31000042      -1.61612821E-08
  -8.30000019      -1.64261618E-08
  -8.28999996      -1.66881282E-08
  -8.27999973      -1.69464691E-08
  -8.27000046      -1.72005059E-08
  -8.26000023      -1.74494765E-08
  -8.25000000      -1.76925727E-08
  -8.23999977      -1.79289277E-08
  -8.22999954      -1.81576567E-08
  -8.22000027      -1.83778077E-08
  -8.21000004      -1.85886222E-08
  -8.19999981      -1.87892013E-08
  -8.18999958      -1.89789642E-08
  -8.18000031      -1.91573086E-08
  -8.17000008      -1.93237462E-08
  -8.15999985      -1.94779481E-08
  -8.14999962      -1.96196375E-08
  -8.14000034      -1.97485974E-08
  -8.13000011      -1.98646077E-08
  -8.11999989      -1.99676649E-08
  -8.10999966      -2.00579251E-08
  -8.10000038      -2.01355093E-08
  -8.09000015      -2.02007548E-08
  -8.07999992      -2.02541006E-08
  -8.06999969      -2.02960440E-08
  -8.06000042      -2.03270911E-08
  -8.05000019      -2.03476347E-08
  -8.03999996      -2.03581756E-08
  -8.02999973      -2.03589252E-08
  -8.02000046      -2.03502335E-08
  -8.01000023      -2.03324877E-08
  -8.00000000      -2.03061425E-08
  -7.98999977      -2.02717292E-08
  -7.98000002      -2.02301251E-08
  -7.96999979      -2.01821386E-08
  -7.96000004      -2.01289083E-08
  -7.94999981      -2.00715213E-08
  -7.94000006      -2.00109689E-08
  -7.92999983      -1.99484784E-08
  -7.92000008      -1.98848511E-08
  -7.90999985      -1.98209804E-08
  -7.90000010      -1.97576480E-08
  -7.88999987      -1.96957366E-08
  -7.88000011      -1.96359338E-08
  -7.86999989      -1.95790726E-08
  -7.86000013      -1.95260981E-08
  -7.84999990      -1.94777314E-08
  -7.84000015      -1.94349301E-08
  -7.82999992      -1.93983514E-08
  -7.82000017      -1.93687040E-08
  -7.80999994      -1.93467162E-08
  -7.80000019      -1.93327896E-08
  -7.78999996      -1.93275032E-08
  -7.78000021      -1.93312548E-08
  -7.76999998      -1.93444922E-08
  -7.76000023      -1.93675778E-08
  -7.75000000      -1.94009928E-08
  -7.73999977      -1.94451530E-08
  -7.73000002      -1.95003125E-08
  -7.71999979      -1.95668495E-08
  -7.71000004      -1.96451300E-08
  -7.69999981      -1.97351699E-08
  -7.69000006      -1.98371222E-08
  -7.67999983      -1.99510861E-08
  -7.67000008      -2.00770867E-08
  -7.65999985      -2.02150243E-08
  -7.65000010      -2.03650377E-08
  -7.63999987      -2.05273416E-08
  -7.63000011      -2.07019184E-08
  -7.61999989      -2.08888213E-08
  -7.61000013      -2.10881090E-08
  -7.59999990      -2.12998010E-08
  -7.59000015      -2.15239933E-08
  -7.57999992      -2.17606004E-08
  -7.57000017      -2.20094325E-08
  -7.55999994      -2.22701999E-08
  -7.55000019      -2.25428742E-08
  -7.53999996      -2.28271766E-08
  -7.53000021      -2.31229986E-08
  -7.51999998      -2.34301840E-08
  -7.51000023      -2.37485231E-08
  -7.50000000      -2.40781510E-08
  -7.48999977      -2.44189575E-08
  -7.48000002      -2.47706158E-08
  -7.46999979      -2.51334740E-08
  -7.46000004      -2.55071892E-08
  -7.44999981      -2.58917296E-08
  -7.44000006      -2.62869744E-08