  -16.0000000       0.00000000    
  -15.9899998       0.00000000    
  -15.9799995       0.00000000    
  -15.9700003       0.00000000    
  -15.9600000       0.00000000    
  -15.9499998       0.00000000    
  -15.9399996       0.00000000    
  -15.9300003       0.00000000    
  -15.9200001       0.00000000    
  -15.9099998       0.00000000    
  -15.8999996       0.00000000    
  -15.8900003       0.00000000    
  -15.8800001       0.00000000    
  -15.8699999       0.00000000    
  -15.8599997       0.00000000    
  -15.8500004       0.00000000    
  -15.8400002      -1.40129846E-45
  -15.8299999      -7.00649232E-45
  -15.8199997      -6.72623263E-44
  -15.8100004      -5.12875238E-43
  -15.8000002      -3.22158517E-42
  -15.7900000      -1.71378802E-41
  -15.7799997      -7.92013892E-41
  -15.7700005      -3.23691537E-40
  -15.7600002      -1.18569889E-39
  -15.7500000      -3.93222846E-39
  -15.7399998      -1.18965195E-38
  -15.7299995      -3.30171170E-38
  -15.7200003      -8.43827015E-38
  -15.7100000      -1.99018462E-37
  -15.6999998      -4.33316058E-37
  -15.6899996      -8.69318215E-37
  -15.6800003      -1.59899697E-36
  -15.6700001      -2.66928981E-36
  -15.6599998      -3.96280139E-36
  -15.6499996      -5.00103970E-36
  -15.6400003      -4.70095179E-36
  -15.6300001      -1.20112713E-36
  -15.6199999       8.00810262E-36
  -15.6099997       2.53226566E-35
  -15.6000004       5.13398306E-35
  -15.5900002       8.22665531E-35
  -15.5799999       1.07100691E-34
  -15.5699997       1.06180189E-34
  -15.5600004       5.34567363E-35
  -15.5500002      -7.52774357E-35
  -15.5400000      -2.87732801E-34
  -15.5299997      -5.57145843E-34
  -15.5200005      -8.08462586E-34
  -15.5100002      -9.18787874E-34
  -15.5000000      -7.39990546E-34
  -15.4899998      -1.42810797E-34
  -15.4799995       9.29960489E-34
  -15.4700003       2.41992043E-33
  -15.4600000       4.12800555E-33
  -15.4499998       5.68831524E-33
  -15.4399996       6.49273358E-33
  -15.4300003       5.53440630E-33
  -15.4200001       1.25205053E-33
  -15.4099998      -8.32177120E-33
  -15.3999996      -2.45815029E-32
  -15.3900003      -4.60479958E-32
  -15.3800001      -6.49086528E-32
  -15.3699999      -6.40386635E-32
  -15.3599997      -1.81118127E-32
  -15.3500004       9.63812269E-32
  -15.3400002       2.79051591E-31
  -15.3299999       4.74955342E-31
  -15.3199997       5.50675422E-31
  -15.3100004       3.05418047E-31
  -15.3000002      -4.50147944E-31
  -15.2900000      -1.73198203E-30
  -15.2799997      -3.17169516E-30
  -15.2700005      -3.86695700E-30
  -15.2600002      -2.47595353E-30
  -15.2500000       2.25395155E-30
  -15.2399998       1.04627024E-29
  -15.2299995       1.99057077E-29
  -15.2200003       2.51129047E-29
  -15.2100000       1.80203818E-29
  -15.1999998      -8.92239483E-30
  -15.1899996      -5.69591133E-29
  -15.1800003      -1.14025272E-28
  -15.1700001      -1.50243420E-28
  -15.1599998      -1.21325931E-28
  -15.1499996       1.51548779E-29
  -15.1400003       2.69883982E-28
  -15.1300001       5.85984312E-28
  -15.1199999       8.15591080E-28
  -15.1099997       7.34898419E-28
  -15.1000004       1.21087405E-28
  -15.0900002      -1.10547551E-27
  -15.0799999      -2.70917156E-27
  -15.0699997      -4.02071965E-27
  -15.0600004      -3.99053840E-27
  -15.0500002      -1.52062569E-27
  -15.0400000       3.90474015E-27
  -15.0299997       1.14360310E-26
  -15.0200005       1.82771738E-26
  -15.0100002       1.98132262E-26
  -15.0000000       1.09205605E-26
  -14.9899998      -1.14077807E-26
  -14.9799995      -4.46635110E-26
  -14.9700003      -7.80510504E-26
  -14.9600000      -9.24171628E-26
  -14.9499998      -6.49291012E-26
  -14.9399996       2.06720646E-26
  -14.9300003       1.59977738E-25
  -14.9200001       3.15118229E-25
  -14.9099998       4.11337098E-25
  -14.8999996       3.51502442E-25
  -14.8900003       5.32638082E-26
  -14.8800001      -4.95512081E-25
  -14.8699999      -1.18026134E-24
  -14.8599997      -1.73172462E-24
  -14.8500004      -1.76073853E-24
  -14.8400002      -8.79972762E-25
  -14.8299999       1.09264956E-24
  -14.8199997       3.89985143E-24
  -14.8100004       6.68015066E-24
  -14.8000002       8.00124261E-24
  -14.7900000       6.20279279E-24
  -14.7799997       7.51940921E-26
  -14.7700005      -1.02492138E-23
  -14.7600002      -2.24968489E-23
  -14.7500000      -3.19916135E-23
  -14.7399998      -3.23883253E-23
  -14.7299995      -1.76549437E-23
  -14.7200003       1.48844484E-23
  -14.7100000       6.12441819E-23
  -14.6999998       1.08594264E-22
  -14.6899996       1.35863330E-22
  -14.6800003       1.18458370E-22
  -14.6700001       3.73086022E-23
  -14.6599998      -1.09395949E-22
  -14.6499996      -2.95505023E-22
  -14.6400003      -4.62557894E-22
  -14.6300001      -5.27160882E-22
  -14.6199999      -4.03221695E-22
  -14.6099997      -3.73846453E-23
  -14.6000004       5.50524039E-22
  -14.5900002       1.23659725E-21
  -14.5799999       1.78944632E-21
  -14.5699997       1.90978394E-21
  -14.5600004       1.31831920E-21
  -14.5500002      -1.20024783E-22
  -14.5400000      -2.26827909E-21
  -14.5299997      -4.63597979E-21
  -14.5200005      -6.39923764E-21
  -14.5100002      -6.56287117E-21
  -14.5000000      -4.26764086E-21
  -14.4899998       8.10183576E-22
  -14.4799995       8.07990588E-21
  -14.4700003       1.58340432E-20
  -14.4600000       2.13800048E-20
  -14.4499998       2.16048735E-20
  -14.4399996       1.39511297E-20
  -14.4300003      -2.38345833E-21
  -14.4200001      -2.53718266E-20
  -14.4099998      -4.96606411E-20
  -14.3999996      -6.70763602E-20
  -14.3900003      -6.83684939E-20
  -14.3800001      -4.60693848E-20
  -14.3699999       2.10112741E-21
  -14.3599997       7.02821892E-20
  -14.3500004       1.43195175E-19
  -14.3400002       1.97654433E-19
  -14.3299999       2.07423681E-19
  -14.3199997       1.51021686E-19
  -14.3100004       2.09104910E-20
  -14.3000002      -1.68558471E-19
  -14.2900000      -3.77604124E-19
  -14.2799997      -5.44696676E-19
  -14.2700005      -5.98851984E-19
  -14.2600002      -4.79539193E-19
  -14.2500000      -1.60316689E-19
  -14.2399998       3.30266620E-19
  -14.2299995       8.98277303E-19
  -14.2200003       1.39149243E-18
  -14.2100000       1.62762085E-18
  -14.1999998       1.44168575E-18
  -14.1899996       7.43828672E-19
  -14.1800003      -4.27339909E-19
  -14.1700001      -1.87405502E-18
  -14.1599998      -3.24819247E-18
  -14.1499996      -4.10926619E-18
  -14.1400003      -4.02906111E-18
  -14.1300001      -2.72516886E-18
  -14.1199999      -1.91498787E-19
  -14.1099997       3.21466105E-18
  -14.1000004       6.76813777E-18
  -14.0900002       9.47938808E-18
  -14.0799999       1.03064198E-17
  -14.0699997       8.44330962E-18
  -14.0600004       3.62199767E-18
  -14.0500002      -3.65721406E-18
  -14.0400000      -1.20529091E-17
  -14.0299997      -1.95311504E-17
  -14.0200005      -2.37515417E-17
  -14.0100002      -2.26425820E-17
  -14.0000000      -1.50518334E-17
  -13.9899998      -1.30611219E-18
  -13.9799995       1.64981140E-17
  -13.9700003       3.46217570E-17
  -13.9600000       4.82934776E-17
  -13.9499998       5.27500025E-17
  -13.9399996       4.45214811E-17
  -13.9300003       2.26669904E-17
  -13.9200001      -1.03866927E-17
  -13.9099998      -4.87180264E-17
  -13.8999996      -8.36846383E-17
  -13.8900003      -1.05584152E-16
  -13.8800001      -1.05946272E-16
  -13.8699999      -7.99794979E-17
  -13.8599997      -2.85599691E-17
  -13.8500004       4.08476477E-17
  -13.8400002       1.14782785E-16
  -13.8299999       1.76025159E-16
  -13.8199997       2.07199730E-16
  -13.8100004       1.95071132E-16
  -13.8000002       1.34552626E-16
  -13.7900000       3.13641510E-17
  -13.7799997      -9.75525662E-17
  -13.7700005      -2.26323762E-16
  -13.7600002      -3.24982613E-16
  -13.7500000      -3.66033112E-16
  -13.7399998      -3.31361195E-16
  -13.7299995      -2.17835235E-16
  -13.7200003      -4.00451800E-17
  -13.7100000       1.70856564E-16
  -13.6999998       3.72404309E-16
  -13.6899996       5.19358305E-16
  -13.6800003       5.73822735E-16
  -13.6700001       5.14654784E-16
  -13.6599998       3.43816523E-16
  -13.6499996       8.78496582E-17
  -13.6400003      -2.06303477E-16
  -13.6300001      -4.80567425E-16
  -13.6199999      -6.78204352E-16
  -13.6099997      -7.56648126E-16
  -13.6000004      -6.97560061E-16
  -13.5900002      -5.11453211E-16
  -13.5799999      -2.35462745E-16
  -13.5699997       7.54646071E-17
  -13.5600004       3.61917538E-16
  -13.5500002       5.74508884E-16
  -13.5400000       6.85578780E-16
  -13.5299997       6.94704818E-16
  -13.5200005       6.26150524E-16
  -13.5100002       5.18602645E-16
  -13.5000000       4.09920430E-16
  -13.4899998       3.21446939E-16
  -13.4799995       2.47143435E-16
  -13.4700003       1.52020113E-16
  -13.4600000      -1.79244695E-17
  -13.4499998      -3.15355951E-16
  -13.4399996      -7.65500150E-16
  -13.4300003      -1.34174180E-15
  -13.4200001      -1.95149001E-15
  -13.4099998      -2.43965648E-15
  -13.3999996      -2.61347611E-15
  -13.3900003      -2.28694703E-15
  -13.3800001      -1.33709646E-15
  -13.3699999       2.40892782E-16
  -13.3599997       2.29525790E-15
  -13.3500004       4.51043816E-15
  -13.3400002       6.44036335E-15
  -13.3299999       7.58286256E-15
  -13.3199997       7.48535213E-15
  -13.3100004       5.86206007E-15
  -13.3000002       2.69640826E-15
  -13.2900000      -1.69893972E-15
  -13.2799997      -6.68637814E-15
  -13.2700005      -1.13821585E-14
  -13.2600002      -1.48037015E-14
  -13.2500000      -1.60623840E-14
  -13.2399998      -1.45647790E-14
  -13.2299995      -1.01783765E-14
  -13.2200003      -3.32031579E-15
  -13.2100000       5.05971870E-15
  -13.1999998       1.36104490E-14
  -13.1899996       2.08069984E-14
  -13.1800003       2.52355916E-14
  -13.1700001       2.58784981E-14
  -13.1599998       2.23380732E-14
  -13.1499996       1.49480749E-14
  -13.1400003       4.74226007E-15
  -13.1300001      -6.71934932E-15
  -13.1199999      -1.76343688E-14
  -13.1099997      -2.62936764E-14
  -13.1000004      -3.13968347E-14
  -13.0900002      -3.22782708E-14
  -13.0799999      -2.89947950E-14
  -13.0699997      -2.22571798E-14
  -13.0600004      -1.32261738E-14
  -13.0500002      -3.22669874E-15
  -13.0400000       6.54507059E-15
  -13.0299997       1.52448041E-14
  -13.0200005       2.24745336E-14
  -13.0100002       2.82245896E-14
  -13.0000000       3.26822682E-14
  -12.9899998       3.59673974E-14
  -12.9799995       3.78819866E-14
  -12.9700003       3.77659160E-14
  -12.9600000       3.45294946E-14
  -12.9499998       2.68901045E-14
  -12.9399996       1.37825788E-14
  -12.9300003      -5.14370583E-15
  -12.9200001      -2.90697642E-14
  -12.9099998      -5.57355912E-14
  -12.8999996      -8.14717150E-14
  -12.8900003      -1.01596527E-13
  -12.8800001      -1.11160653E-13
  -12.8699999      -1.05931235E-13
  -12.8599997      -8.34334636E-14
  -12.8500004      -4.38245834E-14
  -12.8400002       9.62004371E-15
  -12.8299999       7.05727658E-14
  -12.8199997       1.30336429E-13
  -12.8100004       1.79084341E-13
  -12.8000002       2.07473985E-13
  -12.7900000       2.08356024E-13
  -12.7799997       1.78257203E-13
  -12.7700005       1.18337808E-13
  -12.7600002       3.46094037E-14
  -12.7500000      -6.26661808E-14
  -12.7399998      -1.60322791E-13
  -12.7299995      -2.44163224E-13
  -12.7200003      -3.01044400E-13
  -12.7100000      -3.20824883E-13
  -12.6999998      -2.97862158E-13
  -12.6899996      -2.31846226E-13
  -12.6800003      -1.27891052E-13
  -12.6700001       4.05684228E-15
  -12.6599998       1.50325309E-13
  -12.6499996       2.94916598E-13
  -12.6400003       4.20987545E-13
  -12.6300001       5.12259126E-13
  -12.6199999       5.54294078E-13
  -12.6099997       5.35667756E-13
  -12.6000004       4.49103455E-13
  -12.5900002       2.92636249E-13
  -12.5799999       7.07911513E-14
  -12.5699997      -2.04351713E-13
  -12.5600004      -5.12460896E-13
  -12.5500002      -8.24972415E-13
  -12.5400000      -1.10618275E-12
  -12.5299997      -1.31568628E-12
  -12.5200005      -1.41223350E-12
  -12.5100002      -1.35881866E-12
  -12.5000000      -1.12850571E-12
  -12.4899998      -7.10248158E-13
  -12.4799995      -1.13804081E-13
  -12.4700003       6.27153169E-13
  -12.4600000       1.45446556E-12
  -12.4499998       2.28786825E-12
  -12.4399996       3.03030973E-12
  -12.4300003       3.57575449E-12
  -12.4200001       3.81862077E-12
  -12.4099998       3.66373945E-12
  -12.3999996       3.03564964E-12
  -12.3900003       1.88614489E-12
  -12.3800001       1.99273567E-13
  -12.3699999      -2.00660994E-12
  -12.3599997      -4.67973793E-12
  -12.3500004      -7.73836897E-12
  -12.3400002      -1.10761357E-11
  -12.3299999      -1.45684749E-11
  -12.3199997      -1.80794928E-11
  -12.3100004      -2.14686029E-11
  -12.3000002      -2.45966737E-11
  -12.2900000      -2.73314548E-11
  -12.2799997      -2.95524959E-11
  -12.2700005      -3.11554879E-11
  -12.2600002      -3.20562188E-11
  -12.2500000      -3.21940044E-11
  -12.2399998      -3.15342266E-11
  -12.2299995      -3.00696620E-11
  -12.2200003      -2.78198731E-11
  -12.2100000      -2.48283564E-11
  -12.1999998      -2.11571195E-11
  -12.1899996      -1.68789514E-11
  -12.1800003      -1.20680783E-11
  -12.1700001      -6.79032395E-12
  -12.1599998      -1.09439107E-12
  -12.1499996       4.99410496E-12
  -12.1400003       1.14744663E-11
  -12.1300001       1.83675974E-11
  -12.1199999       2.57075437E-11
  -12.1099997       3.35285966E-11
  -12.1000004       4.18497181E-11
  -12.0900002       5.06587480E-11
  -12.0799999       5.98987943E-11
  -12.0699997       6.94595423E-11
  -12.0600004       7.91751179E-11
  -12.0500002       8.88291316E-11
  -12.0400000       9.81665305E-11
  -12.0299997       1.06910550E-10
  -12.0200005       1.14782336E-10
  -12.0100002       1.21520058E-10
  -12.0000000       1.26895577E-10
  -11.9899998       1.30725666E-10
  -11.9799995       1.32877723E-10
  -11.9700003       1.33269812E-10
  -11.9600000       1.31866074E-10
  -11.9499998       1.28669839E-10
  -11.9399996       1.23715732E-10
  -11.9300003       1.17062818E-10
  -11.9200001       1.08789727E-10
  -11.9099998       9.89915511E-11
  -11.8999996       8.77776254E-11
  -11.8900003       7.52696933E-11
  -11.8800001       6.15987261E-11
  -11.8699999       4.68994912E-11
  -11.8599997       3.13034113E-11
  -11.8500004       1.49299653E-11
  -11.8400002      -2.12203410E-12
  -11.8299999      -1.97805279E-11
  -11.8199997      -3.80031666E-11
  -11.8100004      -5.67746579E-11
  -11.8000002      -7.60988703E-11
  -11.7900000      -9.59864965E-11
  -11.7799997      -1.16438997E-10
  -11.7700005      -1.37432371E-10
  -11.7600002      -1.58902766E-10
  -11.7500000      -1.80735843E-10
  -11.7399998      -2.02762349E-10
  -11.7299995      -2.24760349E-10
  -11.7200003      -2.46462878E-10
  -11.7100000      -2.67571132E-10
  -11.6999998      -2.87769558E-10
  -11.6899996      -3.06741882E-10
  -11.6800003      -3.24184984E-10
  -11.6700001      -3.39819700E-10
  -11.6599998      -3.53397589E-10
  -11.6499996      -3.64702629E-10
  -11.6400003      -3.73550191E-10
  -11.6300001      -3.79783233E-10
  -11.6199999      -3.83266641E-10
  -11.6099997      -3.83883036E-10
  -11.6000004      -3.81528503E-10
  -11.5900002      -3.76110670E-10
  -11.5799999      -3.67548797E-10
  -11.5699997      -3.55774826E-10
  -11.5600004      -3.40735745E-10
  -11.5500002      -3.22397248E-10
  -11.5400000      -3.00745567E-10
  -11.5299997      -2.75790418E-10
  -11.5200005      -2.47566745E-10
  -11.5100002      -2.16136567E-10
  -11.5000000      -1.81588689E-10
  -11.4899998      -1.44040641E-10
  -11.4799995      -1.03637494E-10
  -11.4700003      -6.05513001E-11
  -11.4600000      -1.49781489E-11
  -11.4499998       3.28657761E-11
  -11.4399996       8.27509727E-11
  -11.4300003       1.34443415E-10
  -11.4200001       1.87713664E-10
  -11.4099998       2.42348780E-10
  -11.3999996       2.98159858E-10
  -11.3900003       3.54990121E-10
  -11.3800001       4.12717971E-10
  -11.3699999       4.71255313E-10
  -11.3599997       5.30543109E-10
  -11.3500004       5.90541727E-10
  -11.3400002       6.51221133E-10
  -11.3299999       7.12549242E-10
  -11.3199997       7.74481701E-10
  -11.3100004       8.36955061E-10
  -11.3000002       8.99880892E-10
  -11.2900000       9.63144897E-10
  -11.2799997       1.02660602E-09
  -11.2700005       1.09009624E-09
  -11.2600002       1.15342325E-09
  -11.2500000       1.21636812E-09
  -11.2399998       1.27868816E-09
  -11.2299995       1.34011746E-09
  -11.2200003       1.40037182E-09
  -11.2100000       1.45915635E-09
  -11.1999998       1.51618085E-09
  -11.1899996       1.57117575E-09
  -11.1800003       1.62391323E-09
  -11.1700001       1.67422820E-09
  -11.1599998       1.72203429E-09
  -11.1499996       1.76733628E-09
  -11.1400003       1.81022985E-09
  -11.1300001       1.85089244E-09
  -11.1199999       1.88956406E-09
  -11.1099997       1.92651917E-09
  -11.1000004       1.96203476E-09
  -11.0900002       1.99635863E-09
  -11.0799999       2.02968242E-09
  -11.0699997       2.06211892E-09
  -11.0600004       2.09369277E-09
  -11.0500002       2.12434004E-09
  -11.0400000       2.15391416E-09
  -11.0299997       2.18220086E-09
  -11.0200005       2.20894325E-09
  -11.0100002       2.23386154E-09
  -11.0000000       2.25667529E-09
  -10.9899998       2.27712471E-09
  -10.9799995       2.29498798E-09
  -10.9700003       2.31009634E-09
  -10.9600000       2.32232966E-09
  -10.9499998       2.33162267E-09
  -10.9399996       2.33795672E-09
  -10.9300003       2.34134023E-09
  -10.9200001       2.34180142E-09
  -10.9099998       2.33936492E-09
  -10.8999996       2.33405428E-09
  -10.8900003       2.32587372E-09
  -10.8800001       2.31481767E-09
  -10.8699999       2.30088215E-09
  -10.8599997       2.28407404E-09
  -10.8500004       2.26442420E-09
  -10.8400002       2.24199459E-09
  -10.8299999       2.21687602E-09
  -10.8199997       2.18918972E-09
  -10.8100004       2.15906226E-09
  -10.8000002       2.12661067E-09
  -10.7900000       2.09192730E-09
  -10.7799997       2.05507034E-09
  -10.7700005       2.01606642E-09
  -10.7600002       1.97491734E-09
  -10.7500000       1.93161798E-09
  -10.7399998       1.88617655E-09
  -10.7299995       1.83863835E-09
  -10.7200003       1.78908111E-09
  -10.7100000       1.73761194E-09
  -10.6999998       1.68435865E-09
  -10.6899996       1.62943947E-09
  -10.6800003       1.57294067E-09
  -10.6700001       1.51489610E-09
  -10.6599998       1.45529144E-09
  -10.6499996       1.39404832E-09
  -10.6400003       1.33106282E-09
  -10.6300001       1.26622313E-09
  -10.6199999       1.19943067E-09
  -10.6099997       1.13063259E-09
  -10.6000004       1.05983022E-09
  -10.5900002       9.87095072E-10
  -10.5799999       9.12559306E-10
  -10.5699997       8.36413605E-10
  -10.5600004       7.58898555E-10
  -10.5500002       6.80294265E-10
  -10.5400000       6.00915206E-10
  -10.5299997       5.21098498E-10
  -10.5200005       4.41188169E-10
  -10.5100002       3.61526198E-10
  -10.5000000       2.82418533E-10
  -10.4899998       2.04128811E-10
  -10.4799995       1.26862423E-10
  -10.4700003       5.07528880E-11
  -10.4600000      -2.41258073E-11
  -10.4499998      -9.77345982E-11
  -10.4399996      -1.70025966E-10
  -10.4300003      -2.40926362E-10
  -10.4200001      -3.10294623E-10
  -10.4099998      -3.77908038E-10
  -10.3999996      -4.43459020E-10
  -10.3900003      -5.06583553E-10
  -10.3800001      -5.66894087E-10
  -10.3699999      -6.24020557E-10
  -10.3599997      -6.77657208E-10
  -10.3500004      -7.27581051E-10
  -10.3400002      -7.73673015E-10
  -10.3299999      -8.15908174E-10
  -10.3199997      -8.54335325E-10
  -10.3100004      -8.89058049E-10
  -10.3000002      -9.20204801E-10
  -10.2900000      -9.47910861E-10
  -10.2799997      -9.72313452E-10
  -10.2700005      -9.93538141E-10
  -10.2600002      -1.01171049E-09
  -10.2500000      -1.02695064E-09
  -10.2399998      -1.03937747E-09
  -10.2299995      -1.04910203E-09
  -10.2200003      -1.05622466E-09
  -10.2100000      -1.06084375E-09
  -10.1999998      -1.06304987E-09
  -10.1899996      -1.06294251E-09
  -10.1800003      -1.06064746E-09
  -10.1700001      -1.05632325E-09
  -10.1599998      -1.05017639E-09
  -10.1499996      -1.04245856E-09
  -10.1400003      -1.03344888E-09
  -10.1300001      -1.02343378E-09
  -10.1199999      -1.01267172E-09
  -10.1099997      -1.00136810E-09
  -10.1000004      -9.89656135E-10
  -10.0900002      -9.77592562E-10
  -10.0799999      -9.65163061E-10
  -10.0699997      -9.52313006E-10
  -10.0600004      -9.38968459E-10
  -10.0500002      -9.25070742E-10
  -10.0400000      -9.10596654E-10
  -10.0299997      -8.95568897E-10
  -10.0200005      -8.80052753E-10
  -10.0100002      -8.64151917E-10
  -10.0000000      -8.47991732E-10
  -9.98999977      -8.31705815E-10
  -9.97999954      -8.15426782E-10
  -9.97000027      -7.99278699E-10
  -9.96000004      -7.83376697E-10
  -9.94999981      -7.67824582E-10
  -9.93999958      -7.52716445E-10
  -9.93000031      -7.38134387E-10
  -9.92000008      -7.24150628E-10
  -9.90999985      -7.10829728E-10
  -9.89999962      -6.98237690E-10
  -9.89000034      -6.86453117E-10
  -9.88000011      -6.75583922E-10
  -9.86999989      -6.65782818E-10
  -9.85999966      -6.57258470E-10
  -9.85000038      -6.50276333E-10
  -9.84000015      -6.45149434E-10
  -9.82999992      -6.42217723E-10
  -9.81999969      -6.41821374E-10
  -9.81000042      -6.44273801E-10
  -9.80000019      -6.49840792E-10
  -9.78999996      -6.58731847E-10
  -9.77999973      -6.71104783E-10
  -9.77000046      -6.87081336E-10
  -9.76000023      -7.06772529E-10
  -9.75000000      -7.30300653E-10
  -9.73999977      -7.57816421E-10
  -9.72999954      -7.89505017E-10
  -9.72000027      -8.25578939E-10
  -9.71000004      -8.66259564E-10
  -9.69999981      -9.11753339E-10
  -9.68999958      -9.62225855E-10
  -9.68000031      -1.01778086E-09
  -9.67000008      -1.07844378E-09
  -9.65999985      -1.14414833E-09
  -9.64999962      -1.21473198E-09
  -9.64000034      -1.28992417E-09
  -9.63000011      -1.36933698E-09
  -9.61999989      -1.45245460E-09
  -9.60999966      -1.53861757E-09
  -9.60000038      -1.62701796E-09
  -9.59000015      -1.71669545E-09
  -9.57999992      -1.80656212E-09
  -9.56999969      -1.89541938E-09
  -9.56000042      -1.98201366E-09
  -9.55000019      -2.06507300E-09
  -9.53999996      -2.14336038E-09
  -9.52999973      -2.21570984E-09
  -9.52000046      -2.28104624E-09
  -9.51000023      -2.33838948E-09
  -9.50000000      -2.38684583E-09
  -9.48999977      -2.42559506E-09
  -9.47999954      -2.45387377E-09
  -9.47000027      -2.47097520E-09
  -9.46000004      -2.47626586E-09
  -9.44999981      -2.46921861E-09
  -9.43999958      -2.44945264E-09
  -9.43000031      -2.41679010E-09
  -9.42000008      -2.37128717E-09
  -9.40999985      -2.31325692E-09
  -9.39999962      -2.24326691E-09
  -9.39000034      -2.16212337E-09
  -9.38000011      -2.07083639E-09
  -9.36999989      -1.97058103E-09
  -9.35999966      -1.86267712E-09
  -9.35000038      -1.74857862E-09
  -9.34000015      -1.62989222E-09
  -9.32999992      -1.50838819E-09
  -9.31999969      -1.38601952E-09
  -9.31000042      -1.26493693E-09
  -9.30000019      -1.14746823E-09
  -9.28999996      -1.03607445E-09
  -9.27999973      -9.33290667E-10
  -9.27000046      -8.41640924E-10
  -9.26000023      -7.63574204E-10
  -9.25000000      -7.01398606E-10
  -9.23999977      -6.57248977E-10
  -9.22999954      -6.33094188E-10
  -9.22000027      -6.30732966E-10
  -9.21000004      -6.51804166E-10
  -9.19999981      -6.97779001E-10
  -9.18999958      -7.69953545E-10
  -9.18000031      -8.69407268E-10
  -9.17000008      -9.96946303E-10
  -9.15999985      -1.15306409E-09
  -9.14999962      -1.33792133E-09
  -9.14000034      -1.55133872E-09
  -9.13000011      -1.79282733E-09
  -9.11999989      -2.06162265E-09
  -9.10999966      -2.35674058E-09
  -9.10000038      -2.67699396E-09
  -9.09000015      -3.02100189E-09
  -9.07999992      -3.38714523E-09
  -9.06999969      -3.77352150E-09
  -9.06000042      -4.17793089E-09
  -9.05000019      -4.59780347E-09
  -9.03999996      -5.03025044E-09
  -9.02999973      -5.47209700E-09
  -9.02000046      -5.91997740E-09
  -9.01000023      -6.37043351E-09
  -9.00000000      -6.82001211E-09
  -8.98999977      -7.26531679E-09
  -8.97999954      -7.70302488E-09
  -8.97000027      -8.12988699E-09
  -8.96000004      -8.54269899E-09
  -8.94999981      -8.93827767E-09
  -8.93999958      -9.31343802E-09
  -8.93000031      -9.66506253E-09
  -8.92000008      -9.99014471E-09
  -8.90999985      -1.02858344E-08
  -8.89999962      -1.05495452E-08
  -8.89000034      -1.07789679E-08
  -8.88000011      -1.09720633E-08
  -8.86999989      -1.11270468E-08
  -8.85999966      -1.12423137E-08
  -8.85000038      -1.13164083E-08
  -8.84000015      -1.13479848E-08
  -8.82999992      -1.13358709E-08
  -8.81999969      -1.12790550E-08
  -8.81000042      -1.11768035E-08
  -8.80000019      -1.10286864E-08
  -8.78999996      -1.08346434E-08
  -8.77999973      -1.05949454E-08
  -8.77000046      -1.03101234E-08
  -8.76000023      -9.98090766E-09
  -8.75000000      -9.60816848E-09
  -8.73999977      -9.19282872E-09
  -8.72999954      -8.73589290E-09
  -8.72000027      -8.23850588E-09
  -8.71000004      -7.70197595E-09
  -8.69999981      -7.12787029E-09
  -8.68999958      -6.51805410E-09
  -8.68000031      -5.87468429E-09
  -8.67000008      -5.20015897E-09
  -8.65999985      -4.49697479E-09
  -8.64999962      -3.76768439E-09
  -8.64000034      -3.01479308E-09
  -8.63000011      -2.24068808E-09
  -8.61999989      -1.44768808E-09
  -8.60999966      -6.38086417E-10
  -8.60000038       1.85866919E-10
  -8.59000015       1.02186049E-09
  -8.57999992       1.86756210E-09
  -8.56999969       2.72068701E-09
  -8.56000042       3.57897734E-09
  -8.55000019       4.44040316E-09
  -8.53999996       5.30313793E-09
  -8.52999973       6.16562312E-09
  -8.52000046       7.02651404E-09
  -8.51000023       7.88470889E-09
  -8.50000000       8.73922712E-09
  -8.48999977       9.58918367E-09
  -8.47999954       1.04337685E-08
  -8.47000027       1.12722489E-08
  -8.46000004       1.21040307E-08
  -8.44999981       1.29286475E-08
  -8.43999958       1.37457681E-08
  -8.43000031       1.45551953E-08
  -8.42000008       1.53568394E-08
  -8.40999985       1.61505618E-08
  -8.39999962       1.69361680E-08
  -8.39000034       1.77133508E-08
  -8.38000011       1.84816358E-08
  -8.36999989       1.92404119E-08
  -8.35999966       1.99889936E-08
  -8.35000038       2.07266311E-08
  -8.34000015       2.14525890E-08
  -8.32999992       2.21661587E-08
  -8.31999969       2.28666028E-08
  -8.31000042       2.35531399E-08
  -8.30000019       2.42249776E-08
  -8.28999996       2.48812206E-08
  -8.27999973       2.55209347E-08
  -8.27000046       2.61432032E-08
  -8.26000023       2.67471414E-08
  -8.25000000       2.73319305E-08
  -8.23999977       2.78968457E-08
  -8.22999954       2.84412458E-08
  -8.22000027       2.89645072E-08
  -8.21000004       2.94660119E-08
  -8.19999981       2.99450704E-08
  -8.18999958       3.04009369E-08
  -8.18000031       3.08327976E-08
  -8.17000008       3.12398214E-08
  -8.15999985       3.16212372E-08
  -8.14999962       3.19762812E-08
  -8.14000034       3.23042464E-08
  -8.13000011       3.26044507E-08
  -8.11999989       3.28761587E-08
  -8.10999966       3.31185923E-08
  -8.10000038       3.33308883E-08
  -8.09000015       3.35121371E-08
  -8.07999992       3.36614470E-08
  -8.06999969       3.37780399E-08
  -8.06000042       3.38612907E-08
  -8.05000019       3.39108190E-08
  -8.03999996       3.39264297E-08
  -8.02999973       3.39080763E-08
  -8.02000046       3.38557875E-08
  -8.01000023       3.37695170E-08
  -8.00000000       3.36491830E-08
  -7.98999977       3.34946080E-08
  -7.98000002       3.33056178E-08
  -7.96999979       3.30820953E-08
  -7.96000004       3.28241256E-08
  -7.94999981       3.25320570E-08
  -7.94000006       3.22064864E-08
  -7.92999983       3.18483018E-08
  -7.92000008       3.14585513E-08
  -7.90999985       3.10384003E-08
  -7.90000010       3.05890921E-08
  -7.88999987       3.01119272E-08
  -7.88000011       2.96083478E-08
  -7.86999989       2.90799953E-08
  -7.86000013       2.85288380E-08
  -7.84999990       2.79571530E-08
  -7.84000015       2.73675642E-08
  -7.82999992       2.67629172E-08
  -7.82000017       2.61461590E-08
  -7.80999994       2.55201797E-08
  -7.80000019       2.48876866E-08
  -7.78999996       2.42511469E-08
  -7.78000021       2.36127882E-08
  -7.76999998       2.29746870E-08
  -7.76000023       2.23388437E-08
  -7.75000000       2.17072884E-08
  -7.73999977       2.10821174E-08
  -7.73000002       2.04654551E-08
  -7.71999979       1.98594030E-08
  -7.71000004       1.92658991E-08
  -7.69999981       1.86866362E-08
  -7.69000006       1.81229947E-08
  -7.67999983       1.75760650E-08
  -7.67000008       1.70467178E-08
  -7.65999985       1.65356990E-08
  -7.65000010       1.60437619E-08
  -7.63999987       1.55717306E-08
  -7.63000011       1.51205146E-08
  -7.61999989       1.46910750E-08
  -7.61000013       1.42843204E-08
  -7.59999990       1.39010057E-08
  -7.59000015       1.35416425E-08
  -7.57999992       1.32064670E-08
  -7.57000017       1.28954571E-08
  -7.55999994       1.26083872E-08
  -7.55000019       1.23449349E-08
  -7.53999996       1.21047536E-08
  -7.53000021       1.18875256E-08
  -7.51999998       1.16929524E-08
  -7.51000023       1.15207159E-08
  -7.50000000       1.13704148E-08
  -7.48999977       1.12414780E-08
  -7.48000002       1.11331282E-08
  -7.46999979       1.10443761E-08
  -7.46000004       1.09740679E-08
  -7.44999981       1.09209575E-08
  -7.44000006       1.08838005E-08