  -16.0000000       0.00000000    
  -15.9899998       0.00000000    
  -15.9799995       0.00000000    
  -15.9700003       0.00000000    
  -15.9600000       0.00000000    
  -15.9499998       0.00000000    
  -15.9399996       0.00000000    
  -15.9300003       0.00000000    
  -15.9200001       0.00000000    
  -15.9099998       0.00000000    
  -15.8999996       0.00000000    
  -15.8900003       0.00000000    
  -15.8800001      -0.00000000    
  -15.8699999       0.00000000    
  -15.8599997       1.12103877E-44
  -15.8500004       1.66754517E-43
  -15.8400002       1.64092050E-42
  -15.8299999       1.24631485E-41
  -15.8199997       7.74273453E-41
  -15.8100004       4.06934271E-40
  -15.8000002       1.85269453E-39
  -15.7900000       7.43362491E-39
  -15.7799997       2.66238805E-38
  -15.7700005       8.59385576E-38
  -15.7600002       2.51796317E-37
  -15.7500000       6.73051814E-37
  -15.7399998       1.64639915E-36
  -15.7299995       3.68945483E-36
  -15.7200003       7.56274064E-36
  -15.7100000       1.41070428E-35
  -15.6999998       2.36721761E-35
  -15.6899996       3.48659373E-35
  -15.6800003       4.24671556E-35
  -15.6700001       3.47872572E-35
  -15.6599998      -8.33906196E-36
  -15.6499996      -1.14463430E-34
  -15.6400003      -3.10639053E-34
  -15.6300001      -6.04901265E-34
  -15.6199999      -9.55681499E-34
  -15.6099997      -1.23410147E-33
  -15.6000004      -1.19474362E-33
  -15.5900002      -4.83168678E-34
  -15.5799999       1.28282488E-33
  -15.5699997       4.32607157E-33
  -15.5600004       8.41431199E-33
  -15.5500002       1.25137501E-32
  -15.5400000       1.45359266E-32
  -15.5299997       1.14076342E-32
  -15.5200005      -2.70124331E-34
  -15.5100002      -2.27847995E-32
  -15.5000000      -5.51498397E-32
  -15.4899998      -9.06828593E-32
  -15.4799995      -1.15290252E-31
  -15.4700003      -1.07829119E-31
  -15.4600000      -4.39843391E-32
  -15.4499998       9.53840021E-32
  -15.4399996       3.11566188E-31
  -15.4300003       5.72744858E-31
  -15.4200001       7.99807015E-31
  -15.4099998       8.59090392E-31
  -15.3999996       5.70745624E-31
  -15.3900003      -2.54962421E-31
  -15.3800001      -1.73788846E-30
  -15.3699999      -3.79141127E-30
  -15.3599997      -5.93322630E-30
  -15.3500004      -7.09354304E-30
  -15.3400002      -5.55077724E-30
  -15.3299999       7.79603323E-31
  -15.3199997       1.34293816E-29
  -15.3100004       3.16736723E-29
  -15.3000002       5.02789139E-29
  -15.2900000       5.76853574E-29
  -15.2799997       3.65213343E-29
  -15.2700005      -3.10891767E-29
  -15.2600002      -1.51624288E-28
  -15.2500000      -3.02684687E-28
  -15.2399998      -4.16260387E-28
  -15.2299995      -3.75640045E-28
  -15.2200003      -4.31966075E-29
  -15.2100000       6.67230244E-28
  -15.1999998       1.67676102E-27
  -15.1899996       2.62267208E-27
  -15.1800003       2.81095696E-27
  -15.1700001       1.34517434E-27
  -15.1599998      -2.47932511E-27
  -15.1499996      -8.51863620E-27
  -15.1400003      -1.50423110E-26
  -15.1300001      -1.83222760E-26
  -15.1199999      -1.31262325E-26
  -15.1099997       5.35847675E-27
  -15.1000004       3.80828888E-26
  -15.0900002       7.79760778E-26
  -15.0799999       1.07031871E-25
  -15.0699997       9.75592293E-26
  -15.0600004       2.04725906E-26
  -15.0500002      -1.38342426E-25
  -15.0400000      -3.56569764E-25
  -15.0299997      -5.57441410E-25
  -15.0200005      -6.08687737E-25
  -15.0100002      -3.53043309E-25
  -15.0000000       3.21752180E-25
  -14.9899998       1.38201055E-24
  -14.9799995       2.54917700E-24
  -14.9700003       3.26037494E-24
  -14.9600000       2.75654624E-24
  -14.9499998       3.47027012E-25
  -14.9399996      -4.16123812E-24
  -14.9300003      -9.98026901E-24
  -14.9200001      -1.50239948E-23
  -14.9099998      -1.60484301E-23
  -14.8999996      -9.50479020E-24
  -14.8900003       6.83366142E-24
  -14.8800001       3.17718968E-23
  -14.8699999       5.88737307E-23
  -14.8599997       7.60458694E-23
  -14.8500004       6.76917314E-23
  -14.8400002       2.00820999E-23
  -14.8299999      -7.05927706E-23
  -14.8199997      -1.89703920E-22
  -14.8100004      -2.99067292E-22
  -14.8000002      -3.39902696E-22
  -14.7900000      -2.47573380E-22
  -14.7799997       2.15362025E-23
  -14.7700005       4.56208182E-22
  -14.7600002       9.61283129E-22
  -14.7500000       1.34968845E-21
  -14.7399998       1.37198073E-21
  -14.7299995       7.92092837E-22
  -14.7200003      -4.98102023E-22
  -14.7100000      -2.35467523E-21
  -14.6999998      -4.29815244E-21
  -14.6899996      -5.53083573E-21
  -14.6800003      -5.10378839E-21
  -14.6700001      -2.24325263E-21
  -14.6599998       3.21812477E-21
  -14.6499996       1.04346177E-20
  -14.6400003       1.73526724E-20
  -14.6300001       2.09230990E-20
  -14.6199999       1.78436138E-20
  -14.6099997       5.79497696E-21
  -14.6000004      -1.50909377E-20
  -14.5900002      -4.10200934E-20
  -14.5799999      -6.42072132E-20
  -14.5699997      -7.39982140E-20
  -14.5600004      -5.96995118E-20
  -14.5500002      -1.48029948E-20
  -14.5400000       5.84103638E-20
  -14.5299997       1.45530874E-19
  -14.5200005       2.19844729E-19
  -14.5100002       2.46848712E-19
  -14.5000000       1.93841350E-19
  -14.4899998       4.31853453E-20
  -14.4799995      -1.94192191E-19
  -14.4700003      -4.70078677E-19
  -14.4600000      -7.00390368E-19
  -14.4499998      -7.80541274E-19
  -14.4399996      -6.14965927E-19
  -14.4300003      -1.55822617E-19
  -14.4200001       5.59511015E-19
  -14.4099998       1.38629463E-18
  -14.3999996       2.07983315E-18
  -14.3900003       2.34154524E-18
  -14.3800001       1.90246991E-18
  -14.3699999       6.29159312E-19
  -14.3599997      -1.37673005E-18
  -14.3500004      -3.72235784E-18
  -14.3400002      -5.74689314E-18
  -14.3299999      -6.64525678E-18
  -14.3199997      -5.68663510E-18
  -14.3100004      -2.48746631E-18
  -14.3000002       2.73412289E-18
  -14.2900000       9.01445136E-18
  -14.2799997       1.46973203E-17
  -14.2700005       1.77335777E-17
  -14.2600002       1.62115621E-17
  -14.2500000       9.02140712E-18
  -14.2399998      -3.51897315E-18
  -14.2299995      -1.92911125E-17
  -14.2200003      -3.44570124E-17
  -14.2100000      -4.41110241E-17
  -14.1999998      -4.34731752E-17
  -14.1899996      -2.94136161E-17
  -14.1800003      -1.93070634E-18
  -14.1700001       3.48911234E-17
  -14.1599998       7.28929886E-17
  -14.1499996       1.01099887E-16
  -14.1400003       1.08197309E-16
  -14.1300001       8.58170703E-17
  -14.1199999       3.18650254E-17
  -14.1099997      -4.70962329E-17
  -14.1000004      -1.35375175E-16
  -14.0900002      -2.10237124E-16
  -14.0799999      -2.46603796E-16
  -14.0699997      -2.23663285E-16
  -14.0600004      -1.31950965E-16
  -14.0500002       2.10317669E-17
  -14.0400000       2.08640878E-16
  -14.0299997       3.87815305E-16
  -14.0200005       5.07103167E-16
  -14.0100002       5.18964752E-16
  -14.0000000       3.93878447E-16
  -13.9899998       1.32706809E-16
  -13.9799995      -2.26520592E-16
  -13.9700003      -6.10529384E-16
  -13.9600000      -9.22800786E-16
  -13.9499998      -1.06451977E-15
  -13.9399996      -9.60631395E-16
  -13.9300003      -5.84970906E-16
  -13.9200001       2.25393813E-17
  -13.9099998       7.52884123E-16
  -13.8999996       1.44276541E-15
  -13.8900003       1.90675015E-15
  -13.8800001       1.98150081E-15
  -13.8699999       1.57260349E-15
  -13.8599997       6.92050588E-16
  -13.8500004      -5.25258048E-16
  -13.8400002      -1.83412385E-15
  -13.8299999      -2.92261286E-15
  -13.8199997      -3.48052784E-15
  -13.8100004      -3.27911441E-15
  -13.8000002      -2.24306373E-15
  -13.7900000      -4.94736010E-16
  -13.7799997       1.64541867E-15
  -13.7700005       3.70935082E-15
  -13.7600002       5.17766126E-15
  -13.7500000       5.60364895E-15
  -13.7399998       4.73714187E-15
  -13.7299995       2.61594013E-15
  -13.7200003      -4.03621920E-16
  -13.7100000      -3.69365234E-15
  -13.6999998      -6.47796864E-15
  -13.6899996      -8.01017459E-15
  -13.6800003      -7.76765212E-15
  -13.6700001      -5.61304255E-15
  -13.6599998      -1.87669784E-15
  -13.6499996       2.67180704E-15
  -13.6400003       6.97000627E-15
  -13.6300001       9.90335082E-15
  -13.6199999       1.05890638E-14
  -13.6099997       8.63355018E-15
  -13.6000004       4.29193161E-15
  -13.5900002      -1.52477270E-15
  -13.5799999      -7.41565741E-15
  -13.5699997      -1.18064136E-14
  -13.5600004      -1.33504725E-14
  -13.5500002      -1.13181932E-14
  -13.5400000      -5.86841028E-15
  -13.5299997       1.88498289E-15
  -13.5200005       1.00550231E-14
  -13.5100002       1.63947462E-14
  -13.5000000       1.88600559E-14
  -13.4899998       1.61909416E-14
  -13.4799995       8.35835341E-15
  -13.4700003      -3.25931375E-15
  -13.4600000      -1.60513540E-14
  -13.4499998      -2.66999913E-14
  -13.4399996      -3.19617955E-14
  -13.4300003      -2.95326745E-14
  -13.4200001      -1.87812649E-14
  -13.4099998      -1.14381614E-15
  -13.3999996       1.99629352E-14
  -13.3900003       3.97470312E-14
  -13.3800001       5.30717709E-14
  -13.3699999       5.56992976E-14
  -13.3599997       4.54573919E-14
  -13.3500004       2.30271921E-14
  -13.3400002      -7.88712188E-15
  -13.3299999      -4.11151114E-14
  -13.3199997      -6.92411013E-14
  -13.3100004      -8.52548555E-14
  -13.3000002      -8.42672896E-14
  -13.2900000      -6.48758730E-14
  -13.2799997      -2.98118701E-14
  -13.2700005       1.43533358E-14
  -13.2600002       5.84533168E-14
  -13.2500000       9.26985133E-14
  -13.2399998       1.08951808E-13
  -13.2299995       1.02773869E-13
  -13.2200003       7.47165459E-14
  -13.2100000       3.04883987E-14
  -13.1999998      -2.01350997E-14
  -13.1899996      -6.54794348E-14
  -13.1800003      -9.47564916E-14
  -13.1700001      -1.00814342E-13
  -13.1599998      -8.21541389E-14
  -13.1499996      -4.36443111E-14
  -13.1400003       4.35466033E-15
  -13.1300001       4.83620542E-14
  -13.1199999       7.51624444E-14
  -13.1099997       7.54192580E-14
  -13.1000004       4.66002020E-14
  -13.0900002      -5.61246911E-15
  -13.0799999      -6.79457304E-14
  -13.0699997      -1.22244012E-13
  -13.0600004      -1.49785064E-13
  -13.0500002      -1.36268533E-13
  -13.0400000      -7.62747274E-14
  -13.0299997       2.40026521E-14
  -13.0200005       1.46637287E-13
  -13.0100002       2.64795022E-13
  -13.0000000       3.48136071E-13
  -12.9899998       3.69755821E-13
  -12.9799995       3.13141359E-13
  -12.9700003       1.77466128E-13
  -12.9600000      -2.02217512E-14
  -12.9499998      -2.46749127E-13
  -12.9399996      -4.58478633E-13
  -12.9300003      -6.09922269E-13
  -12.9200001      -6.63571249E-13
  -12.9099998      -5.98778243E-13
  -12.8999996      -4.17582744E-13
  -12.8900003      -1.45928937E-13
  -12.8800001       1.70311316E-13
  -12.8699999       4.73929977E-13
  -12.8599997       7.07899559E-13
  -12.8500004       8.27352943E-13
  -12.8400002       8.09326456E-13
  -12.8299999       6.57954214E-13
  -12.8199997       4.03762771E-13
  -12.8100004       9.70445106E-14
  -12.8000002      -2.03307735E-13
  -12.7900000      -4.42988121E-13
  -12.7799997      -5.84387465E-13
  -12.7700005      -6.14676929E-13
  -12.7600002      -5.47792497E-13
  -12.7500000      -4.19682952E-13
  -12.7399998      -2.77845238E-13
  -12.7299995      -1.67666580E-13
  -12.7200003      -1.19033066E-13
  -12.7100000      -1.36785887E-13
  -12.6999998      -1.97826835E-13
  -12.6899996      -2.56129184E-13
  -12.6800003      -2.54940166E-13
  -12.6700001      -1.43531156E-13
  -12.6599998       1.05556494E-13
  -12.6499996       4.83309898E-13
  -12.6400003       9.39017961E-13
  -12.6300001       1.38529878E-12
  -12.6199999       1.71331569E-12
  -12.6099997       1.81559444E-12
  -12.6000004       1.61175023E-12
  -12.5900002       1.07130526E-12
  -12.5799999       2.27966897E-13
  -12.5699997      -8.18748173E-13
  -12.5600004      -1.91603092E-12
  -12.5500002      -2.88279687E-12
  -12.5400000      -3.54261715E-12
  -12.5299997      -3.75791802E-12
  -12.5200005      -3.45816691E-12
  -12.5100002      -2.65578163E-12
  -12.5000000      -1.44597778E-12
  -12.4899998       9.77275105E-15
  -12.4799995       1.51336723E-12
  -12.4700003       2.86646683E-12
  -12.4600000       3.90575810E-12
  -12.4499998       4.52936300E-12
  -12.4399996       4.70867225E-12
  -12.4300003       4.48328397E-12
  -12.4200001       3.94070714E-12
  -12.4099998       3.18619046E-12
  -12.3999996       2.31046324E-12
  -12.3900003       1.36379937E-12
  -12.3800001       3.43328962E-13
  -12.3699999      -8.02685229E-13
  -12.3599997      -2.15414080E-12
  -12.3500004      -3.78679336E-12
  -12.3400002      -5.73646903E-12
  -12.3299999      -7.96927368E-12
  -12.3199997      -1.03664187E-11
  -12.3100004      -1.27292135E-11
  -12.3000002      -1.48051779E-11
  -12.2900000      -1.63311135E-11
  -12.2799997      -1.70845837E-11
  -12.2700005      -1.69326515E-11
  -12.2600002      -1.58664887E-11
  -12.2500000      -1.40130876E-11
  -12.2399998      -1.16197087E-11
  -12.2299995      -9.01279659E-12
  -12.2200003      -6.53850498E-12
  -12.2100000      -4.49648478E-12
  -12.1999998      -3.08035693E-12
  -12.1899996      -2.33738419E-12
  -12.1800003      -2.15600216E-12
  -12.1700001      -2.28421600E-12
  -12.1599998      -2.37542971E-12
  -12.1499996      -2.05261719E-12
  -12.1400003      -9.77620654E-13
  -12.1300001       1.08813620E-12
  -12.1199999       4.24363236E-12
  -12.1099997       8.43627425E-12
  -12.1000004       1.34791683E-11
  -12.0900002       1.90926563E-11
  -12.0799999       2.49599161E-11
  -12.0699997       3.07839206E-11
  -12.0600004       3.63330650E-11
  -12.0500002       4.14659557E-11
  -12.0400000       4.61310642E-11
  -12.0299997       5.03428549E-11
  -12.0200005       5.41418681E-11
  -12.0100002       5.75497150E-11
  -12.0000000       6.05312397E-11
  -11.9899998       6.29742716E-11
  -11.9799995       6.46931467E-11
  -11.9700003       6.54560156E-11
  -11.9600000       6.50305296E-11
  -11.9499998       6.32374361E-11
  -11.9399996       5.99992556E-11
  -11.9300003       5.53716344E-11
  -11.9200001       4.95494375E-11
  -11.9099998       4.28438465E-11
  -11.8999996       3.56340998E-11
  -11.8900003       2.83030405E-11
  -11.8800001       2.11697725E-11
  -11.8699999       1.44331084E-11
  -11.8599997       8.13827391E-12
  -11.8500004       2.17375835E-12
  -11.8400002      -3.70091111E-12
  -11.8299999      -9.80251817E-12
  -11.8199997      -1.64572557E-11
  -11.8100004      -2.39342209E-11
  -11.8000002      -3.23922521E-11
  -11.7900000      -4.18509914E-11
  -11.7799997      -5.21904499E-11
  -11.7700005      -6.31776645E-11
  -11.7600002      -7.45128195E-11
  -11.7500000      -8.58834531E-11
  -11.7399998      -9.70144798E-11
  -11.7299995      -1.07702833E-10
  -11.7200003      -1.17830690E-10
  -11.7100000      -1.27356167E-10
  -11.6999998      -1.36286080E-10
  -11.6899996      -1.44639162E-10
  -11.6800003      -1.52410362E-10
  -11.6700001      -1.59545252E-10
  -11.6599998      -1.65930936E-10
  -11.6499996      -1.71404585E-10
  -11.6400003      -1.75776838E-10
  -11.6300001      -1.78862050E-10
  -11.6199999      -1.80507900E-10
  -11.6099997      -1.80615495E-10
  -11.6000004      -1.79144991E-10
  -11.5900002      -1.76105727E-10
  -11.5799999      -1.71534106E-10
  -11.5699997      -1.65466293E-10
  -11.5600004      -1.57912142E-10
  -11.5500002      -1.48840065E-10
  -11.5400000      -1.38175610E-10
  -11.5299997      -1.25815441E-10
  -11.5200005      -1.11653346E-10
  -11.5100002      -9.56120669E-11
  -11.5000000      -7.76727016E-11
  -11.4899998      -5.78951193E-11
  -11.4799995      -3.64238605E-11
  -11.4700003      -1.34791544E-11
  -11.4600000       1.06653289E-11
  -11.4499998       3.57127834E-11
  -11.4399996       6.13738504E-11
  -11.4300003       8.73925030E-11
  -11.4200001       1.13562292E-10
  -11.4099998       1.39730921E-10
  -11.3999996       1.65795516E-10
  -11.3900003       1.91692315E-10
  -11.3800001       2.17383445E-10
  -11.3699999       2.42847881E-10
  -11.3599997       2.68076422E-10
  -11.3500004       2.93072622E-10
  -11.3400002       3.17856630E-10
  -11.3299999       3.42469331E-10
  -11.3199997       3.66972508E-10
  -11.3100004       3.91443600E-10
  -11.3000002       4.15964180E-10
  -11.2900000       4.40603470E-10
  -11.2799997       4.65400746E-10
  -11.2700005       4.90351371E-10
  -11.2600002       5.15398113E-10
  -11.2500000       5.40433920E-10
  -11.2399998       5.65310854E-10
  -11.2299995       5.89856830E-10
  -11.2200003       6.13894380E-10
  -11.2100000       6.37257747E-10
  -11.1999998       6.59803323E-10
  -11.1899996       6.81411871E-10
  -11.1800003       7.01982250E-10
  -11.1700001       7.21421034E-10
  -11.1599998       7.39628803E-10
  -11.1499996       7.56490204E-10
  -11.1400003       7.71872288E-10
  -11.1300001       7.85626897E-10
  -11.1199999       7.97607203E-10
  -11.1099997       8.07687750E-10
  -11.1000004       8.15783330E-10
  -11.0900002       8.21871904E-10
  -11.0799999       8.26001267E-10
  -11.0699997       8.28296154E-10
  -11.0600004       8.28945634E-10
  -11.0500002       8.28187741E-10
  -11.0400000       8.26284263E-10
  -11.0299997       8.23497492E-10
  -11.0200005       8.20065515E-10
  -11.0100002       8.16184176E-10
  -11.0000000       8.11999690E-10
  -10.9899998       8.07600486E-10
  -10.9799995       8.03029643E-10
  -10.9700003       7.98287492E-10
  -10.9600000       7.93344390E-10
  -10.9499998       7.88152210E-10
  -10.9399996       7.82644227E-10
  -10.9300003       7.76742282E-10
  -10.9200001       7.70344954E-10
  -10.9099998       7.63320240E-10
  -10.8999996       7.55495611E-10
  -10.8900003       7.46649409E-10
  -10.8800001       7.36503414E-10
  -10.8699999       7.24733940E-10
  -10.8599997       7.10977277E-10
  -10.8500004       6.94866165E-10
  -10.8400002       6.76056100E-10
  -10.8299999       6.54267585E-10
  -10.8199997       6.29314378E-10
  -10.8100004       6.01141137E-10
  -10.8000002       5.69825187E-10
  -10.7900000       5.35577582E-10
  -10.7799997       4.98714292E-10
  -10.7700005       4.59627836E-10
  -10.7600002       4.18732132E-10
  -10.7500000       3.76418452E-10
  -10.7399998       3.33020611E-10
  -10.7299995       2.88790075E-10
  -10.7200003       2.43887799E-10
  -10.7100000       1.98403183E-10
  -10.6999998       1.52386673E-10
  -10.6899996       1.05879888E-10
  -10.6800003       5.89523291E-11
  -10.6700001       1.17215274E-11
  -10.6599998      -3.56435575E-11
  -10.6499996      -8.29365951E-11
  -10.6400003      -1.29932259E-10
  -10.6300001      -1.76441153E-10
  -10.6199999      -2.22333540E-10
  -10.6099997      -2.67573991E-10
  -10.6000004      -3.12233267E-10
  -10.5900002      -3.56483454E-10
  -10.5799999      -4.00571326E-10
  -10.5699997      -4.44786957E-10
  -10.5600004      -4.89425445E-10
  -10.5500002      -5.34754629E-10
  -10.5400000      -5.80985593E-10
  -10.5299997      -6.28273600E-10
  -10.5200005      -6.76717293E-10
  -10.5100002      -7.26379235E-10
  -10.5000000      -7.77299614E-10
  -10.4899998      -8.29509683E-10
  -10.4799995      -8.83035700E-10
  -10.4700003      -9.37892208E-10
  -10.4600000      -9.94054394E-10
  -10.4499998      -1.05143749E-09
  -10.4399996      -1.10986509E-09
  -10.4300003      -1.16905652E-09
  -10.4200001      -1.22862021E-09
  -10.4099998      -1.28806776E-09
  -10.3999996      -1.34684119E-09
  -10.3900003      -1.40435485E-09
  -10.3800001      -1.46003054E-09
  -10.3699999      -1.51334878E-09
  -10.3599997      -1.56387525E-09
  -10.3500004      -1.61127267E-09
  -10.3400002      -1.65531255E-09
  -10.3299999      -1.69586534E-09
  -10.3199997      -1.73288373E-09
  -10.3100004      -1.76638737E-09
  -10.3000002      -1.79644699E-09
  -10.2900000      -1.82317650E-09
  -10.2799997      -1.84672200E-09
  -10.2700005      -1.86726856E-09
  -10.2600002      -1.88503391E-09
  -10.2500000      -1.90027616E-09
  -10.2399998      -1.91329241E-09
  -10.2299995      -1.92441818E-09
  -10.2200003      -1.93402605E-09
  -10.2100000      -1.94252214E-09
  -10.1999998      -1.95034366E-09
  -10.1899996      -1.95795224E-09
  -10.1800003      -1.96582550E-09
  -10.1700001      -1.97444527E-09
  -10.1599998      -1.98427696E-09
  -10.1499996      -1.99574446E-09
  -10.1400003      -2.00920280E-09
  -10.1300001      -2.02490447E-09
  -10.1199999      -2.04298090E-09
  -10.1099997      -2.06342343E-09
  -10.1000004      -2.08608797E-09
  -10.0900002      -2.11071094E-09
  -10.0799999      -2.13694218E-09
  -10.0699997      -2.16438822E-09
  -10.0600004      -2.19265872E-09
  -10.0500002      -2.22140573E-09
  -10.0400000      -2.25035124E-09
  -10.0299997      -2.27929742E-09
  -10.0200005      -2.30812192E-09
  -10.0100002      -2.33675101E-09
  -10.0000000      -2.36513165E-09
  -9.98999977      -2.39320541E-09
  -9.97999954      -2.42087683E-09
  -9.97000027      -2.44801690E-09
  -9.96000004      -2.47446175E-09
  -9.94999981      -2.50004017E-09
  -9.93999958      -2.52460564E-09
  -9.93000031      -2.54806509E-09
  -9.92000008      -2.57041344E-09
  -9.90999985      -2.59173971E-09
  -9.89999962      -2.61223221E-09
  -9.89000034      -2.63215827E-09
  -9.88000011      -2.65183497E-09
  -9.86999989      -2.67159761E-09
  -9.85999966      -2.69177147E-09
  -9.85000038      -2.71265077E-09
  -9.84000015      -2.73449596E-09
  -9.82999992      -2.75754020E-09
  -9.81999969      -2.78201195E-09
  -9.81000042      -2.80815815E-09
  -9.80000019      -2.83626922E-09
  -9.78999996      -2.86669422E-09
  -9.77999973      -2.89981972E-09
  -9.77000046      -2.93607583E-09
  -9.76000023      -2.97588709E-09
  -9.75000000      -3.01965630E-09
  -9.73999977      -3.06771897E-09
  -9.72999954      -3.12033532E-09
  -9.72000027      -3.17768056E-09
  -9.71000004      -3.23985705E-09
  -9.69999981      -3.30690053E-09
  -9.68999958      -3.37881434E-09
  -9.68000031      -3.45556805E-09
  -9.67000008      -3.53710750E-09
  -9.65999985      -3.62335584E-09
  -9.64999962      -3.71417652E-09
  -9.64000034      -3.80936660E-09
  -9.63000011      -3.90863608E-09
  -9.61999989      -4.01158973E-09
  -9.60999966      -4.11773016E-09
  -9.60000038      -4.22646718E-09
  -9.59000015      -4.33713598E-09
  -9.57999992      -4.44900561E-09
  -9.56999969      -4.56128912E-09
  -9.56000042      -4.67316319E-09
  -9.55000019      -4.78374762E-09
  -9.53999996      -4.89212493E-09
  -9.52999973      -4.99734121E-09
  -9.52000046      -5.09841946E-09
  -9.51000023      -5.19440491E-09
  -9.50000000      -5.28439648E-09
  -9.48999977      -5.36760592E-09
  -9.47999954      -5.44339152E-09
  -9.47000027      -5.51129986E-09
  -9.46000004      -5.57106494E-09
  -9.44999981      -5.62260372E-09
  -9.43999958      -5.66598990E-09
  -9.43000031      -5.70142600E-09
  -9.42000008      -5.72918024E-09
  -9.40999985      -5.74958792E-09
  -9.39999962      -5.76302206E-09
  -9.39000034      -5.76989212E-09
  -9.38000011      -5.77067327E-09
  -9.36999989      -5.76590464E-09
  -9.35999966      -5.75622261E-09
  -9.35000038      -5.74236969E-09
  -9.34000015      -5.72520786E-09
  -9.32999992      -5.70568792E-09
  -9.31999969      -5.68488545E-09
  -9.31000042      -5.66396352E-09
  -9.30000019      -5.64415892E-09
  -9.28999996      -5.62678615E-09
  -9.27999973      -5.61321345E-09
  -9.27000046      -5.60485569E-09
  -9.26000023      -5.60312463E-09
  -9.25000000      -5.60943247E-09
  -9.23999977      -5.62516966E-09
  -9.22999954      -5.65168223E-09
  -9.22000027      -5.69024117E-09
  -9.21000004      -5.74205217E-09
  -9.19999981      -5.80824855E-09
  -9.18999958      -5.88985349E-09
  -9.18000031      -5.98779071E-09
  -9.17000008      -6.10286977E-09
  -9.15999985      -6.23575680E-09
  -9.14999962      -6.38693542E-09
  -9.14000034      -6.55673160E-09
  -9.13000011      -6.74528255E-09
  -9.11999989      -6.95253366E-09
  -9.10999966      -7.17827797E-09
  -9.10000038      -7.42214823E-09
  -9.09000015      -7.68364039E-09
  -9.07999992      -7.96211896E-09
  -9.06999969      -8.25679969E-09
  -9.06000042      -8.56674465E-09
  -9.05000019      -8.89082941E-09
  -9.03999996      -9.22774657E-09
  -9.02999973      -9.57596580E-09
  -9.02000046      -9.93380755E-09
  -9.01000023      -1.02993756E-08
  -9.00000000      -1.06707256E-08
  -8.98999977      -1.10457732E-08
  -8.97999954      -1.14224301E-08
  -8.97000027      -1.17985754E-08
  -8.96000004      -1.21720722E-08
  -8.94999981      -1.25407933E-08
  -8.93999958      -1.29026088E-08
  -8.93000031      -1.32554048E-08
  -8.92000008      -1.35971057E-08
  -8.90999985      -1.39257272E-08
  -8.89999962      -1.42393670E-08
  -8.89000034      -1.45362264E-08
  -8.88000011      -1.48146881E-08
  -8.86999989      -1.50732049E-08
  -8.85999966      -1.53103379E-08
  -8.85000038      -1.55247317E-08
  -8.84000015      -1.57151341E-08
  -8.82999992      -1.58803743E-08
  -8.81999969      -1.60194116E-08
  -8.81000042      -1.61313771E-08
  -8.80000019      -1.62155800E-08
  -8.78999996      -1.62715796E-08
  -8.77999973      -1.62991469E-08
  -8.77000046      -1.62982339E-08
  -8.76000023      -1.62688902E-08
  -8.75000000      -1.62112954E-08
  -8.73999977      -1.61256164E-08
  -8.72999954      -1.60120859E-08
  -8.72000027      -1.58710396E-08
  -8.71000004      -1.57029021E-08
  -8.69999981      -1.55083342E-08
  -8.68999958      -1.52881992E-08
  -8.68000031      -1.50435913E-08
  -8.67000008      -1.47758019E-08
  -8.65999985      -1.44862495E-08
  -8.64999962      -1.41763845E-08
  -8.64000034      -1.38476599E-08
  -8.63000011      -1.35014355E-08
  -8.61999989      -1.31390543E-08
  -8.60999966      -1.27618431E-08
  -8.60000038      -1.23712054E-08
  -8.59000015      -1.19686367E-08
  -8.57999992      -1.15558212E-08
  -8.56999969      -1.11344942E-08
  -8.56000042      -1.07064340E-08
  -8.55000019      -1.02733448E-08
  -8.53999996      -9.83681936E-09
  -8.52999973      -9.39822797E-09
  -8.52000046      -8.95878571E-09
  -8.51000023      -8.51950333E-09
  -8.50000000      -8.08142797E-09
  -8.48999977      -7.64551089E-09
  -8.47999954      -7.21280369E-09
  -8.47000027      -6.78440903E-09
  -8.46000004      -6.36138209E-09
  -8.44999981      -5.94466831E-09
  -8.43999958      -5.53504353E-09
  -8.43000031      -5.13305576E-09
  -8.42000008      -4.73897499E-09
  -8.40999985      -4.35294867E-09
  -8.39999962      -3.97497280E-09
  -8.39000034      -3.60506225E-09
  -8.38000011      -3.24328142E-09
  -8.36999989      -2.88977509E-09
  -8.35999966      -2.54473997E-09
  -8.35000038      -2.20839103E-09
  -8.34000015      -1.88083571E-09
  -8.32999992      -1.56209867E-09
  -8.31999969      -1.25204425E-09
  -8.31000042      -9.50467816E-10
  -8.30000019      -6.57216725E-10
  -8.28999996      -3.72209208E-10
  -8.27999973      -9.55815288E-11
  -8.27000046       1.72288184E-10
  -8.26000023       4.30831204E-10
  -8.25000000       6.79303447E-10
  -8.23999977       9.16934029E-10
  -8.22999954       1.14302934E-09
  -8.22000027       1.35689371E-09
  -8.21000004       1.55799351E-09
  -8.19999981       1.74579518E-09
  -8.18999958       1.91972060E-09
  -8.18000031       2.07904538E-09
  -8.17000008       2.22293317E-09
  -8.15999985       2.35035569E-09
  -8.14999962       2.46017273E-09
  -8.14000034       2.55119659E-09
  -8.13000011       2.62229216E-09
  -8.11999989       2.67239342E-09
  -8.10999966       2.70053646E-09
  -8.10000038       2.70582112E-09
  -8.09000015       2.68738964E-09
  -8.07999992       2.64431788E-09
  -8.06999969       2.57557775E-09
  -8.06000042       2.48014698E-09
  -8.05000019       2.35691089E-09
  -8.03999996       2.20485719E-09
  -8.02999973       2.02311767E-09
  -8.02000046       1.81111937E-09
  -8.01000023       1.56853552E-09
  -8.00000000       1.29536648E-09
  -7.98999977       9.91906002E-10
  -7.98000002       6.58623656E-10
  -7.96999979       2.96099256E-10
  -7.96000004      -9.50595089E-11
  -7.94999981      -5.14300047E-10
  -7.94000006      -9.61104862E-10
  -7.92999983      -1.43497114E-09
  -7.92000008      -1.93541494E-09
  -7.90999985      -2.46184784E-09
  -7.90000010      -3.01357339E-09
  -7.88999987      -3.58968855E-09
  -7.88000011      -4.18911128E-09
  -7.86999989      -4.81055373E-09
  -7.86000013      -5.45254819E-09
  -7.84999990      -6.11354523E-09
  -7.84000015      -6.79202117E-09
  -7.82999992      -7.48644702E-09
  -7.82000017      -8.19539725E-09
  -7.80999994      -8.91753071E-09
  -7.80000019      -9.65157199E-09
  -7.78999996      -1.03962705E-08
  -7.78000021      -1.11503384E-08
  -7.76999998      -1.19123360E-08
  -7.76000023      -1.26807471E-08
  -7.75000000      -1.34538851E-08
  -7.73999977      -1.42300207E-08
  -7.73000002      -1.50073980E-08
  -7.71999979      -1.57843942E-08
  -7.71000004      -1.65595004E-08
  -7.69999981      -1.73314518E-08
  -7.69000006      -1.80991666E-08
  -7.67999983      -1.88616838E-08
  -7.67000008      -1.96180938E-08
  -7.65999985      -2.03675210E-08
  -7.65000010      -2.11090487E-08
  -7.63999987      -2.18417355E-08
  -7.63000011      -2.25646399E-08
  -7.61999989      -2.32769342E-08
  -7.61000013      -2.39779965E-08
  -7.59999990      -2.46673668E-08
  -7.59000015      -2.53448462E-08
  -7.57999992      -2.60104045E-08
  -7.57000017      -2.66641411E-08
  -7.55999994      -2.73061733E-08
  -7.55000019      -2.79365278E-08
  -7.53999996      -2.85552062E-08
  -7.53000021      -2.91620861E-08
  -7.51999998      -2.97571354E-08
  -7.51000023      -3.03404022E-08
  -7.50000000      -3.09121511E-08
  -7.48999977      -3.14728688E-08
  -7.48000002      -3.20232871E-08
  -7.46999979      -3.25643370E-08
  -7.46000004      -3.30970238E-08
  -7.44999981      -3.36223493E-08
  -7.44000006      -3.41412481E-08