  -16.0000000       0.00000000    
  -15.9899998       0.00000000    
  -15.9799995       0.00000000    
  -15.9700003       0.00000000    
  -15.9600000       0.00000000    
  -15.9499998       0.00000000    
  -15.9399996       0.00000000    
  -15.9300003       0.00000000    
  -15.9200001       0.00000000    
  -15.9099998       0.00000000    
  -15.8999996       0.00000000    
  -15.8900003       0.00000000    
  -15.8800001       0.00000000    
  -15.8699999      -0.00000000    
  -15.8599997      -0.00000000    
  -15.8500004      -1.40129846E-45
  -15.8400002      -4.20389539E-45
  -15.8299999      -4.62428493E-44
  -15.8199997      -3.43318124E-43
  -15.8100004      -2.11035549E-42
  -15.8000002      -1.10422319E-41
  -15.7900000      -5.03164240E-41
  -15.7799997      -2.02884196E-40
  -15.7700005      -7.32632468E-40
  -15.7600002      -2.39092627E-39
  -15.7500000      -7.09909012E-39
  -15.7399998      -1.92685139E-38
  -15.7299995      -4.79464751E-38
  -15.7200003      -1.09478034E-37
  -15.7100000      -2.29041853E-37
  -15.6999998      -4.36887912E-37
  -15.6899996      -7.51582553E-37
  -15.6800003      -1.13967402E-36
  -15.6700001      -1.44273053E-36
  -15.6599998      -1.27474897E-36
  -15.6499996       7.82654003E-38
  -15.6400003       3.67822076E-36
  -15.6300001       1.07435621E-35
  -15.6199999       2.20894990E-35
  -15.6099997       3.70949513E-35
  -15.6000004       5.22795889E-35
  -15.5900002       5.99253991E-35
  -15.5799999       4.76386104E-35
  -15.5699997       1.41901884E-37
  -15.5600004      -9.53886459E-35
  -15.5500002      -2.39860288E-34
  -15.5400000      -4.09850707E-34
  -15.5299997      -5.46212736E-34
  -15.5200005      -5.50899055E-34
  -15.5100002      -3.01592063E-34
  -15.5000000       3.06782398E-34
  -15.4899998       1.29050674E-33
  -15.4799995       2.48580780E-33
  -15.4700003       3.46941978E-33
  -15.4600000       3.54748510E-33
  -15.4499998       1.88701980E-33
  -15.4399996      -2.14435516E-33
  -15.4300003      -8.42339783E-33
  -15.4200001      -1.54204273E-32
  -15.4099998      -1.97577855E-32
  -15.3999996      -1.64677560E-32
  -15.3900003      -4.98003325E-34
  -15.3800001       3.02310816E-32
  -15.3699999       7.06121514E-32
  -15.3599997       1.04528778E-31
  -15.3500004       1.04272426E-31
  -15.3400002       3.67698042E-32
  -15.3299999      -1.20693389E-31
  -15.3199997      -3.56030579E-31
  -15.3100004      -5.96230530E-31
  -15.3000002      -6.94274235E-31
  -15.2900000      -4.49451346E-31
  -15.2799997       3.20267809E-31
  -15.2700005       1.64965454E-30
  -15.2600002       3.26714906E-30
  -15.2500000       4.47201309E-30
  -15.2399998       4.15243662E-30
  -15.2299995       1.06012673E-30
  -15.2200003      -5.58859242E-30
  -15.2100000      -1.52393977E-29
  -15.1999998      -2.51093583E-29
  -15.1899996      -2.97662072E-29
  -15.1800003      -2.18273239E-29
  -15.1700001       5.62751539E-30
  -15.1599998       5.47696259E-29
  -15.1499996       1.17602844E-28
  -15.1400003       1.71438953E-28
  -15.1300001       1.78577749E-28
  -15.1199999       9.40678412E-29
  -15.1099997      -1.15697064E-28
  -15.1000004      -4.44468231E-28
  -15.0900002      -8.15054515E-28
  -15.0799999      -1.06088416E-27
  -15.0699997      -9.41561535E-28
  -15.0600004      -2.12980961E-28
  -15.0500002       1.24073751E-27
  -15.0400000       3.23517327E-27
  -15.0299997       5.13637081E-27
  -15.0200005       5.83757070E-27
  -15.0100002       3.97973894E-27
  -15.0000000      -1.50677999E-27
  -14.9899998      -1.05802679E-26
  -14.9799995      -2.12172399E-26
  -14.9700003      -2.89394209E-26
  -14.9600000      -2.73161238E-26
  -14.9499998      -9.93149456E-27
  -14.9399996       2.61261333E-26
  -14.9300003       7.59931219E-26
  -14.9200001       1.23714381E-25
  -14.9099998       1.42407747E-25
  -14.8999996       1.00426566E-25
  -14.8900003      -2.53508418E-26
  -14.8800001      -2.30993683E-25
  -14.8699999      -4.67822373E-25
  -14.8599997      -6.35523700E-25
  -14.8500004      -5.97415753E-25
  -14.8400002      -2.25502053E-25
  -14.8299999       5.27337984E-25
  -14.8199997       1.54662491E-24
  -14.8100004       2.50271881E-24
  -14.8000002       2.87026330E-24
  -14.7900000       2.05979372E-24
  -14.7799997      -3.30296899E-25
  -14.7700005      -4.18854257E-24
  -14.7600002      -8.60617429E-24
  -14.7500000      -1.18009821E-23
  -14.7399998      -1.14195623E-23
  -14.7299995      -5.30982275E-24
  -14.7200003       7.31647111E-24
  -14.7100000       2.46487510E-23
  -14.6999998       4.15160928E-23
  -14.6899996       4.97473831E-23
  -14.6800003       4.01565132E-23
  -14.6700001       6.18912814E-24
  -14.6599998      -5.14867109E-23
  -14.6499996      -1.21013674E-22
  -14.6400003      -1.78176226E-22
  -14.6300001      -1.90151879E-22
  -14.6199999      -1.25256660E-22
  -14.6099997       3.23471468E-23
  -14.6000004       2.66793314E-22
  -14.5900002       5.19882712E-22
  -14.5799999       6.93156704E-22
  -14.5699997       6.68527684E-22
  -14.5600004       3.48308621E-22
  -14.5500002      -2.92455022E-22
  -14.5400000      -1.15734018E-21
  -14.5299997      -2.00605496E-21
  -14.5200005      -2.48071365E-21
  -14.5100002      -2.19413555E-21
  -14.5000000      -8.74024864E-22
  -14.4899998       1.46921837E-21
  -14.4799995       4.40836658E-21
  -14.4700003       7.06939490E-21
  -14.4600000       8.26663544E-21
  -14.4499998       6.82540005E-21
  -14.4399996       2.04952778E-21
  -14.4300003      -5.78547367E-21
  -14.4200001      -1.50960268E-20
  -14.4099998      -2.30113972E-20
  -14.3999996      -2.58999265E-20
  -14.3900003      -2.04161116E-20
  -14.3800001      -4.88997311E-21
  -14.3699999       1.93253237E-20
  -14.3599997       4.70737081E-20
  -14.3500004       6.97105233E-20
  -14.3400002       7.68382934E-20
  -14.3299999       5.93911932E-20
  -14.3199997       1.34679261E-20
  -14.3100004      -5.61951676E-20
  -14.3000002      -1.34511536E-19
  -14.2900000      -1.97381618E-19
  -14.2799997      -2.16750026E-19
  -14.2700005      -1.68964539E-19
  -14.2600002      -4.46920612E-20
  -14.2500000       1.42532034E-19
  -14.2399998       3.52595197E-19
  -14.2299995       5.22936914E-19
  -14.2200003       5.81822041E-19
  -14.2100000       4.69357117E-19
  -14.1999998       1.61719781E-19
  -14.1899996      -3.08514380E-19
  -14.1800003      -8.44066316E-19
  -14.1700001      -1.29335479E-18
  -14.1599998      -1.48216652E-18
  -14.1499996      -1.26289438E-18
  -14.1400003      -5.70717193E-19
  -14.1300001       5.29403657E-19
  -14.1199999       1.82288583E-18
  -14.1099997       2.96732888E-18
  -14.1000004       3.56130412E-18
  -14.0900002       3.25198820E-18
  -14.0799999       1.85893767E-18
  -14.0699997      -5.20136701E-19
  -14.0600004      -3.45942008E-18
  -14.0500002      -6.24156865E-18
  -14.0400000      -7.99297429E-18
  -14.0299997      -7.90277935E-18
  -14.0200005      -5.48142524E-18
  -14.0100002      -7.91303360E-19
  -14.0000000       5.42638340E-18
  -13.9899998       1.17920585E-17
  -13.9799995       1.65248353E-17
  -13.9700003       1.78546522E-17
  -13.9600000       1.45315732E-17
  -13.9499998       6.30820012E-18
  -13.9399996      -5.74928038E-18
  -13.9300003      -1.92491844E-17
  -13.9200001      -3.08320357E-17
  -13.9099998      -3.68791429E-17
  -13.8999996      -3.44504380E-17
  -13.8900003      -2.22402629E-17
  -13.8800001      -1.29101759E-18
  -13.8699999       2.47816512E-17
  -13.8599997       5.02138403E-17
  -13.8500004       6.81843126E-17
  -13.8400002       7.24096637E-17
  -13.8299999       5.89136627E-17
  -13.8199997       2.75318100E-17
  -13.8100004      -1.72993129E-17
  -13.8000002      -6.68114112E-17
  -13.7900000      -1.09356215E-16
  -13.7799997      -1.32873476E-16
  -13.7700005      -1.27910617E-16
  -13.7600002      -9.05042462E-17
  -13.7500000      -2.41497597E-17
  -13.7399998       5.98066538E-17
  -13.7299995       1.43718833E-16
  -13.7200003       2.07053472E-16
  -13.7100000       2.31085940E-16
  -13.6999998       2.03872863E-16
  -13.6899996       1.24266086E-16
  -13.6800003       3.78904183E-18
  -13.6700001      -1.34424433E-16
  -13.6599998      -2.59783364E-16
  -13.6499996      -3.40855375E-16
  -13.6400003      -3.53077320E-16
  -13.6300001      -2.85716548E-16
  -13.6199999      -1.46175043E-16
  -13.6099997       3.98242169E-17
  -13.6000004       2.32734081E-16
  -13.5900002       3.87750216E-16
  -13.5799999       4.65663245E-16
  -13.5699997       4.43366823E-16
  -13.5600004       3.21154712E-16
  -13.5500002       1.24467786E-16
  -13.5400000      -1.01000109E-16
  -13.5299997      -3.00202585E-16
  -13.5200005      -4.23237138E-16
  -13.5100002      -4.39697715E-16
  -13.5000000      -3.48711262E-16
  -13.4899998      -1.81202503E-16
  -13.4799995       7.23411880E-18
  -13.4700003       1.51902799E-16
  -13.4600000       1.99385322E-16
  -13.4499998       1.27098353E-16
  -13.4399996      -4.42325039E-17
  -13.4300003      -2.50295880E-16
  -13.4200001      -3.97348714E-16
  -13.4099998      -3.88997711E-16
  -13.3999996      -1.59602038E-16
  -13.3900003       2.94857622E-16
  -13.3800001       8.98587819E-16
  -13.3699999       1.49878033E-15
  -13.3599997       1.89309428E-15
  -13.3500004       1.87896387E-15
  -13.3400002       1.31493755E-15
  -13.3299999       1.78812440E-16
  -13.3199997      -1.39476341E-15
  -13.3100004      -3.11219302E-15
  -13.3000002      -4.56234604E-15
  -13.2900000      -5.29909106E-15
  -13.2799997      -4.95094823E-15
  -13.2700005      -3.33402841E-15
  -13.2600002      -5.39252197E-16
  -13.2500000       3.03355257E-15
  -13.2399998       6.71299445E-15
  -13.2299995       9.66800526E-15
  -13.2200003       1.10789199E-14
  -13.2100000       1.03350962E-14
  -13.1999998       7.21468783E-15
  -13.1899996       2.00007730E-15
  -13.1800003      -4.50857300E-15
  -13.1700001      -1.10995384E-14
  -13.1599998      -1.63667806E-14
  -13.1499996      -1.90016155E-14
  -13.1400003      -1.80995389E-14
  -13.1300001      -1.34122212E-14
  -13.1199999      -5.47922320E-15
  -13.1099997       4.40476021E-15
  -13.1000004       1.43974053E-14
  -13.0900002       2.24610031E-14
  -13.0799999       2.67921858E-14
  -13.0699997       2.62370437E-14
  -13.0600004       2.05940255E-14
  -13.0500002       1.07250338E-14
  -13.0400000      -1.56697061E-15
  -13.0299997      -1.38832291E-14
  -13.0200005      -2.37329179E-14
  -13.0100002      -2.90878466E-14
  -13.0000000      -2.88599439E-14
  -12.9899998      -2.31824447E-14
  -12.9799995      -1.34141660E-14
  -12.9700003      -1.84840165E-15
  -12.9600000       8.82092488E-15
  -12.9499998       1.61588594E-14
  -12.9399996       1.86176571E-14
  -12.9300003       1.59722157E-14
  -12.9200001       9.43704309E-15
  -12.9099998       1.40987512E-15
  -12.8999996      -5.12259141E-15
  -12.8900003      -7.39187272E-15
  -12.8800001      -3.67690692E-15
  -12.8699999       6.05923240E-15
  -12.8599997       1.99113475E-14
  -12.8500004       3.42613850E-14
  -12.8400002       4.44915575E-14
  -12.8299999       4.60562307E-14
  -12.8199997       3.56855760E-14
  -12.8100004       1.24389694E-14
  -12.8000002      -2.16655747E-14
  -12.7900000      -6.16436427E-14
  -12.7799997      -1.00226021E-13
  -12.7700005      -1.29141543E-13
  -12.7600002      -1.40764421E-13
  -12.7500000      -1.29787091E-13
  -12.7399998      -9.45496055E-14
  -12.7299995      -3.77095544E-14
  -12.7200003       3.39319908E-14
  -12.7100000       1.10453327E-13
  -12.6999998       1.80498073E-13
  -12.6899996       2.33283418E-13
  -12.6800003       2.60506650E-13
  -12.6700001       2.57742151E-13
  -12.6599998       2.25027882E-13
  -12.6499996       1.66530255E-13
  -12.6400003       8.93883898E-14
  -12.6300001       2.03996895E-15
  -12.6199999      -8.75417225E-14
  -12.6099997      -1.73244313E-13
  -12.6000004      -2.51479637E-13
  -12.5900002      -3.20933899E-13
  -12.5799999      -3.81466804E-13
  -12.5699997      -4.32463391E-13
  -12.5600004      -4.71115714E-13
  -12.5500002      -4.91181043E-13
  -12.5400000      -4.82689247E-13
  -12.5299997      -4.32879183E-13
  -12.5200005      -3.28358136E-13
  -12.5100002      -1.58175380E-13
  -12.5000000       8.27559321E-14
  -12.4899998       3.90591991E-13
  -12.4799995       7.50530714E-13
  -12.4700003       1.13633636E-12
  -12.4600000       1.51162969E-12
  -12.4499998       1.83278783E-12
  -12.4399996       2.05297671E-12
  -12.4300003       2.12661182E-12
  -12.4200001       2.01345104E-12
  -12.4099998       1.68167628E-12
  -12.3999996       1.10955494E-12
  -12.3900003       2.85644013E-13
  -12.3800001      -7.92145809E-13
  -12.3699999      -2.11804250E-12
  -12.3599997      -3.67977046E-12
  -12.3500004      -5.45918866E-12
  -12.3400002      -7.43182512E-12
  -12.3299999      -9.56537887E-12
  -12.3199997      -1.18175140E-11
  -12.3100004      -1.41337176E-11
  -12.3000002      -1.64459384E-11
  -12.2900000      -1.86727907E-11
  -12.2799997      -2.07217073E-11
  -12.2700005      -2.24931029E-11
  -12.2600002      -2.38861500E-11
  -12.2500000      -2.48053366E-11
  -12.2399998      -2.51668183E-11
  -12.2299995      -2.49036521E-11
  -12.2200003      -2.39691929E-11
  -12.2100000      -2.23382268E-11
  -12.1999998      -2.00060021E-11
  -12.1899996      -1.69857427E-11
  -12.1800003      -1.33052614E-11
  -12.1700001      -9.00355832E-12
  -12.1599998      -4.12816829E-12
  -12.1499996       1.26649873E-12
  -12.1400003       7.11978783E-12
  -12.1300001       1.33645907E-11
  -12.1199999       1.99270097E-11
  -12.1099997       2.67262722E-11
  -12.1000004       3.36755519E-11
  -12.0900002       4.06836544E-11
  -12.0799999       4.76575758E-11
  -12.0699997       5.45054279E-11
  -12.0600004       6.11393089E-11
  -12.0500002       6.74772946E-11
  -12.0400000       7.34442923E-11
  -12.0299997       7.89715376E-11
  -12.0200005       8.39946446E-11
  -12.0100002       8.84510937E-11
  -12.0000000       9.22769847E-11
  -11.9899998       9.54045384E-11
  -11.9799995       9.77603415E-11
  -11.9700003       9.92648533E-11
  -11.9600000       9.98335581E-11
  -11.9499998       9.93793173E-11
  -11.9399996       9.78160677E-11
  -11.9300003       9.50628673E-11
  -11.9200001       9.10484882E-11
  -11.9099998       8.57156915E-11
  -11.8999996       7.90248283E-11
  -11.8900003       7.09568307E-11
  -11.8800001       6.15152165E-11
  -11.8699999       5.07272349E-11
  -11.8599997       3.86442267E-11
  -11.8500004       2.53411007E-11
  -11.8400002       1.09150371E-11
  -11.8299999      -4.51638683E-12
  -11.8199997      -2.08179324E-11
  -11.8100004      -3.78398250E-11
  -11.8000002      -5.54221218E-11
  -11.7900000      -7.33990577E-11
  -11.7799997      -9.16042034E-11
  -11.7700005      -1.09875095E-10
  -11.7600002      -1.28057578E-10
  -11.7500000      -1.46008858E-10
  -11.7399998      -1.63598343E-10
  -11.7299995      -1.80706450E-10
  -11.7200003      -1.97220906E-10
  -11.7100000      -2.13030982E-10
  -11.6999998      -2.28020713E-10
  -11.6899996      -2.42062231E-10
  -11.6800003      -2.55011179E-10
  -11.6700001      -2.66704964E-10
  -11.6599998      -2.76965506E-10
  -11.6499996      -2.85606400E-10
  -11.6400003      -2.92443236E-10
  -11.6300001      -2.97306263E-10
  -11.6199999      -3.00052122E-10
  -11.6099997      -3.00573427E-10
  -11.6000004      -2.98801733E-10
  -11.5900002      -2.94706398E-10
  -11.5799999      -2.88285479E-10
  -11.5699997      -2.79553519E-10
  -11.5600004      -2.68526784E-10
  -11.5500002      -2.55210603E-10
  -11.5400000      -2.39591097E-10
  -11.5299997      -2.21632962E-10
  -11.5200005      -2.01285613E-10
  -11.5100002      -1.78494594E-10
  -11.5000000      -1.53217466E-10
  -11.4899998      -1.25438882E-10
  -11.4799995      -9.51832155E-11
  -11.4700003      -6.25202112E-11
  -11.4600000      -2.75649486E-11
  -11.4499998       9.53138523E-12
  -11.4399996       4.85938893E-11
  -11.4300003       8.94377558E-11
  -11.4200001       1.31881159E-10
  -11.4099998       1.75752884E-10
  -11.3999996       2.20894747E-10
  -11.3900003       2.67157324E-10
  -11.3800001       3.14392928E-10
  -11.3699999       3.62447267E-10
  -11.3599997       4.11153500E-10
  -11.3500004       4.60330107E-10
  -11.3400002       5.09784215E-10
  -11.3299999       5.59320812E-10
  -11.3199997       6.08754103E-10
  -11.3100004       6.57917942E-10
  -11.3000002       7.06676384E-10
  -11.2900000       7.54926011E-10
  -11.2799997       8.02594990E-10
  -11.2700005       8.49635640E-10
  -11.2600002       8.96012875E-10
  -11.2500000       9.41693390E-10
  -11.2399998       9.86633997E-10
  -11.2299995       1.03077669E-09
  -11.2200003       1.07404474E-09
  -11.2100000       1.11634879E-09
  -11.1999998       1.15759069E-09
  -11.1899996       1.19767496E-09
  -11.1800003       1.23651578E-09
  -11.1700001       1.27404631E-09
  -11.1599998       1.31022093E-09
  -11.1499996       1.34501699E-09
  -11.1400003       1.37843281E-09
  -11.1300001       1.41047940E-09
  -11.1199999       1.44117518E-09
  -11.1099997       1.47053247E-09
  -11.1000004       1.49855339E-09
  -11.0900002       1.52521917E-09
  -11.0799999       1.55048929E-09
  -11.0699997       1.57429769E-09
  -11.0600004       1.59655922E-09
  -11.0500002       1.61717473E-09
  -11.0400000       1.63604474E-09
  -11.0299997       1.65307568E-09
  -11.0200005       1.66819014E-09
  -11.0100002       1.68133574E-09
  -11.0000000       1.69247905E-09
  -10.9899998       1.70161252E-09
  -10.9799995       1.70873815E-09
  -10.9700003       1.71386705E-09
  -10.9600000       1.71700332E-09
  -10.9499998       1.71814785E-09
  -10.9399996       1.71728887E-09
  -10.9300003       1.71441361E-09
  -10.9200001       1.70949965E-09
  -10.9099998       1.70252967E-09
  -10.8999996       1.69348924E-09
  -10.8900003       1.68236491E-09
  -10.8800001       1.66914227E-09
  -10.8699999       1.65380321E-09
  -10.8599997       1.63631819E-09
  -10.8500004       1.61664948E-09
  -10.8400002       1.59475977E-09
  -10.8299999       1.57061686E-09
  -10.8199997       1.54420410E-09
  -10.8100004       1.51553547E-09
  -10.8000002       1.48466184E-09
  -10.7900000       1.45165868E-09
  -10.7799997       1.41662260E-09
  -10.7700005       1.37965128E-09
  -10.7600002       1.34081990E-09
  -10.7500000       1.30016753E-09
  -10.7399998       1.25768707E-09
  -10.7299995       1.21332777E-09
  -10.7200003       1.16700505E-09
  -10.7100000       1.11863219E-09
  -10.6999998       1.06813680E-09
  -10.6899996       1.01548725E-09
  -10.6800003       9.60703073E-10
  -10.6700001       9.03861541E-10
  -10.6599998       8.45093384E-10
  -10.6499996       7.84558418E-10
  -10.6400003       7.22444271E-10
  -10.6300001       6.58950172E-10
  -10.6199999       5.94288674E-10
  -10.6099997       5.28688815E-10
  -10.6000004       4.62392902E-10
  -10.5900002       3.95663280E-10
  -10.5799999       3.28772287E-10
  -10.5699997       2.61988820E-10
  -10.5600004       1.95551034E-10
  -10.5500002       1.29644045E-10
  -10.5400000       6.43710571E-11
  -10.5299997      -2.53872227E-13
  -10.5200005      -6.42964085E-11
  -10.5100002      -1.27888963E-10
  -10.5000000      -1.91183319E-10
  -10.4899998      -2.54304772E-10
  -10.4799995      -3.17318505E-10
  -10.4700003      -3.80197596E-10
  -10.4600000      -4.42807846E-10
  -10.4499998      -5.04916997E-10
  -10.4399996      -5.66215796E-10
  -10.4300003      -6.26345364E-10
  -10.4200001      -6.84935275E-10
  -10.4099998      -7.41632256E-10
  -10.3999996      -7.96119115E-10
  -10.3900003      -8.48132731E-10
  -10.3800001      -8.97476704E-10
  -10.3699999      -9.44026746E-10
  -10.3599997      -9.87739224E-10
  -10.3500004      -1.02864939E-09
  -10.3400002      -1.06686482E-09
  -10.3299999      -1.10255260E-09
  -10.3199997      -1.13590559E-09
  -10.3100004      -1.16711374E-09
  -10.3000002      -1.19632815E-09
  -10.2900000      -1.22362631E-09
  -10.2799997      -1.24899902E-09
  -10.2700005      -1.27235322E-09
  -10.2600002      -1.29353872E-09
  -10.2500000      -1.31238831E-09
  -10.2399998      -1.32876976E-09
  -10.2299995      -1.34263156E-09
  -10.2200003      -1.35402489E-09
  -10.2100000      -1.36311029E-09
  -10.1999998      -1.37013445E-09
  -10.1899996      -1.37538825E-09
  -10.1800003      -1.37916611E-09
  -10.1700001      -1.38172995E-09
  -10.1599998      -1.38328615E-09
  -10.1499996      -1.38399769E-09
  -10.1400003      -1.38400058E-09
  -10.1300001      -1.38344036E-09
  -10.1199999      -1.38249667E-09
  -10.1099997      -1.38140122E-09
  -10.1000004      -1.38042078E-09
  -10.0900002      -1.37983402E-09
  -10.0799999      -1.37988909E-09
  -10.0699997      -1.38076117E-09
  -10.0600004      -1.38252931E-09
  -10.0500002      -1.38517475E-09
  -10.0400000      -1.38860690E-09
  -10.0299997      -1.39270040E-09
  -10.0200005      -1.39735101E-09
  -10.0100002      -1.40251566E-09
  -10.0000000      -1.40823386E-09
  -9.98999977      -1.41463019E-09
  -9.97999954      -1.42188628E-09
  -9.97000027      -1.43020529E-09
  -9.96000004      -1.43977152E-09
  -9.94999981      -1.45072521E-09
  -9.93999958      -1.46314805E-09
  -9.93000031      -1.47707246E-09
  -9.92000008      -1.49250146E-09
  -9.90999985      -1.50943014E-09
  -9.89999962      -1.52786162E-09
  -9.89000034      -1.54780966E-09
  -9.88000011      -1.56928848E-09
  -9.86999989      -1.59229818E-09
  -9.85999966      -1.61680935E-09
  -9.85000038      -1.64276415E-09
  -9.84000015      -1.67009351E-09
  -9.82999992      -1.69874648E-09
  -9.81999969      -1.72873127E-09
  -9.81000042      -1.76014869E-09
  -9.80000019      -1.79320925E-09
  -9.78999996      -1.82822113E-09
  -9.77999973      -1.86555860E-09
  -9.77000046      -1.90560412E-09
  -9.76000023      -1.94869321E-09
  -9.75000000      -1.99506855E-09
  -9.73999977      -2.04485806E-09
  -9.72999954      -2.09808571E-09
  -9.72000027      -2.15471352E-09
  -9.71000004      -2.21468732E-09
  -9.69999981      -2.27799535E-09
  -9.68999958      -2.34469755E-09
  -9.68000031      -2.41492581E-09
  -9.67000008      -2.48885912E-09
  -9.65999985      -2.56666866E-09
  -9.64999962      -2.64845634E-09
  -9.64000034      -2.73419798E-09
  -9.63000011      -2.82371659E-09
  -9.61999989      -2.91667557E-09
  -9.60999966      -3.01260150E-09
  -9.60000038      -3.11092374E-09
  -9.59000015      -3.21101390E-09
  -9.57999992      -3.31221672E-09
  -9.56999969      -3.41386031E-09
  -9.56000042      -3.51524121E-09
  -9.55000019      -3.61560670E-09
  -9.53999996      -3.71414277E-09
  -9.52999973      -3.80994924E-09
  -9.52000046      -3.90207244E-09
  -9.51000023      -3.98952649E-09
  -9.50000000      -4.07134193E-09
  -9.48999977      -4.14662038E-09
  -9.47999954      -4.21456514E-09
  -9.47000027      -4.27448699E-09
  -9.46000004      -4.32580904E-09
  -9.44999981      -4.36802861E-09
  -9.43999958      -4.40071268E-09
  -9.43000031      -4.42345893E-09
  -9.42000008      -4.43593295E-09
  -9.40999985      -4.43789272E-09
  -9.39999962      -4.42925252E-09
  -9.39000034      -4.41013759E-09
  -9.38000011      -4.38093117E-09
  -9.36999989      -4.34230252E-09
  -9.35999966      -4.29517888E-09
  -9.35000038      -4.24070068E-09
  -9.34000015      -4.18016421E-09
  -9.32999992      -4.11494971E-09
  -9.31999969      -4.04649381E-09
  -9.31000042      -3.97628686E-09
  -9.30000019      -3.90588495E-09
  -9.28999996      -3.83697296E-09
  -9.27999973      -3.77139608E-09
  -9.27000046      -3.71118802E-09
  -9.26000023      -3.65855124E-09
  -9.25000000      -3.61579389E-09
  -9.23999977      -3.58524810E-09
  -9.22999954      -3.56915120E-09
  -9.22000027      -3.56955465E-09
  -9.21000004      -3.58827457E-09
  -9.19999981      -3.62685304E-09
  -9.18999958      -3.68658304E-09
  -9.18000031      -3.76853704E-09
  -9.17000008      -3.87361476E-09
  -9.15999985      -4.00253963E-09
  -9.14999962      -4.15586321E-09
  -9.14000034      -4.33390612E-09
  -9.13000011      -4.53670079E-09
  -9.11999989      -4.76394568E-09
  -9.10999966      -5.01496089E-09
  -9.10000038      -5.28872102E-09
  -9.09000015      -5.58392665E-09
  -9.07999992      -5.89904348E-09
  -9.06999969      -6.23240970E-09
  -9.06000042      -6.58231203E-09
  -9.05000019      -6.94695590E-09
  -9.03999996      -7.32446281E-09
  -9.02999973      -7.71278241E-09
  -9.02000046      -8.10965695E-09
  -9.01000023      -8.51256932E-09
  -9.00000000      -8.91872443E-09
  -8.98999977      -9.32514155E-09
  -8.97999954      -9.72874581E-09
  -8.97000027      -1.01265005E-08
  -8.96000004      -1.05155316E-08
  -8.94999981      -1.08931868E-08
  -8.93999958      -1.12570540E-08
  -8.93000031      -1.16049366E-08
  -8.92000008      -1.19347572E-08
  -8.90999985      -1.22445210E-08
  -8.89999962      -1.25322153E-08
  -8.89000034      -1.27958391E-08
  -8.88000011      -1.30334383E-08
  -8.86999989      -1.32431577E-08
  -8.85999966      -1.34233344E-08
  -8.85000038      -1.35725484E-08
  -8.84000015      -1.36896432E-08
  -8.82999992      -1.37737173E-08
  -8.81999969      -1.38240388E-08
  -8.81000042      -1.38400109E-08
  -8.80000019      -1.38211123E-08
  -8.78999996      -1.37669058E-08
  -8.77999973      -1.36770426E-08
  -8.77000046      -1.35513467E-08
  -8.76000023      -1.33898928E-08
  -8.75000000      -1.31929987E-08
  -8.73999977      -1.29612676E-08
  -8.72999954      -1.26955344E-08
  -8.72000027      -1.23967716E-08
  -8.71000004      -1.20660459E-08
  -8.69999981      -1.17044090E-08
  -8.68999958      -1.13129044E-08
  -8.68000031      -1.08925695E-08
  -8.67000008      -1.04444720E-08
  -8.65999985      -9.96982141E-09
  -8.64999962      -9.46997769E-09
  -8.64000034      -8.94650576E-09
  -8.63000011      -8.40113668E-09
  -8.61999989      -7.83567877E-09
  -8.60999966      -7.25198257E-09
  -8.60000038      -6.65187327E-09
  -8.59000015      -6.03707440E-09
  -8.57999992      -5.40931744E-09
  -8.56999969      -4.77025086E-09
  -8.56000042      -4.12161461E-09
  -8.55000019      -3.46520701E-09
  -8.53999996      -2.80289969E-09
  -8.52999973      -2.13663398E-09
  -8.52000046      -1.46828671E-09
  -8.51000023      -7.99636968E-10
  -8.50000000      -1.32230643E-10
  -8.48999977       5.32619782E-10
  -8.47999954       1.19385490E-09
  -8.47000027       1.85061289E-09
  -8.46000004       2.50220289E-09
  -8.44999981       3.14799942E-09
  -8.43999958       3.78747700E-09
  -8.43000031       4.42019221E-09
  -8.42000008       5.04579312E-09
  -8.40999985       5.66411273E-09
  -8.39999962       6.27516039E-09
  -8.39000034       6.87911550E-09
  -8.38000011       7.47627826E-09
  -8.36999989       8.06694089E-09
  -8.35999966       8.65128058E-09
  -8.35000038       9.22927779E-09
  -8.34000015       9.80067050E-09
  -8.32999992       1.03649267E-08
  -8.31999969       1.09213056E-08
  -8.31000042       1.14689431E-08
  -8.30000019       1.20069350E-08
  -8.28999996       1.25343735E-08
  -8.27999973       1.30503945E-08
  -8.27000046       1.35541116E-08
  -8.26000023       1.40446286E-08
  -8.25000000       1.45209560E-08
  -8.23999977       1.49819908E-08
  -8.22999954       1.54265400E-08
  -8.22000027       1.58533719E-08
  -8.21000004       1.62612395E-08
  -8.19999981       1.66489649E-08
  -8.18999958       1.70154717E-08
  -8.18000031       1.73597687E-08
  -8.17000008       1.76809181E-08
  -8.15999985       1.79779995E-08
  -8.14999962       1.82500646E-08
  -8.14000034       1.84961291E-08
  -8.13000011       1.87151521E-08
  -8.11999989       1.89060962E-08
  -8.10999966       1.90679916E-08
  -8.10000038       1.91999554E-08
  -8.09000015       1.93012362E-08
  -8.07999992       1.93711962E-08
  -8.06999969       1.94093168E-08
  -8.06000042       1.94151202E-08
  -8.05000019       1.93881853E-08
  -8.03999996       1.93281178E-08
  -8.02999973       1.92345588E-08
  -8.02000046       1.91072349E-08
  -8.01000023       1.89459790E-08
  -8.00000000       1.87507823E-08
  -7.98999977       1.85217957E-08
  -7.98000002       1.82593283E-08
  -7.96999979       1.79638207E-08
  -7.96000004       1.76358075E-08
  -7.94999981       1.72759211E-08
  -7.94000006       1.68848455E-08
  -7.92999983       1.64633640E-08
  -7.92000008       1.60123541E-08
  -7.90999985       1.55328088E-08
  -7.90000010       1.50258312E-08
  -7.88999987       1.44926364E-08
  -7.88000011       1.39345078E-08
  -7.86999989       1.33527784E-08
  -7.86000013       1.27488180E-08
  -7.84999990       1.21240333E-08
  -7.84000015       1.14799166E-08
  -7.82999992       1.08180718E-08
  -7.82000017       1.01402655E-08
  -7.80999994       9.44843936E-09
  -7.80000019       8.74471873E-09
  -7.78999996       8.03135602E-09
  -7.78000021       7.31068406E-09
  -7.76999998       6.58503563E-09
  -7.76000023       5.85671467E-09
  -7.75000000       5.12795673E-09
  -7.73999977       4.40094627E-09
  -7.73000002       3.67783137E-09
  -7.71999979       2.96073033E-09
  -7.71000004       2.25173813E-09
  -7.69999981       1.55287982E-09
  -7.69000006       8.66051286E-10
  -7.67999983       1.92937125E-10
  -7.67000008      -4.65049776E-10
  -7.65999985      -1.10679921E-09
  -7.65000010      -1.73148629E-09
  -7.63999987      -2.33852471E-09
  -7.63000011      -2.92748958E-09
  -7.61999989      -3.49804963E-09
  -7.61000013      -4.04992884E-09
  -7.59999990      -4.58291538E-09
  -7.59000015      -5.09690468E-09
  -7.57999992      -5.59196689E-09
  -7.57000017      -6.06840400E-09
  -7.55999994      -6.52676890E-09
  -7.55000019      -6.96783831E-09
  -7.53999996      -7.39253103E-09
  -7.53000021      -7.80179565E-09
  -7.51999998      -8.19651991E-09
  -7.51000023      -8.57745519E-09
  -7.50000000      -8.94519925E-09
  -7.48999977      -9.30025834E-09
  -7.48000002      -9.64310853E-09
  -7.46999979      -9.97429161E-09
  -7.46000004      -1.02944737E-08
  -7.44999981      -1.06044755E-08
  -7.44000006      -1.09052207E-08