  -16.0000000       0.00000000    
  -15.9899998       0.00000000    
  -15.9799995       0.00000000    
  -15.9700003       0.00000000    
  -15.9600000       0.00000000    
  -15.9499998       0.00000000    
  -15.9399996       0.00000000    
  -15.9300003       0.00000000    
  -15.9200001       0.00000000    
  -15.9099998       0.00000000    
  -15.8999996       0.00000000    
  -15.8900003      -0.00000000    
  -15.8800001       0.00000000    
  -15.8699999       0.00000000    
  -15.8599997       0.00000000    
  -15.8500004       7.00649232E-45
  -15.8400002       5.04467447E-44
  -15.8299999       2.14398665E-43
  -15.8199997       1.54142831E-43
  -15.8100004      -6.00036002E-42
  -15.8000002      -6.20214700E-41
  -15.7900000      -4.08159006E-40
  -15.7799997      -2.12709540E-39
  -15.7700005      -9.40923154E-39
  -15.7600002      -3.65181238E-38
  -15.7500000      -1.26754318E-37
  -15.7399998      -3.98357809E-37
  -15.7299995      -1.14312019E-36
  -15.7200003      -3.01264480E-36
  -15.7100000      -7.32031000E-36
  -15.6999998      -1.64360484E-35
  -15.6899996      -3.41178253E-35
  -15.6800003      -6.53798938E-35
  -15.6700001      -1.15172090E-34
  -15.6599998      -1.84884518E-34
  -15.6499996      -2.65823446E-34
  -15.6400003      -3.29792815E-34
  -15.6300001      -3.19183037E-34
  -15.6199999      -1.42513193E-34
  -15.6099997       3.14752686E-34
  -15.6000004       1.15230221E-33
  -15.5900002       2.38136954E-33
  -15.5799999       3.81855336E-33
  -15.5699997       4.97194511E-33
  -15.5600004       4.97365068E-33
  -15.5500002       2.64114056E-33
  -15.5400000      -3.23668108E-33
  -15.5299997      -1.33128482E-32
  -15.5200005      -2.67935188E-32
  -15.5100002      -4.03929188E-32
  -15.5000000      -4.75081038E-32
  -15.4899998      -3.82811343E-32
  -15.4799995      -1.47924136E-33
  -15.4700003       7.08479849E-32
  -15.4600000       1.75526979E-31
  -15.4499998       2.88357416E-31
  -15.4399996       3.55972133E-31
  -15.4300003       2.96665716E-31
  -15.4200001       1.97775984E-32
  -15.4099998      -5.28439724E-31
  -15.3999996      -1.29379864E-30
  -15.3900003      -2.03812044E-30
  -15.3800001      -2.30337497E-30
  -15.3699999      -1.48123676E-30
  -15.3599997       9.51694050E-31
  -15.3500004       5.02468013E-30
  -15.3400002       9.79028206E-30
  -15.3299999       1.30142384E-29
  -15.3199997       1.13986322E-29
  -15.3100004       1.67780152E-30
  -15.3000002      -1.73397266E-29
  -15.2900000      -4.22574007E-29
  -15.2799997      -6.32863950E-29
  -15.2700005      -6.48688233E-29
  -15.2600002      -3.03243237E-29
  -15.2500000       4.91144034E-29
  -15.2399998       1.62933541E-28
  -15.2299995       2.72696104E-28
  -15.2200003       3.13323885E-28
  -15.2100000       2.10827892E-28
  -15.1999998      -8.20749069E-29
  -15.1899996      -5.40522398E-28
  -15.1800003      -1.03153472E-27
  -15.1700001      -1.31421646E-27
  -15.1599998      -1.09961201E-27
  -15.1499996      -1.74958229E-28
  -15.1400003       1.43587640E-27
  -15.1300001       3.34079011E-27
  -15.1199999       4.76368988E-27
  -15.1099997       4.71800875E-27
  -15.1000004       2.38200537E-27
  -15.0900002      -2.41103934E-27
  -15.0799999      -8.75702550E-27
  -15.0699997      -1.45798490E-26
  -15.0600004      -1.70328536E-26
  -15.0500002      -1.34192297E-26
  -15.0400000      -2.40095691E-27
  -15.0299997       1.49486923E-26
  -15.0200005       3.47454649E-26
  -15.0100002       5.08481590E-26
  -15.0000000       5.62665456E-26
  -14.9899998       4.49132687E-26
  -14.9799995       1.30583874E-26
  -14.9700003      -3.97954196E-26
  -14.9600000      -1.10125907E-25
  -14.9499998      -1.88517110E-25
  -14.9399996      -2.55744515E-25
  -14.9300003      -2.77698563E-25
  -14.9200001      -2.03381049E-25
  -14.9099998       2.64052545E-26
  -14.8999996       4.51565232E-25
  -14.8900003       1.04410425E-24
  -14.8800001       1.64987951E-24
  -14.8699999       1.95137840E-24
  -14.8599997       1.49816933E-24
  -14.8500004      -1.49360311E-25
  -14.8400002      -3.14929800E-24
  -14.8299999      -7.03485724E-24
  -14.8199997      -1.04433430E-23
  -14.8100004      -1.11378388E-23
  -14.8000002      -6.54538956E-24
  -14.7900000       5.08956135E-24
  -14.7799997       2.31129982E-23
  -14.7700005       4.29833710E-23
  -14.7600002       5.57991106E-23
  -14.7500000       4.98081569E-23
  -14.7399998       1.44909252E-23
  -14.7299995      -5.31536434E-23
  -14.7200003      -1.41895163E-22
  -14.7100000      -2.22301104E-22
  -14.6999998      -2.49326999E-22
  -14.6899996      -1.74391940E-22
  -14.6800003       3.30676639E-23
  -14.6700001       3.59295875E-22
  -14.6599998       7.25118369E-22
  -14.6499996       9.83431314E-22
  -14.6400003       9.47584263E-22
  -14.6300001       4.55315974E-22
  -14.6199999      -5.41312466E-22
  -14.6099997      -1.88722610E-21
  -14.6000004      -3.17876482E-21
  -14.5900002      -3.80621383E-21
  -14.5799999      -3.11340099E-21
  -14.5699997      -6.65484120E-22
  -14.5600004       3.43761722E-21
  -14.5500002       8.31784067E-21
  -14.5400000       1.22898973E-20
  -14.5299997       1.31694125E-20
  -14.5200005       8.95518737E-21
  -14.5100002      -1.22217349E-21
  -14.5000000      -1.61609152E-20
  -14.4899998      -3.20630489E-20
  -14.4799995      -4.28455647E-20
  -14.4700003      -4.15555216E-20
  -14.4600000      -2.28176819E-20
  -14.4499998       1.42193704E-20
  -14.4399996       6.34216501E-20
  -14.4300003       1.10917023E-19
  -14.4200001       1.37120153E-19
  -14.4099998       1.21945835E-19
  -14.3999996       5.25163045E-20
  -14.3900003      -6.86236726E-20
  -14.3800001      -2.17805832E-19
  -14.3699999      -3.50336994E-19
  -14.3599997      -4.08758693E-19
  -14.3500004      -3.39413092E-19
  -14.3400002      -1.14316981E-19
  -14.3299999       2.47870073E-19
  -14.3199997       6.70062980E-19
  -14.3100004       1.02213385E-18
  -14.3000002       1.14801678E-18
  -14.2900000       9.12694751E-19
  -14.2799997       2.59199294E-19
  -14.2700005      -7.41505122E-19
  -14.2600002      -1.86840145E-18
  -14.2500000      -2.77393571E-18
  -14.2399998      -3.06081911E-18
  -14.2299995      -2.40335528E-18
  -14.2200003      -6.85777499E-19
  -14.2100000       1.88506645E-18
  -14.1999998       4.74033014E-18
  -14.1899996       7.02066650E-18
  -14.1800003       7.76986631E-18
  -14.1700001       6.22362297E-18
  -14.1599998       2.12571417E-18
  -14.1499996      -4.02589673E-18
  -14.1400003      -1.09061497E-17
  -14.1300001      -1.65389883E-17
  -14.1199999      -1.87379603E-17
  -14.1099997      -1.57444664E-17
  -14.1000004      -6.91372363E-18
  -14.0900002       6.75810200E-18
  -14.0799999       2.24773196E-17
  -14.0699997       3.60166152E-17
  -14.0600004       4.26243423E-17
  -14.0500002       3.83393350E-17
  -14.0400000       2.14094923E-17
  -14.0299997      -6.59436987E-18
  -14.0200005      -4.03850751E-17
  -14.0100002      -7.15821390E-17
  -14.0000000      -9.04102255E-17
  -13.9899998      -8.82233850E-17
  -13.9799995      -6.03021284E-17
  -13.9700003      -8.16497410E-18
  -13.9600000       5.93893445E-17
  -13.9499998       1.27094753E-16
  -13.9399996       1.76060391E-16
  -13.9300003       1.88272263E-16
  -13.9200001       1.51831953E-16
  -13.9099998       6.56119993E-17
  -13.8999996      -5.80968053E-17
  -13.8900003      -1.94095601E-16
  -13.8800001      -3.08444401E-16
  -13.8699999      -3.65871699E-16
  -13.8599997      -3.39042195E-16
  -13.8500004      -2.17520284E-16
  -13.8400002      -1.39423658E-17
  -13.8299999       2.34807936E-16
  -13.8199997       4.72686048E-16
  -13.8100004       6.35652434E-16
  -13.8000002       6.67067669E-16
  -13.7900000       5.33993234E-16
  -13.7799997       2.40224314E-16
  -13.7700005      -1.68007953E-16
  -13.7600002      -6.06506189E-16
  -13.7500000      -9.68390322E-16
  -13.7399998      -1.14806369E-15
  -13.7299995      -1.06903128E-15
  -13.7200003      -7.08848680E-16
  -13.7100000      -1.14060279E-16
  -13.6999998       6.00585482E-16
  -13.6899996       1.27112921E-15
  -13.6800003       1.71960542E-15
  -13.6700001       1.79872740E-15
  -13.6599998       1.43559548E-15
  -13.6499996       6.62445727E-16
  -13.6400003      -3.76041203E-16
  -13.6300001      -1.44467515E-15
  -13.6199999      -2.26766898E-15
  -13.6099997      -2.59730689E-15
  -13.6000004      -2.28539992E-15
  -13.5900002      -1.33815377E-15
  -13.5799999       6.34724536E-17
  -13.5699997       1.58907478E-15
  -13.5600004       2.82987588E-15
  -13.5500002       3.40270923E-15
  -13.5400000       3.06261258E-15
  -13.5299997       1.79331338E-15
  -13.5200005      -1.53819502E-16
  -13.5100002      -2.29181789E-15
  -13.5000000      -4.00344532E-15
  -13.4899998      -4.70140682E-15
  -13.4799995      -4.00619648E-15
  -13.4700003      -1.89309492E-15
  -13.4600000       1.23935172E-15
  -13.4499998       4.61245227E-15
  -13.4399996       7.22866896E-15
  -13.4300003       8.12496026E-15
  -13.4200001       6.66135001E-15
  -13.4099998       2.76832221E-15
  -13.3999996      -2.92452779E-15
  -13.3900003      -9.13566284E-15
  -13.3800001      -1.41719014E-14
  -13.3699999      -1.63280559E-14
  -13.3599997      -1.43622110E-14
  -13.3500004      -7.92830208E-15
  -13.3400002       2.16007018E-15
  -13.3299999       1.39350998E-14
  -13.3199997       2.45931612E-14
  -13.3100004       3.10924416E-14
  -13.3000002       3.09159301E-14
  -13.2900000       2.28242836E-14
  -13.2799997       7.39853294E-15
  -13.2700005      -1.28022923E-14
  -13.2600002      -3.35691625E-14
  -13.2500000      -4.98457748E-14
  -13.2399998      -5.68706798E-14
  -13.2299995      -5.14169599E-14
  -13.2200003      -3.28283509E-14
  -13.2100000      -3.56149063E-15
  -13.1999998       3.09708652E-14
  -13.1899996       6.33111930E-14
  -13.1800003       8.54960837E-14
  -13.1700001       9.09222919E-14
  -13.1599998       7.61197203E-14
  -13.1499996       4.19827848E-14
  -13.1400003      -5.90876420E-15
  -13.1300001      -5.80662634E-14
  -13.1199999      -1.02903620E-13
  -13.1099997      -1.29259654E-13
  -13.1000004      -1.29096264E-13
  -13.0900002      -9.97364829E-14
  -13.0799999      -4.50514531E-14
  -13.0699997       2.47988682E-14
  -13.0600004       9.51538585E-14
  -13.0500002       1.49887522E-13
  -13.0400000       1.75079257E-13
  -13.0299997       1.62495885E-13
  -13.0200005       1.12031817E-13
  -13.0100002       3.24288258E-14
  -13.0000000      -6.00464706E-14
  -12.9899998      -1.44825002E-13
  -12.9799995      -2.01545201E-13
  -12.9700003      -2.14879140E-13
  -12.9600000      -1.78551550E-13
  -12.9499998      -9.75312699E-14
  -12.9399996       1.22648956E-14
  -12.9300003       1.26875981E-13
  -12.9200001       2.19316942E-13
  -12.9099998       2.65690004E-13
  -12.8999996       2.51032132E-13
  -12.8900003       1.73513507E-13
  -12.8800001       4.58927025E-14
  -12.8699999      -1.06298020E-13
  -12.8599997      -2.49641074E-13
  -12.8500004      -3.49876432E-13
  -12.8400002      -3.79628864E-13
  -12.8299999      -3.25102141E-13
  -12.8199997      -1.90158422E-13
  -12.8100004       3.29762674E-15
  -12.8000002       2.18932470E-13
  -12.7900000       4.13010880E-13
  -12.7799997       5.43449237E-13
  -12.7700005       5.78976754E-13
  -12.7600002       5.06358681E-13
  -12.7500000       3.33971728E-13
  -12.7399998       9.07576897E-14
  -12.7299995      -1.79411756E-13
  -12.7200003      -4.26877202E-13
  -12.7100000      -6.06890243E-13
  -12.6999998      -6.89454353E-13
  -12.6899996      -6.65959258E-13
  -12.6800003      -5.50888924E-13
  -12.6700001      -3.77954748E-13
  -12.6599998      -1.91318464E-13
  -12.6499996      -3.38191050E-14
  -12.6400003       6.49953317E-14
  -12.6300001       9.79522046E-14
  -12.6199999       8.38304916E-14
  -12.6099997       6.39506419E-14
  -12.6000004       9.19229631E-14
  -12.5900002       2.18452806E-13
  -12.5799999       4.74561308E-13
  -12.5699997       8.57361328E-13
  -12.5600004       1.32236680E-12
  -12.5500002       1.78515687E-12
  -12.5400000       2.13324063E-12
  -12.5299997       2.24659592E-12
  -12.5200005       2.02310608E-12
  -12.5100002       1.40359360E-12
  -12.5000000       3.90746870E-13
  -12.4899998      -9.42816355E-13
  -12.4799995      -2.45994371E-12
  -12.4700003      -3.97744815E-12
  -12.4600000      -5.29430839E-12
  -12.4499998      -6.22372813E-12
  -12.4399996      -6.62207962E-12
  -12.4300003      -6.40820730E-12
  -12.4200001      -5.56870435E-12
  -12.4099998      -4.14804302E-12
  -12.3999996      -2.22618170E-12
  -12.3900003       1.10545931E-13
  -12.3800001       2.79751699E-12
  -12.3699999       5.81112459E-12
  -12.3599997       9.17352652E-12
  -12.3500004       1.29405705E-11
  -12.3400002       1.71749143E-11
  -12.3299999       2.19103624E-11
  -12.3199997       2.71160507E-11
  -12.3100004       3.26698425E-11
  -12.3000002       3.83484321E-11
  -12.2900000       4.38382802E-11
  -12.2799997       4.87666435E-11
  -12.2700005       5.27472128E-11
  -12.2600002       5.54315517E-11
  -12.2500000       5.65559127E-11
  -12.2399998       5.59735799E-11
  -12.2299995       5.36670743E-11
  -12.2200003       4.97378180E-11
  -12.2100000       4.43762770E-11
  -12.1999998       3.78198549E-11
  -12.1899996       3.03074718E-11
  -12.1800003       2.20405621E-11
  -12.1700001       1.31569356E-11
  -12.1599998       3.72211463E-12
  -12.1499996      -6.26260025E-12
  -12.1400003      -1.68387596E-11
  -12.1300001      -2.80617560E-11
  -12.1199999      -3.99714081E-11
  -12.1099997      -5.25666906E-11
  -12.1000004      -6.57891241E-11
  -12.0900002      -7.95153388E-11
  -12.0799999      -9.35591812E-11
  -12.0699997      -1.07680594E-10
  -12.0600004      -1.21599925E-10
  -12.0500002      -1.35015388E-10
  -12.0400000      -1.47622553E-10
  -12.0299997      -1.59134900E-10
  -12.0200005      -1.69303668E-10
  -12.0100002      -1.77935541E-10
  -12.0000000      -1.84905091E-10
  -11.9899998      -1.90159222E-10
  -11.9799995      -1.93710464E-10
  -11.9700003      -1.95618938E-10
  -11.9600000      -1.95963593E-10
  -11.9499998      -1.94808086E-10
  -11.9399996      -1.92166547E-10
  -11.9300003      -1.87979091E-10
  -11.9200001      -1.82101403E-10
  -11.9099998      -1.74315590E-10
  -11.8999996      -1.64358846E-10
  -11.8900003      -1.51967064E-10
  -11.8800001      -1.36924944E-10
  -11.8699999      -1.19109514E-10
  -11.8599997      -9.85186654E-11
  -11.8500004      -7.52765697E-11
  -11.8400002      -4.96147914E-11
  -11.8299999      -2.18330493E-11
  -11.8199997       7.74993871E-12
  -11.8100004       3.88446636E-11
  -11.8000002       7.12260806E-11
  -11.7900000       1.04745712E-10
  -11.7799997       1.39318404E-10
  -11.7700005       1.74887563E-10
  -11.7600002       2.11376777E-10
  -11.7500000       2.48639748E-10
  -11.7399998       2.86421498E-10
  -11.7299995       3.24340943E-10
  -11.7200003       3.61899344E-10
  -11.7100000       3.98511779E-10
  -11.6999998       4.33557412E-10
  -11.6899996       4.66435945E-10
  -11.6800003       4.96620467E-10
  -11.6700001       5.23695087E-10
  -11.6599998       5.47372425E-10
  -11.6499996       5.67488778E-10
  -11.6400003       5.83978643E-10
  -11.6300001       5.96836525E-10
  -11.6199999       6.06071526E-10
  -11.6099997       6.11664885E-10
  -11.6000004       6.13535167E-10
  -11.5900002       6.11517281E-10
  -11.5799999       6.05358708E-10
  -11.5699997       5.94732652E-10
  -11.5600004       5.79267578E-10
  -11.5500002       5.58590840E-10
  -11.5400000       5.32381972E-10
  -11.5299997       5.00426589E-10
  -11.5200005       4.62664712E-10
  -11.5100002       4.19222962E-10
  -11.5000000       3.70421138E-10
  -11.4899998       3.16747767E-10
  -11.4799995       2.58805866E-10
  -11.4700003       1.97224764E-10
  -11.4600000       1.32562836E-10
  -11.4499998       6.52087065E-11
  -11.4399996      -4.69430831E-12
  -11.4300003      -7.72846717E-11
  -11.4200001      -1.52959867E-10
  -11.4099998      -2.32300304E-10
  -11.3999996      -3.15944354E-10
  -11.3900003      -4.04434042E-10
  -11.3800001      -4.98062314E-10
  -11.3699999      -5.96753924E-10
  -11.3599997      -7.00007441E-10
  -11.3500004      -8.06914757E-10
  -11.3400002      -9.16261178E-10
  -11.3299999      -1.02669240E-09
  -11.3199997      -1.13691623E-09
  -11.3100004      -1.24590516E-09
  -11.3000002      -1.35305267E-09
  -11.2900000      -1.45826007E-09
  -11.2799997      -1.56192503E-09
  -11.2700005      -1.66484071E-09
  -11.2600002      -1.76801684E-09
  -11.2500000      -1.87245974E-09
  -11.2399998      -1.97895078E-09
  -11.2299995      -2.08786677E-09
  -11.2200003      -2.19907537E-09
  -11.2100000      -2.31191999E-09
  -11.1999998      -2.42530307E-09
  -11.1899996      -2.53784282E-09
  -11.1800003      -2.64807909E-09
  -11.1700001      -2.75468603E-09
  -11.1599998      -2.85666335E-09
  -11.1499996      -2.95346192E-09
  -11.1400003      -3.04502756E-09
  -11.1300001      -3.13177462E-09
  -11.1199999      -3.21447025E-09
  -11.1099997      -3.29408167E-09
  -11.1000004      -3.37159323E-09
  -11.0900002      -3.44784357E-09
  -11.0799999      -3.52339846E-09
  -11.0699997      -3.59849595E-09
  -11.0600004      -3.67304431E-09
  -11.0500002      -3.74671538E-09
  -11.0400000      -3.81905263E-09
  -11.0299997      -3.88960020E-09
  -11.0200005      -3.95804145E-09
  -11.0100002      -4.02426226E-09
  -11.0000000      -4.08837586E-09
  -10.9899998      -4.15066781E-09
  -10.9799995      -4.21150359E-09
  -10.9700003      -4.27119806E-09
  -10.9600000      -4.32989911E-09
  -10.9499998      -4.38751657E-09
  -10.9399996      -4.44371517E-09
  -10.9300003      -4.49797843E-09
  -10.9200001      -4.54973081E-09
  -10.9099998      -4.59850646E-09
  -10.8999996      -4.64407313E-09
  -10.8900003      -4.68653738E-09
  -10.8800001      -4.72636774E-09
  -10.8699999      -4.76431294E-09
  -10.8599997      -4.80123585E-09
  -10.8500004      -4.83793761E-09
  -10.8400002      -4.87495777E-09
  -10.8299999      -4.91240204E-09
  -10.8199997      -4.94990804E-09
  -10.8100004      -4.98667330E-09
  -10.8000002      -5.02158226E-09
  -10.7900000      -5.05344300E-09
  -10.7799997      -5.08115594E-09
  -10.7700005      -5.10389553E-09
  -10.7600002      -5.12129095E-09
  -10.7500000      -5.13338527E-09
  -10.7399998      -5.14063503E-09
  -10.7299995      -5.14374499E-09
  -10.7200003      -5.14355314E-09
  -10.7100000      -5.14085574E-09
  -10.6999998      -5.13632470E-09
  -10.6899996      -5.13041343E-09
  -10.6800003      -5.12335951E-09
  -10.6700001      -5.11519138E-09
  -10.6599998      -5.10573583E-09
  -10.6499996      -5.09475839E-09
  -10.6400003      -5.08188247E-09
  -10.6300001      -5.06673059E-09
  -10.6199999      -5.04890219E-09
  -10.6099997      -5.02800512E-09
  -10.6000004      -5.00375696E-09
  -10.5900002      -4.97602137E-09
  -10.5799999      -4.94489205E-09
  -10.5699997      -4.91071672E-09
  -10.5600004      -4.87413265E-09
  -10.5500002      -4.83602047E-09
  -10.5400000      -4.79746198E-09
  -10.5299997      -4.75957584E-09
  -10.5200005      -4.72341055E-09
  -10.5100002      -4.68981831E-09
  -10.5000000      -4.65936045E-09
  -10.4899998      -4.63227368E-09
  -10.4799995      -4.60845229E-09
  -10.4700003      -4.58752680E-09
  -10.4600000      -4.56893323E-09
  -10.4499998      -4.55199345E-09
  -10.4399996      -4.53607019E-09
  -10.4300003      -4.52054927E-09
  -10.4200001      -4.50492355E-09
  -10.4099998      -4.48882620E-09
  -10.3999996      -4.47199788E-09
  -10.3900003      -4.45436354E-09
  -10.3800001      -4.43595116E-09
  -10.3699999      -4.41699566E-09
  -10.3599997      -4.39787939E-09
  -10.3500004      -4.37914993E-09
  -10.3400002      -4.36144854E-09
  -10.3299999      -4.34551506E-09
  -10.3199997      -4.33202230E-09
  -10.3100004      -4.32160974E-09
  -10.3000002      -4.31469394E-09
  -10.2900000      -4.31148628E-09
  -10.2799997      -4.31195346E-09
  -10.2700005      -4.31586678E-09
  -10.2600002      -4.32293401E-09
  -10.2500000      -4.33269598E-09
  -10.2399998      -4.34482672E-09
  -10.2299995      -4.35904823E-09
  -10.2200003      -4.37524728E-09
  -10.2100000      -4.39340164E-09
  -10.1999998      -4.41357129E-09
  -10.1899996      -4.43583037E-09
  -10.1800003      -4.46025750E-09
  -10.1700001      -4.48686777E-09
  -10.1599998      -4.51556659E-09
  -10.1499996      -4.54626337E-09
  -10.1400003      -4.57888261E-09
  -10.1300001      -4.61342786E-09
  -10.1199999      -4.65006700E-09
  -10.1099997      -4.68905803E-09
  -10.1000004      -4.73091211E-09
  -10.0900002      -4.77619766E-09
  -10.0799999      -4.82556350E-09
  -10.0699997      -4.87962737E-09
  -10.0600004      -4.93888441E-09
  -10.0500002      -5.00366859E-09
  -10.0400000      -5.07413445E-09
  -10.0299997      -5.15024157E-09
  -10.0200005      -5.23174748E-09
  -10.0100002      -5.31830269E-09
  -10.0000000      -5.40951950E-09
  -9.98999977      -5.50494317E-09
  -9.97999954      -5.60418378E-09
  -9.97000027      -5.70686964E-09
  -9.96000004      -5.81282533E-09
  -9.94999981      -5.92202909E-09
  -9.93999958      -6.03466832E-09
  -9.93000031      -6.15131901E-09
  -9.92000008      -6.27280938E-09
  -9.90999985      -6.40023590E-09
  -9.89999962      -6.53496501E-09
  -9.89000034      -6.67843558E-09
  -9.88000011      -6.83204293E-09
  -9.86999989      -6.99697944E-09
  -9.85999966      -7.17397386E-09
  -9.85000038      -7.36323713E-09
  -9.84000015      -7.56439977E-09
  -9.82999992      -7.77654829E-09
  -9.81999969      -7.99828914E-09
  -9.81000042      -8.22792945E-09
  -9.80000019      -8.46368842E-09
  -9.78999996      -8.70383143E-09
  -9.77999973      -8.94689567E-09
  -9.77000046      -9.19175580E-09
  -9.76000023      -9.43778744E-09
  -9.75000000      -9.68480940E-09
  -9.73999977      -9.93312188E-09
  -9.72999954      -1.01834319E-08
  -9.72000027      -1.04367990E-08
  -9.71000004      -1.06945084E-08
  -9.69999981      -1.09579270E-08
  -9.68999958      -1.12284191E-08
  -9.68000031      -1.15071490E-08
  -9.67000008      -1.17950529E-08
  -9.65999985      -1.20925847E-08
  -9.64999962      -1.23997781E-08
  -9.64000034      -1.27162130E-08
  -9.63000011      -1.30409781E-08
  -9.61999989      -1.33728237E-08
  -9.60999966      -1.37102329E-08
  -9.60000038      -1.40515422E-08
  -9.59000015      -1.43950611E-08
  -9.57999992      -1.47390997E-08
  -9.56999969      -1.50821915E-08
  -9.56000042      -1.54229554E-08
  -9.55000019      -1.57601701E-08
  -9.53999996      -1.60929492E-08
  -9.52999973      -1.64205307E-08
  -9.52000046      -1.67423249E-08
  -9.51000023      -1.70580101E-08
  -9.50000000      -1.73673680E-08
  -9.48999977      -1.76702670E-08
  -9.47999954      -1.79666770E-08
  -9.47000027      -1.82564879E-08
  -9.46000004      -1.85395592E-08
  -9.44999981      -1.88158147E-08
  -9.43999958      -1.90851033E-08
  -9.43000031      -1.93472793E-08
  -9.42000008      -1.96021741E-08
  -9.40999985      -1.98497183E-08
  -9.39999962      -2.00898036E-08
  -9.39000034      -2.03223394E-08
  -9.38000011      -2.05472084E-08
  -9.36999989      -2.07642952E-08
  -9.35999966      -2.09735305E-08
  -9.35000038      -2.11750599E-08
  -9.34000015      -2.13692939E-08
  -9.32999992      -2.15570832E-08
  -9.31999969      -2.17400320E-08
  -9.31000042      -2.19202061E-08
  -9.30000019      -2.21003944E-08
  -9.28999996      -2.22838139E-08
  -9.27999973      -2.24738734E-08
  -9.27000046      -2.26740298E-08
  -9.26000023      -2.28874768E-08
  -9.25000000      -2.31168773E-08
  -9.23999977      -2.33642119E-08
  -9.22999954      -2.36308875E-08
  -9.22000027      -2.39175844E-08
  -9.21000004      -2.42244234E-08
  -9.19999981      -2.45511753E-08
  -9.18999958      -2.48971599E-08
  -9.18000031      -2.52616239E-08
  -9.17000008      -2.56436792E-08
  -9.15999985      -2.60424127E-08
  -9.14999962      -2.64568882E-08
  -9.14000034      -2.68863865E-08
  -9.13000011      -2.73302803E-08
  -9.11999989      -2.77880918E-08
  -9.10999966      -2.82594481E-08
  -9.10000038      -2.87438837E-08
  -9.09000015      -2.92409457E-08
  -9.07999992      -2.97497671E-08
  -9.06999969      -3.02690601E-08
  -9.06000042      -3.07973274E-08
  -9.05000019      -3.13327284E-08
  -9.03999996      -3.18730287E-08
  -9.02999973      -3.24162457E-08
  -9.02000046      -3.29605072E-08
  -9.01000023      -3.35043104E-08
  -9.00000000      -3.40466215E-08
  -8.98999977      -3.45866553E-08
  -8.97999954      -3.51238860E-08
  -8.97000027      -3.56580081E-08
  -8.96000004      -3.61884744E-08
  -8.94999981      -3.67148871E-08
  -8.93999958      -3.72366209E-08
  -8.93000031      -3.77529155E-08
  -8.92000008      -3.82632486E-08
  -8.90999985      -3.87670660E-08
  -8.89999962      -3.92639414E-08
  -8.89000034      -3.97537399E-08
  -8.88000011      -4.02362375E-08
  -8.86999989      -4.07110825E-08
  -8.85999966      -4.11778238E-08
  -8.85000038      -4.16358006E-08
  -8.84000015      -4.20841282E-08
  -8.82999992      -4.25219930E-08
  -8.81999969      -4.29483968E-08
  -8.81000042      -4.33623910E-08
  -8.80000019      -4.37630590E-08
  -8.78999996      -4.41495445E-08
  -8.77999973      -4.45208599E-08
  -8.77000046      -4.48756978E-08
  -8.76000023      -4.52126976E-08
  -8.75000000      -4.55302782E-08
  -8.73999977      -4.58269476E-08
  -8.72999954      -4.61017251E-08
  -8.72000027      -4.63543692E-08
  -8.71000004      -4.65854555E-08
  -8.69999981      -4.67968988E-08
  -8.68999958      -4.69914596E-08
  -8.68000031      -4.71726942E-08
  -8.67000008      -4.73444466E-08
  -8.65999985      -4.75104258E-08
  -8.64999962      -4.76738471E-08
  -8.64000034      -4.78371298E-08
  -8.63000011      -4.80019935E-08
  -8.61999989      -4.81694258E-08
  -8.60999966      -4.83401656E-08
  -8.60000038      -4.85146892E-08
  -8.59000015      -4.86939484E-08
  -8.57999992      -4.88790235E-08
  -8.56999969      -4.90716197E-08
  -8.56000042      -4.92735417E-08
  -8.55000019      -4.94867294E-08
  -8.53999996      -4.97135204E-08
  -8.52999973      -4.99557444E-08
  -8.52000046      -5.02151281E-08
  -8.51000023      -5.04934263E-08
  -8.50000000      -5.07916589E-08
  -8.48999977      -5.11107885E-08
  -8.47999954      -5.14513587E-08
  -8.47000027      -5.18131316E-08
  -8.46000004      -5.21953254E-08
  -8.44999981      -5.25964516E-08
  -8.43999958      -5.30147659E-08
  -8.43000031      -5.34478879E-08
  -8.42000008      -5.38934444E-08
  -8.40999985      -5.43494743E-08
  -8.39999962      -5.48144214E-08
  -8.39000034      -5.52871384E-08
  -8.38000011      -5.57672131E-08
  -8.36999989      -5.62543789E-08
  -8.35999966      -5.67483305E-08
  -8.35000038      -5.72493875E-08
  -8.34000015      -5.77569779E-08
  -8.32999992      -5.82709809E-08
  -8.31999969      -5.87909064E-08
  -8.31000042      -5.93165268E-08
  -8.30000019      -5.98477001E-08
  -8.28999996      -6.03845649E-08
  -8.27999973      -6.09276825E-08
  -8.27000046      -6.14775573E-08
  -8.26000023      -6.20347151E-08
  -8.25000000      -6.25992982E-08
  -8.23999977      -6.31708872E-08
  -8.22999954      -6.37489492E-08
  -8.22000027      -6.43324327E-08
  -8.21000004      -6.49202931E-08
  -8.19999981      -6.55116921E-08
  -8.18999958      -6.61059687E-08
  -8.18000031      -6.67024054E-08
  -8.17000008      -6.73004337E-08
  -8.15999985      -6.78998120E-08
  -8.14999962      -6.85001496E-08
  -8.14000034      -6.91005368E-08
  -8.13000011      -6.97003699E-08
  -8.11999989      -7.02989382E-08
  -8.10999966      -7.08960357E-08
  -8.10000038      -7.14917050E-08
  -8.09000015      -7.20869764E-08
  -8.07999992      -7.26827096E-08
  -8.06999969      -7.32802690E-08
  -8.06000042      -7.38807486E-08
  -8.05000019      -7.44844897E-08
  -8.03999996      -7.50920961E-08
  -8.02999973      -7.57037242E-08
  -8.02000046      -7.63194237E-08
  -8.01000023      -7.69395001E-08
  -8.00000000      -7.75654172E-08
  -7.98999977      -7.81989158E-08
  -7.98000002      -7.88429944E-08
  -7.96999979      -7.95011772E-08
  -7.96000004      -8.01760294E-08
  -7.94999981      -8.08707341E-08
  -7.94000006      -8.15873378E-08
  -7.92999983      -8.23275457E-08
  -7.92000008      -8.30921820E-08
  -7.90999985      -8.38820498E-08
  -7.90000010      -8.46981294E-08
  -7.88999987      -8.55415010E-08
  -7.88000011      -8.64139551E-08
  -7.86999989      -8.73171402E-08
  -7.86000013      -8.82526834E-08
  -7.84999990      -8.92212100E-08
  -7.84000015      -9.02228621E-08
  -7.82999992      -9.12570073E-08
  -7.82000017      -9.23214714E-08
  -7.80999994      -9.34144992E-08
  -7.80000019      -9.45335543E-08
  -7.78999996      -9.56775850E-08
  -7.78000021      -9.68444880E-08
  -7.76999998      -9.80327499E-08
  -7.76000023      -9.92409497E-08
  -7.75000000      -1.00466956E-07
  -7.73999977      -1.01708835E-07
  -7.73000002      -1.02963732E-07
  -7.71999979      -1.04228697E-07
  -7.71000004      -1.05500789E-07
  -7.69999981      -1.06778906E-07
  -7.69000006      -1.08062196E-07
  -7.67999983      -1.09350950E-07
  -7.67000008      -1.10646077E-07
  -7.65999985      -1.11949305E-07
  -7.65000010      -1.13261052E-07
  -7.63999987      -1.14582029E-07
  -7.63000011      -1.15911469E-07
  -7.61999989      -1.17248895E-07
  -7.61000013      -1.18594066E-07
  -7.59999990      -1.19946833E-07
  -7.59000015      -1.21307863E-07
  -7.57999992      -1.22679339E-07
  -7.57000017      -1.24064002E-07
  -7.55999994      -1.25464737E-07
  -7.55000019      -1.26883705E-07
  -7.53999996      -1.28323308E-07
  -7.53000021      -1.29784468E-07
  -7.51999998      -1.31268763E-07
  -7.51000023      -1.32776947E-07
  -7.50000000      -1.34309843E-07
  -7.48999977      -1.35869669E-07
  -7.48000002      -1.37457732E-07
  -7.46999979      -1.39076704E-07
  -7.46000004      -1.40727622E-07
  -7.44999981      -1.42411338E-07
  -7.44000006      -1.44126361E-07