  -16.0000000       0.00000000    
  -15.9899998       0.00000000    
  -15.9799995       0.00000000    
  -15.9700003       0.00000000    
  -15.9600000       0.00000000    
  -15.9499998       0.00000000    
  -15.9399996       0.00000000    
  -15.9300003       0.00000000    
  -15.9200001       0.00000000    
  -15.9099998       0.00000000    
  -15.8999996       0.00000000    
  -15.8900003       0.00000000    
  -15.8800001       0.00000000    
  -15.8699999       0.00000000    
  -15.8599997       0.00000000    
  -15.8500004       4.20389539E-45
  -15.8400002       4.62428493E-44
  -15.8299999       3.50324616E-43
  -15.8199997       2.19583469E-42
  -15.8100004       1.15999487E-41
  -15.8000002       5.30041144E-41
  -15.7900000       2.12981952E-40
  -15.7799997       7.61998079E-40
  -15.7700005       2.44995877E-39
  -15.7600002       7.12685966E-39
  -15.7500000       1.88448888E-38
  -15.7399998       4.54110890E-38
  -15.7299995       9.97447162E-38
  -15.7200003       1.99099580E-37
  -15.7100000       3.58218837E-37
  -15.6999998       5.70427126E-37
  -15.6899996       7.70279282E-37
  -15.6800003       7.75668609E-37
  -15.6700001       2.19903302E-37
  -15.6599998      -1.49231453E-36
  -15.6499996      -5.13814579E-36
  -15.6400003      -1.14383514E-35
  -15.6300001      -2.05116260E-35
  -15.6199999      -3.09430119E-35
  -15.6099997      -3.85291778E-35
  -15.6000004      -3.50710433E-35
  -15.5900002      -8.09970063E-36
  -15.5799999       5.69145322E-35
  -15.5699997       1.69816334E-34
  -15.5600004       3.22794101E-34
  -15.5500002       4.71844534E-34
  -15.5400000       5.18758422E-34
  -15.5299997       3.08152102E-34
  -15.5200005      -3.37443607E-34
  -15.5100002      -1.52023626E-33
  -15.5000000      -3.10067088E-33
  -15.4899998      -4.50075738E-33
  -15.4799995      -4.58919754E-33
  -15.4700003      -1.83394237E-33
  -15.4600000       5.07689545E-33
  -15.4499998       1.60691723E-32
  -15.4399996       2.82196433E-32
  -15.4300003       3.47371394E-32
  -15.4200001       2.55934008E-32
  -15.4099998      -8.93933846E-33
  -15.3999996      -7.14099653E-32
  -15.3900003      -1.48493395E-31
  -15.3800001      -2.04761383E-31
  -15.3699999      -1.85519457E-31
  -15.3599997      -3.51046694E-32
  -15.3500004       2.67838997E-31
  -15.3400002       6.66865468E-31
  -15.3299999       9.97943922E-31
  -15.3199997       1.00471599E-30
  -15.3100004       4.26015657E-31
  -15.3000002      -8.43104139E-31
  -15.2900000      -2.56357319E-30
  -15.2799997      -4.03955718E-30
  -15.2700005      -4.21288411E-30
  -15.2600002      -2.06238885E-30
  -15.2500000       2.72072587E-30
  -15.2399998       9.01552483E-30
  -15.2299995       1.39521587E-29
  -15.2200003       1.35013632E-29
  -15.2100000       4.26662056E-30
  -15.1999998      -1.38030120E-29
  -15.1899996      -3.48860362E-29
  -15.1800003      -4.67679196E-29
  -15.1700001      -3.41978443E-29
  -15.1599998       1.31503760E-29
  -15.1499996       8.98640657E-29
  -15.1400003       1.66068558E-28
  -15.1300001       1.88108154E-28
  -15.1199999       9.53511365E-29
  -15.1099997      -1.45490309E-28
  -15.1000004      -4.97305301E-28
  -15.0900002      -8.21639944E-28
  -15.0799999      -8.88474046E-28
  -15.0699997      -4.50804829E-28
  -15.0600004       6.14631894E-28
  -15.0500002       2.13925346E-27
  -15.0400000       3.55072418E-27
  -15.0299997       3.92652896E-27
  -15.0200005       2.29931826E-27
  -15.0100002      -1.79163196E-27
  -15.0000000      -7.66236390E-27
  -14.9899998      -1.30854675E-26
  -14.9799995      -1.45437293E-26
  -14.9700003      -8.44919873E-27
  -14.9600000       6.72002718E-27
  -14.9499998       2.80008459E-26
  -14.9399996       4.65096859E-26
  -14.9300003       4.85783473E-26
  -14.9200001       2.06595260E-26
  -14.9099998      -4.21799643E-26
  -14.8999996      -1.26633992E-25
  -14.8900003      -1.95319322E-25
  -14.8800001      -1.91037114E-25
  -14.8699999      -5.61701936E-26
  -14.8599997       2.32828574E-25
  -14.8500004       6.24615134E-25
  -14.8400002       9.64570600E-25
  -14.8299999       1.00427338E-24
  -14.8199997       4.71533520E-25
  -14.8100004      -7.93489793E-25
  -14.8000002      -2.66280590E-24
  -14.7900000      -4.57273597E-24
  -14.7799997      -5.50320333E-24
  -14.7700005      -4.18584032E-24
  -14.7600002       4.07119132E-25
  -14.7500000       8.35123337E-24
  -14.7399998       1.80476765E-23
  -14.7299995       2.58509088E-23
  -14.7200003       2.64702845E-23
  -14.7100000       1.44634728E-23
  -14.6999998      -1.31923513E-23
  -14.6899996      -5.40018645E-23
  -14.6800003      -9.74824514E-23
  -14.6700001      -1.24908438E-22
  -14.6599998      -1.12787722E-22
  -14.6499996      -4.07661543E-23
  -14.6400003       9.69915401E-23
  -14.6300001       2.80076292E-22
  -14.6199999       4.54920054E-22
  -14.6099997       5.38694760E-22
  -14.6000004       4.38617569E-22
  -14.5900002       8.70050911E-23
  -14.5799999      -5.14391180E-22
  -14.5699997      -1.25497688E-21
  -14.5600004      -1.90073342E-21
  -14.5500002      -2.12452333E-21
  -14.5400000      -1.59281745E-21
  -14.5299997      -1.02453373E-22
  -14.5200005       2.26365447E-21
  -14.5100002       5.01709073E-21
  -14.5000000       7.24944078E-21
  -14.4899998       7.78272186E-21
  -14.4799995       5.50699007E-21
  -14.4700003      -1.38364726E-22
  -14.4600000      -8.66288807E-21
  -14.4499998      -1.81943901E-20
  -14.4399996      -2.55341963E-20
  -14.4300003      -2.67610683E-20
  -14.4200001      -1.84060401E-20
  -14.4099998       9.94363084E-22
  -14.3999996       2.93946935E-20
  -14.3900003       6.03893352E-20
  -14.3800001       8.36328713E-20
  -14.3699999       8.69384531E-20
  -14.3599997       5.99976652E-20
  -14.3500004      -9.70687664E-22
  -14.3400002      -8.89793597E-20
  -14.3299999      -1.84182698E-19
  -14.3199997      -2.55607081E-19
  -14.3100004      -2.67642766E-19
  -14.3000002      -1.90880857E-19
  -14.2900000      -1.51259539E-20
  -14.2799997       2.39219961E-19
  -14.2700005       5.16092977E-19
  -14.2600002       7.29267864E-19
  -14.2500000       7.80511754E-19
  -14.2399998       5.88816008E-19
  -14.2299995       1.24664170E-19
  -14.2200003      -5.60642908E-19
  -14.2100000      -1.32244570E-18
  -14.1999998      -1.93723776E-18
  -14.1899996      -2.14883036E-18
  -14.1800003      -1.74163312E-18
  -14.1700001      -6.25840043E-19
  -14.1599998       1.08974894E-18
  -14.1499996       3.06540024E-18
  -14.1400003       4.76250768E-18
  -14.1300001       5.55038935E-18
  -14.1199999       4.87711852E-18
  -14.1099997       2.46953697E-18
  -14.1000004      -1.49236793E-18
  -14.0900002      -6.28986938E-18
  -14.0799999      -1.07223146E-17
  -14.0699997      -1.33306980E-17
  -14.0600004      -1.27669388E-17
  -14.0500002      -8.23655500E-18
  -14.0400000       1.00457214E-19
  -14.0299997       1.09043961E-17
  -14.0200005       2.17226877E-17
  -14.0100002       2.94070814E-17
  -14.0000000       3.08494495E-17
  -13.9899998       2.39006741E-17
  -13.9799995       8.24832660E-18
  -13.9700003      -1.40142991E-17
  -13.9600000      -3.83701822E-17
  -13.9499998      -5.85513841E-17
  -13.9399996      -6.78749603E-17
  -13.9300003      -6.10176396E-17
  -13.9200001      -3.58272537E-17
  -13.9099998       5.33031464E-18
  -13.8999996       5.51706804E-17
  -13.8900003       1.02356818E-16
  -13.8800001       1.33667159E-16
  -13.8699999       1.37148359E-16
  -13.8599997       1.05599167E-16
  -13.8500004       3.95081875E-17
  -13.8400002      -5.14570166E-17
  -13.8299999      -1.49098339E-16
  -13.8199997      -2.29719915E-16
  -13.8100004      -2.69202105E-16
  -13.8000002      -2.49165859E-16
  -13.7900000      -1.62815204E-16
  -13.7799997      -1.88727097E-17
  -13.7700005       1.57758616E-16
  -13.7600002       3.29361747E-16
  -13.7500000       4.52638843E-16
  -13.7399998       4.88619479E-16
  -13.7299995       4.13165360E-16
  -13.7200003       2.25493273E-16
  -13.7100000      -4.77716524E-17
  -13.6999998      -3.54765377E-16
  -13.6899996      -6.27206139E-16
  -13.6800003      -7.94679747E-16
  -13.6700001      -8.01620282E-16
  -13.6599998      -6.23112747E-16
  -13.6499996      -2.75366917E-16
  -13.6400003       1.82543197E-16
  -13.6300001       6.57345424E-16
  -13.6199999       1.03989843E-15
  -13.6099997       1.22986124E-15
  -13.6000004       1.16130726E-15
  -13.5900002       8.22907067E-16
  -13.5799999       2.66854554E-16
  -13.5699997      -3.97133065E-16
  -13.5600004      -1.02301336E-15
  -13.5500002      -1.46114962E-15
  -13.5400000      -1.59542160E-15
  -13.5299997      -1.37552825E-15
  -13.5200005      -8.35446013E-16
  -13.5100002      -9.16229782E-17
  -13.5000000       6.80831107E-16
  -13.4899998       1.28991715E-15
  -13.4799995       1.57706036E-15
  -13.4700003       1.46303353E-15
  -13.4600000       9.76220295E-16
  -13.4499998       2.53257504E-16
  -13.4399996      -4.91348196E-16
  -13.4300003      -1.02165864E-15
  -13.4200001      -1.14971932E-15
  -13.4099998      -7.99397350E-16
  -13.3999996      -4.51329760E-17
  -13.3900003       8.89384277E-16
  -13.3800001       1.67818074E-15
  -13.3699999       1.97875706E-15
  -13.3599997       1.53754331E-15
  -13.3500004       2.87306270E-16
  -13.3400002      -1.59325574E-15
  -13.3299999      -3.68142881E-15
  -13.3199997      -5.38397901E-15
  -13.3100004      -6.07373488E-15
  -13.3000002      -5.26184829E-15
  -13.2900000      -2.76411182E-15
  -13.2799997       1.18526199E-15
  -13.2700005       5.91199478E-15
  -13.2600002       1.03932620E-14
  -13.2500000       1.34564923E-14
  -13.2399998       1.40506384E-14
  -13.2299995       1.15311830E-14
  -13.2200003       5.88837442E-15
  -13.2100000      -2.14701888E-15
  -13.1999998      -1.11637892E-14
  -13.1899996      -1.93039351E-14
  -13.1800003      -2.46350690E-14
  -13.1700001      -2.55887976E-14
  -13.1599998      -2.13674767E-14
  -13.1499996      -1.22186324E-14
  -13.1400003       5.02612146E-16
  -13.1300001       1.45199591E-14
  -13.1199999       2.70523435E-14
  -13.1099997       3.53847438E-14
  -13.1000004       3.74742114E-14
  -13.0900002       3.24533457E-14
  -13.0799999       2.09055981E-14
  -13.0699997       4.83103547E-15
  -13.0600004      -1.27122434E-14
  -13.0500002      -2.82298836E-14
  -13.0400000      -3.85483441E-14
  -13.0299997      -4.15379265E-14
  -13.0200005      -3.66291233E-14
  -13.0100002      -2.49872314E-14
  -13.0000000      -9.28435778E-15
  -12.9899998       6.89914815E-15
  -12.9799995       1.99182135E-14
  -12.9700003       2.69581110E-14
  -12.9600000       2.67612690E-14
  -12.9499998       1.99928812E-14
  -12.9399996       9.12961164E-15
  -12.9300003      -2.13308138E-15
  -12.9200001      -9.83718061E-15
  -12.9099998      -1.08624344E-14
  -12.8999996      -3.89618512E-15
  -12.8900003       9.99195809E-15
  -12.8800001       2.73578716E-14
  -12.8699999       4.30290501E-14
  -12.8599997       5.12871233E-14
  -12.8500004       4.73404647E-14
  -12.8400002       2.87428806E-14
  -12.8299999      -3.60395070E-15
  -12.8199997      -4.51586807E-14
  -12.8100004      -8.83048314E-14
  -12.8000002      -1.23722633E-13
  -12.7900000      -1.42318544E-13
  -12.7799997      -1.37309028E-13
  -12.7700005      -1.05984842E-13
  -12.7600002      -5.07221083E-14
  -12.7500000       2.10483029E-14
  -12.7399998       9.79788421E-14
  -12.7299995       1.66864339E-13
  -12.7200003       2.15212830E-13
  -12.7100000       2.33782422E-13
  -12.6999998       2.18520094E-13
  -12.6899996       1.71454092E-13
  -12.6800003       1.00312614E-13
  -12.6700001       1.69286294E-14
  -12.6599998      -6.52329482E-14
  -12.6499996      -1.33876254E-13
  -12.6400003      -1.80370245E-13
  -12.6300001      -2.01363015E-13
  -12.6199999      -1.99136145E-13
  -12.6099997      -1.80611629E-13
  -12.6000004      -1.55243968E-13
  -12.5900002      -1.32301329E-13
  -12.5799999      -1.18200670E-13
  -12.5699997      -1.14564947E-13
  -12.5600004      -1.17513895E-13
  -12.5500002      -1.18414352E-13
  -12.5400000      -1.05965597E-13
  -12.5299997      -6.91601724E-14
  -12.5200005      -4.26302683E-16
  -12.5100002       1.01818842E-13
  -12.5000000       2.31863248E-13
  -12.4899998       3.77022903E-13
  -12.4799995       5.19583833E-13
  -12.4700003       6.39943068E-13
  -12.4600000       7.20199453E-13
  -12.4499998       7.47279571E-13
  -12.4399996       7.14736430E-13
  -12.4300003       6.22639527E-13
  -12.4200001       4.75420918E-13
  -12.4099998       2.78072162E-13
  -12.3999996       3.15599970E-14
  -12.3900003      -2.71360788E-13
  -12.3800001      -6.48706945E-13
  -12.3699999      -1.12922757E-12
  -12.3599997      -1.74929212E-12
  -12.3500004      -2.54691147E-12
  -12.3400002      -3.55380894E-12
  -12.3299999      -4.78697160E-12
  -12.3199997      -6.24139022E-12
  -12.3100004      -7.88559149E-12
  -12.3000002      -9.66109137E-12
  -12.2900000      -1.14861254E-11
  -12.2799997      -1.32631449E-11
  -12.2700005      -1.48888263E-11
  -12.2600002      -1.62646788E-11
  -12.2500000      -1.73063838E-11
  -12.2399998      -1.79500685E-11
  -12.2299995      -1.81546896E-11
  -12.2200003      -1.79002872E-11
  -12.2100000      -1.71829911E-11
  -12.1999998      -1.60084012E-11
  -12.1899996      -1.43850921E-11
  -12.1800003      -1.23200330E-11
  -12.1700001      -9.81707337E-12
  -12.1599998      -6.87892234E-12
  -12.1499996      -3.51196806E-12
  -12.1400003       2.67455031E-13
  -12.1300001       4.42704380E-12
  -12.1199999       8.91459562E-12
  -12.1099997       1.36574875E-11
  -12.1000004       1.85660671E-11
  -12.0900002       2.35404665E-11
  -12.0799999       2.84797186E-11
  -12.0699997       3.32912656E-11
  -12.0600004       3.78988715E-11
  -12.0500002       4.22474868E-11
  -12.0400000       4.63038288E-11
  -12.0299997       5.00529028E-11
  -12.0200005       5.34910310E-11
  -12.0100002       5.66170721E-11
  -12.0000000       5.94235425E-11
  -11.9899998       6.18894797E-11
  -11.9799995       6.39764353E-11
  -11.9700003       6.56281696E-11
  -11.9600000       6.67740932E-11
  -11.9499998       6.73355885E-11
  -11.9399996       6.72339684E-11
  -11.9300003       6.63984145E-11
  -11.9200001       6.47725346E-11
  -11.9099998       6.23188515E-11
  -11.8999996       5.90200597E-11
  -11.8900003       5.48776163E-11
  -11.8800001       4.99082928E-11
  -11.8699999       4.41393519E-11
  -11.8599997       3.76037708E-11
  -11.8500004       3.03364070E-11
  -11.8400002       2.23717590E-11
  -11.8299999       1.37440224E-11
  -11.8199997       4.48867202E-12
  -11.8100004      -5.35424396E-12
  -11.8000002      -1.57370107E-11
  -11.7900000      -2.66008101E-11
  -11.7799997      -3.78741448E-11
  -11.7700005      -4.94729015E-11
  -11.7600002      -6.13019982E-11
  -11.7500000      -7.32587532E-11
  -11.7399998      -8.52368384E-11
  -11.7299995      -9.71300193E-11
  -11.7200003      -1.08835246E-10
  -11.7100000      -1.20254334E-10
  -11.6999998      -1.31294017E-10
  -11.6899996      -1.41864784E-10
  -11.6800003      -1.51879009E-10
  -11.6700001      -1.61248861E-10
  -11.6599998      -1.69884953E-10
  -11.6499996      -1.77695636E-10
  -11.6400003      -1.84587554E-10
  -11.6300001      -1.90466892E-10
  -11.6199999      -1.95240796E-10
  -11.6099997      -1.98819378E-10
  -11.6000004      -2.01117484E-10
  -11.5900002      -2.02055941E-10
  -11.5799999      -2.01563793E-10
  -11.5699997      -1.99579617E-10
  -11.5600004      -1.96054395E-10
  -11.5500002      -1.90953989E-10
  -11.5400000      -1.84260995E-10
  -11.5299997      -1.75975623E-10
  -11.5200005      -1.66114400E-10
  -11.5100002      -1.54706012E-10
  -11.5000000      -1.41783960E-10
  -11.4899998      -1.27378288E-10
  -11.4799995      -1.11505812E-10
  -11.4700003      -9.41630940E-11
  -11.4600000      -7.53228938E-11
  -11.4499998      -5.49355943E-11
  -11.4399996      -3.29383430E-11
  -11.4300003      -9.26775410E-12
  -11.4200001       1.61221453E-11
  -11.4099998       4.32441687E-11
  -11.3999996       7.20638688E-11
  -11.3900003       1.02493868E-10
  -11.3800001       1.34394537E-10
  -11.3699999       1.67584738E-10
  -11.3599997       2.01858696E-10
  -11.3500004       2.37007303E-10
  -11.3400002       2.72837364E-10
  -11.3299999       3.09188675E-10
  -11.3199997       3.45942414E-10
  -11.3100004       3.83021753E-10
  -11.3000002       4.20384449E-10
  -11.2900000       4.58009908E-10
  -11.2799997       4.95883556E-10
  -11.2700005       5.33982358E-10
  -11.2600002       5.72264014E-10
  -11.2500000       6.10662076E-10
  -11.2399998       6.49086174E-10
  -11.2299995       6.87427837E-10
  -11.2200003       7.25568217E-10
  -11.2100000       7.63386243E-10
  -11.1999998       8.00764899E-10
  -11.1899996       8.37593939E-10
  -11.1800003       8.73770445E-10
  -11.1700001       9.09195497E-10
  -11.1599998       9.43769174E-10
  -11.1499996       9.77390502E-10
  -11.1400003       1.00995556E-09
  -11.1300001       1.04136133E-09
  -11.1199999       1.07151421E-09
  -11.1099997       1.10034082E-09
  -11.1000004       1.12780008E-09
  -11.0900002       1.15389631E-09
  -11.0799999       1.17868293E-09
  -11.0699997       1.20227439E-09
  -11.0600004       1.22483446E-09
  -11.0500002       1.24656951E-09
  -11.0400000       1.26771149E-09
  -11.0299997       1.28849631E-09
  -11.0200005       1.30913647E-09
  -11.0100002       1.32980293E-09
  -11.0000000       1.35060241E-09
  -10.9899998       1.37157519E-09
  -10.9799995       1.39269363E-09
  -10.9700003       1.41386913E-09
  -10.9600000       1.43498058E-09
  -10.9499998       1.45589374E-09
  -10.9399996       1.47649604E-09
  -10.9300003       1.49670942E-09
  -10.9200001       1.51651769E-09
  -10.9099998       1.53595825E-09
  -10.8999996       1.55512792E-09
  -10.8900003       1.57415836E-09
  -10.8800001       1.59319802E-09
  -10.8699999       1.61239089E-09
  -10.8599997       1.63185065E-09
  -10.8500004       1.65165437E-09
  -10.8400002       1.67183178E-09
  -10.8299999       1.69237380E-09
  -10.8199997       1.71323633E-09
  -10.8100004       1.73435066E-09
  -10.8000002       1.75563108E-09
  -10.7900000       1.77699311E-09
  -10.7799997       1.79833404E-09
  -10.7700005       1.81954518E-09
  -10.7600002       1.84051385E-09
  -10.7500000       1.86111415E-09
  -10.7399998       1.88121674E-09
  -10.7299995       1.90070160E-09
  -10.7200003       1.91946503E-09
  -10.7100000       1.93743599E-09
  -10.6999998       1.95458827E-09
  -10.6899996       1.97094319E-09
  -10.6800003       1.98656491E-09
  -10.6700001       2.00156935E-09
  -10.6599998       2.01607309E-09
  -10.6499996       2.03021000E-09
  -10.6400003       2.04408290E-09
  -10.6300001       2.05777595E-09
  -10.6199999       2.07133177E-09
  -10.6099997       2.08474793E-09
  -10.6000004       2.09800044E-09
  -10.5900002       2.11103357E-09
  -10.5799999       2.12379425E-09
  -10.5699997       2.13624585E-09
  -10.5600004       2.14837415E-09
  -10.5500002       2.16019624E-09
  -10.5400000       2.17178364E-09
  -10.5299997       2.18326712E-09
  -10.5200005       2.19479657E-09
  -10.5100002       2.20657004E-09
  -10.5000000       2.21881225E-09
  -10.4899998       2.23172592E-09
  -10.4799995       2.24549712E-09
  -10.4700003       2.26027841E-09
  -10.4600000       2.27616703E-09
  -10.4499998       2.29320074E-09
  -10.4399996       2.31137620E-09
  -10.4300003       2.33065145E-09
  -10.4200001       2.35097408E-09
  -10.4099998       2.37227904E-09
  -10.3999996       2.39450837E-09
  -10.3900003       2.41762632E-09
  -10.3800001       2.44159248E-09
  -10.3699999       2.46634246E-09
  -10.3599997       2.49178678E-09
  -10.3500004       2.51780952E-09
  -10.3400002       2.54424948E-09
  -10.3299999       2.57094057E-09
  -10.3199997       2.59772359E-09
  -10.3100004       2.62447553E-09
  -10.3000002       2.65112465E-09
  -10.2900000       2.67771050E-09
  -10.2799997       2.70433564E-09
  -10.2700005       2.73118084E-09
  -10.2600002       2.75846679E-09
  -10.2500000       2.78642953E-09
  -10.2399998       2.81530799E-09
  -10.2299995       2.84530688E-09
  -10.2200003       2.87657831E-09
  -10.2100000       2.90926550E-09
  -10.1999998       2.94346947E-09
  -10.1899996       2.97928904E-09
  -10.1800003       3.01679415E-09
  -10.1700001       3.05603076E-09
  -10.1599998       3.09702375E-09
  -10.1499996       3.13975645E-09
  -10.1400003       3.18415649E-09
  -10.1300001       3.23011617E-09
  -10.1199999       3.27750715E-09
  -10.1099997       3.32621619E-09
  -10.1000004       3.37617467E-09
  -10.0900002       3.42735773E-09
  -10.0799999       3.47980467E-09
  -10.0699997       3.53363183E-09
  -10.0600004       3.58897445E-09
  -10.0500002       3.64599684E-09
  -10.0400000       3.70484354E-09
  -10.0299997       3.76564335E-09
  -10.0200005       3.82849574E-09
  -10.0100002       3.89350108E-09
  -10.0000000       3.96077038E-09
  -9.98999977       4.03043909E-09
  -9.97999954       4.10268619E-09
  -9.97000027       4.17768264E-09
  -9.96000004       4.25560387E-09
  -9.94999981       4.33656799E-09
  -9.93999958       4.42058923E-09
  -9.93000031       4.50757787E-09
  -9.92000008       4.59735228E-09
  -9.90999985       4.68964068E-09
  -9.89999962       4.78418904E-09
  -9.89000034       4.88078467E-09
  -9.88000011       4.97927832E-09
  -9.86999989       5.07969400E-09
  -9.85999966       5.18213961E-09
  -9.85000038       5.28683097E-09
  -9.84000015       5.39403100E-09
  -9.82999992       5.50400348E-09
  -9.81999969       5.61697222E-09
  -9.81000042       5.73308778E-09
  -9.80000019       5.85249715E-09
  -9.78999996       5.97530470E-09
  -9.77999973       6.10165785E-09
  -9.77000046       6.23172358E-09
  -9.76000023       6.36575503E-09
  -9.75000000       6.50403376E-09
  -9.73999977       6.64686572E-09
  -9.72999954       6.79456402E-09
  -9.72000027       6.94738711E-09
  -9.71000004       7.10555081E-09
  -9.69999981       7.26923943E-09
  -9.68999958       7.43861861E-09
  -9.68000031       7.61382779E-09
  -9.67000008       7.79507214E-09
  -9.65999985       7.98251243E-09
  -9.64999962       8.17632273E-09
  -9.64000034       8.37655723E-09
  -9.63000011       8.58314575E-09
  -9.61999989       8.79586448E-09
  -9.60999966       9.01420272E-09
  -9.60000038       9.23743926E-09
  -9.59000015       9.46466550E-09
  -9.57999992       9.69484759E-09
  -9.56999969       9.92683713E-09
  -9.56000042       1.01595052E-08
  -9.55000019       1.03917293E-08
  -9.53999996       1.06224469E-08
  -9.52999973       1.08505915E-08
  -9.52000046       1.10750680E-08
  -9.51000023       1.12947358E-08
  -9.50000000       1.15084431E-08
  -9.48999977       1.17149703E-08
  -9.47999954       1.19131185E-08
  -9.47000027       1.21018102E-08
  -9.46000004       1.22800650E-08
  -9.44999981       1.24470914E-08
  -9.43999958       1.26023769E-08
  -9.43000031       1.27456268E-08
  -9.42000008       1.28767725E-08
  -9.40999985       1.29958888E-08
  -9.39999962       1.31033318E-08
  -9.39000034       1.31995579E-08
  -9.38000011       1.32851961E-08
  -9.36999989       1.33610625E-08
  -9.35999966       1.34282097E-08
  -9.35000038       1.34879619E-08
  -9.34000015       1.35418503E-08
  -9.32999992       1.35915705E-08
  -9.31999969       1.36390650E-08
  -9.31000042       1.36863294E-08
  -9.30000019       1.37354110E-08
  -9.28999996       1.37884131E-08
  -9.27999973       1.38474574E-08
  -9.27000046       1.39146925E-08
  -9.26000023       1.39923371E-08
  -9.25000000       1.40826772E-08
  -9.23999977       1.41880250E-08
  -9.22999954       1.43107499E-08
  -9.22000027       1.44530912E-08
  -9.21000004       1.46171804E-08
  -9.19999981       1.48047974E-08
  -9.18999958       1.50174309E-08
  -9.18000031       1.52561945E-08
  -9.17000008       1.55218629E-08
  -9.15999985       1.58148072E-08
  -9.14999962       1.61351821E-08
  -9.14000034       1.64828560E-08
  -9.13000011       1.68575092E-08
  -9.11999989       1.72587065E-08
  -9.10999966       1.76858101E-08
  -9.10000038       1.81378059E-08
  -9.09000015       1.86134859E-08
  -9.07999992       1.91112832E-08
  -9.06999969       1.96294376E-08
  -9.06000042       2.01659613E-08
  -9.05000019       2.07187902E-08
  -9.03999996       2.12857394E-08
  -9.02999973       2.18647163E-08
  -9.02000046       2.24536727E-08
  -9.01000023       2.30503936E-08
  -9.00000000       2.36528361E-08
  -8.98999977       2.42585898E-08
  -8.97999954       2.48652068E-08
  -8.97000027       2.54699941E-08
  -8.96000004       2.60701061E-08
  -8.94999981       2.66626827E-08
  -8.93999958       2.72448766E-08
  -8.93000031       2.78139716E-08
  -8.92000008       2.83674382E-08
  -8.90999985       2.89029529E-08
  -8.89999962       2.94183415E-08
  -8.89000034       2.99115719E-08
  -8.88000011       3.03806935E-08
  -8.86999989       3.08237524E-08
  -8.85999966       3.12389936E-08
  -8.85000038       3.16247508E-08
  -8.84000015       3.19793756E-08
  -8.82999992       3.23016280E-08
  -8.81999969       3.25902825E-08
  -8.81000042       3.28444862E-08
  -8.80000019       3.30633334E-08
  -8.78999996       3.32461809E-08
  -8.77999973       3.33924390E-08
  -8.77000046       3.35016530E-08
  -8.76000023       3.35733468E-08
  -8.75000000       3.36075203E-08
  -8.73999977       3.36043513E-08
  -8.72999954       3.35645964E-08
  -8.72000027       3.34891581E-08
  -8.71000004       3.33795107E-08
  -8.69999981       3.32373489E-08
  -8.68999958       3.30644916E-08
  -8.68000031       3.28628786E-08
  -8.67000008       3.26344463E-08
  -8.65999985       3.23811342E-08
  -8.64999962       3.21050351E-08
  -8.64000034       3.18083941E-08
  -8.63000011       3.14933892E-08
  -8.61999989       3.11627311E-08
  -8.60999966       3.08189705E-08
  -8.60000038       3.04647472E-08
  -8.59000015       3.01027647E-08
  -8.57999992       2.97353822E-08
  -8.56999969       2.93648554E-08
  -8.56000042       2.89930853E-08
  -8.55000019       2.86216526E-08
  -8.53999996       2.82521899E-08
  -8.52999973       2.78861894E-08
  -8.52000046       2.75251519E-08
  -8.51000023       2.71705360E-08
  -8.50000000       2.68236668E-08
  -8.48999977       2.64856634E-08
  -8.47999954       2.61574584E-08
  -8.47000027       2.58399044E-08
  -8.46000004       2.55331205E-08
  -8.44999981       2.52373553E-08
  -8.43999958       2.49524845E-08
  -8.43000031       2.46785383E-08
  -8.42000008       2.44155007E-08
  -8.40999985       2.41633309E-08
  -8.39999962       2.39222366E-08
  -8.39000034       2.36921114E-08
  -8.38000011       2.34729374E-08
  -8.36999989       2.32644410E-08
  -8.35999966       2.30662778E-08
  -8.35000038       2.28779928E-08
  -8.34000015       2.26992576E-08
  -8.32999992       2.25296972E-08
  -8.31999969       2.23693934E-08
  -8.31000042       2.22186749E-08
  -8.30000019       2.20776961E-08
  -8.28999996       2.19471552E-08
  -8.27999973       2.18273044E-08
  -8.27000046       2.17187139E-08
  -8.26000023       2.16216769E-08
  -8.25000000       2.15364810E-08
  -8.23999977       2.14631619E-08
  -8.22999954       2.14020872E-08
  -8.22000027       2.13539089E-08
  -8.21000004       2.13193339E-08
  -8.19999981       2.12990763E-08
  -8.18999958       2.12944098E-08
  -8.18000031       2.13061906E-08
  -8.17000008       2.13354863E-08
  -8.15999985       2.13832188E-08
  -8.14999962       2.14500258E-08
  -8.14000034       2.15366942E-08
  -8.13000011       2.16439364E-08
  -8.11999989       2.17728751E-08
  -8.10999966       2.19243930E-08
  -8.10000038       2.20999556E-08
  -8.09000015       2.23008492E-08
  -8.07999992       2.25284520E-08
  -8.06999969       2.27839276E-08
  -8.06000042       2.30684041E-08
  -8.05000019       2.33827180E-08
  -8.03999996       2.37275568E-08
  -8.02999973       2.41036684E-08
  -8.02000046       2.45114560E-08
  -8.01000023       2.49514063E-08
  -8.00000000       2.54242636E-08
  -7.98999977       2.59303814E-08
  -7.98000002       2.64703122E-08
  -7.96999979       2.70443259E-08
  -7.96000004       2.76524084E-08
  -7.94999981       2.82944477E-08
  -7.94000006       2.89699038E-08
  -7.92999983       2.96781906E-08
  -7.92000008       3.04187395E-08
  -7.90999985       3.11907726E-08
  -7.90000010       3.19937996E-08
  -7.88999987       3.28272698E-08
  -7.88000011       3.36906680E-08
  -7.86999989       3.45835360E-08
  -7.86000013       3.55050744E-08
  -7.84999990       3.64544093E-08
  -7.84000015       3.74305920E-08
  -7.82999992       3.84322156E-08
  -7.82000017       3.94577988E-08
  -7.80999994       4.05056682E-08
  -7.80000019       4.15739443E-08
  -7.78999996       4.26611741E-08
  -7.78000021       4.37654037E-08
  -7.76999998       4.48848958E-08
  -7.76000023       4.60178278E-08
  -7.75000000       4.71623700E-08
  -7.73999977       4.83165010E-08
  -7.73000002       4.94783450E-08
  -7.71999979       5.06459656E-08
  -7.71000004       5.18172705E-08
  -7.69999981       5.29904796E-08
  -7.69000006       5.41637064E-08
  -7.67999983       5.53351924E-08
  -7.67000008       5.65034064E-08
  -7.65999985       5.76669912E-08
  -7.65000010       5.88245577E-08
  -7.63999987       5.99753491E-08
  -7.63000011       6.11181221E-08
  -7.61999989       6.22520844E-08
  -7.61000013       6.33765680E-08
  -7.59999990       6.44908908E-08
  -7.59000015       6.55946337E-08
  -7.57999992       6.66879814E-08
  -7.57000017       6.77707277E-08
  -7.55999994       6.88433772E-08
  -7.55000019       6.99064842E-08
  -7.53999996       7.09605459E-08
  -7.53000021       7.20066140E-08
  -7.51999998       7.30456904E-08
  -7.51000023       7.40788551E-08
  -7.50000000       7.51069891E-08
  -7.48999977       7.61311796E-08
  -7.48000002       7.71525492E-08
  -7.46999979       7.81719152E-08
  -7.46000004       7.91900447E-08
  -7.44999981       8.02084159E-08
  -7.44000006       8.12280234E-08