  -16.0000000       0.00000000    
  -15.9899998       0.00000000    
  -15.9799995       0.00000000    
  -15.9700003       0.00000000    
  -15.9600000       0.00000000    
  -15.9499998       0.00000000    
  -15.9399996       0.00000000    
  -15.9300003       0.00000000    
  -15.9200001       0.00000000    
  -15.9099998       0.00000000    
  -15.8999996       0.00000000    
  -15.8900003       0.00000000    
  -15.8800001       0.00000000    
  -15.8699999      -0.00000000    
  -15.8599997      -0.00000000    
  -15.8500004      -1.40129846E-45
  -15.8400002      -1.40129846E-44
  -15.8299999      -1.34524653E-43
  -15.8199997      -1.04256606E-42
  -15.8100004      -6.67718718E-42
  -15.8000002      -3.65893042E-41
  -15.7900000      -1.75448173E-40
  -15.7799997      -7.48076179E-40
  -15.7700005      -2.87097609E-39
  -15.7600002      -1.00116455E-38
  -15.7500000      -3.19593412E-38
  -15.7399998      -9.39401568E-38
  -15.7299995      -2.55419335E-37
  -15.7200003      -6.44617114E-37
  -15.7100000      -1.51366816E-36
  -15.6999998      -3.31130495E-36
  -15.6899996      -6.74876102E-36
  -15.6800003      -1.27949590E-35
  -15.6700001      -2.24808000E-35
  -15.6599998      -3.63395383E-35
  -15.6499996      -5.33099028E-35
  -15.6400003      -6.90627899E-35
  -15.6300001      -7.40760494E-35
  -15.6199999      -5.24250391E-35
  -15.6099997       1.69226761E-35
  -15.6000004       1.53898728E-34
  -15.5900002       3.64102717E-34
  -15.5799999       6.18630351E-34
  -15.5699997       8.31877883E-34
  -15.5600004       8.49450972E-34
  -15.5500002       4.65496084E-34
  -15.5400000      -5.09257948E-34
  -15.5299997      -2.11811354E-33
  -15.5200005      -4.08688713E-33
  -15.5100002      -5.67825558E-33
  -15.5000000      -5.69313624E-33
  -15.4899998      -2.76423888E-33
  -15.4799995       3.96612786E-33
  -15.4700003       1.38636129E-32
  -15.4600000       2.38807452E-32
  -15.4499998       2.83723929E-32
  -15.4399996       2.04518208E-32
  -15.4300003      -4.63116048E-33
  -15.4200001      -4.45851107E-32
  -15.4099998      -8.56854684E-32
  -15.3999996      -1.02455935E-31
  -15.3900003      -6.53288332E-32
  -15.3800001       4.20035987E-32
  -15.3699999       1.99333491E-31
  -15.3599997       3.32397124E-31
  -15.3500004       3.19217152E-31
  -15.3400002       3.77242997E-32
  -15.3299999      -5.42228508E-31
  -15.3199997      -1.24910682E-30
  -15.3100004      -1.64651437E-30
  -15.3000002      -1.10640180E-30
  -15.2900000       9.07563171E-31
  -15.2799997       4.35597431E-30
  -15.2700005       8.09970226E-30
  -15.2600002       9.66948262E-30
  -15.2500000       5.75603059E-30
  -15.2399998      -6.27045362E-30
  -15.2299995      -2.59316837E-29
  -15.2200003      -4.71361995E-29
  -15.2100000      -5.71881184E-29
  -15.1999998      -3.92436393E-29
  -15.1899996       2.04765368E-29
  -15.1800003       1.21370564E-28
  -15.1700001       2.36781194E-28
  -15.1599998       3.08876937E-28
  -15.1499996       2.58338224E-28
  -15.1400003       1.44353610E-29
  -15.1300001      -4.36892008E-28
  -15.1199999      -1.00168570E-27
  -15.1099997      -1.45059031E-27
  -15.1000004      -1.44818405E-27
  -15.0900002      -6.62323263E-28
  -15.0799999       1.05220053E-27
  -15.0699997       3.44636035E-27
  -15.0600004       5.74280339E-27
  -15.0500002       6.69440152E-27
  -15.0400000       4.92683502E-27
  -15.0299997      -4.37578506E-28
  -15.0200005      -9.02696230E-27
  -15.0100002      -1.86472066E-26
  -15.0000000      -2.52858331E-26
  -14.9899998      -2.40201690E-26
  -14.9799995      -1.08837198E-26
  -14.9700003       1.47047263E-26
  -14.9600000       4.78336349E-26
  -14.9499998       7.74988232E-26
  -14.9399996       8.85659685E-26
  -14.9300003       6.66386244E-26
  -14.9200001       4.95355383E-27
  -14.9099998      -8.89450038E-26
  -14.8999996      -1.89925116E-25
  -14.8900003      -2.58382737E-25
  -14.8800001      -2.51103030E-25
  -14.8699999      -1.38248884E-25
  -14.8599997       7.85537336E-26
  -14.8500004       3.54485445E-25
  -14.8400002       6.03535341E-25
  -14.8299999       7.18177242E-25
  -14.8199997       6.04327012E-25
  -14.8100004       2.21936944E-25
  -14.8000002      -3.83469600E-25
  -14.7900000      -1.07290812E-24
  -14.7799997      -1.63770344E-24
  -14.7700005      -1.85151354E-24
  -14.7600002      -1.53553994E-24
  -14.7500000      -6.15889988E-25
  -14.7399998       8.43863739E-25
  -14.7299995       2.63833642E-24
  -14.7200003       4.43160402E-24
  -14.7100000       5.76474385E-24
  -14.6999998       6.05337583E-24
  -14.6899996       4.60329329E-24
  -14.6800003       7.13335066E-25
  -14.6700001      -6.04798909E-24
  -14.6599998      -1.53483176E-23
  -14.6499996      -2.54601386E-23
  -14.6400003      -3.27606803E-23
  -14.6300001      -3.18101975E-23
  -14.6199999      -1.65042497E-23
  -14.6099997       1.74164537E-23
  -14.6000004       6.87566495E-23
  -14.5900002       1.27216518E-22
  -14.5799999       1.71561444E-22
  -14.5699997       1.71846987E-22
  -14.5600004       9.74114602E-23
  -14.5500002      -6.93761262E-23
  -14.5400000      -3.16425892E-22
  -14.5299997      -5.88267486E-22
  -14.5200005      -7.83598332E-22
  -14.5100002      -7.71885022E-22
  -14.5000000      -4.32725169E-22
  -14.4899998       2.86434966E-22
  -14.4799995       1.30918518E-21
  -14.4700003       2.39015191E-21
  -14.4600000       3.12446938E-21
  -14.4499998       3.02866325E-21
  -14.4399996       1.69592705E-21
  -14.4300003      -1.00071840E-21
  -14.4200001      -4.71653296E-21
  -14.4099998      -8.53722124E-21
  -14.3999996      -1.10588135E-20
  -14.3900003      -1.06964413E-20
  -14.3800001      -6.20584257E-21
  -14.3699999       2.68889780E-21
  -14.3599997       1.47552623E-20
  -14.3500004       2.70426975E-20
  -14.3400002       3.52223845E-20
  -14.3299999       3.45783339E-20
  -14.3199997       2.15498725E-20
  -14.3100004      -4.51748213E-21
  -14.3000002      -3.99653573E-20
  -14.2900000      -7.63980912E-20
  -14.2799997      -1.01764250E-19
  -14.2700005      -1.03122791E-19
  -14.2600002      -7.07423084E-20
  -14.2500000      -2.59096879E-21
  -14.2399998       9.21881613E-20
  -14.2299995       1.92349310E-19
  -14.2200003       2.67340690E-19
  -14.2100000       2.84128372E-19
  -14.1999998       2.17098515E-19
  -14.1899996       5.87691146E-20
  -14.1800003      -1.71923377E-19
  -14.1700001      -4.27185537E-19
  -14.1599998      -6.36321301E-19
  -14.1499996      -7.20680023E-19
  -14.1400003      -6.15512332E-19
  -14.1300001      -2.93898280E-19
  -14.1199999       2.14058484E-19
  -14.1099997       8.13932643E-19
  -14.1000004       1.35698969E-18
  -14.0900002       1.66906457E-18
  -14.0799999       1.59460694E-18
  -14.0699997       1.04676791E-18
  -14.0600004       5.04211917E-20
  -14.0500002      -1.23605082E-18
  -14.0400000      -2.53155525E-18
  -14.0299997      -3.48031156E-18
  -14.0200005      -3.73226705E-18
  -14.0100002      -3.04091611E-18
  -14.0000000      -1.35545238E-18
  -13.9899998       1.11923244E-18
  -13.9799995       3.91803775E-18
  -13.9700003       6.37991213E-18
  -13.9600000       7.77849877E-18
  -13.9499998       7.49867680E-18
  -13.9399996       5.22225549E-18
  -13.9300003       1.07616642E-18
  -13.9200001      -4.30317222E-18
  -13.9099998      -9.82335625E-18
  -13.8999996      -1.41179547E-17
  -13.8900003      -1.58367070E-17
  -13.8800001      -1.39919751E-17
  -13.8699999      -8.28456373E-18
  -13.8599997       6.78327600E-19
  -13.8500004       1.13504797E-17
  -13.8400002       2.14453092E-17
  -13.8299999       2.83619089E-17
  -13.8199997       2.97755507E-17
  -13.8100004       2.42746954E-17
  -13.8000002       1.18906303E-17
  -13.7900000      -5.63720940E-18
  -13.7799997      -2.49799562E-17
  -13.7700005      -4.17651168E-17
  -13.7600002      -5.14889623E-17
  -13.7500000      -5.06267357E-17
  -13.7399998      -3.76873810E-17
  -13.7299995      -1.39265054E-17
  -13.7200003       1.65302119E-17
  -13.7100000       4.72875003E-17
  -13.6999998       7.09678217E-17
  -13.6899996       8.09553725E-17
  -13.6800003       7.32026122E-17
  -13.6700001       4.76217176E-17
  -13.6599998       8.61883652E-18
  -13.6499996      -3.55041536E-17
  -13.6400003      -7.42833403E-17
  -13.6300001      -9.76456405E-17
  -13.6199999      -9.86833221E-17
  -13.6099997      -7.58970174E-17
  -13.6000004      -3.41913783E-17
  -13.5900002       1.58414914E-17
  -13.5799999       6.03881552E-17
  -13.5699997       8.61590995E-17
  -13.5600004       8.44913843E-17
  -13.5500002       5.46329104E-17
  -13.5400000       5.08545347E-18
  -13.5299997      -4.77223259E-17
  -13.5200005      -8.34835210E-17
  -13.5100002      -8.40263433E-17
  -13.5000000      -3.98097610E-17
  -13.4899998       4.49968452E-17
  -13.4799995       1.50680689E-16
  -13.4700003       2.44614248E-16
  -13.4600000       2.88479172E-16
  -13.4499998       2.48900949E-16
  -13.4399996       1.09083477E-16
  -13.4300003      -1.21733511E-16
  -13.4200001      -4.04189220E-16
  -13.4099998      -6.72411123E-16
  -13.3999996      -8.45964045E-16
  -13.3900003      -8.48616369E-16
  -13.3800001      -6.30239682E-16
  -13.3699999      -1.86587700E-16
  -13.3599997       4.28763710E-16
  -13.3500004       1.10506724E-15
  -13.3400002       1.69001401E-15
  -13.3299999       2.01923824E-15
  -13.3199997       1.95487475E-15
  -13.3100004       1.42512372E-15
  -13.3000002       4.55060192E-16
  -13.2900000      -8.20611660E-16
  -13.2799997      -2.16926790E-15
  -13.2700005      -3.29796386E-15
  -13.2600002      -3.91214364E-15
  -13.2500000      -3.78467662E-15
  -13.2399998      -2.82015173E-15
  -13.2299995      -1.09809404E-15
  -13.2200003       1.11859086E-15
  -13.2100000       3.41721551E-15
  -13.1999998       5.30904200E-15
  -13.1899996       6.33116894E-15
  -13.1800003       6.15603217E-15
  -13.1700001       4.68332987E-15
  -13.1599998       2.09008831E-15
  -13.1499996      -1.17832384E-15
  -13.1400003      -4.48122908E-15
  -13.1300001      -7.10964558E-15
  -13.1199999      -8.44286274E-15
  -13.1099997      -8.10013288E-15
  -13.1000004      -6.05037328E-15
  -13.0900002      -2.64908284E-15
  -13.0799999       1.41371938E-15
  -13.0699997       5.25049593E-15
  -13.0600004       7.97279502E-15
  -13.0500002       8.90490820E-15
  -13.0400000       7.76382014E-15
  -13.0299997       4.75817963E-15
  -13.0200005       5.74671515E-16
  -13.0100002      -3.75493432E-15
  -13.0000000      -7.08397286E-15
  -12.9899998      -8.43039780E-15
  -12.9799995      -7.24134650E-15
  -12.9700003      -3.57662711E-15
  -12.9600000       1.84104475E-15
  -12.9499998       7.73338709E-15
  -12.9399996       1.25201024E-14
  -12.9300003       1.46715542E-14
  -12.9200001       1.30864185E-14
  -12.9099998       7.40858977E-15
  -12.8999996      -1.79464216E-15
  -12.8900003      -1.30451595E-14
  -12.8800001      -2.41697734E-14
  -12.8699999      -3.26873436E-14
  -12.8599997      -3.62959818E-14
  -12.8500004      -3.33635538E-14
  -12.8400002      -2.33196065E-14
  -12.8299999      -6.86346266E-15
  -12.8199997       1.40610874E-14
  -12.8100004       3.65270558E-14
  -12.8000002       5.70753636E-14
  -12.7900000       7.22706671E-14
  -12.7799997       7.92553618E-14
  -12.7700005       7.61966377E-14
  -12.7600002       6.25463223E-14
  -12.7500000       3.90747920E-14
  -12.7399998       7.69107356E-15
  -12.7299995      -2.88920838E-14
  -12.7200003      -6.75559733E-14
  -12.7100000      -1.05134902E-13
  -12.6999998      -1.38650918E-13
  -12.6899996      -1.65378209E-13
  -12.6800003      -1.82746884E-13
  -12.6700001      -1.88152431E-13
  -12.6599998      -1.78782499E-13
  -12.6499996      -1.51589827E-13
  -12.6400003      -1.03526298E-13
  -12.6300001      -3.21003193E-14
  -12.6199999       6.37607642E-14
  -12.6099997       1.82650322E-13
  -12.6000004       3.19620334E-13
  -12.5900002       4.65365376E-13
  -12.5799999       6.05910233E-13
  -12.5699997       7.23014855E-13
  -12.5600004       7.95404703E-13
  -12.5500002       8.00806687E-13
  -12.5400000       7.18616085E-13
  -12.5299997       5.32892578E-13
  -12.5200005       2.35302934E-13
  -12.5100002      -1.72391994E-13
  -12.5000000      -6.76648841E-13
  -12.4899998      -1.25147798E-12
  -12.4799995      -1.85887156E-12
  -12.4700003      -2.45023186E-12
  -12.4600000      -2.96857894E-12
  -12.4499998      -3.35123509E-12
  -12.4399996      -3.53270820E-12
  -12.4300003      -3.44753913E-12
  -12.4200001      -3.03301134E-12
  -12.4099998      -2.23172219E-12
  -12.3999996      -9.94136847E-13
  -12.3900003       7.18749170E-13
  -12.3800001       2.93253659E-12
  -12.3699999       5.65632003E-12
  -12.3599997       8.87956202E-12
  -12.3500004       1.25692113E-11
  -12.3400002       1.66674782E-11
  -12.3299999       2.10907472E-11
  -12.3199997       2.57299546E-11
  -12.3100004       3.04526890E-11
  -12.3000002       3.51070006E-11
  -12.2900000       3.95266458E-11
  -12.2799997       4.35373924E-11
  -12.2700005       4.69637593E-11
  -12.2600002       4.96356463E-11
  -12.2500000       5.13944338E-11
  -12.2399998       5.20981522E-11
  -12.2299995       5.16256309E-11
  -12.2200003       4.98797080E-11
  -12.2100000       4.67898914E-11
  -12.1999998       4.23143048E-11
  -12.1899996       3.64413603E-11
  -12.1800003       2.91909726E-11
  -12.1700001       2.06152959E-11
  -12.1599998       1.07985990E-11
  -12.1499996      -1.44215328E-13
  -12.1400003      -1.20704280E-11
  -12.1300001      -2.48140605E-11
  -12.1199999      -3.81919045E-11
  -12.1099997      -5.20106319E-11
  -12.1000004      -6.60743613E-11
  -12.0900002      -8.01919434E-11
  -12.0799999      -9.41829739E-11
  -12.0699997      -1.07881995E-10
  -12.0600004      -1.21140445E-10
  -12.0500002      -1.33826089E-10
  -12.0400000      -1.45820564E-10
  -12.0299997      -1.57014984E-10
  -12.0200005      -1.67304781E-10
  -12.0100002      -1.76584372E-10
  -12.0000000      -1.84742568E-10
  -11.9899998      -1.91658772E-10
  -11.9799995      -1.97200839E-10
  -11.9700003      -2.01224676E-10
  -11.9600000      -2.03575101E-10
  -11.9499998      -2.04088468E-10
  -11.9399996      -2.02596856E-10
  -11.9300003      -1.98933009E-10
  -11.9200001      -1.92937166E-10
  -11.9099998      -1.84463819E-10
  -11.8999996      -1.73390358E-10
  -11.8900003      -1.59625368E-10
  -11.8800001      -1.43116727E-10
  -11.8699999      -1.23858743E-10
  -11.8599997      -1.01897241E-10
  -11.8500004      -7.73319325E-11
  -11.8400002      -5.03159701E-11
  -11.8299999      -2.10515199E-11
  -11.8199997       1.02176679E-11
  -11.8100004       4.32151502E-11
  -11.8000002       7.76431766E-11
  -11.7900000       1.13192580E-10
  -11.7799997       1.49552259E-10
  -11.7700005       1.86415522E-10
  -11.7600002       2.23484023E-10
  -11.7500000       2.60468452E-10
  -11.7399998       2.97087022E-10
  -11.7299995       3.33062522E-10
  -11.7200003       3.68119063E-10
  -11.7100000       4.01979006E-10
  -11.6999998       4.34362019E-10
  -11.6899996       4.64984634E-10
  -11.6800003       4.93561469E-10
  -11.6700001       5.19808030E-10
  -11.6599998       5.43442957E-10
  -11.6499996       5.64190916E-10
  -11.6400003       5.81784676E-10
  -11.6300001       5.95966776E-10
  -11.6199999       6.06490469E-10
  -11.6099997       6.13122053E-10
  -11.6000004       6.15641094E-10
  -11.5900002       6.13842588E-10
  -11.5799999       6.07542239E-10
  -11.5699997       5.96576843E-10
  -11.5600004       5.80811343E-10
  -11.5500002       5.60140712E-10
  -11.5400000       5.34493949E-10
  -11.5299997       5.03837139E-10
  -11.5200005       4.68173555E-10
  -11.5100002       4.27542113E-10
  -11.5000000       3.82014698E-10
  -11.4899998       3.31688815E-10
  -11.4799995       2.76681345E-10
  -11.4700003       2.17119420E-10
  -11.4600000       1.53131757E-10
  -11.4499998       8.48412104E-11
  -11.4399996       1.23613489E-11
  -11.4300003      -6.42034134E-11
  -11.4200001      -1.44753889E-10
  -11.4099998      -2.29185768E-10
  -11.3999996      -3.17378429E-10
  -11.3900003      -4.09181689E-10
  -11.3800001      -5.04405462E-10
  -11.3699999      -6.02812356E-10
  -11.3599997      -7.04117820E-10
  -11.3500004      -8.07996059E-10
  -11.3400002      -9.14092524E-10
  -11.3299999      -1.02203945E-09
  -11.3199997      -1.13147225E-09
  -11.3100004      -1.24204458E-09
  -11.3000002      -1.35343670E-09
  -11.2900000      -1.46536050E-09
  -11.2799997      -1.57755553E-09
  -11.2700005      -1.68978431E-09
  -11.2600002      -1.80182491E-09
  -11.2500000      -1.91346627E-09
  -11.2399998      -2.02450212E-09
  -11.2299995      -2.13473683E-09
  -11.2200003      -2.24398455E-09
  -11.2100000      -2.35207409E-09
  -11.1999998      -2.45884957E-09
  -11.1899996      -2.56416754E-09
  -11.1800003      -2.66789035E-09
  -11.1700001      -2.76987611E-09
  -11.1599998      -2.86996804E-09
  -11.1499996      -2.96798675E-09
  -11.1400003      -3.06373216E-09
  -11.1300001      -3.15699045E-09
  -11.1199999      -3.24755378E-09
  -11.1099997      -3.33523853E-09
  -11.1000004      -3.41990991E-09
  -11.0900002      -3.50149754E-09
  -11.0799999      -3.58000984E-09
  -11.0699997      -3.65553610E-09
  -11.0600004      -3.72823550E-09
  -11.0500002      -3.79831633E-09
  -11.0400000      -3.86601906E-09
  -11.0299997      -3.93159150E-09
  -11.0200005      -3.99527078E-09
  -11.0100002      -4.05728073E-09
  -11.0000000      -4.11781143E-09
  -10.9899998      -4.17702406E-09
  -10.9799995      -4.23503588E-09
  -10.9700003      -4.29192060E-09
  -10.9600000      -4.34771374E-09
  -10.9499998      -4.40239933E-09
  -10.9399996      -4.45591253E-09
  -10.9300003      -4.50814230E-09
  -10.9200001      -4.55895188E-09
  -10.9099998      -4.60818805E-09
  -10.8999996      -4.65570382E-09
  -10.8900003      -4.70138417E-09
  -10.8800001      -4.74514650E-09
  -10.8699999      -4.78694684E-09
  -10.8599997      -4.82678297E-09
  -10.8500004      -4.86466156E-09
  -10.8400002      -4.90059682E-09
  -10.8299999      -4.93457630E-09
  -10.8199997      -4.96656316E-09
  -10.8100004      -4.99648101E-09
  -10.8000002      -5.02421438E-09
  -10.7900000      -5.04964026E-09
  -10.7799997      -5.07261522E-09
  -10.7700005      -5.09298337E-09
  -10.7600002      -5.11058529E-09
  -10.7500000      -5.12525666E-09
  -10.7399998      -5.13681320E-09
  -10.7299995      -5.14506215E-09
  -10.7200003      -5.14980458E-09
  -10.7100000      -5.15084864E-09
  -10.6999998      -5.14804954E-09
  -10.6899996      -5.14132914E-09
  -10.6800003      -5.13070741E-09
  -10.6700001      -5.11631448E-09
  -10.6599998      -5.09838127E-09
  -10.6499996      -5.07722087E-09
  -10.6400003      -5.05321562E-09
  -10.6300001      -5.02675723E-09
  -10.6199999      -4.99821828E-09
  -10.6099997      -4.96794295E-09
  -10.6000004      -4.93622831E-09
  -10.5900002      -4.90333463E-09
  -10.5799999      -4.86949325E-09
  -10.5699997      -4.83495599E-09
  -10.5600004      -4.79995110E-09
  -10.5500002      -4.76472328E-09
  -10.5400000      -4.72951456E-09
  -10.5299997      -4.69454209E-09
  -10.5200005      -4.65998085E-09
  -10.5100002      -4.62596406E-09
  -10.5000000      -4.59258631E-09
  -10.4899998      -4.55991733E-09
  -10.4799995      -4.52803484E-09
  -10.4700003      -4.49705473E-09
  -10.4600000      -4.46712178E-09
  -10.4499998      -4.43843939E-09
  -10.4399996      -4.41122294E-09
  -10.4300003      -4.38572645E-09
  -10.4200001      -4.36213066E-09
  -10.4099998      -4.34059677E-09
  -10.3999996      -4.32121006E-09
  -10.3900003      -4.30399449E-09
  -10.3800001      -4.28896474E-09
  -10.3699999      -4.27610214E-09
  -10.3599997      -4.26542313E-09
  -10.3500004      -4.25697122E-09
  -10.3400002      -4.25085078E-09
  -10.3299999      -4.24716884E-09
  -10.3199997      -4.24602620E-09
  -10.3100004      -4.24751034E-09
  -10.3000002      -4.25165547E-09
  -10.2900000      -4.25846070E-09
  -10.2799997      -4.26790336E-09
  -10.2700005      -4.27995062E-09
  -10.2600002      -4.29457758E-09
  -10.2500000      -4.31180691E-09
  -10.2399998      -4.33168168E-09
  -10.2299995      -4.35427205E-09
  -10.2200003      -4.37960290E-09
  -10.2100000      -4.40765113E-09
  -10.1999998      -4.43832793E-09
  -10.1899996      -4.47144632E-09
  -10.1800003      -4.50675497E-09
  -10.1700001      -4.54397675E-09
  -10.1599998      -4.58285099E-09
  -10.1499996      -4.62314897E-09
  -10.1400003      -4.66471750E-09
  -10.1300001      -4.70749661E-09
  -10.1199999      -4.75151962E-09
  -10.1099997      -4.79685403E-09
  -10.1000004      -4.84361529E-09
  -10.0900002      -4.89197305E-09
  -10.0799999      -4.94207075E-09
  -10.0699997      -4.99411090E-09
  -10.0600004      -5.04828757E-09
  -10.0500002      -5.10487608E-09
  -10.0400000      -5.16416110E-09
  -10.0299997      -5.22644950E-09
  -10.0200005      -5.29206101E-09
  -10.0100002      -5.36130518E-09
  -10.0000000      -5.43441825E-09
  -9.98999977      -5.51158985E-09
  -9.97999954      -5.59296520E-09
  -9.97000027      -5.67866643E-09
  -9.96000004      -5.76881254E-09
  -9.94999981      -5.86355142E-09
  -9.93999958      -5.96309446E-09
  -9.93000031      -6.06767347E-09
  -9.92000008      -6.17753271E-09
  -9.90999985      -6.29289776E-09
  -9.89999962      -6.41392139E-09
  -9.89000034      -6.54066135E-09
  -9.88000011      -6.67306344E-09
  -9.86999989      -6.81096601E-09
  -9.85999966      -6.95417590E-09
  -9.85000038      -7.10246884E-09
  -9.84000015      -7.25563520E-09
  -9.82999992      -7.41355821E-09
  -9.81999969      -7.57619389E-09
  -9.81000042      -7.74355158E-09
  -9.80000019      -7.91570898E-09
  -9.78999996      -8.09274248E-09
  -9.77999973      -8.27473734E-09
  -9.77000046      -8.46177617E-09
  -9.76000023      -8.65396199E-09
  -9.75000000      -8.85142004E-09
  -9.73999977      -9.05432707E-09
  -9.72999954      -9.26294774E-09
  -9.72000027      -9.47765866E-09
  -9.71000004      -9.69884528E-09
  -9.69999981      -9.92693749E-09
  -9.68999958      -1.01623190E-08
  -9.68000031      -1.04053122E-08
  -9.67000008      -1.06561400E-08
  -9.65999985      -1.09148921E-08
  -9.64999962      -1.11815615E-08
  -9.64000034      -1.14560752E-08
  -9.63000011      -1.17382513E-08
  -9.61999989      -1.20278676E-08
  -9.60999966      -1.23246195E-08
  -9.60000038      -1.26280879E-08
  -9.59000015      -1.29377069E-08
  -9.57999992      -1.32527544E-08
  -9.56999969      -1.35723308E-08
  -9.56000042      -1.38953471E-08
  -9.55000019      -1.42206025E-08
  -9.53999996      -1.45468579E-08
  -9.52999973      -1.48729091E-08
  -9.52000046      -1.51976280E-08
  -9.51000023      -1.55199533E-08
  -9.50000000      -1.58390101E-08
  -9.48999977      -1.61540044E-08
  -9.47999954      -1.64641065E-08
  -9.47000027      -1.67686540E-08
  -9.46000004      -1.70668955E-08
  -9.44999981      -1.73581807E-08
  -9.43999958      -1.76418915E-08
  -9.43000031      -1.79175590E-08
  -9.42000008      -1.81849131E-08
  -9.40999985      -1.84439113E-08
  -9.39999962      -1.86947329E-08
  -9.39000034      -1.89377811E-08
  -9.38000011      -1.91735658E-08
  -9.36999989      -1.94027567E-08
  -9.35999966      -1.96260785E-08
  -9.35000038      -1.98442827E-08
  -9.34000015      -2.00582537E-08
  -9.32999992      -2.02689812E-08
  -9.31999969      -2.04776303E-08
  -9.31000042      -2.06855173E-08
  -9.30000019      -2.08940953E-08
  -9.28999996      -2.11049649E-08
  -9.27999973      -2.13196660E-08
  -9.27000046      -2.15397922E-08
  -9.26000023      -2.17667733E-08
  -9.25000000      -2.20018972E-08
  -9.23999977      -2.22464269E-08
  -9.22999954      -2.25015011E-08
  -9.22000027      -2.27682353E-08
  -9.21000004      -2.30479014E-08
  -9.19999981      -2.33417090E-08
  -9.18999958      -2.36508075E-08
  -9.18000031      -2.39762326E-08
  -9.17000008      -2.43187195E-08
  -9.15999985      -2.46786414E-08
  -9.14999962      -2.50560159E-08
  -9.14000034      -2.54504293E-08
  -9.13000011      -2.58611923E-08
  -9.11999989      -2.62873758E-08
  -9.10999966      -2.67279994E-08
  -9.10000038      -2.71821019E-08
  -9.09000015      -2.76487775E-08
  -9.07999992      -2.81271237E-08
  -9.06999969      -2.86161761E-08
  -9.06000042      -2.91148865E-08
  -9.05000019      -2.96220861E-08
  -9.03999996      -3.01364587E-08
  -9.02999973      -3.06566008E-08
  -9.02000046      -3.11811412E-08
  -9.01000023      -3.17089288E-08
  -9.00000000      -3.22388587E-08
  -8.98999977      -3.27701244E-08
  -8.97999954      -3.33019408E-08
  -8.97000027      -3.38336470E-08
  -8.96000004      -3.43644686E-08
  -8.94999981      -3.48934357E-08
  -8.93999958      -3.54194896E-08
  -8.93000031      -3.59413157E-08
  -8.92000008      -3.64575641E-08
  -8.90999985      -3.69670268E-08
  -8.89999962      -3.74685953E-08
  -8.89000034      -3.79613887E-08
  -8.88000011      -3.84447247E-08
  -8.86999989      -3.89180670E-08
  -8.85999966      -3.93808968E-08
  -8.85000038      -3.98326456E-08
  -8.84000015      -4.02725107E-08
  -8.82999992      -4.06996854E-08
  -8.81999969      -4.11134202E-08
  -8.81000042      -4.15128625E-08
  -8.80000019      -4.18975326E-08
  -8.78999996      -4.22670645E-08
  -8.77999973      -4.26215010E-08
  -8.77000046      -4.29610552E-08
  -8.76000023      -4.32860041E-08
  -8.75000000      -4.35967529E-08
  -8.73999977      -4.38936105E-08
  -8.72999954      -4.41768186E-08
  -8.72000027      -4.44467751E-08
  -8.71000004      -4.47038460E-08
  -8.69999981      -4.49487914E-08
  -8.68999958      -4.51826203E-08
  -8.68000031      -4.54068001E-08
  -8.67000008      -4.56229579E-08
  -8.65999985      -4.58329943E-08
  -8.64999962      -4.60389238E-08
  -8.64000034      -4.62425831E-08
  -8.63000011      -4.64457273E-08
  -8.61999989      -4.66501184E-08
  -8.60999966      -4.68573518E-08
  -8.60000038      -4.70690935E-08
  -8.59000015      -4.72870312E-08
  -8.57999992      -4.75130975E-08
  -8.56999969      -4.77491255E-08
  -8.56000042      -4.79968918E-08
  -8.55000019      -4.82579985E-08
  -8.53999996      -4.85337139E-08
  -8.52999973      -4.88250649E-08
  -8.52000046      -4.91324990E-08
  -8.51000023      -4.94560517E-08
  -8.50000000      -4.97958119E-08
  -8.48999977      -5.01515558E-08
  -8.47999954      -5.05228357E-08
  -8.47000027      -5.09094598E-08
  -8.46000004      -5.13108809E-08
  -8.44999981      -5.17267971E-08
  -8.43999958      -5.21565120E-08
  -8.43000031      -5.25991943E-08
  -8.42000008      -5.30542117E-08
  -8.40999985      -5.35205729E-08
  -8.39999962      -5.39974039E-08
  -8.39000034      -5.44839693E-08
  -8.38000011      -5.49796404E-08
  -8.36999989      -5.54839374E-08
  -8.35999966      -5.59966473E-08
  -8.35000038      -5.65172513E-08
  -8.34000015      -5.70454972E-08
  -8.32999992      -5.75809906E-08
  -8.31999969      -5.81229891E-08
  -8.31000042      -5.86709703E-08
  -8.30000019      -5.92242309E-08
  -8.28999996      -5.97821099E-08
  -8.27999973      -6.03440711E-08
  -8.27000046      -6.09094570E-08
  -8.26000023      -6.14780049E-08
  -8.25000000      -6.20490965E-08
  -8.23999977      -6.26223908E-08
  -8.22999954      -6.31972057E-08
  -8.22000027      -6.37729443E-08
  -8.21000004      -6.43485834E-08
  -8.19999981      -6.49234195E-08
  -8.18999958      -6.54965717E-08
  -8.18000031      -6.60670807E-08
  -8.17000008      -6.66342643E-08
  -8.15999985      -6.71974547E-08
  -8.14999962      -6.77560976E-08
  -8.14000034      -6.83098307E-08
  -8.13000011      -6.88582489E-08
  -8.11999989      -6.94011888E-08
  -8.10999966      -6.99383946E-08
  -8.10000038      -7.04700369E-08
  -8.09000015      -7.09963501E-08
  -8.07999992      -7.15178814E-08
  -8.06999969      -7.20351565E-08
  -8.06000042      -7.25493550E-08
  -8.05000019      -7.30616492E-08
  -8.03999996      -7.35733394E-08
  -8.02999973      -7.40863086E-08
  -8.02000046      -7.46022835E-08
  -8.01000023      -7.51230473E-08
  -8.00000000      -7.56505685E-08
  -7.98999977      -7.61867582E-08
  -7.98000002      -7.67336630E-08
  -7.96999979      -7.72929809E-08
  -7.96000004      -7.78665949E-08
  -7.94999981      -7.84562175E-08
  -7.94000006      -7.90632626E-08
  -7.92999983      -7.96894426E-08
  -7.92000008      -8.03359157E-08
  -7.90999985      -8.10038472E-08
  -7.90000010      -8.16943597E-08
  -7.88999987      -8.24085404E-08
  -7.88000011      -8.31467659E-08
  -7.86999989      -8.39097254E-08
  -7.86000013      -8.46977741E-08
  -7.84999990      -8.55111395E-08
  -7.84000015      -8.63495728E-08
  -7.82999992      -8.72132944E-08
  -7.82000017      -8.81020696E-08
  -7.80999994      -8.90158347E-08
  -7.80000019      -8.99543764E-08
  -7.78999996      -9.09169486E-08
  -7.78000021      -9.19033241E-08
  -7.76999998      -9.29130337E-08
  -7.76000023      -9.39454594E-08
  -7.75000000      -9.49995922E-08
  -7.73999977      -9.60749489E-08
  -7.73000002      -9.71704353E-08
  -7.71999979      -9.82857742E-08
  -7.71000004      -9.94203688E-08
  -7.69999981      -1.00573722E-07
  -7.69000006      -1.01746004E-07
  -7.67999983      -1.02937300E-07
  -7.67000008      -1.04147610E-07
  -7.65999985      -1.05376756E-07
  -7.65000010      -1.06624896E-07
  -7.63999987      -1.07892262E-07
  -7.63000011      -1.09178586E-07
  -7.61999989      -1.10484137E-07
  -7.61000013      -1.11809030E-07
  -7.59999990      -1.13153646E-07
  -7.59000015      -1.14518208E-07
  -7.57999992      -1.15903219E-07
  -7.57000017      -1.17308879E-07
  -7.55999994      -1.18734853E-07
  -7.55000019      -1.20181298E-07
  -7.53999996      -1.21647915E-07
  -7.53000021      -1.23134612E-07
  -7.51999998      -1.24641033E-07
  -7.51000023      -1.26167095E-07
  -7.50000000      -1.27712696E-07
  -7.48999977      -1.29277737E-07
  -7.48000002      -1.30862460E-07
  -7.46999979      -1.32467093E-07
  -7.46000004      -1.34091550E-07
  -7.44999981      -1.35736329E-07
  -7.44000006      -1.37401500E-07