  -16.0000000       0.00000000    
  -15.9899998       0.00000000    
  -15.9799995       0.00000000    
  -15.9700003       0.00000000    
  -15.9600000       0.00000000    
  -15.9499998       0.00000000    
  -15.9399996       0.00000000    
  -15.9300003       0.00000000    
  -15.9200001       0.00000000    
  -15.9099998       0.00000000    
  -15.8999996       0.00000000    
  -15.8900003       0.00000000    
  -15.8800001       3.32808385E-42
  -15.8699999       5.81981673E-40
  -15.8599997       1.74122881E-38
  -15.8500004       2.86254156E-37
  -15.8400002       3.24396442E-36
  -15.8299999       2.79514706E-35
  -15.8199997       1.93702987E-34
  -15.8100004       1.12025218E-33
  -15.8000002       5.55035372E-33
  -15.7900000       2.40224922E-32
  -15.7799997       9.21903544E-32
  -15.7700005       3.17357191E-31
  -15.7600002       9.88826882E-31
  -15.7500000       2.80805683E-30
  -15.7399998       7.30510193E-30
  -15.7299995       1.74687669E-29
  -15.7200003       3.84616696E-29
  -15.7100000       7.79345909E-29
  -15.6999998       1.44863900E-28
  -15.6899996       2.45135252E-28
  -15.6800003       3.71760428E-28
  -15.6700001       4.88563023E-28
  -15.6599998       5.09636212E-28
  -15.6499996       2.83896735E-28
  -15.6400003      -3.96122117E-28
  -15.6300001      -1.73340166E-27
  -15.6199999      -3.78711860E-27
  -15.6099997      -6.25253349E-27
  -15.6000004      -8.21521904E-27
  -15.5900002      -8.02190266E-27
  -15.5799999      -3.49558943E-27
  -15.5699997       7.26528568E-27
  -15.5600004       2.44193480E-26
  -15.5500002       4.45561951E-26
  -15.5400000       5.94103227E-26
  -15.5299997       5.65438056E-26
  -15.5200005       2.34202125E-26
  -15.5100002      -4.48212925E-26
  -15.5000000      -1.36035612E-25
  -15.4899998      -2.15548206E-25
  -15.4799995      -2.31919609E-25
  -15.4700003      -1.39686497E-25
  -15.4600000       6.33941751E-26
  -15.4499998       3.01168654E-25
  -15.4399996       4.16781101E-25
  -15.4300003       2.36570955E-25
  -15.4200001      -2.89577896E-25
  -15.4099998      -9.16229598E-25
  -15.3999996      -1.01655920E-24
  -15.3900003       2.51487501E-25
  -15.3800001       3.40335697E-24
  -15.3699999       7.77459814E-24
  -15.3599997       1.07460013E-23
  -15.3500004       7.77373749E-24
  -15.3400002      -5.95807117E-24
  -15.3299999      -3.19094520E-23
  -15.3199997      -6.34176515E-23
  -15.3100004      -8.23171685E-23
  -15.3000002      -6.08515312E-23
  -15.2900000       2.74501381E-23
  -15.2799997       1.87389490E-22
  -15.2700005       3.77986073E-22
  -15.2600002       4.98205723E-22
  -15.2500000       4.01158868E-22
  -15.2399998      -4.81157789E-23
  -15.2299995      -8.72859218E-22
  -15.2200003      -1.87375331E-21
  -15.2100000      -2.57042437E-21
  -15.1999998      -2.27524045E-21
  -15.1899996      -3.56969177E-22
  -15.1800003       3.32477836E-21
  -15.1700001       7.95512520E-21
  -15.1599998       1.15336547E-20
  -15.1499996       1.11904006E-20
  -15.1400003       4.24973168E-21
  -15.1300001      -1.00677913E-20
  -15.1199999      -2.88755666E-20
  -15.1099997      -4.47808797E-20
  -15.1000004      -4.70893663E-20
  -15.0900002      -2.56958294E-20
  -15.0799999       2.28562976E-20
  -15.0699997       8.92653961E-20
  -15.0600004       1.48794257E-19
  -15.0500002       1.65690080E-19
  -15.0400000       1.06503905E-19
  -15.0299997      -3.99408198E-20
  -15.0200005      -2.43407072E-19
  -15.0100002      -4.25438635E-19
  -15.0000000      -4.76149304E-19
  -14.9899998      -2.98885248E-19
  -14.9799995       1.26634023E-19
  -14.9700003       6.88587328E-19
  -14.9600000       1.13184653E-18
  -14.9499998       1.12488312E-18
  -14.9399996       4.12952834E-19
  -14.9300003      -9.79794919E-19
  -14.9200001      -2.58846899E-18
  -14.9099998      -3.50678299E-18
  -14.8999996      -2.65031646E-18
  -14.8900003       7.01960460E-19
  -14.8800001       6.22430581E-18
  -14.8699999       1.20220288E-17
  -14.8599997       1.46729350E-17
  -14.8500004       1.01707357E-17
  -14.8400002      -4.17704744E-18
  -14.8299999      -2.73351743E-17
  -14.8199997      -5.25953925E-17
  -14.8100004      -6.74385861E-17
  -14.8000002      -5.63959102E-17
  -14.7900000      -7.26425878E-18
  -14.7799997       8.04866191E-17
  -14.7700005       1.88063139E-16
  -14.7600002       2.74715337E-16
  -14.7500000       2.84362751E-16
  -14.7399998       1.63555842E-16
  -14.7299995      -1.11420858E-16
  -14.7200003      -5.06047870E-16
  -14.7100000      -9.10226793E-16
  -14.6999998      -1.14618137E-15
  -14.6899996      -1.01135607E-15
  -14.6800003      -3.55388873E-16
  -14.6700001       8.25622813E-16
  -14.6599998       2.31030460E-15
  -14.6499996       3.63062673E-15
  -14.6400003       4.14548046E-15
  -14.6300001       3.22362211E-15
  -14.6199999       5.11167867E-16
  -14.6099997      -3.78853443E-15
  -14.6000004      -8.73204571E-15
  -14.5900002      -1.26687609E-14
  -14.5799999      -1.35722029E-14
  -14.5699997      -9.66805439E-15
  -14.5600004      -2.38773426E-16
  -14.5500002       1.36360226E-14
  -14.5400000       2.87157349E-14
  -14.5299997       3.99053756E-14
  -14.5200005       4.13878696E-14
  -14.5100002       2.84799379E-14
  -14.5000000      -1.92635978E-16
  -14.4899998      -4.08798903E-14
  -14.4799995      -8.40475286E-14
  -14.4700003      -1.15536514E-13
  -14.4600000      -1.19785407E-13
  -14.4499998      -8.47205539E-14
  -14.4399996      -7.18957330E-15
  -14.4300003       1.02745273E-13
  -14.4200001       2.20497191E-13
  -14.4099998       3.10066588E-13
  -14.3999996       3.31959151E-13
  -14.3900003       2.54866413E-13
  -14.3800001       6.84774164E-14
  -14.3699999      -2.06328525E-13
  -14.3599997      -5.13934056E-13
  -14.3500004      -7.70153798E-13
  -14.3400002      -8.79078115E-13
  -14.3299999      -7.58530717E-13
  -14.3199997      -3.68959041E-13
  -14.3100004       2.61831193E-13
  -14.3000002       1.02650180E-12
  -14.2900000       1.74538183E-12
  -14.2799997       2.19641709E-12
  -14.2700005       2.16540457E-12
  -14.2600002       1.50829306E-12
  -14.2500000       2.11677694E-13
  -14.2399998      -1.56510319E-12
  -14.2299995      -3.48237086E-12
  -14.2200003      -5.05848445E-12
  -14.2100000      -5.75649597E-12
  -14.1999998      -5.11033273E-12
  -14.1899996      -2.86935991E-12
  -14.1800003       8.70623831E-13
  -14.1700001       5.58626539E-12
  -14.1599998       1.03326202E-11
  -14.1499996       1.38585575E-11
  -14.1400003       1.48383979E-11
  -14.1300001       1.21951529E-11
  -14.1199999       5.46167842E-12
  -14.1099997      -4.90118840E-12
  -14.1000004      -1.73281181E-11
  -14.0900002      -2.92049718E-11
  -14.0799999      -3.72214377E-11
  -14.0699997      -3.80224741E-11
  -14.0600004      -2.90848248E-11
  -14.0500002      -9.65525750E-12
  -14.0400000       1.84807118E-11
  -14.0299997       5.06650832E-11
  -14.0200005       7.97003366E-11
  -14.0100002       9.69726799E-11
  -14.0000000       9.43139178E-11
  -13.9899998       6.63173336E-11
  -13.9799995       1.26272100E-11
  -13.9700003      -6.04387859E-11
  -13.9600000      -1.39582013E-10
  -13.9499998      -2.06005379E-10
  -13.9399996      -2.38803533E-10
  -13.9300003      -2.19900653E-10
  -13.9200001      -1.39623743E-10
  -13.9099998      -1.58938856E-12
  -13.8999996       1.74623635E-10
  -13.8900003       3.54319962E-10
  -13.8800001       4.92770103E-10
  -13.8699999       5.44256140E-10
  -13.8599997       4.73690698E-10
  -13.8500004       2.68303380E-10
  -13.8400002      -5.36268668E-11
  -13.8299999      -4.40085468E-10
  -13.8199997      -8.10750300E-10
  -13.8100004      -1.07097875E-09
  -13.8000002      -1.13256582E-09
  -13.7900000      -9.37319222E-10
  -13.7799997      -4.77903384E-10
  -13.7700005       1.89992078E-10
  -13.7600002       9.49061163E-10
  -13.7500000       1.63752778E-09
  -13.7399998       2.08058837E-09
  -13.7299995       2.13066675E-09
  -13.7200003       1.70772974E-09
  -13.7100000       8.29559477E-10
  -13.6999998      -3.77346626E-10
  -13.6899996      -1.69169034E-09
  -13.6800003      -2.83629498E-09
  -13.6700001      -3.53559515E-09
  -13.6599998      -3.57982421E-09
  -13.6499996      -2.88075519E-09
  -13.6400003      -1.50459878E-09
  -13.6300001       3.28629957E-10
  -13.6199999       2.28172636E-09
  -13.6099997       3.96709687E-09
  -13.6000004       5.02941111E-09
  -13.5900002       5.22493737E-09
  -13.5799999       4.47792337E-09
  -13.5699997       2.89955726E-09
  -13.5600004       7.63823338E-10
  -13.5500002      -1.55414315E-09
  -13.5400000      -3.66148933E-09
  -13.5299997      -5.23114219E-09
  -13.5200005      -6.06329742E-09
  -13.5100002      -6.10901862E-09
  -13.5000000      -5.45102585E-09
  -13.4899998      -4.24999769E-09
  -13.4799995      -2.67549871E-09
  -13.4700003      -8.46729020E-10
  -13.4600000       1.19385568E-09
  -13.4499998       3.46067330E-09
  -13.4399996       5.96075100E-09
  -13.4300003       8.60390514E-09
  -13.4200001       1.11189191E-08
  -13.4099998       1.30132198E-08
  -13.3999996       1.36066118E-08
  -13.3900003       1.21534169E-08
  -13.3800001       8.04275757E-09
  -13.3699999       1.03879327E-09
  -13.3599997      -8.49763371E-09
  -13.3500004      -1.94760243E-08
  -13.3400002      -3.00947143E-08
  -13.3299999      -3.80477552E-08
  -13.3199997      -4.09183265E-08
  -13.3100004      -3.67077995E-08
  -13.3000002      -2.44034357E-08
  -13.2900000      -4.45812898E-09
  -13.2799997       2.09540172E-08
  -13.2700005       4.80151456E-08
  -13.2600002       7.17277544E-08
  -13.2500000       8.67410463E-08
  -13.2399998       8.84215154E-08
  -13.2299995       7.39727710E-08
  -13.2200003       4.33608989E-08
  -13.2100000      -2.01590050E-10
  -13.1999998      -5.03936697E-08
  -13.1899996      -9.86242412E-08
  -13.1800003      -1.35488236E-07
  -13.1700001      -1.52609985E-07
  -13.1599998      -1.44511745E-07
  -13.1499996      -1.10091776E-07
  -13.1400003      -5.33248219E-08
  -13.1300001       1.70647088E-08
  -13.1199999       8.90002383E-08
  -13.1099997       1.49314090E-07
  -13.1000004       1.86435258E-07
  -13.0900002       1.92922798E-07
  -13.0799999       1.67241879E-07
  -13.0699997       1.14308804E-07
  -13.0600004       4.45904256E-08
  -13.0500002      -2.81172952E-08
  -13.0400000      -8.97709356E-08
  -13.0299997      -1.29313705E-07
  -13.0200005      -1.41268956E-07
  -13.0100002      -1.27009230E-07
  -13.0000000      -9.43181746E-08
  -12.9899998      -5.52795925E-08
  -12.9799995      -2.29648318E-08
  -12.9700003      -7.73839215E-09
  -12.9600000      -1.41459067E-08
  -12.9499998      -3.92629040E-08
  -12.9399996      -7.30405745E-08
  -12.9300003      -1.00692901E-07
  -12.9200001      -1.06630324E-07
  -12.9099998      -7.89921941E-08
  -12.8999996      -1.36157778E-08
  -12.8900003       8.36639131E-08
  -12.8800001       1.97122532E-07
  -12.8699999       3.03844928E-07
  -12.8599997       3.78532093E-07
  -12.8500004       3.99395532E-07
  -12.8400002       3.53750949E-07
  -12.8299999       2.41947333E-07
  -12.8199997       7.85826799E-08
  -12.8100004      -1.09463485E-07
  -12.8000002      -2.87893954E-07
  -12.7900000      -4.21824211E-07
  -12.7799997      -4.83120914E-07
  -12.7700005      -4.56715981E-07
  -12.7600002      -3.44484562E-07
  -12.7500000      -1.65895315E-07
  -12.7399998       4.48089565E-08
  -12.7299995       2.44245143E-07
  -12.7200003       3.87297547E-07
  -12.7100000       4.34867644E-07
  -12.6999998       3.60615161E-07
  -12.6899996       1.55748523E-07
  -12.6800003      -1.68726089E-07
  -12.6700001      -5.82142718E-07
  -12.6599998      -1.03630862E-06
  -12.6499996      -1.46900868E-06
  -12.6400003      -1.80836230E-06
  -12.6300001      -1.97793224E-06
  -12.6199999      -1.90271487E-06
  -12.6099997      -1.51659913E-06
  -12.6000004      -7.71667146E-07
  -12.5900002       3.50593041E-07
  -12.5799999       1.82682118E-06
  -12.5699997       3.57995305E-06
  -12.5600004       5.47044147E-06
  -12.5500002       7.29392696E-06
  -12.5400000       8.78831361E-06
  -12.5299997       9.65267100E-06
  -12.5200005       9.57820703E-06
  -12.5100002       8.29005239E-06
  -12.5000000       5.59542195E-06
  -12.4899998       1.43212083E-06
  -12.4799995      -4.08974256E-06
  -12.4700003      -1.06606785E-05
  -12.4600000      -1.77652346E-05
  -12.4499998      -2.46996606E-05
  -12.4399996      -3.06147267E-05
  -12.4300003      -3.45797744E-05
  -12.4200001      -3.56624041E-05
  -12.4099998      -3.30150251E-05
  -12.3999996      -2.59582812E-05
  -12.3900003      -1.40523971E-05
  -12.3800001       2.85120132E-06
  -12.3699999       2.45838746E-05
  -12.3599997       5.06596880E-05
  -12.3500004       8.03012008E-05
  -12.3400002       1.12487178E-04
  -12.3299999       1.46013801E-04
  -12.3199997       1.79565963E-04
  -12.3100004       2.11787279E-04
  -12.3000002       2.41344867E-04
  -12.2900000       2.66987714E-04
  -12.2799997       2.87585717E-04
  -12.2700005       3.02163884E-04
  -12.2600002       3.09924042E-04
  -12.2500000       3.10255331E-04
  -12.2399998       3.02746950E-04
  -12.2299995       2.87192437E-04
  -12.2200003       2.63592665E-04
  -12.2100000       2.32156002E-04
  -12.1999998       1.93280444E-04
  -12.1899996       1.47530765E-04
  -12.1800003       9.55937649E-05
  -12.1700001       3.82196122E-05
  -12.1599998      -2.38532739E-05
  -12.1499996      -8.99663064E-05
  -12.1400003      -1.59598290E-04
  -12.1300001      -2.32395265E-04
  -12.1199999      -3.08159069E-04
  -12.1099997      -3.86785425E-04
  -12.1000004      -4.68164420E-04
  -12.0900002      -5.52045181E-04
  -12.0799999      -6.37901539E-04
  -12.0699997      -7.24814192E-04
  -12.0600004      -8.11407808E-04
  -12.0500002      -8.95859324E-04
  -12.0400000      -9.75976815E-04
  -12.0299997      -1.04935700E-03
  -12.0200005      -1.11357530E-03
  -12.0100002      -1.16639817E-03
  -12.0000000      -1.20595680E-03
  -11.9899998      -1.23086432E-03
  -11.9799995      -1.24025496E-03
  -11.9700003      -1.23373908E-03
  -11.9600000      -1.21129863E-03
  -11.9499998      -1.17315142E-03
  -11.9399996      -1.11961435E-03
  -11.9300003      -1.05101662E-03
  -11.9200001      -9.67663538E-04
  -11.9099998      -8.69865471E-04
  -11.8999996      -7.58016831E-04
  -11.8900003      -6.32682117E-04
  -11.8800001      -4.94666107E-04
  -11.8699999      -3.45041277E-04
  -11.8599997      -1.85097175E-04
  -11.8500004      -1.62356646E-05
  -11.8400002       1.60175186E-04
  -11.8299999       3.42939806E-04
  -11.8199997       5.31152007E-04
  -11.8100004       7.24217156E-04
  -11.8000002       9.21806088E-04
  -11.7900000       1.12371054E-03
  -11.7799997       1.32964726E-03
  -11.7700005       1.53904920E-03
  -11.7600002       1.75088458E-03
  -11.7500000       1.96354860E-03
  -11.7399998       2.17484660E-03
  -11.7299995       2.38208100E-03
  -11.7200003       2.58220546E-03
  -11.7100000       2.77203065E-03
  -11.6999998       2.94843107E-03
  -11.6899996       3.10852495E-03
  -11.6800003       3.24979308E-03
  -11.6700001       3.37013393E-03
  -11.6599998       3.46786482E-03
  -11.6499996       3.54166515E-03
  -11.6400003       3.59050301E-03
  -11.6300001       3.61354370E-03
  -11.6199999       3.61007382E-03
  -11.6099997       3.57942120E-03
  -11.6000004       3.52091272E-03
  -11.5900002       3.43383732E-03
  -11.5799999       3.31743713E-03
  -11.5699997       3.17093730E-03
  -11.5600004       2.99360394E-03
  -11.5500002       2.78483215E-03
  -11.5400000       2.54426827E-03
  -11.5299997       2.27192068E-03
  -11.5200005       1.96827087E-03
  -11.5100002       1.63431698E-03
  -11.5000000       1.27156719E-03
  -11.4899998       8.81942862E-04
  -11.4799995       4.67636797E-04
  -11.4700003       3.09221214E-05
  -11.4600000      -4.26018407E-04
  -11.4499998      -9.01230029E-04
  -11.4399996      -1.39302667E-03
  -11.4300003      -1.89995591E-03
  -11.4200001      -2.42068712E-03
  -11.4099998      -2.95385742E-03
  -11.3999996      -3.49793280E-03
  -11.3900003      -4.05112654E-03
  -11.3800001      -4.61139577E-03
  -11.3699999      -5.17654046E-03
  -11.3599997      -5.74435759E-03
  -11.3500004      -6.31281827E-03
  -11.3400002      -6.88023306E-03
  -11.3299999      -7.44530838E-03
  -11.3199997      -8.00714642E-03
  -11.3100004      -8.56511295E-03
  -11.3000002      -9.11867525E-03
  -11.2900000      -9.66720749E-03
  -11.2799997      -1.02098361E-02
  -11.2700005      -1.07453540E-02
  -11.2600002      -1.12722199E-02
  -11.2500000      -1.17886262E-02
  -11.2399998      -1.22926068E-02
  -11.2299995      -1.27821490E-02
  -11.2200003      -1.32552758E-02
  -11.2100000      -1.37101235E-02
  -11.1999998      -1.41449394E-02
  -11.1899996      -1.45581290E-02
  -11.1800003      -1.49483066E-02
  -11.1700001      -1.53143918E-02
  -11.1599998      -1.56557374E-02
  -11.1499996      -1.59722846E-02
  -11.1400003      -1.62646454E-02
  -11.1300001      -1.65341534E-02
  -11.1199999      -1.67827327E-02
  -11.1099997      -1.70126930E-02
  -11.1000004      -1.72264203E-02
  -11.0900002      -1.74260046E-02
  -11.0799999      -1.76129229E-02
  -11.0699997      -1.77878328E-02
  -11.0600004      -1.79504622E-02
  -11.0500002      -1.80996954E-02
  -11.0400000      -1.82337295E-02
  -11.0299997      -1.83503069E-02
  -11.0200005      -1.84469577E-02
  -11.0100002      -1.85211804E-02
  -11.0000000      -1.85705740E-02
  -10.9899998      -1.85928885E-02
  -10.9799995      -1.85860898E-02
  -10.9700003      -1.85484011E-02
  -10.9600000      -1.84783954E-02
  -10.9499998      -1.83751136E-02
  -10.9399996      -1.82381850E-02
  -10.9300003      -1.80679336E-02
  -10.9200001      -1.78653412E-02
  -10.9099998      -1.76320132E-02
  -10.8999996      -1.73699595E-02
  -10.8900003      -1.70813873E-02
  -10.8800001      -1.67684853E-02
  -10.8699999      -1.64332502E-02
  -10.8599997      -1.60774477E-02
  -10.8500004      -1.57025885E-02
  -10.8400002      -1.53100193E-02
  -10.8299999      -1.49008846E-02
  -10.8199997      -1.44761046E-02
  -10.8100004      -1.40361879E-02
  -10.8000002      -1.35809816E-02
  -10.7900000      -1.31094977E-02
  -10.7799997      -1.26197869E-02
  -10.7700005      -1.21091157E-02
  -10.7600002      -1.15743466E-02
  -10.7500000      -1.10125765E-02
  -10.7399998      -1.04218572E-02
  -10.7299995      -9.80178080E-03
  -10.7200003      -9.15386900E-03
  -10.7100000      -8.48142896E-03
  -10.6999998      -7.78904045E-03
  -10.6899996      -7.08171027E-03
  -10.6800003      -6.36381889E-03
  -10.6700001      -5.63830929E-03
  -10.6599998      -4.90619848E-03
  -10.6499996      -4.16666269E-03
  -10.6400003      -3.41765117E-03
  -10.6300001      -2.65689776E-03
  -10.6199999      -1.88302016E-03
  -10.6099997      -1.09645340E-03
  -10.6000004      -2.99876730E-04
  -10.5900002       5.01913368E-04
  -10.5799999       1.30271039E-03
  -10.5699997       2.09594751E-03
  -10.5600004       2.87584495E-03
  -10.5500002       3.63827287E-03
  -10.5400000       4.38125758E-03
  -10.5299997       5.10486355E-03
  -10.5200005       5.81067894E-03
  -10.5100002       6.50102505E-03
  -10.5000000       7.17813801E-03
  -10.4899998       7.84353167E-03
  -10.4799995       8.49771593E-03
  -10.4700003       9.14014596E-03
  -10.4600000       9.76942293E-03
  -10.4499998       1.03835389E-02
  -10.4399996       1.09800212E-02
  -10.4300003       1.15559632E-02
  -10.4200001       1.21079460E-02
  -10.4099998       1.26319751E-02
  -10.3999996       1.31235970E-02
  -10.3900003       1.35781961E-02
  -10.3800001       1.39916074E-02
  -10.3699999       1.43607594E-02
  -10.3599997       1.46842841E-02
  -10.3500004       1.49628576E-02
  -10.3400002       1.51990661E-02
  -10.3299999       1.53968418E-02
  -10.3199997       1.55606046E-02
  -10.3100004       1.56942289E-02
  -10.3000002       1.58003364E-02
  -10.2900000       1.58798937E-02
  -10.2799997       1.59324054E-02
  -10.2700005       1.59565173E-02
  -10.2600002       1.59508884E-02
  -10.2500000       1.59149785E-02
  -10.2399998       1.58494711E-02
  -10.2299995       1.57562718E-02
  -10.2200003       1.56379528E-02
  -10.2100000       1.54969990E-02
  -10.1999998       1.53350160E-02
  -10.1899996       1.51523389E-02
  -10.1800003       1.49481008E-02
  -10.1700001       1.47209410E-02
  -10.1599998       1.44700091E-02
  -10.1499996       1.41960317E-02
  -10.1400003       1.39021045E-02
  -10.1300001       1.35938236E-02
  -10.1199999       1.32787423E-02
  -10.1099997       1.29652061E-02
  -10.1000004       1.26609383E-02
  -10.0900002       1.23717086E-02
  -10.0799999       1.21005233E-02
  -10.0699997       1.18475202E-02
  -10.0600004       1.16106672E-02
  -10.0500002       1.13869430E-02
  -10.0400000       1.11736897E-02
  -10.0299997       1.09697655E-02
  -10.0200005       1.07761435E-02
  -10.0100002       1.05957482E-02
  -10.0000000       1.04327463E-02
  -9.98999977       1.02914236E-02
  -9.97999954       1.01750791E-02
  -9.97000027       1.00851711E-02
  -9.96000004       1.00210812E-02
  -9.94999981       9.98038799E-03
  -9.93999958       9.95964091E-03
  -9.93000031       9.95522644E-03
  -9.92000008       9.96423233E-03
  -9.90999985       9.98495333E-03
  -9.89999962       1.00170262E-02
  -9.89000034       1.00611830E-02
  -9.88000011       1.01188598E-02
  -9.86999989       1.01917982E-02
  -9.85999966       1.02818199E-02
  -9.85000038       1.03907771E-02
  -9.84000015       1.05207022E-02
  -9.82999992       1.06739532E-02
  -9.81999969       1.08532002E-02
  -9.81000042       1.10611990E-02
  -9.80000019       1.13003151E-02
  -9.78999996       1.15719186E-02
  -9.77999973       1.18758576E-02
  -9.77000046       1.22102592E-02
  -9.76000023       1.25717847E-02
  -9.75000000       1.29563659E-02
  -9.73999977       1.33602675E-02
  -9.72999954       1.37812309E-02
  -9.72000027       1.42193940E-02
  -9.71000004       1.46775935E-02
  -9.69999981       1.51610682E-02
  -9.68999958       1.56764798E-02
  -9.68000031       1.62305348E-02
  -9.67000008       1.68285463E-02
  -9.65999985       1.74733121E-02
  -9.64999962       1.81645062E-02
  -9.64000034       1.88987907E-02
  -9.63000011       1.96704455E-02
  -9.61999989       2.04722602E-02
  -9.60999966       2.12963875E-02
  -9.60000038       2.21348424E-02
  -9.59000015       2.29795408E-02
  -9.57999992       2.38219202E-02
  -9.56999969       2.46524047E-02
  -9.56000042       2.54600402E-02
  -9.55000019       2.62324717E-02
  -9.53999996       2.69566160E-02
  -9.52999973       2.76197102E-02
  -9.52000046       2.82106083E-02
  -9.51000023       2.87208594E-02
  -9.50000000       2.91453395E-02
  -9.48999977       2.94820275E-02
  -9.47999954       2.97312103E-02
  -9.47000027       2.98942458E-02
  -9.46000004       2.99723707E-02
  -9.44999981       2.99659744E-02
  -9.43999958       2.98746787E-02
  -9.43000031       2.96981279E-02
  -9.42000008       2.94371955E-02
  -9.40999985       2.90952586E-02
  -9.39999962       2.86789220E-02
  -9.39000034       2.81977579E-02
  -9.38000011       2.76632328E-02
  -9.36999989       2.70868540E-02
  -9.35999966       2.64783818E-02
  -9.35000038       2.58444790E-02
  -9.34000015       2.51885094E-02
  -9.32999992       2.45115682E-02
  -9.31999969       2.38145515E-02
  -9.31000042       2.31006201E-02
  -9.30000019       2.23772880E-02
  -9.28999996       2.16575172E-02
  -9.27999973       2.09593084E-02
  -9.27000046       2.03040149E-02
  -9.26000023       1.97137427E-02
  -9.25000000       1.92087460E-02
  -9.23999977       1.88054852E-02
  -9.22999954       1.85158905E-02
  -9.22000027       1.83480307E-02
  -9.21000004       1.83076430E-02
  -9.19999981       1.83998998E-02
  -9.18999958       1.86307654E-02
  -9.18000031       1.90072618E-02
  -9.17000008       1.95366591E-02
  -9.15999985       2.02248339E-02
  -9.14999962       2.10745055E-02
  -9.14000034       2.20840815E-02
  -9.13000011       2.32476704E-02
  -9.11999989       2.45561656E-02
  -9.10999966       2.59993915E-02
  -9.10000038       2.75681298E-02
  -9.09000015       2.92555168E-02
  -9.07999992       3.10571529E-02
  -9.06999969       3.29696946E-02
  -9.06000042       3.49884741E-02
  -9.05000019       3.71048674E-02
  -9.03999996       3.93043794E-02
  -9.02999973       4.15662080E-02
  -9.02000046       4.38645333E-02
  -9.01000023       4.61712033E-02
  -9.00000000       4.84590679E-02
  -8.98999977       5.07047027E-02
  -8.97999954       5.28901033E-02
  -8.97000027       5.50022796E-02
  -8.96000004       5.70316650E-02
  -8.94999981       5.89693412E-02
  -8.93999958       6.08046688E-02
  -8.93000031       6.25238121E-02
  -8.92000008       6.41098991E-02
  -8.90999985       6.55446425E-02
  -8.89999962       6.68108612E-02
  -8.89000034       6.78949133E-02
  -8.88000011       6.87881708E-02
  -8.86999989       6.94869459E-02
  -8.85999966       6.99910671E-02
  -8.85000038       7.03014284E-02
  -8.84000015       7.04176947E-02
  -8.82999992       7.03367069E-02
  -8.81999969       7.00524971E-02
  -8.81000042       6.95577264E-02
  -8.80000019       6.88457862E-02
  -8.78999996       6.79134056E-02
  -8.77999973       6.67618886E-02
  -8.77000046       6.53973743E-02
  -8.76000023       6.38292655E-02
  -8.75000000       6.20679073E-02
  -8.73999977       6.01221621E-02
  -8.72999954       5.79975694E-02
  -8.72000027       5.56961149E-02
  -8.71000004       5.32173477E-02
  -8.69999981       5.05606271E-02
  -8.68999958       4.77276742E-02
  -8.68000031       4.47245650E-02
  -8.67000008       4.15622331E-02
  -8.65999985       3.82560678E-02
  -8.64999962       3.48239206E-02
  -8.64000034       3.12840529E-02
  -8.63000011       2.76531838E-02
  -8.61999989       2.39457656E-02
  -8.60999966       2.01741159E-02
  -8.60000038       1.63495485E-02
  -8.59000015       1.24836909E-02
  -8.57999992       8.58959090E-03
  -8.56999969       4.68177069E-03
  -8.56000042       7.75533379E-04
  -8.55000019      -3.11445724E-03
  -8.53999996      -6.97587291E-03
  -8.52999973      -1.07995132E-02
  -8.52000046      -1.45798260E-02
  -8.51000023      -1.83139183E-02
  -8.50000000      -2.20005736E-02
  -8.48999977      -2.56386306E-02
  -8.47999954      -2.92262062E-02
  -8.47000027      -3.27606350E-02
  -8.46000004      -3.62389982E-02
  -8.44999981      -3.96594033E-02
  -8.43999958      -4.30218503E-02
  -8.43000031      -4.63286825E-02
  -8.42000008      -4.95842062E-02
  -8.40999985      -5.27933352E-02
  -8.39999962      -5.59600219E-02
  -8.39000034      -5.90858571E-02
  -8.38000011      -6.21694699E-02
  -8.36999989      -6.52065203E-02
  -8.35999966      -6.81912303E-02
  -8.35000038      -7.11176395E-02
  -8.34000015      -7.39812404E-02
  -8.32999992      -7.67796561E-02
  -8.31999969      -7.95125291E-02
  -8.31000042      -8.21805596E-02
  -8.30000019      -8.47839043E-02
  -8.28999996      -8.73210654E-02
  -8.27999973      -8.97881240E-02
  -8.27000046      -9.21789333E-02
  -8.26000023      -9.44860801E-02
  -8.25000000      -9.67023298E-02
  -8.23999977      -9.88217667E-02
  -8.22999954     -0.100840434    
  -8.22000027     -0.102756038    
  -8.21000004     -0.104567125    
  -8.19999981     -0.106271662    
  -8.18999958     -0.107866108    
  -8.18000031     -0.109344639    
  -8.17000008     -0.110699676    
  -8.15999985     -0.111922659    
  -8.14999962     -0.113005146    
  -8.14000034     -0.113940008    
  -8.13000011     -0.114721417    
  -8.11999989     -0.115344912    
  -8.10999966     -0.115806237    
  -8.10000038     -0.116100483    
  -8.09000015     -0.116221234    
  -8.07999992     -0.116160721    
  -8.06999969     -0.115910351    
  -8.06000042     -0.115461908    
  -8.05000019     -0.114808746    
  -8.03999996     -0.113946639    
  -8.02999973     -0.112873830    
  -8.02000046     -0.111590154    
  -8.01000023     -0.110096194    
  -8.00000000     -0.108391576    
  -7.98999977     -0.106474549    
  -7.98000002     -0.104341708    
  -7.96999979     -0.101988904    
  -7.96000004      -9.94123593E-02
  -7.94999981      -9.66104269E-02
  -7.94000006      -9.35840160E-02
  -7.92999983      -9.03372616E-02
  -7.92000008      -8.68766904E-02
  -7.90999985      -8.32103640E-02
  -7.90000010      -7.93468431E-02
  -7.88999987      -7.52946883E-02
  -7.88000011      -7.10625425E-02
  -7.86999989      -6.66602105E-02
  -7.86000013      -6.20996095E-02
  -7.84999990      -5.73958904E-02
  -7.84000015      -5.25674783E-02
  -7.82999992      -4.76355515E-02
  -7.82000017      -4.26223613E-02
  -7.80999994      -3.75491828E-02
  -7.80000019      -3.24345268E-02
  -7.78999996      -2.72931512E-02
  -7.78000021      -2.21361965E-02
  -7.76999998      -1.69724710E-02
  -7.76000023      -1.18102888E-02
  -7.75000000      -6.65942626E-03
  -7.73999977      -1.53228140E-03
  -7.73000002       3.55592463E-03
  -7.71999979       8.58850125E-03
  -7.71000004       1.35489227E-02
  -7.69999981       1.84228979E-02
  -7.69000006       2.31996737E-02
  -7.67999983       2.78723072E-02
  -7.67000008       3.24366391E-02
  -7.65999985       3.68893929E-02
  -7.65000010       4.12262790E-02
  -7.63999987       4.54403982E-02
  -7.63000011       4.95219529E-02
  -7.61999989       5.34594245E-02
  -7.61000013       5.72414026E-02
  -7.59999990       6.08593933E-02
  -7.59000015       6.43094555E-02
  -7.57999992       6.75935075E-02
  -7.57000017       7.07185790E-02
  -7.55999994       7.36950636E-02
  -7.55000019       7.65342489E-02
  -7.53999996       7.92459920E-02
  -7.53000021       8.18372071E-02
  -7.51999998       8.43114704E-02
  -7.51000023       8.66702944E-02
  -7.50000000       8.89151022E-02
  -7.48999977       9.10492837E-02
  -7.48000002       9.30798575E-02
  -7.46999979       9.50178653E-02
  -7.46000004       9.68777090E-02
  -7.44999981       9.86751840E-02
  -7.44000006      0.100425482    