  -16.0000000       0.00000000    
  -15.9899998       0.00000000    
  -15.9799995       0.00000000    
  -15.9700003       0.00000000    
  -15.9600000       0.00000000    
  -15.9499998       0.00000000    
  -15.9399996       0.00000000    
  -15.9300003       0.00000000    
  -15.9200001       0.00000000    
  -15.9099998       0.00000000    
  -15.8999996       0.00000000    
  -15.8900003       0.00000000    
  -15.8800001       9.90718014E-43
  -15.8699999       8.87091993E-41
  -15.8599997       2.07244476E-39
  -15.8500004       2.84679052E-38
  -15.8400002       2.80265477E-37
  -15.8299999       2.14922809E-36
  -15.8199997       1.34543622E-35
  -15.8100004       7.08333783E-35
  -15.8000002       3.20255653E-34
  -15.7900000       1.26306023E-33
  -15.7799997       4.39659315E-33
  -15.7700005       1.36250625E-32
  -15.7600002       3.78148863E-32
  -15.7500000       9.42891231E-32
  -15.7399998       2.11200294E-31
  -15.7299995       4.22980248E-31
  -15.7200003       7.47988732E-31
  -15.7100000       1.13421964E-30
  -15.6999998       1.36501601E-30
  -15.6899996       9.42764525E-31
  -15.6800003      -9.75912055E-31
  -15.6700001      -5.43893863E-30
  -15.6599998      -1.31178955E-29
  -15.6499996      -2.30508762E-29
  -15.6400003      -3.06418734E-29
  -15.6300001      -2.53319883E-29
  -15.6199999       1.07858870E-29
  -15.6099997       1.00943537E-28
  -15.6000004       2.64673137E-28
  -15.5900002       4.98068450E-28
  -15.5799999       7.42160571E-28
  -15.5699997       8.45677090E-28
  -15.5600004       5.42470813E-28
  -15.5500002      -5.17588521E-28
  -15.5400000      -2.63098632E-27
  -15.5299997      -5.75230554E-27
  -15.5200005      -9.07174865E-27
  -15.5100002      -1.06069814E-26
  -15.5000000      -7.14922067E-27
  -15.4899998       4.93327071E-27
  -15.4799995       2.75675548E-26
  -15.4700003       5.75256785E-26
  -15.4600000       8.27007199E-26
  -15.4499998       8.06331956E-26
  -15.4399996       2.30244093E-26
  -15.4300003      -1.10343213E-25
  -15.4200001      -3.08208178E-25
  -15.4099998      -5.01962203E-25
  -15.3999996      -5.53784300E-25
  -15.3900003      -2.82298633E-25
  -15.3800001       4.53768028E-25
  -15.3699999       1.61480892E-24
  -15.3599997       2.82558932E-24
  -15.3500004       3.30270660E-24
  -15.3400002       1.99655015E-24
  -15.3299999      -1.94290722E-24
  -15.3199997      -8.38887624E-24
  -15.3100004      -1.53890133E-23
  -15.3000002      -1.87587005E-23
  -15.2900000      -1.28032156E-23
  -15.2799997       7.27857424E-24
  -15.2700005       4.13831666E-23
  -15.2600002       8.00920064E-23
  -15.2500000       1.02403492E-22
  -15.2399998       7.89832845E-23
  -15.2299995      -1.63371121E-23
  -15.2200003      -1.87027157E-22
  -15.2100000      -3.91828348E-22
  -15.1999998      -5.32022941E-22
  -15.1899996      -4.63878637E-22
  -15.1800003      -4.96197706E-23
  -15.1700001       7.52555583E-22
  -15.1599998       1.78253040E-21
  -15.1499996       2.60804958E-21
  -15.1400003       2.56179189E-21
  -15.1300001       9.49811653E-22
  -15.1199999      -2.55666078E-21
  -15.1099997      -7.43380189E-21
  -15.1000004      -1.19352049E-20
  -15.0900002      -1.31480690E-20
  -15.0799999      -7.77162681E-21
  -15.0699997       6.28094233E-21
  -15.0600004       2.77564946E-20
  -15.0500002       5.02367821E-20
  -15.0400000       6.18793977E-20
  -15.0299997       4.80289046E-20
  -15.0200005      -2.67212518E-21
  -15.0100002      -8.95586187E-20
  -15.0000000      -1.91593344E-19
  -14.9899998      -2.64291237E-19
  -14.9799995      -2.47341531E-19
  -14.9700003      -8.62313429E-20
  -14.9600000       2.34231209E-19
  -14.9499998       6.54548329E-19
  -14.9399996       1.02119489E-18
  -14.9300003       1.10454906E-18
  -14.9200001       6.69431066E-19
  -14.9099998      -4.04491707E-19
  -14.8999996      -1.98356443E-18
  -14.8900003      -3.58361111E-18
  -14.8800001      -4.39429402E-18
  -14.8699999      -3.48913178E-18
  -14.8599997      -2.29591191E-19
  -14.8500004       5.22414394E-18
  -14.8400002       1.14928689E-17
  -14.8299999       1.59208462E-17
  -14.8199997       1.51334645E-17
  -14.8100004       6.30066657E-18
  -14.8000002      -1.11066467E-17
  -14.7900000      -3.36587567E-17
  -14.7799997      -5.32989162E-17
  -14.7700005      -5.85823273E-17
  -14.7600002      -3.83245549E-17
  -14.7500000       1.27459855E-17
  -14.7399998       8.79579196E-17
  -14.7299995       1.65026291E-16
  -14.7200003       2.07866134E-16
  -14.7100000       1.76101061E-16
  -14.6999998       4.19772323E-17
  -14.6899996      -1.89318031E-16
  -14.6800003      -4.63738098E-16
  -14.6700001      -6.76798118E-16
  -14.6599998      -6.94807256E-16
  -14.6499996      -4.01190776E-16
  -14.6400003       2.40355763E-16
  -14.6300001       1.12619912E-15
  -14.6199999       1.98583423E-15
  -14.6099997       2.41683170E-15
  -14.6000004       1.99748135E-15
  -14.5900002       4.65690826E-16
  -14.5799999      -2.08275004E-15
  -14.5699997      -5.05504901E-15
  -14.5600004      -7.37195390E-15
  -14.5500002      -7.69630314E-15
  -14.5400000      -4.88468104E-15
  -14.5299997       1.42671593E-15
  -14.5200005       1.02908523E-14
  -14.5100002       1.92256049E-14
  -14.5000000       2.45332742E-14
  -14.4899998       2.22773392E-14
  -14.4799995       9.80512550E-15
  -14.4700003      -1.25735976E-14
  -14.4600000      -4.03746691E-14
  -14.4499998      -6.48953005E-14
  -14.4399996      -7.48576683E-14
  -14.4300003      -5.97972667E-14
  -14.4200001      -1.45679164E-14
  -14.4099998       5.63637238E-14
  -14.3999996       1.36620533E-13
  -14.3900003       1.99326287E-13
  -14.3800001       2.13157481E-13
  -14.3699999       1.52529221E-13
  -14.3599997       9.60915511E-15
  -14.3500004      -1.95719959E-13
  -14.3400002      -4.12500709E-13
  -14.3299999      -5.65680803E-13
  -14.3199997      -5.74635879E-13
  -14.3100004      -3.80590389E-13
  -14.3000002       2.39994571E-14
  -14.2900000       5.74082231E-13
  -14.2799997       1.12925045E-12
  -14.2700005       1.49693441E-12
  -14.2600002       1.48202967E-12
  -14.2500000       9.54181395E-13
  -14.2399998      -8.51688511E-14
  -14.2299995      -1.45945148E-12
  -14.2200003      -2.81986999E-12
  -14.2100000      -3.70791895E-12
  -14.1999998      -3.67452336E-12
  -14.1899996      -2.43249561E-12
  -14.1800003      -9.75344039E-16
  -14.1700001       3.20839947E-12
  -14.1599998       6.40886432E-12
  -14.1499996       8.58257042E-12
  -14.1400003       8.73944146E-12
  -14.1300001       6.23832062E-12
  -14.1199999       1.08444493E-12
  -14.1099997      -5.89707233E-12
  -14.1000004      -1.30975881E-11
  -14.0900002      -1.84118779E-11
  -14.0799999      -1.97482742E-11
  -14.0699997      -1.56590591E-11
  -14.0600004      -5.92884335E-12
  -14.0500002       8.06502348E-12
  -14.0400000       2.33778691E-11
  -14.0299997       3.59843995E-11
  -14.0200005       4.16835420E-11
  -14.0100002       3.72471186E-11
  -14.0000000       2.15344201E-11
  -13.9899998      -3.74797112E-12
  -13.9799995      -3.39214351E-11
  -13.9700003      -6.19983162E-11
  -13.9600000      -8.00950278E-11
  -13.9499998      -8.13491496E-11
  -13.9399996      -6.19143695E-11
  -13.9300003      -2.25230546E-11
  -13.9200001       3.08632390E-11
  -13.9099998       8.76284462E-11
  -13.8999996       1.34347519E-10
  -13.8900003       1.57633115E-10
  -13.8800001       1.47425627E-10
  -13.8699999       9.99805794E-11
  -13.8599997       1.97902059E-11
  -13.8500004      -8.01772884E-11
  -13.8400002      -1.80200715E-10
  -13.8299999      -2.57348753E-10
  -13.8199997      -2.90255792E-10
  -13.8100004      -2.64184646E-10
  -13.8000002      -1.75259002E-10
  -13.7900000      -3.28161769E-11
  -13.7799997       1.40865875E-10
  -13.7700005       3.13687215E-10
  -13.7600002       4.49308535E-10
  -13.7500000       5.14230214E-10
  -13.7399998       4.84987384E-10
  -13.7299995       3.53967800E-10
  -13.7200003       1.32542088E-10
  -13.7100000      -1.49281726E-10
  -13.6999998      -4.46770426E-10
  -13.6899996      -7.07310155E-10
  -13.6800003      -8.78948081E-10
  -13.6700001      -9.19119114E-10
  -13.6599998      -8.02121647E-10
  -13.6499996      -5.24294441E-10
  -13.6400003      -1.06382451E-10
  -13.6300001       4.06864015E-10
  -13.6199999       9.49554435E-10
  -13.6099997       1.43973211E-09
  -13.6000004       1.78666160E-09
  -13.5900002       1.90075355E-09
  -13.5799999       1.70657899E-09
  -13.5699997       1.15893406E-09
  -13.5600004       2.60713451E-10
  -13.5500002      -9.20499621E-10
  -13.5400000      -2.24198948E-09
  -13.5299997      -3.48764995E-09
  -13.5200005      -4.38747527E-09
  -13.5100002      -4.65774841E-09
  -13.5000000      -4.06005052E-09
  -13.4899998      -2.47093901E-09
  -13.4799995       5.22562063E-11
  -13.4700003       3.22815619E-09
  -13.4600000       6.54953247E-09
  -13.4499998       9.33650846E-09
  -13.4399996       1.08475460E-08
  -13.4300003       1.04363762E-08
  -13.4200001       7.72719400E-09
  -13.4099998       2.76884071E-09
  -13.3999996      -3.87588406E-09
  -13.3900003      -1.11432055E-08
  -13.3800001      -1.76030674E-08
  -13.3699999      -2.17086740E-08
  -13.3599997      -2.21231584E-08
  -13.3500004      -1.80604136E-08
  -13.3400002      -9.56013047E-09
  -13.3299999       2.37780684E-09
  -13.3199997       1.58553313E-08
  -13.3100004       2.83493549E-08
  -13.3000002       3.71649236E-08
  -13.2900000       3.99874622E-08
  -13.2799997       3.54242253E-08
  -13.2700005       2.34094397E-08
  -13.2600002       5.37044498E-09
  -13.2500000      -1.59071494E-08
  -13.2399998      -3.67121906E-08
  -13.2299995      -5.30702771E-08
  -13.2200003      -6.15100930E-08
  -13.2100000      -5.97786993E-08
  -13.1999998      -4.73528488E-08
  -13.1899996      -2.56331436E-08
  -13.1800003       2.22960939E-09
  -13.1700001       3.18473710E-08
  -13.1599998       5.83481103E-08
  -13.1499996       7.72215003E-08
  -13.1400003       8.50922959E-08
  -13.1300001       8.02793565E-08
  -13.1199999       6.30473949E-08
  -13.1099997       3.55278083E-08
  -13.1000004       1.35221057E-09
  -13.0900002      -3.49105242E-08
  -13.0799999      -6.83972203E-08
  -13.0699997      -9.45674472E-08
  -13.0600004      -1.09719302E-07
  -13.0500002      -1.11368976E-07
  -13.0400000      -9.84981270E-08
  -13.0299997      -7.16884259E-08
  -13.0200005      -3.31636727E-08
  -13.0100002       1.32680960E-08
  -13.0000000       6.24047871E-08
  -12.9899998       1.08027159E-07
  -12.9799995       1.43506824E-07
  -12.9700003       1.62651588E-07
  -12.9600000       1.60725293E-07
  -12.9499998       1.35492797E-07
  -12.9399996       8.80785294E-08
  -12.9300003       2.33884805E-08
  -12.9200001      -5.01119786E-08
  -12.9099998      -1.21373759E-07
  -12.8999996      -1.78446427E-07
  -12.8900003      -2.10630134E-07
  -12.8800001      -2.10713353E-07
  -12.8699999      -1.76805401E-07
  -12.8599997      -1.13299258E-07
  -12.8500004      -3.06294794E-08
  -12.8400002       5.62851881E-08
  -12.8299999       1.30724757E-07
  -12.8199997       1.77511382E-07
  -12.8100004       1.86345758E-07
  -12.8000002       1.54404958E-07
  -12.7900000       8.75561739E-08
  -12.7799997      -1.93298433E-10
  -12.7700005      -8.90425014E-08
  -12.7600002      -1.57175165E-07
  -12.7500000      -1.85276548E-07
  -12.7399998      -1.60879054E-07
  -12.7299995      -8.16167400E-08
  -12.7200003       4.33549943E-08
  -12.7100000       1.94206550E-07
  -12.6999998       3.43496168E-07
  -12.6899996       4.60979379E-07
  -12.6800003       5.19300954E-07
  -12.6700001       4.99458054E-07
  -12.6599998       3.94936848E-07
  -12.6499996       2.13563681E-07
  -12.6400003      -2.34497541E-08
  -12.6300001      -2.85279071E-07
  -12.6199999      -5.37482151E-07
  -12.6099997      -7.49058188E-07
  -12.6000004      -8.99025110E-07
  -12.5900002      -9.80833192E-07
  -12.5799999      -1.00316947E-06
  -12.5699997      -9.86289251E-07
  -12.5600004      -9.53955464E-07
  -12.5500002      -9.22192953E-07
  -12.5400000      -8.87162344E-07
  -12.5299997      -8.15302428E-07
  -12.5200005      -6.39103234E-07
  -12.5100002      -2.61439965E-07
  -12.5000000       4.29993122E-07
  -12.4899998       1.53851181E-06
  -12.4799995       3.12731822E-06
  -12.4700003       5.18630713E-06
  -12.4600000       7.60315197E-06
  -12.4499998       1.01453670E-05
  -12.4399996       1.24585595E-05
  -12.4300003       1.40838702E-05
  -12.4200001       1.44933847E-05
  -12.4099998       1.31393335E-05
  -12.3999996       9.50872709E-06
  -12.3900003       3.17424815E-06
  -12.3800001      -6.16741954E-06
  -12.3699999      -1.86759953E-05
  -12.3599997      -3.43685570E-05
  -12.3500004      -5.31376354E-05
  -12.3400002      -7.47780650E-05
  -12.3299999      -9.90127301E-05
  -12.3199997      -1.25504957E-04
  -12.3100004      -1.53853573E-04
  -12.3000002      -1.83563141E-04
  -12.2900000      -2.14001717E-04
  -12.2799997      -2.44350435E-04
  -12.2700005      -2.73565558E-04
  -12.2600002      -3.00366461E-04
  -12.2500000      -3.23262735E-04
  -12.2399998      -3.40623665E-04
  -12.2299995      -3.50792776E-04
  -12.2200003      -3.52219999E-04
  -12.2100000      -3.43609252E-04
  -12.1999998      -3.24039866E-04
  -12.1899996      -2.93058401E-04
  -12.1800003      -2.50708457E-04
  -12.1700001      -1.97510715E-04
  -12.1599998      -1.34387999E-04
  -12.1499996      -6.25625617E-05
  -12.1400003       1.65667225E-05
  -12.1300001       1.01532089E-04
  -12.1199999       1.90880441E-04
  -12.1099997       2.83211557E-04
  -12.1000004       3.77198070E-04
  -12.0900002       4.71561740E-04
  -12.0799999       5.65050461E-04
  -12.0699997       6.56417047E-04
  -12.0600004       7.44416204E-04
  -12.0500002       8.27830867E-04
  -12.0400000       9.05514986E-04
  -12.0299997       9.76454176E-04
  -12.0200005       1.03981746E-03
  -12.0100002       1.09499553E-03
  -12.0000000       1.14160683E-03
  -11.9899998       1.17946847E-03
  -11.9799995       1.20853155E-03
  -11.9700003       1.22880307E-03
  -11.9600000       1.24024949E-03
  -11.9499998       1.24272017E-03
  -11.9399996       1.23588822E-03
  -11.9300003       1.21922570E-03
  -11.9200001       1.19200698E-03
  -11.9099998       1.15335640E-03
  -11.8999996       1.10229582E-03
  -11.8900003       1.03782094E-03
  -11.8800001       9.58974008E-04
  -11.8699999       8.64905713E-04
  -11.8599997       7.54946319E-04
  -11.8500004       6.28647860E-04
  -11.8400002       4.85838042E-04
  -11.8299999       3.26662237E-04
  -11.8199997       1.51614106E-04
  -11.8100004      -3.84416089E-05
  -11.8000002      -2.42258364E-04
  -11.7900000      -4.58217255E-04
  -11.7799997      -6.84365747E-04
  -11.7700005      -9.18470731E-04
  -11.7600002      -1.15809275E-03
  -11.7500000      -1.40066852E-03
  -11.7399998      -1.64359587E-03
  -11.7299995      -1.88430422E-03
  -11.7200003      -2.12031254E-03
  -11.7100000      -2.34927051E-03
  -11.6999998      -2.56897626E-03
  -11.6899996      -2.77738203E-03
  -11.6800003      -2.97260890E-03
  -11.6700001      -3.15294159E-03
  -11.6599998      -3.31683503E-03
  -11.6499996      -3.46292998E-03
  -11.6400003      -3.59005015E-03
  -11.6300001      -3.69719532E-03
  -11.6199999      -3.78351007E-03
  -11.6099997      -3.84823070E-03
  -11.6000004      -3.89061309E-03
  -11.5900002      -3.90984165E-03
  -11.5799999      -3.90494708E-03
  -11.5699997      -3.87475104E-03
  -11.5600004      -3.81782721E-03
  -11.5500002      -3.73253808E-03
  -11.5400000      -3.61710764E-03
  -11.5299997      -3.46975191E-03
  -11.5200005      -3.28884390E-03
  -11.5100002      -3.07307206E-03
  -11.5000000      -2.82161660E-03
  -11.4899998      -2.53425748E-03
  -11.4799995      -2.21143151E-03
  -11.4700003      -1.85421004E-03
  -11.4600000      -1.46421953E-03
  -11.4499998      -1.04347209E-03
  -11.4399996      -5.94157726E-04
  -11.4300003      -1.18421798E-04
  -11.4200001       3.81841208E-04
  -11.4099998       9.05155379E-04
  -11.3999996       1.45054329E-03
  -11.3900003       2.01751129E-03
  -11.3800001       2.60592648E-03
  -11.3699999       3.21582821E-03
  -11.3599997       3.84716620E-03
  -11.3500004       4.49954392E-03
  -11.3400002       5.17199375E-03
  -11.3299999       5.86288283E-03
  -11.3199997       6.56988099E-03
  -11.3100004       7.29014166E-03
  -11.3000002       8.02052487E-03
  -11.2900000       8.75790603E-03
  -11.2799997       9.49949678E-03
  -11.2700005       1.02430629E-02
  -11.2600002       1.09870108E-02
  -11.2500000       1.17303459E-02
  -11.2399998       1.24724507E-02
  -11.2299995       1.32128103E-02
  -11.2200003       1.39506469E-02
  -11.2100000       1.46846902E-02
  -11.1999998       1.54130086E-02
  -11.1899996       1.61330272E-02
  -11.1800003       1.68416891E-02
  -11.1700001       1.75357405E-02
  -11.1599998       1.82120278E-02
  -11.1499996       1.88678261E-02
  -11.1400003       1.95009988E-02
  -11.1300001       2.01101247E-02
  -11.1199999       2.06944607E-02
  -11.1099997       2.12538466E-02
  -11.1000004       2.17886157E-02
  -11.0900002       2.22994909E-02
  -11.0799999       2.27875337E-02
  -11.0699997       2.32541710E-02
  -11.0600004       2.37011481E-02
  -11.0500002       2.41305381E-02
  -11.0400000       2.45446041E-02
  -11.0299997       2.49456279E-02
  -11.0200005       2.53356546E-02
  -11.0100002       2.57162955E-02
  -11.0000000       2.60885600E-02
  -10.9899998       2.64529027E-02
  -10.9799995       2.68093310E-02
  -10.9700003       2.71577928E-02
  -10.9600000       2.74984743E-02
  -10.9499998       2.78321020E-02
  -10.9399996       2.81601083E-02
  -10.9300003       2.84844469E-02
  -10.9200001       2.88072899E-02
  -10.9099998       2.91304346E-02
  -10.8999996       2.94547658E-02
  -10.8900003       2.97797881E-02
  -10.8800001       3.01034674E-02
  -10.8699999       3.04224584E-02
  -10.8599997       3.07325404E-02
  -10.8500004       3.10294628E-02
  -10.8400002       3.13096717E-02
  -10.8299999       3.15709673E-02
  -10.8199997       3.18128169E-02
  -10.8100004       3.20363007E-02
  -10.8000002       3.22436616E-02
  -10.7900000       3.24375965E-02
  -10.7799997       3.26205194E-02
  -10.7700005       3.27940062E-02
  -10.7600002       3.29584070E-02
  -10.7500000       3.31128724E-02
  -10.7399998       3.32556851E-02
  -10.7299995       3.33847180E-02
  -10.7200003       3.34979109E-02
  -10.7100000       3.35937552E-02
  -10.6999998       3.36713120E-02
  -10.6899996       3.37303057E-02
  -10.6800003       3.37707959E-02
  -10.6700001       3.37929614E-02
  -10.6599998       3.37968767E-02
  -10.6499996       3.37823592E-02
  -10.6400003       3.37490365E-02
  -10.6300001       3.36965285E-02
  -10.6199999       3.36245522E-02
  -10.6099997       3.35331485E-02
  -10.6000004       3.34227718E-02
  -10.5900002       3.32942382E-02
  -10.5799999       3.31486836E-02
  -10.5699997       3.29875499E-02
  -10.5600004       3.28125693E-02
  -10.5500002       3.26258838E-02
  -10.5400000       3.24300230E-02
  -10.5299997       3.22281048E-02
  -10.5200005       3.20236199E-02
  -10.5100002       3.18203308E-02
  -10.5000000       3.16217020E-02
  -10.4899998       3.14304344E-02
  -10.4799995       3.12479548E-02
  -10.4700003       3.10739912E-02
  -10.4600000       3.09066046E-02
  -10.4499998       3.07423659E-02
  -10.4399996       3.05771641E-02
  -10.4300003       3.04069482E-02
  -10.4200001       3.02287526E-02
  -10.4099998       3.00414935E-02
  -10.3999996       2.98464280E-02
  -10.3900003       2.96472348E-02
  -10.3800001       2.94496659E-02
  -10.3699999       2.92606968E-02
  -10.3599997       2.90875994E-02
  -10.3500004       2.89368313E-02
  -10.3400002       2.88130436E-02
  -10.3299999       2.87185274E-02
  -10.3199997       2.86526456E-02
  -10.3100004       2.86121015E-02
  -10.3000002       2.85913777E-02
  -10.2900000       2.85836533E-02
  -10.2799997       2.85818167E-02
  -10.2700005       2.85797659E-02
  -10.2600002       2.85734385E-02
  -10.2500000       2.85615325E-02
  -10.2399998       2.85458304E-02
  -10.2299995       2.85308212E-02
  -10.2200003       2.85228100E-02
  -10.2100000       2.85288338E-02
  -10.1999998       2.85551250E-02
  -10.1899996       2.86060218E-02
  -10.1800003       2.86833849E-02
  -10.1700001       2.87866015E-02
  -10.1599998       2.89132260E-02
  -10.1499996       2.90602613E-02
  -10.1400003       2.92254351E-02
  -10.1300001       2.94083562E-02
  -10.1199999       2.96109803E-02
  -10.1099997       2.98373606E-02
  -10.1000004       3.00925896E-02
  -10.0900002       3.03814504E-02
  -10.0799999       3.07069197E-02
  -10.0699997       3.10689434E-02
  -10.0600004       3.14646512E-02
  -10.0500002       3.18885110E-02
  -10.0400000       3.23340297E-02
  -10.0299997       3.27955894E-02
  -10.0200005       3.32700200E-02
  -10.0100002       3.37577425E-02
  -10.0000000       3.42629924E-02
  -9.98999977       3.47929113E-02
  -9.97999954       3.53561714E-02
  -9.97000027       3.59609164E-02
  -9.96000004       3.66132706E-02
  -9.94999981       3.73163819E-02
  -9.93999958       3.80701348E-02
  -9.93000031       3.88719067E-02
  -9.92000008       3.97178233E-02
  -9.90999985       4.06040587E-02
  -9.89999962       4.15280089E-02
  -9.89000034       4.24884036E-02
  -9.88000011       4.34855111E-02
  -9.86999989       4.45199944E-02
  -9.85999966       4.55923900E-02
  -9.85000038       4.67020869E-02
  -9.84000015       4.78471890E-02
  -9.82999992       4.90250029E-02
  -9.81999969       5.02325557E-02
  -9.81000042       5.14679439E-02
  -9.80000019       5.27309738E-02
  -9.78999996       5.40237054E-02
  -9.77999973       5.53500466E-02
  -9.77000046       5.67153394E-02
  -9.76000023       5.81250861E-02
  -9.75000000       5.95840514E-02
  -9.73999977       6.10957071E-02
  -9.72999954       6.26620203E-02
  -9.72000027       6.42837808E-02
  -9.71000004       6.59613162E-02
  -9.69999981       6.76954016E-02
  -9.68999958       6.94871396E-02
  -9.68000031       7.13380873E-02
  -9.67000008       7.32495189E-02
  -9.65999985       7.52214193E-02
  -9.64999962       7.72515908E-02
  -9.64000034       7.93352500E-02
  -9.63000011       8.14652592E-02
  -9.61999989       8.36331993E-02
  -9.60999966       8.58306512E-02
  -9.60000038       8.80508870E-02
  -9.59000015       9.02896598E-02
  -9.57999992       9.25455540E-02
  -9.56999969       9.48190615E-02
  -9.56000042       9.71108973E-02
  -9.55000019       9.94199216E-02
  -9.53999996      0.101741195    
  -9.52999973      0.104064994    
  -9.52000046      0.106377073    
  -9.51000023      0.108659953    
  -9.50000000      0.110894844    
  -9.48999977      0.113064721    
  -9.47999954      0.115156017    
  -9.47000027      0.117159799    
  -9.46000004      0.119071186    
  -9.44999981      0.120888285    
  -9.43999958      0.122610107    
  -9.43000031      0.124234915    
  -9.42000008      0.125758663    
  -9.40999985      0.127175748    
  -9.39999962      0.128479749    
  -9.39000034      0.129666001    
  -9.38000011      0.130733341    
  -9.36999989      0.131685853    
  -9.35999966      0.132533237    
  -9.35000038      0.133289903    
  -9.34000015      0.133973733    
  -9.32999992      0.134603396    
  -9.31999969      0.135196894    
  -9.31000042      0.135771319    
  -9.30000019      0.136342704    
  -9.28999996      0.136927247    
  -9.27999973      0.137542695    
  -9.27000046      0.138209119    
  -9.26000023      0.138948828    
  -9.25000000      0.139784649    
  -9.23999977      0.140738070    
  -9.22999954      0.141826957    
  -9.22000027      0.143063977    
  -9.21000004      0.144456476    
  -9.19999981      0.146007419    
  -9.18999958      0.147718251    
  -9.18000031      0.149591237    
  -9.17000008      0.151631936    
  -9.15999985      0.153848797    
  -9.14999962      0.156253070    
  -9.14000034      0.158855096    
  -9.13000011      0.161661521    
  -9.11999989      0.164672554    
  -9.10999966      0.167880908    
  -9.10000038      0.171272218    
  -9.09000015      0.174828872    
  -9.07999992      0.178532422    
  -9.06999969      0.182367504    
  -9.06000042      0.186323628    
  -9.05000019      0.190394789    
  -9.03999996      0.194576368    
  -9.02999973      0.198863193    
  -9.02000046      0.203243792    
  -9.01000023      0.207700506    
  -9.00000000      0.212208793    
  -8.98999977      0.216739610    
  -8.97999954      0.221264139    
  -8.97000027      0.225757256    
  -8.96000004      0.230200216    
  -8.94999981      0.234581649    
  -8.93999958      0.238894165    
  -8.93000031      0.243131787    
  -8.92000008      0.247285113    
  -8.90999985      0.251338154    
  -8.89999962      0.255268335    
  -8.89000034      0.259048194    
  -8.88000011      0.262649596    
  -8.86999989      0.266048610    
  -8.85999966      0.269228041    
  -8.85000038      0.272180021    
  -8.84000015      0.274903983    
  -8.82999992      0.277402967    
  -8.81999969      0.279679328    
  -8.81000042      0.281731546    
  -8.80000019      0.283553004    
  -8.78999996      0.285132617    
  -8.77999973      0.286459535    
  -8.77000046      0.287526637    
  -8.76000023      0.288335323    
  -8.75000000      0.288895875    
  -8.73999977      0.289226532    
  -8.72999954      0.289349973    
  -8.72000027      0.289287835    
  -8.71000004      0.289057255    
  -8.69999981      0.288668305    
  -8.68999958      0.288124949    
  -8.68000031      0.287428439    
  -8.67000008      0.286581457    
  -8.65999985      0.285592496    
  -8.64999962      0.284477979    
  -8.64000034      0.283260047    
  -8.63000011      0.281964362    
  -8.61999989      0.280614555    
  -8.60999966      0.279227555    
  -8.60000038      0.277811795    
  -8.59000015      0.276367426    
  -8.57999992      0.274891049    
  -8.56999969      0.273379475    
  -8.56000042      0.271836668    
  -8.55000019      0.270274580    
  -8.53999996      0.268715292    
  -8.52999973      0.267187089    
  -8.52000046      0.265719593    
  -8.51000023      0.264337867    
  -8.50000000      0.263059646    
  -8.48999977      0.261893898    
  -8.47999954      0.260843366    
  -8.47000027      0.259906471    
  -8.46000004      0.259084105    
  -8.44999981      0.258381426    
  -8.43999958      0.257808357    
  -8.43000031      0.257378638    
  -8.42000008      0.257104874    
  -8.40999985      0.256994903    
  -8.39999962      0.257049024    
  -8.39000034      0.257258445    
  -8.38000011      0.257607460    
  -8.36999989      0.258077711    
  -8.35999966      0.258652389    
  -8.35000038      0.259320289    
  -8.34000015      0.260077477    
  -8.32999992      0.260926992    
  -8.31999969      0.261876106    
  -8.31000042      0.262932450    
  -8.30000019      0.264101267    
  -8.28999996      0.265384406    
  -8.27999973      0.266778141    
  -8.27000046      0.268277287    
  -8.26000023      0.269876391    
  -8.25000000      0.271572024    
  -8.23999977      0.273362309    
  -8.22999954      0.275249422    
  -8.22000027      0.277235061    
  -8.21000004      0.279319942    
  -8.19999981      0.281502306    
  -8.18999958      0.283777773    
  -8.18000031      0.286141127    
  -8.17000008      0.288587630    
  -8.15999985      0.291114897    
  -8.14999962      0.293726832    
  -8.14000034      0.296431392    
  -8.13000011      0.299241364    
  -8.11999989      0.302171230    
  -8.10999966      0.305236518    
  -8.10000038      0.308450073    
  -8.09000015      0.311822921    
  -8.07999992      0.315364689    
  -8.06999969      0.319081187    
  -8.06000042      0.322979897    
  -8.05000019      0.327068567    
  -8.03999996      0.331355453    
  -8.02999973      0.335850149    
  -8.02000046      0.340560555    
  -8.01000023      0.345494390    
  -8.00000000      0.350657821    
  -7.98999977      0.356054485    
  -7.98000002      0.361688554    
  -7.96999979      0.367561281    
  -7.96000004      0.373674750    
  -7.94999981      0.380029172    
  -7.94000006      0.386622965    
  -7.92999983      0.393453062    
  -7.92000008      0.400512666    
  -7.90999985      0.407793850    
  -7.90000010      0.415286988    
  -7.88999987      0.422984600    
  -7.88000011      0.430877835    
  -7.86999989      0.438962519    
  -7.86000013      0.447234631    
  -7.84999990      0.455690980    
  -7.84000015      0.464326948    
  -7.82999992      0.473134428    
  -7.82000017      0.482102603    
  -7.80999994      0.491216898    
  -7.80000019      0.500461757    
  -7.78999996      0.509822726    
  -7.78000021      0.519288421    
  -7.76999998      0.528849244    
  -7.76000023      0.538499653    
  -7.75000000      0.548233569    
  -7.73999977      0.558043838    
  -7.73000002      0.567919135    
  -7.71999979      0.577844322    
  -7.71000004      0.587800503    
  -7.69999981      0.597768962    
  -7.69000006      0.607732177    
  -7.67999983      0.617679656    
  -7.67000008      0.627603769    
  -7.65999985      0.637503445    
  -7.65000010      0.647381723    
  -7.63999987      0.657238007    
  -7.63000011      0.667070627    
  -7.61999989      0.676872849    
  -7.61000013      0.686634183    
  -7.59999990      0.696342707    
  -7.59000015      0.705990672    
  -7.57999992      0.715575874    
  -7.57000017      0.725103438    
  -7.55999994      0.734585524    
  -7.55000019      0.744038105    
  -7.53999996      0.753477037    
  -7.53000021      0.762916148    
  -7.51999998      0.772359312    
  -7.51000023      0.781808555    
  -7.50000000      0.791258037    
  -7.48999977      0.800706685    
  -7.48000002      0.810152590    
  -7.46999979      0.819601476    
  -7.46000004      0.829065979    
  -7.44999981      0.838563144    
  -7.44000006      0.848108292    