  -16.0000000       0.00000000    
  -15.9899998       0.00000000    
  -15.9799995       0.00000000    
  -15.9700003       0.00000000    
  -15.9600000       0.00000000    
  -15.9499998       0.00000000    
  -15.9399996       0.00000000    
  -15.9300003       0.00000000    
  -15.9200001       0.00000000    
  -15.9099998       0.00000000    
  -15.8999996       0.00000000    
  -15.8900003      -7.00649232E-45
  -15.8800001       4.16236539E-37
  -15.8699999       1.04690340E-36
  -15.8599997      -5.37352906E-35
  -15.8500004      -7.25276754E-34
  -15.8400002      -5.07742846E-33
  -15.8299999      -2.40205379E-32
  -15.8199997      -8.28868279E-32
  -15.8100004      -2.08936433E-31
  -15.8000002      -3.41967552E-31
  -15.7900000      -8.31257119E-32
  -15.7799997       1.73278118E-30
  -15.7700005       7.43590793E-30
  -15.7600002       2.06171432E-29
  -15.7500000       4.67512422E-29
  -15.7399998       9.86313924E-29
  -15.7299995       2.14905422E-28
  -15.7200003       4.93750275E-28
  -15.7100000       1.10401825E-27
  -15.6999998       2.14209170E-27
  -15.6899996       3.08767053E-27
  -15.6800003       1.65000177E-27
  -15.6700001      -7.65013193E-27
  -15.6599998      -3.33640708E-26
  -15.6499996      -8.14921726E-26
  -15.6400003      -1.39226197E-25
  -15.6300001      -1.46849243E-25
  -15.6199999       2.90644245E-26
  -15.6099997       5.81351340E-25
  -15.6000004       1.63890261E-24
  -15.5900002       2.96959844E-24
  -15.5799999       3.53388584E-24
  -15.5699997       1.13551410E-24
  -15.5600004      -7.25421263E-24
  -15.5500002      -2.36719235E-23
  -15.5400000      -4.52404819E-23
  -15.5299997      -5.87771488E-23
  -15.5200005      -3.70482276E-23
  -15.5100002       5.70583408E-23
  -15.5000000       2.50450968E-22
  -15.4899998       5.19230570E-22
  -15.4799995       7.35317470E-22
  -15.4700003       6.30281890E-22
  -15.4600000      -1.68351083E-22
  -15.4499998      -1.96271360E-21
  -15.4399996      -4.63865560E-21
  -15.4300003      -7.21469434E-21
  -15.4200001      -7.51942397E-21
  -15.4099998      -2.40992831E-21
  -15.3999996       1.09928046E-20
  -15.3900003       3.28076084E-20
  -15.3800001       5.70680758E-20
  -15.3699999       6.90972400E-20
  -15.3599997       4.62615912E-20
  -15.3500004      -3.47829771E-20
  -15.3400002      -1.82579725E-19
  -15.3299999      -3.69260250E-19
  -15.3199997      -5.11390507E-19
  -15.3100004      -4.68660993E-19
  -15.3000002      -7.89074922E-20
  -15.2900000       7.58269075E-19
  -15.2799997       1.95706053E-18
  -15.2700005       3.12142043E-18
  -15.2600002       3.50009234E-18
  -15.2500000       2.12057428E-18
  -15.2399998      -1.82035177E-18
  -15.2299995      -8.32116647E-18
  -15.2200003      -1.58647220E-17
  -15.2100000      -2.09900406E-17
  -15.1999998      -1.86365364E-17
  -15.1899996      -3.70131891E-18
  -15.1800003       2.60928169E-17
  -15.1700001       6.65930421E-17
  -15.1599998       1.04318149E-16
  -15.1499996       1.16432911E-16
  -15.1400003       7.58320540E-17
  -15.1300001      -3.75423068E-17
  -15.1199999      -2.20566797E-16
  -15.1099997      -4.31037491E-16
  -15.1000004      -5.80589734E-16
  -15.0900002      -5.46531280E-16
  -15.0799999      -2.09945123E-16
  -15.0699997       4.81020799E-16
  -15.0600004       1.43739628E-15
  -15.0500002       2.37519600E-15
  -15.0400000       2.82115398E-15
  -15.0299997       2.21566624E-15
  -15.0200005       1.26658213E-16
  -15.0100002      -3.45722681E-15
  -15.0000000      -7.84436958E-15
  -14.9899998      -1.15106187E-14
  -14.9799995      -1.22797992E-14
  -14.9700003      -7.92205013E-15
  -14.9600000       2.85221235E-15
  -14.9499998       1.92216763E-14
  -14.9399996       3.73363551E-14
  -14.9300003       5.02183371E-14
  -14.9200001       4.90026991E-14
  -14.9099998       2.57376348E-14
  -14.8999996      -2.26058796E-14
  -14.8900003      -8.99934966E-14
  -14.8800001      -1.58781015E-13
  -14.8699999      -2.00734245E-13
  -14.8599997      -1.83107151E-13
  -14.8500004      -7.99074484E-14
  -14.8400002       1.13652435E-13
  -14.8299999       3.67879853E-13
  -14.8199997       6.12598351E-13
  -14.8100004       7.44573023E-13
  -14.8000002       6.52069598E-13
  -14.7900000       2.55125971E-13
  -14.7799997      -4.46920116E-13
  -14.7700005      -1.33600726E-12
  -14.7600002      -2.16344651E-12
  -14.7500000      -2.58307330E-12
  -14.7399998      -2.23754587E-12
  -14.7299995      -8.88850462E-13
  -14.7200003       1.43678559E-12
  -14.7100000       4.33808805E-12
  -14.6999998       7.01859751E-12
  -14.6899996       8.40402921E-12
  -14.6800003       7.41252719E-12
  -14.6700001       3.34301488E-12
  -14.6599998      -3.71056874E-12
  -14.6499996      -1.25583164E-11
  -14.6400003      -2.08802906E-11
  -14.6300001      -2.55777864E-11
  -14.6199999      -2.35371896E-11
  -14.6099997      -1.26986217E-11
  -14.6000004       6.82613384E-12
  -14.5900002       3.19533913E-11
  -14.5799999       5.65363902E-11
  -14.5699997       7.22723964E-11
  -14.5600004       7.06607065E-11
  -14.5500002       4.57270055E-11
  -14.5400000      -3.12257121E-12
  -14.5299997      -6.90149188E-11
  -14.5200005      -1.37229936E-10
  -14.5100002      -1.87214466E-10
  -14.5000000      -1.97123567E-10
  -14.4899998      -1.50242777E-10
  -14.4799995      -4.18522057E-11
  -14.4700003       1.15493518E-10
  -14.4600000       2.90395874E-10
  -14.4499998       4.36346292E-10
  -14.4399996       5.01164221E-10
  -14.4300003       4.40903869E-10
  -14.4200001       2.35270747E-10
  -14.4099998      -9.96561583E-11
  -14.3999996      -5.05918751E-10
  -14.3900003      -8.88935925E-10
  -14.3800001      -1.13477017E-09
  -14.3699999      -1.13741860E-09
  -14.3599997      -8.30759350E-10
  -14.3500004      -2.17108567E-10
  -14.3400002       6.16538542E-10
  -14.3299999       1.50200408E-09
  -14.3199997       2.21668794E-09
  -14.3100004       2.53124122E-09
  -14.3000002       2.26954699E-09
  -14.2900000       1.36714817E-09
  -14.2799997      -8.80487905E-11
  -14.2700005      -1.84727467E-09
  -14.2600002      -3.53305629E-09
  -14.2500000      -4.71106532E-09
  -14.2399998      -4.98991604E-09
  -14.2299995      -4.12767553E-09
  -14.2200003      -2.11860263E-09
  -14.2100000       7.65378261E-10
  -14.1999998       3.99616562E-09
  -14.1899996       6.87777613E-09
  -14.1800003       8.68887540E-09
  -14.1700001       8.85115981E-09
  -14.1599998       7.08523507E-09
  -14.1499996       3.51405038E-09
  -14.1400003      -1.31739097E-09
  -14.1300001      -6.51982646E-09
  -14.1199999      -1.10257758E-08
  -14.1099997      -1.38121123E-08
  -14.1000004      -1.41306380E-08
  -14.0900002      -1.16924443E-08
  -14.0799999      -6.75981893E-09
  -14.0699997      -1.18995994E-10
  -14.0600004       7.06477365E-09
  -14.0500002       1.34795748E-08
  -14.0400000       1.79336723E-08
  -14.0299997       1.95948431E-08
  -14.0200005       1.81456166E-08
  -14.0100002       1.38203911E-08
  -14.0000000       7.32053307E-09
  -13.9899998      -3.63790137E-10
  -13.9799995      -8.17170864E-09
  -13.9700003      -1.51676502E-08
  -13.9600000      -2.06619699E-08
  -13.9499998      -2.42304310E-08
  -13.9399996      -2.56408654E-08
  -13.9300003      -2.47307632E-08
  -13.9200001      -2.12999094E-08
  -13.9099998      -1.50835220E-08
  -13.8999996      -5.84636162E-09
  -13.8900003       6.40335651E-09
  -13.8800001       2.11328430E-08
  -13.8699999       3.70313842E-08
  -13.8599997       5.18991143E-08
  -13.8500004       6.27771684E-08
  -13.8400002       6.63690685E-08
  -13.8299999       5.97241510E-08
  -13.8199997       4.10664214E-08
  -13.8100004       1.05826032E-08
  -13.8000002      -2.90529609E-08
  -13.7900000      -7.26159470E-08
  -13.7799997      -1.12854387E-07
  -13.7700005      -1.41589624E-07
  -13.7600002      -1.51246567E-07
  -13.7500000      -1.36534055E-07
  -13.7399998      -9.59151336E-08
  -13.7299995      -3.25048468E-08
  -13.7200003       4.58805367E-08
  -13.7100000       1.27637293E-07
  -13.6999998       1.99162940E-07
  -13.6899996       2.47227121E-07
  -13.6800003       2.61470376E-07
  -13.6700001       2.36528933E-07
  -13.6599998       1.73318213E-07
  -13.6499996       7.91732191E-08
  -13.6400003      -3.32220225E-08
  -13.6300001      -1.47927437E-07
  -13.6199999      -2.48445843E-07
  -13.6099997      -3.20479273E-07
  -13.6000004      -3.54183669E-07
  -13.5900002      -3.45473467E-07
  -13.5799999      -2.96172033E-07
  -13.5699997      -2.13051095E-07
  -13.5600004      -1.06089253E-07
  -13.5500002       1.35619258E-08
  -13.5400000       1.35357240E-07
  -13.5299997       2.50439342E-07
  -13.5200005       3.51798747E-07
  -13.5100002       4.33586820E-07
  -13.5000000       4.89945876E-07
  -13.4899998       5.13916007E-07
  -13.4799995       4.97026008E-07
  -13.4700003       4.30042064E-07
  -13.4600000       3.05039748E-07
  -13.4499998       1.18544179E-07
  -13.4399996      -1.24908368E-07
  -13.4300003      -4.09764397E-07
  -13.4200001      -7.08070388E-07
  -13.4099998      -9.80594564E-07
  -13.3999996      -1.18091350E-06
  -13.3900003      -1.26226814E-06
  -13.3800001      -1.18626792E-06
  -13.3699999      -9.31940065E-07
  -13.3599997      -5.03224442E-07
  -13.3500004       6.69407711E-08
  -13.3400002       7.17345756E-07
  -13.3299999       1.36462279E-06
  -13.3199997       1.91425352E-06
  -13.3100004       2.27494752E-06
  -13.3000002       2.37396011E-06
  -13.2900000       2.17055231E-06
  -13.2799997       1.66499603E-06
  -13.2700005       9.01166914E-07
  -13.2600002      -3.79965819E-08
  -13.2500000      -1.04154833E-06
  -13.2399998      -1.98622956E-06
  -13.2299995      -2.75400589E-06
  -13.2200003      -3.24833968E-06
  -13.2100000      -3.40646920E-06
  -13.1999998      -3.20585673E-06
  -13.1899996      -2.66422376E-06
  -13.1800003      -1.83400152E-06
  -13.1700001      -7.92971946E-07
  -13.1599998       3.66453776E-07
  -13.1499996       1.54707391E-06
  -13.1400003       2.65421272E-06
  -13.1300001       3.59996193E-06
  -13.1199999       4.30495720E-06
  -13.1099997       4.69916040E-06
  -13.1000004       4.72345528E-06
  -13.0900002       4.33372361E-06
  -13.0799999       3.50794767E-06
  -13.0699997       2.25573490E-06
  -13.0600004       6.28324585E-07
  -13.0500002      -1.27387329E-06
  -13.0400000      -3.29948898E-06
  -13.0299997      -5.25274800E-06
  -13.0200005      -6.90967954E-06
  -13.0100002      -8.04333376E-06
  -13.0000000      -8.45488103E-06
  -12.9899998      -8.00618818E-06
  -12.9799995      -6.64792651E-06
  -12.9700003      -4.43768931E-06
  -12.9600000      -1.54377676E-06
  -12.9499998       1.76738638E-06
  -12.9399996       5.15917873E-06
  -12.9300003       8.26455562E-06
  -12.9200001       1.07314463E-05
  -12.9099998       1.22667616E-05
  -12.8999996       1.26723380E-05
  -12.8900003       1.18673570E-05
  -12.8800001       9.89495311E-06
  -12.8699999       6.91304194E-06
  -12.8599997       3.17259310E-06
  -12.8500004      -1.01188402E-06
  -12.8400002      -5.29422550E-06
  -12.8299999      -9.32607600E-06
  -12.8199997      -1.27810663E-05
  -12.8100004      -1.53727251E-05
  -12.8000002      -1.68673596E-05
  -12.7900000      -1.70942003E-05
  -12.7799997      -1.59553820E-05
  -12.7700005      -1.34372094E-05
  -12.7600002      -9.62213744E-06
  -12.7500000      -4.69924953E-06
  -12.7399998       1.03116281E-06
  -12.7299995       7.16329259E-06
  -12.7200003       1.32058158E-05
  -12.7100000       1.86175057E-05
  -12.6999998       2.28571062E-05
  -12.6899996       2.54421502E-05
  -12.6800003       2.60092584E-05
  -12.6700001       2.43659942E-05
  -12.6599998       2.05264350E-05
  -12.6499996       1.47223391E-05
  -12.6400003       7.38812832E-06
  -12.6300001      -8.79837444E-07
  -12.6199999      -9.38390258E-06
  -12.6099997      -1.73967692E-05
  -12.6000004      -2.42344959E-05
  -12.5900002      -2.93209305E-05
  -12.5799999      -3.22356536E-05
  -12.5699997      -3.27417511E-05
  -12.5600004      -3.07929149E-05
  -12.5500002      -2.65224498E-05
  -12.5400000      -2.02195097E-05
  -12.5299997      -1.22986939E-05
  -12.5200005      -3.26837926E-06
  -12.5100002       6.29872966E-06
  -12.5000000       1.57911127E-05
  -12.4899998       2.45812680E-05
  -12.4799995       3.20476393E-05
  -12.4700003       3.75991476E-05
  -12.4600000       4.07039915E-05
  -12.4499998       4.09227614E-05
  -12.4399996       3.79458725E-05
  -12.4300003       3.16293408E-05
  -12.4200001       2.20254515E-05
  -12.4099998       9.40141854E-06
  -12.3999996      -5.75847025E-06
  -12.3900003      -2.27706514E-05
  -12.3800001      -4.07908337E-05
  -12.3699999      -5.88711227E-05
  -12.3599997      -7.60299372E-05
  -12.3500004      -9.13291005E-05
  -12.3400002      -1.03949067E-04
  -12.3299999      -1.13254006E-04
  -12.3199997      -1.18840500E-04
  -12.3100004      -1.20564378E-04
  -12.3000002      -1.18544544E-04
  -12.2900000      -1.13137939E-04
  -12.2799997      -1.04898812E-04
  -12.2700005      -9.45163192E-05
  -12.2600002      -8.27416152E-05
  -12.2500000      -7.03140176E-05
  -12.2399998      -5.78878535E-05
  -12.2299995      -4.59727016E-05
  -12.2200003      -3.48873655E-05
  -12.2100000      -2.47364187E-05
  -12.1999998      -1.54027693E-05
  -12.1899996      -6.56322663E-06
  -12.1800003       2.28284466E-06
  -12.1700001       1.17734153E-05
  -12.1599998       2.26363627E-05
  -12.1499996       3.56410819E-05
  -12.1400003       5.15431093E-05
  -12.1300001       7.10343083E-05
  -12.1199999       9.46868095E-05
  -12.1099997       1.22895042E-04
  -12.1000004       1.55817121E-04
  -12.0900002       1.93319240E-04
  -12.0799999       2.34926250E-04
  -12.0699997       2.79792614E-04
  -12.0600004       3.26696056E-04
  -12.0500002       3.74072028E-04
  -12.0400000       4.20079567E-04
  -12.0299997       4.62713477E-04
  -12.0200005       4.99937276E-04
  -12.0100002       5.29837387E-04
  -12.0000000       5.50766883E-04
  -11.9899998       5.61471388E-04
  -11.9799995       5.61171095E-04
  -11.9700003       5.49589633E-04
  -11.9600000       5.26933465E-04
  -11.9499998       4.93818254E-04
  -11.9399996       4.51161497E-04
  -11.9300003       4.00058634E-04
  -11.9200001       3.41665873E-04
  -11.9099998       2.77098123E-04
  -11.8999996       2.07371733E-04
  -11.8900003       1.33377573E-04
  -11.8800001       5.59020336E-05
  -11.8699999      -2.43309005E-05
  -11.8599997      -1.06596846E-04
  -11.8500004      -1.90112813E-04
  -11.8400002      -2.73991929E-04
  -11.8299999      -3.57231736E-04
  -11.8199997      -4.38735442E-04
  -11.8100004      -5.17366745E-04
  -11.8000002      -5.92035591E-04
  -11.7900000      -6.61800383E-04
  -11.7799997      -7.25966704E-04
  -11.7700005      -7.84169650E-04
  -11.7600002      -8.36422376E-04
  -11.7500000      -8.83115863E-04
  -11.7399998      -9.24965949E-04
  -11.7299995      -9.62916121E-04
  -11.7200003      -9.97991650E-04
  -11.7100000      -1.03113940E-03
  -11.6999998      -1.06305582E-03
  -11.6899996      -1.09404279E-03
  -11.6800003      -1.12389831E-03
  -11.6700001      -1.15186081E-03
  -11.6599998      -1.17662188E-03
  -11.6499996      -1.19639770E-03
  -11.6400003      -1.20905566E-03
  -11.6300001      -1.21228292E-03
  -11.6199999      -1.20377762E-03
  -11.6099997      -1.18143205E-03
  -11.6000004      -1.14351045E-03
  -11.5900002      -1.08877337E-03
  -11.5799999      -1.01656944E-03
  -11.5699997      -9.26863926E-04
  -11.5600004      -8.20228714E-04
  -11.5500002      -6.97780633E-04
  -11.5400000      -5.61094261E-04
  -11.5299997      -4.12094378E-04
  -11.5200005      -2.52944621E-04
  -11.5100002      -8.59350112E-05
  -11.5000000       8.66153641E-05
  -11.4899998       2.62452028E-04
  -11.4799995       4.39458614E-04
  -11.4700003       6.15733094E-04
  -11.4600000       7.89646816E-04
  -11.4499998       9.59900033E-04
  -11.4399996       1.12556620E-03
  -11.4300003       1.28612004E-03
  -11.4200001       1.44143612E-03
  -11.4099998       1.59176497E-03
  -11.3999996       1.73766771E-03
  -11.3900003       1.87993201E-03
  -11.3800001       2.01945147E-03
  -11.3699999       2.15709955E-03
  -11.3599997       2.29361607E-03
  -11.3500004       2.42949603E-03
  -11.3400002       2.56493106E-03
  -11.3299999       2.69978633E-03
  -11.3199997       2.83362716E-03
  -11.3100004       2.96579464E-03
  -11.3000002       3.09551251E-03
  -11.2900000       3.22201871E-03
  -11.2799997       3.34470137E-03
  -11.2700005       3.46322078E-03
  -11.2600002       3.57758813E-03
  -11.2500000       3.68820783E-03
  -11.2399998       3.79584730E-03
  -11.2299995       3.90154286E-03
  -11.2200003       4.00645798E-03
  -11.2100000       4.11168206E-03
  -11.1999998       4.21802327E-03
  -11.1899996       4.32581268E-03
  -11.1800003       4.43474995E-03
  -11.1700001       4.54385160E-03
  -11.1599998       4.65147849E-03
  -11.1499996       4.75549093E-03
  -11.1400003       4.85349819E-03
  -11.1300001       4.94316174E-03
  -11.1199999       5.02252206E-03
  -11.1099997       5.09028323E-03
  -11.1000004       5.14599727E-03
  -11.0900002       5.19012474E-03
  -11.0799999       5.22394665E-03
  -11.0699997       5.24935499E-03
  -11.0600004       5.26855933E-03
  -11.0500002       5.28377108E-03
  -11.0400000       5.29694138E-03
  -11.0299997       5.30959573E-03
  -11.0200005       5.32281632E-03
  -11.0100002       5.33734774E-03
  -11.0000000       5.35382191E-03
  -10.9899998       5.37299365E-03
  -10.9799995       5.39594516E-03
  -10.9700003       5.42420521E-03
  -10.9600000       5.45967557E-03
  -10.9499998       5.50442701E-03
  -10.9399996       5.56035526E-03
  -10.9300003       5.62877953E-03
  -10.9200001       5.71007840E-03
  -10.9099998       5.80344070E-03
  -10.8999996       5.90677559E-03
  -10.8900003       6.01688027E-03
  -10.8800001       6.12971373E-03
  -10.8699999       6.24088012E-03
  -10.8599997       6.34608231E-03
  -10.8500004       6.44155545E-03
  -10.8400002       6.52437843E-03
  -10.8299999       6.59258524E-03
  -10.8199997       6.64512394E-03
  -10.8100004       6.68169511E-03
  -10.8000002       6.70247711E-03
  -10.7900000       6.70788158E-03
  -10.7799997       6.69835880E-03
  -10.7700005       6.67427294E-03
  -10.7600002       6.63591875E-03
  -10.7500000       6.58356957E-03
  -10.7399998       6.51760446E-03
  -10.7299995       6.43860875E-03
  -10.7200003       6.34744018E-03
  -10.7100000       6.24526059E-03
  -10.6999998       6.13348465E-03
  -10.6899996       6.01371238E-03
  -10.6800003       5.88765275E-03
  -10.6700001       5.75707015E-03
  -10.6599998       5.62372897E-03
  -10.6499996       5.48940664E-03
  -10.6400003       5.35586802E-03
  -10.6300001       5.22485888E-03
  -10.6199999       5.09803975E-03
  -10.6099997       4.97689238E-03
  -10.6000004       4.86255158E-03
  -10.5900002       4.75564878E-03
  -10.5799999       4.65613464E-03
  -10.5699997       4.56321053E-03
  -10.5600004       4.47531883E-03
  -10.5500002       4.39026719E-03
  -10.5400000       4.30551032E-03
  -10.5299997       4.21850430E-03
  -10.5200005       4.12714388E-03
  -10.5100002       4.03015967E-03
  -10.5000000       3.92745482E-03
  -10.4899998       3.82029940E-03
  -10.4799995       3.71130160E-03
  -10.4700003       3.60421161E-03
  -10.4600000       3.50349676E-03
  -10.4499998       3.41384369E-03
  -10.4399996       3.33954790E-03
  -10.4300003       3.28397052E-03
  -10.4200001       3.24911135E-03
  -10.4099998       3.23529495E-03
  -10.3999996       3.24112014E-03
  -10.3900003       3.26353824E-03
  -10.3800001       3.29811010E-03
  -10.3699999       3.33936466E-03
  -10.3599997       3.38126393E-03
  -10.3500004       3.41757387E-03
  -10.3400002       3.44234798E-03
  -10.3299999       3.45028308E-03
  -10.3199997       3.43707553E-03
  -10.3100004       3.39970668E-03
  -10.3000002       3.33661749E-03
  -10.2900000       3.24783917E-03
  -10.2799997       3.13495798E-03
  -10.2700005       3.00090387E-03
  -10.2600002       2.84969248E-03
  -10.2500000       2.68593035E-03
  -10.2399998       2.51437095E-03
  -10.2299995       2.33937986E-03
  -10.2200003       2.16460065E-03
  -10.2100000       1.99272810E-03
  -10.1999998       1.82549504E-03
  -10.1899996       1.66391430E-03
  -10.1800003       1.50858983E-03
  -10.1700001       1.36016263E-03
  -10.1599998       1.21971802E-03
  -10.1499996       1.08902983E-03
  -10.1400003       9.70653491E-04
  -10.1300001       8.67764058E-04
  -10.1199999       7.83877796E-04
  -10.1099997       7.22337165E-04
  -10.1000004       6.85863954E-04
  -10.0900002       6.76117837E-04
  -10.0799999       6.93379669E-04
  -10.0699997       7.36450485E-04
  -10.0600004       8.02728580E-04
  -10.0500002       8.88469571E-04
  -10.0400000       9.89193446E-04
  -10.0299997       1.10014854E-03
  -10.0200005       1.21684710E-03
  -10.0100002       1.33547420E-03
  -10.0000000       1.45321630E-03
  -9.98999977       1.56852475E-03
  -9.97999954       1.68108405E-03
  -9.97000027       1.79178675E-03
  -9.96000004       1.90245674E-03
  -9.94999981       2.01552804E-03
  -9.93999958       2.13371194E-03
  -9.93000031       2.25964887E-03
  -9.92000008       2.39562616E-03
  -9.90999985       2.54342682E-03
  -9.89999962       2.70427717E-03
  -9.89000034       2.87885661E-03
  -9.88000011       3.06748040E-03
  -9.86999989       3.27027729E-03
  -9.85999966       3.48732015E-03
  -9.85000038       3.71882925E-03
  -9.84000015       3.96528421E-03
  -9.82999992       4.22741054E-03
  -9.81999969       4.50614421E-03
  -9.81000042       4.80259117E-03
  -9.80000019       5.11786109E-03
  -9.78999996       5.45291416E-03
  -9.77999973       5.80847031E-03
  -9.77000046       6.18483732E-03
  -9.76000023       6.58180797E-03
  -9.75000000       6.99864421E-03
  -9.73999977       7.43399700E-03
  -9.72999954       7.88596459E-03
  -9.72000027       8.35206453E-03
  -9.71000004       8.82933382E-03
  -9.69999981       9.31438524E-03
  -9.68999958       9.80347022E-03
  -9.68000031       1.02925757E-02
  -9.67000008       1.07775321E-02
  -9.65999985       1.12541988E-02
  -9.64999962       1.17186289E-02
  -9.64000034       1.21672489E-02
  -9.63000011       1.25970803E-02
  -9.61999989       1.30058788E-02
  -9.60999966       1.33921169E-02
  -9.60000038       1.37550328E-02
  -9.59000015       1.40944244E-02
  -9.57999992       1.44104473E-02
  -9.56999969       1.47033818E-02
  -9.56000042       1.49734244E-02
  -9.55000019       1.52206942E-02
  -9.53999996       1.54451467E-02
  -9.52999973       1.56468246E-02
  -9.52000046       1.58260074E-02
  -9.51000023       1.59834027E-02
  -9.50000000       1.61202680E-02
  -9.48999977       1.62383430E-02
  -9.47999954       1.63397323E-02
  -9.47000027       1.64266471E-02
  -9.46000004       1.65012162E-02
  -9.44999981       1.65652186E-02
  -9.43999958       1.66201442E-02
  -9.43000031       1.66672189E-02
  -9.42000008       1.67076420E-02
  -9.40999985       1.67427491E-02
  -9.39999962       1.67741012E-02
  -9.39000034       1.68035161E-02
  -9.38000011       1.68328695E-02
  -9.36999989       1.68638211E-02
  -9.35999966       1.68975256E-02
  -9.35000038       1.69344563E-02
  -9.34000015       1.69743821E-02
  -9.32999992       1.70164704E-02
  -9.31999969       1.70597527E-02
  -9.31000042       1.71033405E-02
  -9.30000019       1.71468817E-02
  -9.28999996       1.71906166E-02
  -9.27999973       1.72355082E-02
  -9.27000046       1.72828436E-02
  -9.26000023       1.73341054E-02
  -9.25000000       1.73907056E-02
  -9.23999977       1.74537674E-02
  -9.22999954       1.75241437E-02
  -9.22000027       1.76025145E-02
  -9.21000004       1.76894926E-02
  -9.19999981       1.77857168E-02
  -9.18999958       1.78917553E-02
  -9.18000031       1.80079397E-02
  -9.17000008       1.81341041E-02
  -9.15999985       1.82693209E-02
  -9.14999962       1.84118394E-02
  -9.14000034       1.85592324E-02
  -9.13000011       1.87086742E-02
  -9.11999989       1.88575443E-02
  -9.10999966       1.90036744E-02
  -9.10000038       1.91457532E-02
  -9.09000015       1.92833580E-02
  -9.07999992       1.94165986E-02
  -9.06999969       1.95458028E-02
  -9.06000042       1.96712799E-02
  -9.05000019       1.97928883E-02
  -9.03999996       1.99103821E-02
  -9.02999973       2.00236905E-02
  -9.02000046       2.01333333E-02
  -9.01000023       2.02411469E-02
  -9.00000000       2.03500893E-02
  -8.98999977       2.04642341E-02
  -8.97999954       2.05878429E-02
  -8.97000027       2.07246244E-02
  -8.96000004       2.08767150E-02
  -8.94999981       2.10439377E-02
  -8.93999958       2.12239362E-02
  -8.93000031       2.14126054E-02
  -8.92000008       2.16049626E-02
  -8.90999985       2.17965562E-02
  -8.89999962       2.19842289E-02
  -8.89000034       2.21670251E-02
  -8.88000011       2.23460309E-02
  -8.86999989       2.25238446E-02
  -8.85999966       2.27038823E-02
  -8.85000038       2.28894223E-02
  -8.84000015       2.30830926E-02
  -8.82999992       2.32864916E-02
  -8.81999969       2.35007145E-02
  -8.81000042       2.37264037E-02
  -8.80000019       2.39646956E-02
  -8.78999996       2.42169183E-02
  -8.77999973       2.44849194E-02
  -8.77000046       2.47702971E-02
  -8.76000023       2.50739120E-02
  -8.75000000       2.53954586E-02
  -8.73999977       2.57332548E-02
  -8.72999954       2.60846615E-02
  -8.72000027       2.64469013E-02
  -8.71000004       2.68177819E-02
  -8.69999981       2.71967631E-02
  -8.68999958       2.75853183E-02
  -8.68000031       2.79867165E-02
  -8.67000008       2.84056049E-02
  -8.65999985       2.88469978E-02
  -8.64999962       2.93156710E-02
  -8.64000034       2.98153777E-02
  -8.63000011       3.03489324E-02
  -8.61999989       3.09186112E-02
  -8.60999966       3.15265916E-02
  -8.60000038       3.21756452E-02
  -8.59000015       3.28692198E-02
  -8.57999992       3.36111486E-02
  -8.56999969       3.44051942E-02
  -8.56000042       3.52538750E-02
  -8.55000019       3.61578502E-02
  -8.53999996       3.71158347E-02
  -8.52999973       3.81242260E-02
  -8.52000046       3.91783789E-02
  -8.51000023       4.02733646E-02
  -8.50000000       4.14046608E-02
  -8.48999977       4.25689667E-02
  -8.47999954       4.37637344E-02
  -8.47000027       4.49867509E-02
  -8.46000004       4.62351702E-02
  -8.44999981       4.75044996E-02
  -8.43999958       4.87882793E-02
  -8.43000031       5.00781164E-02
  -8.42000008       5.13646379E-02
  -8.40999985       5.26384190E-02
  -8.39999962       5.38912453E-02
  -8.39000034       5.51168695E-02
  -8.38000011       5.63111603E-02
  -8.36999989       5.74713163E-02
  -8.35999966       5.85954376E-02
  -8.35000038       5.96807674E-02
  -8.34000015       6.07235506E-02
  -8.32999992       6.17185272E-02
  -8.31999969       6.26593381E-02
  -8.31000042       6.35397211E-02
  -8.30000019       6.43544272E-02
  -8.28999996       6.51001856E-02
  -8.27999973       6.57759905E-02
  -8.27000046       6.63829371E-02
  -8.26000023       6.69232160E-02
  -8.25000000       6.73991665E-02
  -8.23999977       6.78123906E-02
  -8.22999954       6.81633577E-02
  -8.22000027       6.84512481E-02
  -8.21000004       6.86749890E-02
  -8.19999981       6.88338429E-02
  -8.18999958       6.89285323E-02
  -8.18000031       6.89617097E-02
  -8.17000008       6.89380094E-02
  -8.15999985       6.88632056E-02
  -8.14999962       6.87436089E-02
  -8.14000034       6.85851425E-02
  -8.13000011       6.83919713E-02
  -8.11999989       6.81669712E-02
  -8.10999966       6.79111257E-02
  -8.10000038       6.76244348E-02
  -8.09000015       6.73065186E-02
  -8.07999992       6.69571906E-02
  -8.06999969       6.65769950E-02
  -8.06000042       6.61673322E-02
  -8.05000019       6.57302290E-02
  -8.03999996       6.52681738E-02
  -8.02999973       6.47834688E-02
  -8.02000046       6.42783269E-02
  -8.01000023       6.37545437E-02
  -8.00000000       6.32138476E-02
  -7.98999977       6.26582056E-02
  -7.98000002       6.20899536E-02
  -7.96999979       6.15120195E-02
  -7.96000004       6.09278940E-02
  -7.94999981       6.03417568E-02
  -7.94000006       5.97578883E-02
  -7.92999983       5.91804162E-02
  -7.92000008       5.86133301E-02
  -7.90999985       5.80599494E-02
  -7.90000010       5.75233698E-02
  -7.88999987       5.70060574E-02
  -7.88000011       5.65108433E-02
  -7.86999989       5.60407415E-02
  -7.86000013       5.55996485E-02
  -7.84999990       5.51920496E-02
  -7.84000015       5.48234321E-02
  -7.82999992       5.44993728E-02
  -7.82000017       5.42253628E-02
  -7.80999994       5.40059768E-02
  -7.80000019       5.38443327E-02
  -7.78999996       5.37424348E-02
  -7.78000021       5.37004136E-02
  -7.76999998       5.37175126E-02
  -7.76000023       5.37928715E-02
  -7.75000000       5.39259762E-02
  -7.73999977       5.41172288E-02
  -7.73000002       5.43682463E-02
  -7.71999979       5.46810366E-02
  -7.71000004       5.50577044E-02
  -7.69999981       5.54993637E-02
  -7.69000006       5.60051948E-02
  -7.67999983       5.65723553E-02
  -7.67000008       5.71959876E-02
  -7.65999985       5.78700081E-02
  -7.65000010       5.85887283E-02
  -7.63999987       5.93472905E-02
  -7.63000011       6.01427518E-02
  -7.61999989       6.09741397E-02
  -7.61000013       6.18418343E-02
  -7.59999990       6.27466589E-02
  -7.59000015       6.36886954E-02
  -7.57999992       6.46667108E-02
  -7.57000017       6.56780303E-02
  -7.55999994       6.67193457E-02
  -7.55000019       6.77874684E-02
  -7.53999996       6.88808337E-02
  -7.53000021       7.00000823E-02
  -7.51999998       7.11482093E-02
  -7.51000023       7.23294392E-02
  -7.50000000       7.35481009E-02
  -7.48999977       7.48073757E-02
  -7.48000002       7.61078969E-02
  -7.46999979       7.74476901E-02
  -7.46000004       7.88229257E-02
  -7.44999981       8.02296922E-02
  -7.44000006       8.16654786E-02