  -16.0000000       0.00000000    
  -15.9899998       0.00000000    
  -15.9799995       0.00000000    
  -15.9700003       0.00000000    
  -15.9600000       0.00000000    
  -15.9499998       0.00000000    
  -15.9399996       0.00000000    
  -15.9300003       0.00000000    
  -15.9200001       0.00000000    
  -15.9099998       0.00000000    
  -15.8999996       0.00000000    
  -15.8900003      -0.00000000    
  -15.8800001      -6.03137076E-40
  -15.8699999      -2.61906915E-38
  -15.8599997      -3.87968022E-37
  -15.8500004      -3.47747052E-36
  -15.8400002      -2.31790640E-35
  -15.8299999      -1.27644314E-34
  -15.8199997      -6.12014889E-34
  -15.8100004      -2.60269161E-33
  -15.8000002      -9.82195399E-33
  -15.7900000      -3.27061349E-32
  -15.7799997      -9.54489952E-32
  -15.7700005      -2.42102042E-31
  -15.7600002      -5.26254433E-31
  -15.7500000      -9.51291561E-31
  -15.7399998      -1.32073458E-30
  -15.7299995      -9.98557531E-31
  -15.7200003       1.28712889E-30
  -15.7100000       7.24054642E-30
  -15.6999998       1.78656755E-29
  -15.6899996       3.10743982E-29
  -15.6800003       3.86577955E-29
  -15.6700001       2.50255502E-29
  -15.6599998      -2.79644908E-29
  -15.6499996      -1.25360104E-28
  -15.6400003      -2.31124473E-28
  -15.6300001      -2.34658627E-28
  -15.6199999       6.72498264E-29
  -15.6099997       9.32532872E-28
  -15.6000004       2.51583420E-27
  -15.5900002       4.51022826E-27
  -15.5799999       5.54330902E-27
  -15.5699997       2.46691153E-27
  -15.5600004      -9.85388806E-27
  -15.5500002      -3.68731583E-26
  -15.5400000      -7.87570748E-26
  -15.5299997      -1.19354224E-25
  -15.5200005      -1.12009756E-25
  -15.5100002       2.70826457E-26
  -15.5000000       3.95784163E-25
  -15.4899998       1.02467598E-24
  -15.4799995       1.72456353E-24
  -15.4700003       1.90662415E-24
  -15.4600000       5.21366061E-25
  -15.4499998      -3.62758792E-24
  -15.4399996      -1.09256936E-23
  -15.4300003      -1.93179177E-23
  -15.4200001      -2.26022234E-23
  -15.4099998      -1.01721855E-23
  -15.3999996       2.94952473E-23
  -15.3900003       9.96467260E-23
  -15.3800001       1.80973274E-22
  -15.3699999       2.18240301E-22
  -15.3599997       1.20717592E-22
  -15.3500004      -2.06443624E-22
  -15.3400002      -7.87921239E-22
  -15.3299999      -1.47059465E-21
  -15.3199997      -1.83088876E-21
  -15.3100004      -1.18960487E-21
  -15.3000002       1.15351589E-21
  -15.2900000       5.39983544E-21
  -15.2799997       1.05300254E-20
  -15.2700005       1.37083764E-20
  -15.2600002       1.03961481E-20
  -15.2500000      -4.15816828E-21
  -15.2399998      -3.17038489E-20
  -15.2299995      -6.65922528E-20
  -15.2200003      -9.21325851E-20
  -15.2100000      -8.09997616E-20
  -15.1999998      -3.38010454E-21
  -15.1899996       1.55254382E-19
  -15.1800003       3.69599937E-19
  -15.1700001       5.53238660E-19
  -15.1599998       5.57652547E-19
  -15.1499996       2.10602924E-19
  -15.1400003      -5.95569731E-19
  -15.1300001      -1.77787832E-18
  -15.1199999      -2.94531450E-18
  -15.1099997      -3.37065967E-18
  -15.1000004      -2.14434042E-18
  -15.0900002       1.43147762E-18
  -15.0799999       7.24822554E-18
  -15.0699997       1.37875101E-17
  -15.0600004       1.78583530E-17
  -15.0500002       1.50981770E-17
  -15.0400000       1.54420620E-18
  -15.0299997      -2.38002097E-17
  -15.0200005      -5.61049743E-17
  -15.0100002      -8.29456087E-17
  -15.0000000      -8.54275410E-17
  -14.9899998      -4.37002529E-17
  -14.9799995       5.29744828E-17
  -14.9700003       1.93807359E-16
  -14.9600000       3.36734692E-16
  -14.9499998       4.08405618E-16
  -14.9399996       3.20628123E-16
  -14.9300003       5.89962625E-18
  -14.9200001      -5.33598411E-16
  -14.9099998      -1.17979715E-15
  -14.8999996      -1.68082264E-15
  -14.8900003      -1.68885548E-15
  -14.8800001      -8.70700477E-16
  -14.8699999       9.17859936E-16
  -14.8599997       3.44000472E-15
  -14.8500004       5.95150252E-15
  -14.8400002       7.24203768E-15
  -14.8299999       5.92638672E-15
  -14.8199997       9.96154898E-16
  -14.8100004      -7.47543930E-15
  -14.8000002      -1.77186265E-14
  -14.7900000      -2.60827821E-14
  -14.7799997      -2.76165860E-14
  -14.7700005      -1.75797080E-14
  -14.7600002       6.28133164E-15
  -14.7500000       4.13045723E-14
  -14.7399998       7.83425313E-14
  -14.7299995       1.02222775E-13
  -14.7200003       9.51289286E-14
  -14.7100000       4.29621176E-14
  -14.6999998      -5.65342688E-14
  -14.6899996      -1.86507426E-13
  -14.6800003      -3.08167662E-13
  -14.6700001      -3.65871829E-13
  -14.6599998      -3.01940086E-13
  -14.6499996      -7.97783335E-14
  -14.6400003       2.90314051E-13
  -14.6300001       7.32096404E-13
  -14.6199999       1.10225544E-12
  -14.6099997       1.21614622E-12
  -14.6000004       9.02541822E-13
  -14.5900002       7.86667010E-14
  -14.5799999      -1.17535051E-12
  -14.5699997      -2.57268339E-12
  -14.5600004      -3.63769366E-12
  -14.5500002      -3.80585580E-12
  -14.5400000      -2.60247748E-12
  -14.5299997       1.35180766E-13
  -14.5200005       4.05957386E-12
  -14.5100002       8.22433094E-12
  -14.5000000       1.11850910E-11
  -14.4899998       1.13293498E-11
  -14.4799995       7.40480073E-12
  -14.4700003      -8.71271371E-13
  -14.4600000      -1.23152807E-11
  -14.4499998      -2.41196247E-11
  -14.4399996      -3.22231339E-11
  -14.4300003      -3.22765009E-11
  -14.4200001      -2.10785070E-11
  -14.4099998       1.85564151E-12
  -14.3999996       3.31033742E-11
  -14.3900003       6.50781026E-11
  -14.3800001       8.71304556E-11
  -14.3699999       8.81023934E-11
  -14.3599997       5.99542777E-11
  -14.3500004       1.58647249E-12
  -14.3400002      -7.83832305E-11
  -14.3299999      -1.61177238E-10
  -14.3199997      -2.20663959E-10
  -14.3100004      -2.29530200E-10
  -14.3000002      -1.67835815E-10
  -14.2900000      -3.18857440E-11
  -14.2799997       1.59399174E-10
  -14.2700005       3.63447300E-10
  -14.2600002       5.20274435E-10
  -14.2500000       5.66153346E-10
  -14.2399998       4.52512999E-10
  -14.2299995       1.65584171E-10
  -14.2200003      -2.59181510E-10
  -14.2100000      -7.33886785E-10
  -14.1999998      -1.13023235E-09
  -14.1899996      -1.30722178E-09
  -14.1800003      -1.15020460E-09
  -14.1700001      -6.12340345E-10
  -14.1599998       2.53481264E-10
  -14.1499996       1.28418631E-09
  -14.1400003       2.22606000E-09
  -14.1300001       2.78580248E-09
  -14.1199999       2.70559997E-09
  -14.1099997       1.84601179E-09
  -14.1000004       2.54288146E-10
  -14.0900002      -1.80485116E-09
  -14.0799999      -3.87332388E-09
  -14.0699997      -5.38381251E-09
  -14.0600004      -5.79321702E-09
  -14.0500002      -4.73829864E-09
  -14.0400000      -2.17463159E-09
  -14.0299997       1.54328195E-09
  -14.0200005       5.67467584E-09
  -14.0100002       9.21304988E-09
  -14.0000000       1.11026797E-08
  -13.9899998       1.05106412E-08
  -13.9799995       7.09137016E-09
  -13.9700003       1.17122179E-09
  -13.9600000      -6.21103080E-09
  -13.9499998      -1.34441223E-08
  -13.9399996      -1.86597156E-08
  -13.9300003      -2.01700860E-08
  -13.9200001      -1.69345409E-08
  -13.9099998      -8.93669583E-09
  -13.8999996       2.63959077E-09
  -13.8900003       1.55144555E-08
  -13.8800001       2.67137121E-08
  -13.8699999       3.32110055E-08
  -13.8599997       3.26824114E-08
  -13.8500004       2.41963622E-08
  -13.8400002       8.65367422E-09
  -13.8299999      -1.11725242E-08
  -13.8199997      -3.10639017E-08
  -13.8100004      -4.62081715E-08
  -13.8000002      -5.23181605E-08
  -13.7900000      -4.67677239E-08
  -13.7799997      -2.94623845E-08
  -13.7700005      -3.18296545E-09
  -13.7600002       2.67498947E-08
  -13.7500000       5.34945208E-08
  -13.7399998       7.02161458E-08
  -13.7299995       7.17986026E-08
  -13.7200003       5.63242679E-08
  -13.7100000       2.59169219E-08
  -13.6999998      -1.33471572E-08
  -13.6899996      -5.25458361E-08
  -13.6800003      -8.18721446E-08
  -13.6700001      -9.30439512E-08
  -13.6599998      -8.15918568E-08
  -13.6499996      -4.84196079E-08
  -13.6400003      -1.48205281E-10
  -13.6300001       5.19857863E-08
  -13.6199999       9.45566470E-08
  -13.6099997       1.15222953E-07
  -13.6000004       1.06092820E-07
  -13.5900002       6.63149251E-08
  -13.5799999       3.13116399E-09
  -13.5699997      -6.90600928E-08
  -13.5600004      -1.31622940E-07
  -13.5500002      -1.66055017E-07
  -13.5400000      -1.58858086E-07
  -13.5299997      -1.05703961E-07
  -13.5200005      -1.37578882E-08
  -13.5100002       9.86617650E-08
  -13.5000000       2.05302257E-07
  -13.4899998       2.77592818E-07
  -13.4799995       2.91530597E-07
  -13.4700003       2.34254884E-07
  -13.4600000       1.08654490E-07
  -13.4499998      -6.53449703E-08
  -13.4399996      -2.53481204E-07
  -13.4300003      -4.13611275E-07
  -13.4200001      -5.04750062E-07
  -13.4099998      -4.96795394E-07
  -13.3999996      -3.78682927E-07
  -13.3900003      -1.62915867E-07
  -13.3800001       1.14938572E-07
  -13.3699999       4.02089057E-07
  -13.3599997       6.38792699E-07
  -13.3500004       7.71022087E-07
  -13.3400002       7.62788602E-07
  -13.3299999       6.05266962E-07
  -13.3199997       3.20390910E-07
  -13.3100004      -4.22172306E-08
  -13.3000002      -4.14690078E-07
  -13.2900000      -7.24872166E-07
  -13.2799997      -9.11789073E-07
  -13.2700005      -9.39092160E-07
  -13.2600002      -8.03265436E-07
  -13.2500000      -5.34438300E-07
  -13.2399998      -1.89404389E-07
  -13.2299995       1.61720465E-07
  -13.2200003       4.52087335E-07
  -13.2100000       6.33896207E-07
  -13.1999998       6.89313651E-07
  -13.1899996       6.33575098E-07
  -13.1800003       5.09136555E-07
  -13.1700001       3.72154773E-07
  -13.1599998       2.74665609E-07
  -13.1499996       2.47242980E-07
  -13.1400003       2.87212117E-07
  -13.1300001       3.56291082E-07
  -13.1199999       3.89358121E-07
  -13.1099997       3.12990807E-07
  -13.1000004       6.96146500E-08
  -13.0900002      -3.59009448E-07
  -13.0799999      -9.35762614E-07
  -13.0699997      -1.56526903E-06
  -13.0600004      -2.10687858E-06
  -13.0500002      -2.40242753E-06
  -13.0400000      -2.31360241E-06
  -13.0299997      -1.76057142E-06
  -13.0200005      -7.52227550E-07
  -13.0100002       6.00617113E-07
  -13.0000000       2.09450764E-06
  -12.9899998       3.46544698E-06
  -12.9799995       4.43870294E-06
  -12.9700003       4.78638685E-06
  -12.9600000       4.38001553E-06
  -12.9499998       3.22570554E-06
  -12.9399996       1.47247135E-06
  -12.9300003      -6.09943356E-07
  -12.9200001      -2.68042709E-06
  -12.9099998      -4.39310679E-06
  -12.8999996      -5.46682440E-06
  -12.8900003      -5.74165915E-06
  -12.8800001      -5.20930007E-06
  -12.8699999      -4.00968202E-06
  -12.8599997      -2.39445490E-06
  -12.8500004      -6.65744835E-07
  -12.8400002       8.94912375E-07
  -12.8299999       2.08975484E-06
  -12.8199997       2.84404700E-06
  -12.8100004       3.21089351E-06
  -12.8000002       3.34002107E-06
  -12.7900000       3.41829059E-06
  -12.7799997       3.59778187E-06
  -12.7700005       3.93164964E-06
  -12.7600002       4.33701007E-06
  -12.7500000       4.59842477E-06
  -12.7399998       4.41529392E-06
  -12.7299995       3.48511185E-06
  -12.7200003       1.60376203E-06
  -12.7100000      -1.24251449E-06
  -12.6999998      -4.81946654E-06
  -12.6899996      -8.64157209E-06
  -12.6800003      -1.20321165E-05
  -12.6700001      -1.42399977E-05
  -12.6599998      -1.45934746E-05
  -12.6499996      -1.26586701E-05
  -12.6400003      -8.36755771E-06
  -12.6300001      -2.08311394E-06
  -12.6199999       5.41849113E-06
  -12.6099997       1.30525959E-05
  -12.6000004       1.96021738E-05
  -12.5900002       2.39335623E-05
  -12.5799999       2.52092887E-05
  -12.5699997       2.30549776E-05
  -12.5600004       1.76438734E-05
  -12.5500002       9.67981305E-06
  -12.5400000       2.79942554E-07
  -12.5299997      -9.22085201E-06
  -12.5200005      -1.75045843E-05
  -12.5100002      -2.34970703E-05
  -12.5000000      -2.65413310E-05
  -12.4899998      -2.64843056E-05
  -12.4799995      -2.36623200E-05
  -12.4700003      -1.87930509E-05
  -12.4600000      -1.28021320E-05
  -12.4499998      -6.62613274E-06
  -12.4399996      -1.03782884E-06
  -12.4300003       3.46738102E-06
  -12.4200001       6.70032841E-06
  -12.4099998       8.72057444E-06
  -12.3999996       9.71167628E-06
  -12.3900003       9.82671008E-06
  -12.3800001       9.04811441E-06
  -12.3699999       7.10412087E-06
  -12.3599997       3.46976663E-06
  -12.3500004      -2.53958160E-06
  -12.3400002      -1.15987750E-05
  -12.3299999      -2.41647322E-05
  -12.3199997      -4.02784426E-05
  -12.3100004      -5.94270205E-05
  -12.3000002      -8.05073432E-05
  -12.2900000      -1.01906997E-04
  -12.2799997      -1.21696627E-04
  -12.2700005      -1.37900919E-04
  -12.2600002      -1.48792256E-04
  -12.2500000      -1.53155124E-04
  -12.2399998      -1.50459440E-04
  -12.2299995      -1.40911987E-04
  -12.2200003      -1.25375402E-04
  -12.2100000      -1.05175161E-04
  -12.1999998      -8.18328408E-05
  -12.1899996      -5.67912284E-05
  -12.1800003      -3.11811636E-05
  -12.1700001      -5.68121732E-06
  -12.1599998       1.95083321E-05
  -12.1499996       4.45817423E-05
  -12.1400003       6.99628654E-05
  -12.1300001       9.61073456E-05
  -12.1199999       1.23324920E-04
  -12.1099997       1.51663146E-04
  -12.1000004       1.80881907E-04
  -12.0900002       2.10516606E-04
  -12.0799999       2.40004665E-04
  -12.0699997       2.68837757E-04
  -12.0600004       2.96687940E-04
  -12.0500002       3.23470857E-04
  -12.0400000       3.49320355E-04
  -12.0299997       3.74481548E-04
  -12.0200005       3.99146142E-04
  -12.0100002       4.23273188E-04
  -12.0000000       4.46452817E-04
  -11.9899998       4.67845442E-04
  -11.9799995       4.86226287E-04
  -11.9700003       5.00127557E-04
  -11.9600000       5.08049678E-04
  -11.9499998       5.08689438E-04
  -11.9399996       5.01136761E-04
  -11.9300003       4.84979944E-04
  -11.9200001       4.60303796E-04
  -11.9099998       4.27579565E-04
  -11.8999996       3.87477805E-04
  -11.8900003       3.40649858E-04
  -11.8800001       2.87549803E-04
  -11.8699999       2.28334131E-04
  -11.8599997       1.62877244E-04
  -11.8500004       9.08992297E-05
  -11.8400002       1.21726252E-05
  -11.8299999      -7.32434200E-05
  -11.8199997      -1.64805839E-04
  -11.8100004      -2.61384092E-04
  -11.8000002      -3.61280807E-04
  -11.7900000      -4.62382421E-04
  -11.7799997      -5.62413130E-04
  -11.7700005      -6.59226382E-04
  -11.7600002      -7.51085754E-04
  -11.7500000      -8.36858177E-04
  -11.7399998      -9.16088524E-04
  -11.7299995      -9.88931861E-04
  -11.7200003      -1.05597032E-03
  -11.7100000      -1.11795263E-03
  -11.6999998      -1.17551454E-03
  -11.6899996      -1.22894510E-03
  -11.6800003      -1.27803814E-03
  -11.6700001      -1.32206001E-03
  -11.6599998      -1.35983061E-03
  -11.6499996      -1.38989394E-03
  -11.6400003      -1.41073205E-03
  -11.6300001      -1.42098591E-03
  -11.6199999      -1.41963200E-03
  -11.6099997      -1.40608370E-03
  -11.6000004      -1.38021784E-03
  -11.5900002      -1.34231662E-03
  -11.5799999      -1.29295315E-03
  -11.5699997      -1.23284839E-03
  -11.5600004      -1.16272934E-03
  -11.5500002      -1.08320813E-03
  -11.5400000      -9.94707458E-04
  -11.5299997      -8.97431397E-04
  -11.5200005      -7.91381055E-04
  -11.5100002      -6.76410680E-04
  -11.5000000      -5.52291225E-04
  -11.4899998      -4.18789627E-04
  -11.4799995      -2.75729341E-04
  -11.4700003      -1.23038670E-04
  -11.4600000       3.92319162E-05
  -11.4499998       2.10905084E-04
  -11.4399996       3.91699665E-04
  -11.4300003       5.81250992E-04
  -11.4200001       7.79145281E-04
  -11.4099998       9.84933577E-04
  -11.3999996       1.19813846E-03
  -11.3900003       1.41823501E-03
  -11.3800001       1.64462253E-03
  -11.3699999       1.87657448E-03
  -11.3599997       2.11318815E-03
  -11.3500004       2.35334225E-03
  -11.3400002       2.59567937E-03
  -11.3299999       2.83861975E-03
  -11.3199997       3.08042276E-03
  -11.3100004       3.31929326E-03
  -11.3000002       3.55352508E-03
  -11.2900000       3.78166093E-03
  -11.2799997       4.00265399E-03
  -11.2700005       4.21599299E-03
  -11.2600002       4.42176824E-03
  -11.2500000       4.62066988E-03
  -11.2399998       4.81390534E-03
  -11.2299995       5.00305556E-03
  -11.2200003       5.18987048E-03
  -11.2100000       5.37607446E-03
  -11.1999998       5.56315621E-03
  -11.1899996       5.75222448E-03
  -11.1800003       5.94389113E-03
  -11.1700001       6.13823021E-03
  -11.1599998       6.33476768E-03
  -11.1499996       6.53252099E-03
  -11.1400003       6.73006661E-03
  -11.1300001       6.92562992E-03
  -11.1199999       7.11719412E-03
  -11.1099997       7.30265537E-03
  -11.1000004       7.47998571E-03
  -11.0900002       7.64740584E-03
  -11.0799999       7.80357886E-03
  -11.0699997       7.94773176E-03
  -11.0600004       8.07972811E-03
  -11.0500002       8.20002519E-03
  -11.0400000       8.30956362E-03
  -11.0299997       8.40953458E-03
  -11.0200005       8.50113481E-03
  -11.0100002       8.58534966E-03
  -11.0000000       8.66280496E-03
  -10.9899998       8.73375684E-03
  -10.9799995       8.79821647E-03
  -10.9700003       8.85617174E-03
  -10.9600000       8.90787225E-03
  -10.9499998       8.95403232E-03
  -10.9399996       8.99594836E-03
  -10.9300003       9.03541315E-03
  -10.9200001       9.07446165E-03
  -10.9099998       9.11498908E-03
  -10.8999996       9.15830676E-03
  -10.8900003       9.20477975E-03
  -10.8800001       9.25360993E-03
  -10.8699999       9.30285268E-03
  -10.8599997       9.34968051E-03
  -10.8500004       9.39078629E-03
  -10.8400002       9.42291878E-03
  -10.8299999       9.44336411E-03
  -10.8199997       9.45028663E-03
  -10.8100004       9.44285281E-03
  -10.8000002       9.42115486E-03
  -10.7900000       9.38588660E-03
  -10.7799997       9.33795702E-03
  -10.7700005       9.27806739E-03
  -10.7600002       9.20638070E-03
  -10.7500000       9.12235770E-03
  -10.7399998       9.02477466E-03
  -10.7299995       8.91191605E-03
  -10.7200003       8.78189504E-03
  -10.7100000       8.63299519E-03
  -10.6999998       8.46398808E-03
  -10.6899996       8.27435125E-03
  -10.6800003       8.06434546E-03
  -10.6700001       7.83496164E-03
  -10.6599998       7.58776441E-03
  -10.6499996       7.32467417E-03
  -10.6400003       7.04773841E-03
  -10.6300001       6.75895764E-03
  -10.6199999       6.46019867E-03
  -10.6099997       6.15317980E-03
  -10.6000004       5.83955133E-03
  -10.5900002       5.52098034E-03
  -10.5799999       5.19925635E-03
  -10.5699997       4.87634540E-03
  -10.5600004       4.55434062E-03
  -10.5500002       4.23538592E-03
  -10.5400000       3.92150180E-03
  -10.5299997       3.61445383E-03
  -10.5200005       3.31560988E-03
  -10.5100002       3.02594039E-03
  -10.5000000       2.74604373E-03
  -10.4899998       2.47631688E-03
  -10.4799995       2.21710140E-03
  -10.4700003       1.96881732E-03
  -10.4600000       1.73199677E-03
  -10.4499998       1.50717108E-03
  -10.4399996       1.29468238E-03
  -10.4300003       1.09435746E-03
  -10.4200001       9.05249792E-04
  -10.4099998       7.25463964E-04
  -10.3999996       5.52150828E-04
  -10.3900003       3.81745427E-04
  -10.3800001       2.10335798E-04
  -10.3699999       3.41821215E-05
  -10.3599997      -1.49808853E-04
  -10.3500004      -3.43696243E-04
  -10.3400002      -5.48343989E-04
  -10.3299999      -7.63453310E-04
  -10.3199997      -9.87814041E-04
  -10.3100004      -1.21958833E-03
  -10.3000002      -1.45670597E-03
  -10.2900000      -1.69706368E-03
  -10.2799997      -1.93869264E-03
  -10.2700005      -2.17977748E-03
  -10.2600002      -2.41859863E-03
  -10.2500000      -2.65356898E-03
  -10.2399998      -2.88326154E-03
  -10.2299995      -3.10659176E-03
  -10.2200003      -3.32304928E-03
  -10.2100000      -3.53291747E-03
  -10.1999998      -3.73737724E-03
  -10.1899996      -3.93839832E-03
  -10.1800003      -4.13844828E-03
  -10.1700001      -4.33995761E-03
  -10.1599998      -4.54477454E-03
  -10.1499996      -4.75359941E-03
  -10.1400003      -4.96566901E-03
  -10.1300001      -5.17869974E-03
  -10.1199999      -5.38916094E-03
  -10.1099997      -5.59281791E-03
  -10.1000004      -5.78533951E-03
  -10.0900002      -5.96293574E-03
  -10.0799999      -6.12283312E-03
  -10.0699997      -6.26343675E-03
  -10.0600004      -6.38423767E-03
  -10.0500002      -6.48557860E-03
  -10.0400000      -6.56818599E-03
  -10.0299997      -6.63280860E-03
  -10.0200005      -6.67992001E-03
  -10.0100002      -6.70958450E-03
  -10.0000000      -6.72146352E-03
  -9.98999977      -6.71496661E-03
  -9.97999954      -6.68939110E-03
  -9.97000027      -6.64410507E-03
  -9.96000004      -6.57861819E-03
  -9.94999981      -6.49265526E-03
  -9.93999958      -6.38611009E-03
  -9.93000031      -6.25908049E-03
  -9.92000008      -6.11182535E-03
  -9.90999985      -5.94481314E-03
  -9.89999962      -5.75872930E-03
  -9.89000034      -5.55445999E-03
  -9.88000011      -5.33305062E-03
  -9.86999989      -5.09556942E-03
  -9.85999966      -4.84292954E-03
  -9.85000038      -4.57575172E-03
  -9.84000015      -4.29415004E-03
  -9.82999992      -3.99771519E-03
  -9.81999969      -3.68552818E-03
  -9.81000042      -3.35622276E-03
  -9.80000019      -3.00822384E-03
  -9.78999996      -2.63988343E-03
  -9.77999973      -2.24966439E-03
  -9.77000046      -1.83625787E-03
  -9.76000023      -1.39865163E-03
  -9.75000000      -9.36199911E-04
  -9.73999977      -4.48680483E-04
  -9.72999954       6.36028199E-05
  -9.72000027       5.99686173E-04
  -9.71000004       1.15780381E-03
  -9.69999981       1.73530204E-03
  -9.68999958       2.32866104E-03
  -9.68000031       2.93361768E-03
  -9.67000008       3.54551035E-03
  -9.65999985       4.15964145E-03
  -9.64999962       4.77178488E-03
  -9.64000034       5.37853874E-03
  -9.63000011       5.97761152E-03
  -9.61999989       6.56783767E-03
  -9.60999966       7.14907190E-03
  -9.60000038       7.72173563E-03
  -9.59000015       8.28649849E-03
  -9.57999992       8.84377863E-03
  -9.56999969       9.39343125E-03
  -9.56000042       9.93456226E-03
  -9.55000019       1.04656238E-02
  -9.53999996       1.09844990E-02
  -9.52999973       1.14888130E-02
  -9.52000046       1.19761704E-02
  -9.51000023       1.24444747E-02
  -9.50000000       1.28919296E-02
  -9.48999977       1.33172246E-02
  -9.47999954       1.37194498E-02
  -9.47000027       1.40980836E-02
  -9.46000004       1.44529631E-02
  -9.44999981       1.47842858E-02
  -9.43999958       1.50926234E-02
  -9.43000031       1.53789297E-02
  -9.42000008       1.56445131E-02
  -9.40999985       1.58910025E-02
  -9.39999962       1.61201134E-02
  -9.39000034       1.63335111E-02
  -9.38000011       1.65326316E-02
  -9.36999989       1.67184621E-02
  -9.35999966       1.68915708E-02
  -9.35000038       1.70521010E-02
  -9.34000015       1.71999168E-02
  -9.32999992       1.73347462E-02
  -9.31999969       1.74562912E-02
  -9.31000042       1.75642651E-02
  -9.30000019       1.76583007E-02
  -9.28999996       1.77377295E-02
  -9.27999973       1.78013686E-02
  -9.27000046       1.78473126E-02
  -9.26000023       1.78728979E-02
  -9.25000000       1.78747866E-02
  -9.23999977       1.78492740E-02
  -9.22999954       1.77927185E-02
  -9.22000027       1.77019313E-02
  -9.21000004       1.75746195E-02
  -9.19999981       1.74094215E-02
  -9.18999958       1.72059033E-02
  -9.18000031       1.69642642E-02
  -9.17000008       1.66849606E-02
  -9.15999985       1.63683817E-02
  -9.14999962       1.60145890E-02
  -9.14000034       1.56233618E-02
  -9.13000011       1.51944300E-02
  -9.11999989       1.47277797E-02
  -9.10999966       1.42240096E-02
  -9.10000038       1.36845782E-02
  -9.09000015       1.31117841E-02
  -9.07999992       1.25085870E-02
  -9.06999969       1.18782269E-02
  -9.06000042       1.12239942E-02
  -9.05000019       1.05489781E-02
  -9.03999996       9.85615607E-03
  -9.02999973       9.14874207E-03
  -9.02000046       8.43051914E-03
  -9.01000023       7.70637812E-03
  -9.00000000       6.98233629E-03
  -8.98999977       6.26534270E-03
  -8.97999954       5.56269381E-03
  -8.97000027       4.88119852E-03
  -8.96000004       4.22624173E-03
  -8.94999981       3.60128400E-03
  -8.93999958       3.00768670E-03
  -8.93000031       2.44526681E-03
  -8.92000008       1.91306171E-03
  -8.90999985       1.41054613E-03
  -8.89999962       9.38603247E-04
  -8.89000034       4.99919523E-04
  -8.88000011       9.88834654E-05
  -8.86999989      -2.59199413E-04
  -8.85999966      -5.69272146E-04
  -8.85000038      -8.27766955E-04
  -8.84000015      -1.03327760E-03
  -8.82999992      -1.18679984E-03
  -8.81999969      -1.29103288E-03
  -8.81000042      -1.34936173E-03
  -8.80000019      -1.36436708E-03
  -8.78999996      -1.33682450E-03
  -8.77999973      -1.26511860E-03
  -8.77000046      -1.14552339E-03
  -8.76000023      -9.73052171E-04
  -8.75000000      -7.42694712E-04
  -8.73999977      -4.50597377E-04
  -8.72999954      -9.47241861E-05
  -8.72000027       3.25139525E-04
  -8.71000004       8.08043056E-04
  -8.69999981       1.35291251E-03
  -8.68999958       1.95962633E-03
  -8.68000031       2.62978720E-03
  -8.67000008       3.36671085E-03
  -8.65999985       4.17506974E-03
  -8.64999962       5.05977497E-03
  -8.64000034       6.02515601E-03
  -8.63000011       7.07410043E-03
  -8.61999989       8.20800290E-03
  -8.60999966       9.42701288E-03
  -8.60000038       1.07307332E-02
  -8.59000015       1.21188844E-02
  -8.57999992       1.35916667E-02
  -8.56999969       1.51494751E-02
  -8.56000042       1.67922992E-02
  -8.55000019       1.85187459E-02
  -8.53999996       2.03252602E-02
  -8.52999973       2.22059265E-02
  -8.52000046       2.41528805E-02
  -8.51000023       2.61574388E-02
  -8.50000000       2.82116011E-02
  -8.48999977       3.03092357E-02
  -8.47999954       3.24468352E-02
  -8.47000027       3.46232988E-02
  -8.46000004       3.68388668E-02
  -8.44999981       3.90934274E-02
  -8.43999958       4.13849801E-02
  -8.43000031       4.37083691E-02
  -8.42000008       4.60553765E-02
  -8.40999985       4.84154634E-02
  -8.39999962       5.07774353E-02
  -8.39000034       5.31313419E-02
  -8.38000011       5.54698631E-02
  -8.36999989       5.77888638E-02
  -8.35999966       6.00870028E-02
  -8.35000038       6.23640195E-02
  -8.34000015       6.46190196E-02
  -8.32999992       6.68487325E-02
  -8.31999969       6.90465122E-02
  -8.31000042       7.12026283E-02
  -8.30000019       7.33050928E-02
  -8.28999996       7.53416121E-02
  -8.27999973       7.73013160E-02
  -8.27000046       7.91759714E-02
  -8.26000023       8.09602737E-02
  -8.25000000       8.26511979E-02
  -8.23999977       8.42468068E-02
  -8.22999954       8.57444480E-02
  -8.22000027       8.71397853E-02
  -8.21000004       8.84263068E-02
  -8.19999981       8.95956308E-02
  -8.18999958       9.06386524E-02
  -8.18000031       9.15468633E-02
  -8.17000008       9.23136100E-02
  -8.15999985       9.29344073E-02
  -8.14999962       9.34071690E-02
  -8.14000034       9.37309265E-02
  -8.13000011       9.39049721E-02
  -8.11999989       9.39277560E-02
  -8.10999966       9.37963128E-02
  -8.10000038       9.35063884E-02
  -8.09000015       9.30531397E-02
  -8.07999992       9.24322605E-02
  -8.06999969       9.16412175E-02
  -8.06000042       9.06798914E-02
  -8.05000019       8.95509422E-02
  -8.03999996       8.82592797E-02
  -8.02999973       8.68114829E-02
  -8.02000046       8.52145627E-02
  -8.01000023       8.34755078E-02
  -8.00000000       8.16006586E-02
  -7.98999977       7.95957595E-02
  -7.98000002       7.74668902E-02
  -7.96999979       7.52208009E-02
  -7.96000004       7.28656575E-02
  -7.94999981       7.04114512E-02
  -7.94000006       6.78698719E-02
  -7.92999983       6.52535483E-02
  -7.92000008       6.25755265E-02
  -7.90999985       5.98483495E-02
  -7.90000010       5.70834316E-02
  -7.88999987       5.42909242E-02
  -7.88000011       5.14801107E-02
  -7.86999989       4.86598201E-02
  -7.86000013       4.58392948E-02
  -7.84999990       4.30283733E-02
  -7.84000015       4.02378589E-02
  -7.82999992       3.74788828E-02
  -7.82000017       3.47621366E-02
  -7.80999994       3.20968144E-02
  -7.80000019       2.94898227E-02
  -7.78999996       2.69454755E-02
  -7.78000021       2.44658031E-02
  -7.76999998       2.20516361E-02
  -7.76000023       1.97038949E-02
  -7.75000000       1.74250100E-02
  -7.73999977       1.52194509E-02
  -7.73000002       1.30938124E-02
  -7.71999979       1.10558057E-02
  -7.71000004       9.11243819E-03
  -7.69999981       7.26845907E-03
  -7.69000006       5.52473404E-03
  -7.67999983       3.87819158E-03
  -7.67000008       2.32288754E-03
  -7.65999985       8.51912948E-04
  -7.65000010      -5.39837522E-04
  -7.63999987      -1.85358070E-03
  -7.63000011      -3.08518554E-03
  -7.61999989      -4.22570854E-03
  -7.61000013      -5.26334625E-03
  -7.59999990      -6.18615281E-03
  -7.59000015      -6.98543899E-03
  -7.57999992      -7.65789812E-03
  -7.57000017      -8.20592977E-03
  -7.55999994      -8.63690767E-03
  -7.55000019      -8.95989593E-03
  -7.53999996      -9.18274187E-03
  -7.53000021      -9.30924155E-03
  -7.51999998      -9.33759008E-03
  -7.51000023      -9.26132686E-03
  -7.50000000      -9.07111447E-03
  -7.48999977      -8.75854772E-03
  -7.48000002      -8.31867475E-03
  -7.46999979      -7.75177404E-03
  -7.46000004      -7.06340885E-03
  -7.44999981      -6.26218272E-03
  -7.44000006      -5.35718771E-03