  -16.0000000       0.00000000    
  -15.9899998       0.00000000    
  -15.9799995       0.00000000    
  -15.9700003       0.00000000    
  -15.9600000       0.00000000    
  -15.9499998       0.00000000    
  -15.9399996       0.00000000    
  -15.9300003       0.00000000    
  -15.9200001       0.00000000    
  -15.9099998       0.00000000    
  -15.8999996       0.00000000    
  -15.8900003      -3.82846651E-39
  -15.8800001       3.01364526E-37
  -15.8699999       6.21657002E-36
  -15.8599997       5.85521772E-35
  -15.8500004       3.53495970E-34
  -15.8400002       1.54001074E-33
  -15.8299999       5.11223448E-33
  -15.8199997       1.32475333E-32
  -15.8100004       2.69718266E-32
  -15.8000002       4.34154586E-32
  -15.7900000       6.00967608E-32
  -15.7799997       1.02641087E-31
  -15.7700005       2.77496506E-31
  -15.7600002       7.67025769E-31
  -15.7500000       1.51712160E-30
  -15.7399998       1.26965483E-30
  -15.7299995      -3.99226056E-30
  -15.7200003      -2.16281572E-29
  -15.7100000      -5.80098826E-29
  -15.6999998      -1.04449705E-28
  -15.6899996      -1.14562282E-28
  -15.6800003       7.32337344E-30
  -15.6700001       3.59620834E-28
  -15.6599998       8.80968409E-28
  -15.6499996       1.07292296E-27
  -15.6400003      -2.07957630E-28
  -15.6300001      -4.41892377E-27
  -15.6199999      -1.18094296E-26
  -15.6099997      -1.84243888E-26
  -15.6000004      -1.27785544E-26
  -15.5900002       2.40944590E-26
  -15.5799999       1.09038548E-25
  -15.5699997       2.32109379E-25
  -15.5600004       3.19461303E-25
  -15.5500002       2.04617478E-25
  -15.5400000      -3.46983649E-25
  -15.5299997      -1.50183398E-24
  -15.5200005      -3.07836166E-24
  -15.5100002      -4.18618348E-24
  -15.5000000      -3.01532496E-24
  -15.4899998       2.81435022E-24
  -15.4799995       1.48898932E-23
  -15.4700003       3.14792925E-23
  -15.4600000       4.45134298E-23
  -15.4499998       3.80111933E-23
  -15.4399996      -8.92973663E-24
  -15.4300003      -1.11397548E-22
  -15.4200001      -2.59416896E-22
  -15.4099998      -3.95169155E-22
  -15.3999996      -4.00024095E-22
  -15.3900003      -1.12234333E-22
  -15.3800001       6.03638839E-22
  -15.3699999       1.72928610E-21
  -15.3599997       2.93551556E-21
  -15.3500004       3.47389564E-21
  -15.3400002       2.24222451E-21
  -15.3299999      -1.84312663E-21
  -15.3199997      -9.10776180E-21
  -15.3100004      -1.81348040E-20
  -15.3000002      -2.49333999E-20
  -15.2900000      -2.29375439E-20
  -15.2799997      -4.62288545E-21
  -15.2700005       3.47506556E-20
  -15.2600002       9.16042687E-20
  -15.2500000       1.48435764E-19
  -15.2399998       1.71439476E-19
  -15.2299995       1.15626330E-19
  -15.2200003      -5.89639867E-20
  -15.2100000      -3.59719626E-19
  -15.1999998      -7.28649546E-19
  -15.1899996      -1.01847823E-18
  -15.1800003      -9.98566438E-19
  -15.1700001      -4.12161791E-19
  -15.1599998       9.04394304E-19
  -15.1499996       2.85531808E-18
  -15.1400003       4.92415862E-18
  -15.1300001       6.10854312E-18
  -15.1199999       5.06149253E-18
  -15.1099997       5.26011027E-19
  -15.1000004      -7.93843497E-18
  -15.0900002      -1.90924171E-17
  -15.0799999      -2.93587145E-17
  -15.0699997      -3.28619865E-17
  -15.0600004      -2.26637677E-17
  -15.0500002       6.55220186E-18
  -15.0400000       5.46373375E-17
  -15.0299997       1.12057483E-16
  -15.0200005       1.57778031E-16
  -15.0100002       1.61265306E-16
  -15.0000000       9.05009044E-17
  -14.9899998      -7.37191237E-17
  -14.9799995      -3.19776405E-16
  -14.9700003      -5.89597082E-16
  -14.9600000      -7.74377320E-16
  -14.9499998      -7.31179910E-16
  -14.9399996      -3.26292973E-16
  -14.9300003       4.97455727E-16
  -14.9200001       1.64508653E-15
  -14.9099998       2.81484189E-15
  -14.8999996       3.50242067E-15
  -14.8900003       3.09846389E-15
  -14.8800001       1.09261787E-15
  -14.8699999      -2.64212764E-15
  -14.8599997      -7.56224408E-15
  -14.8500004      -1.22875165E-14
  -14.8400002      -1.46984780E-14
  -14.8299999      -1.24069236E-14
  -14.8199997      -3.60998327E-15
  -14.8100004       1.18198535E-14
  -14.8000002       3.13378711E-14
  -14.7900000       4.92918796E-14
  -14.7799997       5.75328291E-14
  -14.7700005       4.73780967E-14
  -14.7600002       1.28360584E-14
  -14.7500000      -4.55636573E-14
  -14.7399998      -1.17569339E-13
  -14.7299995      -1.82239261E-13
  -14.7200003      -2.10710735E-13
  -14.7100000      -1.73459798E-13
  -14.6999998      -5.13945542E-14
  -14.6899996       1.51691282E-13
  -14.6800003       3.99478763E-13
  -14.6700001       6.21315716E-13
  -14.6599998       7.22560629E-13
  -14.6499996       6.08704981E-13
  -14.6400003       2.20422923E-13
  -14.6300001      -4.28684730E-13
  -14.6199999      -1.22444958E-12
  -14.6099997      -1.94913139E-12
  -14.6000004      -2.31464414E-12
  -14.5900002      -2.03518040E-12
  -14.5799999      -9.29397076E-13
  -14.5699997       9.72298956E-13
  -14.5600004       3.35138666E-12
  -14.5500002       5.59492470E-12
  -14.5400000       6.88886144E-12
  -14.5299997       6.41680892E-12
  -14.5200005       3.63567726E-12
  -14.5100002      -1.43755461E-12
  -14.5000000      -8.02127462E-12
  -14.4899998      -1.45455705E-11
  -14.4799995      -1.88815855E-11
  -14.4700003      -1.88360612E-11
  -14.4600000      -1.28388376E-11
  -14.4499998      -6.63297867E-13
  -14.4399996       1.60436942E-11
  -14.4300003       3.36557310E-11
  -14.4200001       4.70542112E-11
  -14.4099998       5.07414284E-11
  -14.3999996       4.04205870E-11
  -14.3900003       1.46894476E-11
  -14.3800001      -2.36457642E-11
  -14.3699999      -6.71532482E-11
  -14.3599997      -1.04639478E-10
  -14.3500004      -1.23391478E-10
  -14.3400002      -1.12498628E-10
  -14.3299999      -6.65489330E-11
  -14.3199997       1.13010348E-11
  -14.3100004       1.07951093E-10
  -14.3000002       2.01508435E-10
  -14.2900000       2.65252265E-10
  -14.2799997       2.73946726E-10
  -14.2700005       2.11245951E-10
  -14.2600002       7.63368257E-11
  -14.2500000      -1.12224355E-10
  -14.2399998      -3.17170262E-10
  -14.2299995      -4.88445839E-10
  -14.2200003      -5.73858017E-10
  -14.2100000      -5.32487054E-10
  -14.1999998      -3.47760848E-10
  -14.1899996      -3.66081748E-11
  -14.1800003       3.48479079E-10
  -14.1700001       7.26286531E-10
  -14.1599998       1.00235797E-09
  -14.1499996       1.09051801E-09
  -14.1400003       9.35830968E-10
  -14.1300001       5.33315725E-10
  -14.1199999      -6.29967606E-11
  -14.1099997      -7.44349526E-10
  -14.1000004      -1.36564904E-09
  -14.0900002      -1.77522508E-09
  -14.0799999      -1.85001658E-09
  -14.0699997      -1.52815072E-09
  -14.0600004      -8.30654601E-10
  -14.0500002       1.34178016E-10
  -14.0400000       1.18657406E-09
  -14.0299997       2.10935291E-09
  -14.0200005       2.69374278E-09
  -14.0100002       2.78697021E-09
  -14.0000000       2.33042718E-09
  -13.9899998       1.37869571E-09
  -13.9799995       9.37202815E-11
  -13.9700003      -1.28587074E-09
  -13.9600000      -2.49418952E-09
  -13.9499998      -3.29523053E-09
  -13.9399996      -3.53426599E-09
  -13.9300003      -3.17088533E-09
  -13.9200001      -2.28525865E-09
  -13.9099998      -1.05574283E-09
  -13.8999996       2.86592750E-10
  -13.8900003       1.51463631E-09
  -13.8800001       2.45777532E-09
  -13.8699999       3.03561576E-09
  -13.8599997       3.26302008E-09
  -13.8500004       3.22466676E-09
  -13.8400002       3.02664271E-09
  -13.8299999       2.74045941E-09
  -13.8199997       2.35896391E-09
  -13.8100004       1.78214821E-09
  -13.8000002       8.43519254E-10
  -13.7900000      -6.24144958E-10
  -13.7799997      -2.69828249E-09
  -13.7700005      -5.27721644E-09
  -13.7600002      -8.02338374E-09
  -13.7500000      -1.03673266E-08
  -13.7399998      -1.15883401E-08
  -13.7299995      -1.09681562E-08
  -13.7200003      -7.99154520E-09
  -13.7100000      -2.54829802E-09
  -13.6999998       4.91935115E-09
  -13.6899996       1.33767175E-08
  -13.6800003       2.12985896E-08
  -13.6700001       2.69166751E-08
  -13.6599998       2.85787713E-08
  -13.6499996       2.51508059E-08
  -13.6400003       1.63701976E-08
  -13.6300001       3.05617354E-09
  -13.6199999      -1.28965585E-08
  -13.6099997      -2.87715274E-08
  -13.6000004      -4.15064036E-08
  -13.5900002      -4.83079319E-08
  -13.5799999      -4.72790447E-08
  -13.5699997      -3.79127449E-08
  -13.5600004      -2.13234479E-08
  -13.5500002      -1.35784189E-10
  -13.5400000       2.19744418E-08
  -13.5299997       4.10088106E-08
  -13.5200005       5.34934479E-08
  -13.5100002       5.72512988E-08
  -13.5000000       5.19085539E-08
  -13.4899998       3.89938926E-08
  -13.4799995       2.15799929E-08
  -13.4700003       3.52870444E-09
  -13.4600000      -1.14921912E-08
  -13.4499998      -2.09785256E-08
  -13.4399996      -2.42855140E-08
  -13.4300003      -2.28372219E-08
  -13.4200001      -1.97463468E-08
  -13.4099998      -1.88890468E-08
  -13.3999996      -2.36335023E-08
  -13.3900003      -3.55402356E-08
  -13.3800001      -5.34021538E-08
  -13.3699999      -7.29509679E-08
  -13.3599997      -8.74230466E-08
  -13.3500004      -8.89754688E-08
  -13.3400002      -7.07149397E-08
  -13.3299999      -2.89042674E-08
  -13.3199997       3.52023335E-08
  -13.3100004       1.14432943E-07
  -13.3000002       1.96070033E-07
  -13.2900000       2.63644608E-07
  -13.2799997       2.99945782E-07
  -13.2700005       2.90716599E-07
  -13.2600002       2.28274004E-07
  -13.2500000       1.14215652E-07
  -13.2399998      -3.95136439E-08
  -13.2299995      -2.11623700E-07
  -13.2200003      -3.74553338E-07
  -13.2100000      -4.99157522E-07
  -13.1999998      -5.60148578E-07
  -13.1899996      -5.41201587E-07
  -13.1800003      -4.38633180E-07
  -13.1700001      -2.62808470E-07
  -13.1599998      -3.68807029E-08
  -13.1499996       2.06970029E-07
  -13.1400003       4.33090236E-07
  -13.1300001       6.08582070E-07
  -13.1199999       7.08933158E-07
  -13.1099997       7.21893286E-07
  -13.1000004       6.48831929E-07
  -13.0900002       5.03385422E-07
  -13.0799999       3.07817572E-07
  -13.0699997       8.80380142E-08
  -13.0600004      -1.31485734E-07
  -13.0500002      -3.31691609E-07
  -13.0400000      -5.00853446E-07
  -13.0299997      -6.34123694E-07
  -13.0200005      -7.30994770E-07
  -13.0100002      -7.91575587E-07
  -13.0000000      -8.12966505E-07
  -12.9899998      -7.87054148E-07
  -12.9799995      -7.00732642E-07
  -12.9700003      -5.38927623E-07
  -12.9600000      -2.89999491E-07
  -12.9499998       4.76714845E-08
  -12.9399996       4.59663852E-07
  -12.9300003       9.11954203E-07
  -12.9200001       1.35138657E-06
  -12.9099998       1.71097565E-06
  -12.8999996       1.91974868E-06
  -12.8900003       1.91570143E-06
  -12.8800001       1.65946631E-06
  -12.8699999       1.14579916E-06
  -12.8599997       4.10109152E-07
  -12.8500004      -4.71979490E-07
  -12.8400002      -1.39274050E-06
  -12.8299999      -2.22726430E-06
  -12.8199997      -2.85279953E-06
  -12.8100004      -3.16904516E-06
  -12.8000002      -3.11552412E-06
  -12.7900000      -2.68258896E-06
  -12.7799997      -1.91382060E-06
  -12.7700005      -8.99281815E-07
  -12.7600002       2.39027486E-07
  -12.7500000       1.36658173E-06
  -12.7399998       2.35672042E-06
  -12.7299995       3.10807422E-06
  -12.7200003       3.55588486E-06
  -12.7100000       3.67562188E-06
  -12.6999998       3.47910918E-06
  -12.6899996       3.00512761E-06
  -12.6800003       2.30757587E-06
  -12.6700001       1.44462683E-06
  -12.6599998       4.71651305E-07
  -12.6499996      -5.60618446E-07
  -12.6400003      -1.60301624E-06
  -12.6300001      -2.60192974E-06
  -12.6199999      -3.49341599E-06
  -12.6099997      -4.20076094E-06
  -12.6000004      -4.63798142E-06
  -12.5900002      -4.72018382E-06
  -12.5799999      -4.37961444E-06
  -12.5699997      -3.58425632E-06
  -12.5600004      -2.35446691E-06
  -12.5500002      -7.72889678E-07
  -12.5400000       1.01624676E-06
  -12.5299997       2.82023097E-06
  -12.5200005       4.42248120E-06
  -12.5100002       5.61493198E-06
  -12.5000000       6.23227061E-06
  -12.4899998       6.18111153E-06
  -12.4799995       5.45768353E-06
  -12.4700003       4.14967872E-06
  -12.4600000       2.42106375E-06
  -12.4499998       4.82313794E-07
  -12.4399996      -1.44817761E-06
  -12.4300003      -3.18360799E-06
  -12.4200001      -4.60082947E-06
  -12.4099998      -5.65804476E-06
  -12.3999996      -6.39424525E-06
  -12.3900003      -6.91056493E-06
  -12.3800001      -7.33782508E-06
  -12.3699999      -7.79776929E-06
  -12.3599997      -8.36706840E-06
  -12.3500004      -9.05262368E-06
  -12.3400002      -9.78424578E-06
  -12.3299999      -1.04267065E-05
  -12.3199997      -1.08087570E-05
  -12.3100004      -1.07626220E-05
  -12.3000002      -1.01648939E-05
  -12.2900000      -8.96939309E-06
  -12.2799997      -7.22411733E-06
  -12.2700005      -5.06811102E-06
  -12.2600002      -2.70849341E-06
  -12.2500000      -3.82444483E-07
  -12.2399998       1.68768042E-06
  -12.2299995       3.33641765E-06
  -12.2200003       4.48542505E-06
  -12.2100000       5.15554666E-06
  -12.1999998       5.45847706E-06
  -12.1899996       5.57029352E-06
  -12.1800003       5.69305030E-06
  -12.1700001       6.01306510E-06
  -12.1599998       6.66499909E-06
  -12.1499996       7.70922907E-06
  -12.1400003       9.12675205E-06
  -12.1300001       1.08317672E-05
  -12.1199999       1.26979430E-05
  -12.1099997       1.45913555E-05
  -12.1000004       1.64016801E-05
  -12.0900002       1.80638017E-05
  -12.0799999       1.95645025E-05
  -12.0699997       2.09326372E-05
  -12.0600004       2.22153776E-05
  -12.0500002       2.34468516E-05
  -12.0400000       2.46175368E-05
  -12.0299997       2.56531148E-05
  -12.0200005       2.64095579E-05
  -12.0100002       2.66873740E-05
  -12.0000000       2.62635276E-05
  -11.9899998       2.49348886E-05
  -11.9799995       2.25639178E-05
  -11.9700003       1.91160725E-05
  -11.9600000       1.46798257E-05
  -11.9499998       9.46365344E-06
  -11.9399996       3.76963317E-06
  -11.9300003      -2.05149013E-06
  -11.9200001      -7.65443747E-06
  -11.9099998      -1.27511585E-05
  -11.8999996      -1.71491247E-05
  -11.8900003      -2.07683115E-05
  -11.8800001      -2.36339929E-05
  -11.8699999      -2.58484379E-05
  -11.8599997      -2.75494676E-05
  -11.8500004      -2.88668562E-05
  -11.8400002      -2.98876494E-05
  -11.8299999      -3.06387956E-05
  -11.8199997      -3.10905780E-05
  -11.8100004      -3.11786753E-05
  -11.8000002      -3.08377093E-05
  -11.7900000      -3.00359443E-05
  -11.7799997      -2.88009687E-05
  -11.7700005      -2.72283996E-05
  -11.7600002      -2.54707084E-05
  -11.7500000      -2.37087916E-05
  -11.7399998      -2.21137052E-05
  -11.7299995      -2.08088259E-05
  -11.7200003      -1.98428534E-05
  -11.7100000      -1.91810013E-05
  -11.6999998      -1.87169571E-05
  -11.6899996      -1.83025040E-05
  -11.6800003      -1.77866623E-05
  -11.6700001      -1.70535877E-05
  -11.6599998      -1.60484960E-05
  -11.6499996      -1.47840774E-05
  -11.6400003      -1.33251042E-05
  -11.6300001      -1.17551444E-05
  -11.6199999      -1.01345559E-05
  -11.6099997      -8.46204966E-06
  -11.6000004      -6.65192738E-06
  -11.5900002      -4.53572102E-06
  -11.5799999      -1.89093851E-06
  -11.5699997       1.50751202E-06
  -11.5600004       5.82406847E-06
  -11.5500002       1.11024347E-05
  -11.5400000       1.72241962E-05
  -11.5299997       2.38982957E-05
  -11.5200005       3.06871043E-05
  -11.5100002       3.70662565E-05
  -11.5000000       4.25075996E-05
  -11.4899998       4.65683770E-05
  -11.4799995       4.89678496E-05
  -11.4700003       4.96345892E-05
  -11.4600000       4.87139259E-05
  -11.4499998       4.65337798E-05
  -11.4399996       4.35362999E-05
  -11.4300003       4.01903562E-05
  -11.4200001       3.69039335E-05
  -11.4099998       3.39551189E-05
  -11.3999996       3.14557183E-05
  -11.3900003       2.93538105E-05
  -11.3800001       2.74723534E-05
  -11.3699999       2.55733266E-05
  -11.3599997       2.34314066E-05
  -11.3500004       2.08999973E-05
  -11.3400002       1.79552171E-05
  -11.3299999       1.47090950E-05
  -11.3199997       1.13906590E-05
  -11.3100004       8.30073441E-06
  -11.3000002       5.75141439E-06
  -11.2900000       4.00368162E-06
  -11.2799997       3.21602261E-06
  -11.2700005       3.41356167E-06
  -11.2600002       4.48257970E-06
  -11.2500000       6.18995955E-06
  -11.2399998       8.22264519E-06
  -11.2299995       1.02390068E-05
  -11.2200003       1.19226806E-05
  -11.2100000       1.30295521E-05
  -11.1999998       1.34203337E-05
  -11.1899996       1.30736889E-05
  -11.1800003       1.20781897E-05
  -11.1700001       1.06047200E-05
  -11.1599998       8.86443195E-06
  -11.1499996       7.05988123E-06
  -11.1400003       5.33879665E-06
  -11.1300001       3.75996729E-06
  -11.1199999       2.27909413E-06
  -11.1099997       7.58952638E-07
  -11.1000004      -9.96720132E-07
  -11.0900002      -3.19135643E-06
  -11.0799999      -5.97615053E-06
  -11.0699997      -9.39606616E-06
  -11.0600004      -1.33539852E-05
  -11.0500002      -1.76025042E-05
  -11.0400000      -2.17669221E-05
  -11.0299997      -2.53960679E-05
  -11.0200005      -2.80309214E-05
  -11.0100002      -2.92767691E-05
  -11.0000000      -2.88636147E-05
  -10.9899998      -2.66825227E-05
  -10.9799995      -2.27915043E-05
  -10.9700003      -1.73918870E-05
  -10.9600000      -1.07834667E-05
  -10.9499998      -3.31102888E-06
  -10.9399996       4.68380267E-06
  -10.9300003       1.28943038E-05
  -10.9200001       2.10586240E-05
  -10.9099998       2.89495365E-05
  -10.8999996       3.63518084E-05
  -10.8900003       4.30385953E-05
  -10.8800001       4.87583529E-05
  -10.8699999       5.32400336E-05
  -10.8599997       5.62185705E-05
  -10.8500004       5.74755686E-05
  -10.8400002       5.68848809E-05
  -10.8299999       5.44501745E-05
  -10.8199997       5.03226838E-05
  -10.8100004       4.47918865E-05
  -10.8000002       3.82487669E-05
  -10.7900000       3.11282274E-05
  -10.7799997       2.38430694E-05
  -10.7700005       1.67242306E-05
  -10.7600002       9.98089399E-06
  -10.7500000       3.68948758E-06
  -10.7399998      -2.18634227E-06
  -10.7299995      -7.75020362E-06
  -10.7200003      -1.31132838E-05
  -10.7100000      -1.83353750E-05
  -10.6999998      -2.33812225E-05
  -10.6899996      -2.81030043E-05
  -10.6800003      -3.22536616E-05
  -10.6700001      -3.55283628E-05
  -10.6599998      -3.76246317E-05
  -10.6499996      -3.83075130E-05
  -10.6400003      -3.74647898E-05
  -10.6300001      -3.51396375E-05
  -10.6199999      -3.15335310E-05
  -10.6099997      -2.69788306E-05
  -10.6000004      -2.18876448E-05
  -10.5900002      -1.66885075E-05
  -10.5799999      -1.17645832E-05
  -10.5699997      -7.40594305E-06
  -10.5600004      -3.78410118E-06
  -10.5500002      -9.50768197E-07
  -10.5400000       1.14337672E-06
  -10.5299997       2.61867126E-06
  -10.5200005       3.63587719E-06
  -10.5100002       4.37375456E-06
  -10.5000000       5.01924796E-06
  -10.4899998       5.76890670E-06
  -10.4799995       6.83501594E-06
  -10.4700003       8.44720762E-06
  -10.4600000       1.08410286E-05
  -10.4499998       1.42292065E-05
  -10.4399996       1.87578516E-05
  -10.4300003       2.44565199E-05
  -10.4200001       3.11959193E-05
  -10.4099998       3.86674656E-05
  -10.3999996       4.63955876E-05
  -10.3900003       5.37857086E-05
  -10.3800001       6.02016116E-05
  -10.3699999       6.50574220E-05
  -10.3599997       6.79043296E-05
  -10.3500004       6.84927654E-05
  -10.3400002       6.67959466E-05
  -10.3299999       6.29909773E-05
  -10.3199997       5.74035330E-05
  -10.3100004       5.04323543E-05
  -10.3000002       4.24727987E-05
  -10.2900000       3.38585414E-05
  -10.2799997       2.48335182E-05
  -10.2700005       1.55567213E-05
  -10.2600002       6.13293696E-06
  -10.2500000      -3.34435413E-06
  -10.2399998      -1.27537742E-05
  -10.2299995      -2.19230387E-05
  -10.2200003      -3.06278926E-05
  -10.2100000      -3.86105021E-05
  -10.1999998      -4.56082016E-05
  -10.1899996      -5.13808845E-05
  -10.1800003      -5.57271815E-05
  -10.1700001      -5.84854533E-05
  -10.1599998      -5.95228739E-05
  -10.1499996      -5.87220347E-05
  -10.1400003      -5.59769251E-05
  -10.1300001      -5.12078332E-05
  -10.1199999      -4.43978424E-05
  -10.1099997      -3.56449382E-05
  -10.1000004      -2.52153477E-05
  -10.0900002      -1.35795108E-05
  -10.0799999      -1.41325393E-06
  -10.0699997       1.04463461E-05
  -10.0600004       2.10896706E-05
  -10.0500002       2.96547223E-05
  -10.0400000       3.54561816E-05
  -10.0299997       3.80956262E-05
  -10.0200005       3.75282834E-05
  -10.0100002       3.40701736E-05
  -10.0000000       2.83429181E-05
  -9.98999977       2.11675142E-05
  -9.97999954       1.34299362E-05
  -9.97000027       5.94706125E-06
  -9.96000004      -6.39770008E-07
  -9.94999981      -5.92413335E-06
  -9.93999958      -9.73947317E-06
  -9.93000031      -1.21155181E-05
  -9.92000008      -1.32031309E-05
  -9.90999985      -1.31905936E-05
  -9.89999962      -1.22338679E-05
  -9.89000034      -1.04174724E-05
  -9.88000011      -7.75230274E-06
  -9.86999989      -4.20557444E-06
  -9.85999966       2.51334825E-07
  -9.85000038       5.59535056E-06
  -9.84000015       1.17227319E-05
  -9.82999992       1.84493347E-05
  -9.81999969       2.55421510E-05
  -9.81000042       3.27727394E-05
  -9.80000019       3.99763776E-05
  -9.78999996       4.70970190E-05
  -9.77999973       5.42016969E-05
  -9.77000046       6.14559103E-05
  -9.76000023       6.90631205E-05
  -9.75000000       7.71822743E-05
  -9.73999977       8.58452404E-05
  -9.72999954       9.48971792E-05
  -9.72000027       1.03978622E-04
  -9.71000004       1.12557187E-04
  -9.69999981       1.20004093E-04
  -9.68999958       1.25698905E-04
  -9.68000031       1.29137625E-04
  -9.67000008       1.30019878E-04
  -9.65999985       1.28294734E-04
  -9.64999962       1.24158047E-04
  -9.64000034       1.18004391E-04
  -9.63000011       1.10349087E-04
  -9.61999989       1.01740581E-04
  -9.60999966       9.26829962E-05
  -9.60000038       8.35827377E-05
  -9.59000015       7.47238009E-05
  -9.57999992       6.62679013E-05
  -9.56999969       5.82695429E-05
  -9.56000042       5.06960787E-05
  -9.55000019       4.34460380E-05
  -9.53999996       3.63653890E-05
  -9.52999973       2.92667282E-05
  -9.52000046       2.19583708E-05
  -9.51000023       1.42874569E-05
  -9.50000000       6.19422644E-06
  -9.48999977      -2.23362986E-06
  -9.47999954      -1.07241749E-05
  -9.47000027      -1.88202321E-05
  -9.46000004      -2.59263870E-05
  -9.44999981      -3.14036879E-05
  -9.43999958      -3.46969500E-05
  -9.43000031      -3.54658914E-05
  -9.42000008      -3.36857411E-05
  -9.40999985      -2.96863964E-05
  -9.39999962      -2.41131220E-05
  -9.39000034      -1.78114497E-05
  -9.38000011      -1.16610245E-05
  -9.36999989      -6.39782957E-06
  -9.35999966      -2.46982108E-06
  -9.35000038       3.72543205E-08
  -9.34000015       1.38553287E-06
  -9.32999992       2.08826896E-06
  -9.31999969       2.75919933E-06
  -9.31000042       3.95057805E-06
  -9.30000019       6.02418822E-06
  -9.28999996       9.08780476E-06
  -9.27999973       1.30086337E-05
  -9.27000046       1.74922334E-05
  -9.26000023       2.21962782E-05
  -9.25000000       2.68403764E-05
  -9.23999977       3.12773482E-05
  -9.22999954       3.55065058E-05
  -9.22000027       3.96299729E-05
  -9.21000004       4.37718300E-05
  -9.19999981       4.79914634E-05
  -9.18999958       5.22226037E-05
  -9.18000031       5.62591267E-05
  -9.17000008       5.97920844E-05
  -9.15999985       6.24842578E-05
  -9.14999962       6.40573853E-05
  -9.14000034       6.43634703E-05
  -9.13000011       6.34188909E-05
  -9.11999989       6.13940865E-05
  -9.10999966       5.85663729E-05
  -9.10000038       5.52549427E-05
  -9.09000015       5.17608751E-05
  -9.07999992       4.83297081E-05
  -9.06999969       4.51432388E-05
  -9.06000042       4.23344718E-05
  -9.05000019       4.00108838E-05
  -9.03999996       3.82690268E-05
  -9.02999973       3.71892711E-05
  -9.02000046       3.68104702E-05
  -9.01000023       3.70958296E-05
  -9.00000000       3.79078192E-05
  -8.98999977       3.90102541E-05
  -8.97999954       4.01057114E-05
  -8.97000027       4.09037239E-05
  -8.96000004       4.12011686E-05
  -8.94999981       4.09473651E-05
  -8.93999958       4.02691330E-05
  -8.93000031       3.94411036E-05
  -8.92000008       3.88039261E-05
  -8.90999985       3.86521933E-05
  -8.89999962       3.91252615E-05
  -8.89000034       4.01368452E-05
  -8.88000011       4.13685411E-05
  -8.86999989       4.23342353E-05
  -8.85999966       4.24992504E-05
  -8.85000038       4.14216702E-05
  -8.84000015       3.88745430E-05
  -8.82999992       3.49139045E-05
  -8.81999969       2.98730811E-05
  -8.81000042       2.42859114E-05
  -8.80000019       1.87629084E-05
  -8.78999996       1.38559626E-05
  -8.77999973       9.94852689E-06
  -8.77000046       7.19915988E-06
  -8.76000023       5.54646840E-06
  -8.75000000       4.76730111E-06
  -8.73999977       4.56429734E-06
  -8.72999954       4.65502308E-06
  -8.72000027       4.83915937E-06
  -8.71000004       5.03111187E-06
  -8.69999981       5.25967698E-06
  -8.68999958       5.64559241E-06
  -8.68000031       6.37241646E-06
  -8.67000008       7.66336325E-06
  -8.65999985       9.76977208E-06
  -8.64999962       1.29674982E-05
  -8.64000034       1.75529767E-05
  -8.63000011       2.38295943E-05
  -8.61999989       3.20784566E-05
  -8.60999966       4.25163671E-05
  -8.60000038       5.52489873E-05
  -8.59000015       7.02318066E-05
  -8.57999992       8.72503151E-05
  -8.56999969       1.05926571E-04
  -8.56000042       1.25751088E-04
  -8.55000019       1.46134102E-04
  -8.53999996       1.66466387E-04
  -8.52999973       1.86178557E-04
  -8.52000046       2.04791068E-04
  -8.51000023       2.21950002E-04
  -8.50000000       2.37445973E-04
  -8.48999977       2.51215068E-04
  -8.47999954       2.63321010E-04
  -8.47000027       2.73918762E-04
  -8.46000004       2.83202186E-04
  -8.44999981       2.91342963E-04
  -8.43999958       2.98433239E-04
  -8.43000031       3.04446759E-04
  -8.42000008       3.09233816E-04
  -8.40999985       3.12554184E-04
  -8.39999962       3.14145262E-04
  -8.39000034       3.13804689E-04
  -8.38000011       3.11460928E-04
  -8.36999989       3.07204173E-04
  -8.35999966       3.01258726E-04
  -8.35000038       2.93901074E-04
  -8.34000015       2.85346439E-04
  -8.32999992       2.75645521E-04
  -8.31999969       2.64636154E-04
  -8.31000042       2.51981139E-04
  -8.30000019       2.37296932E-04
  -8.28999996       2.20341200E-04
  -8.27999973       2.01202944E-04
  -8.27000046       1.80424860E-04
  -8.26000023       1.59000803E-04
  -8.25000000       1.38228046E-04
  -8.23999977       1.19438955E-04
  -8.22999954       1.03682200E-04
  -8.22000027       9.14488483E-05
  -8.21000004       8.25329334E-05
  -8.19999981       7.60809780E-05
  -8.18999958       7.08281514E-05
  -8.18000031       6.54572286E-05
  -8.17000008       5.89749616E-05
  -8.15999985       5.09895362E-05
  -8.14999962       4.18003074E-05
  -8.14000034       3.22699088E-05
  -8.13000011       2.35184580E-05
  -8.11999989       1.65382644E-05
  -8.10999966       1.18544076E-05
  -8.10000038       9.34233867E-06
  -8.09000015       8.26221913E-06
  -8.07999992       7.49678293E-06
  -8.06999969       5.91344997E-06
  -8.06000042       2.72872830E-06
  -8.05000019      -2.24600853E-06
  -8.03999996      -8.55673352E-06
  -8.02999973      -1.52694538E-05
  -8.02000046      -2.12846517E-05
  -8.01000023      -2.56939038E-05
  -8.00000000      -2.80588847E-05
  -7.98999977      -2.85208644E-05
  -7.98000002      -2.77094605E-05
  -7.96999979      -2.64886858E-05
  -7.96000004      -2.56328804E-05
  -7.94999981      -2.55452433E-05
  -7.94000006      -2.61141104E-05
  -7.92999983      -2.67509895E-05
  -7.92000008      -2.65907147E-05
  -7.90999985      -2.47786593E-05
  -7.90000010      -2.07439643E-05
  -7.88999987      -1.43666866E-05
  -7.88000011      -5.98687166E-06
  -7.86999989       3.73823127E-06
  -7.86000013       1.40728889E-05
  -7.84999990       2.44497187E-05
  -7.84000015       3.46412453E-05
  -7.82999992       4.48022474E-05
  -7.82000017       5.53779500E-05
  -7.80999994       6.69192377E-05
  -7.80000019       7.98738183E-05
  -7.78999996       9.44268468E-05
  -7.78000021       1.10438887E-04
  -7.76999998       1.27492138E-04
  -7.76000023       1.45015947E-04
  -7.75000000       1.62438300E-04
  -7.73999977       1.79306007E-04
  -7.73000002       1.95335218E-04
  -7.71999979       2.10383572E-04
  -7.71000004       2.24368574E-04
  -7.69999981       2.37175176E-04
  -7.69000006       2.48596421E-04
  -7.67999983       2.58336193E-04
  -7.67000008       2.66073534E-04
  -7.65999985       2.71563156E-04
  -7.65000010       2.74731603E-04
  -7.63999987       2.75728351E-04
  -7.63000011       2.74909748E-04
  -7.61999989       2.72758480E-04
  -7.61000013       2.69767857E-04
  -7.59999990       2.66330811E-04
  -7.59000015       2.62676069E-04
  -7.57999992       2.58872169E-04
  -7.57000017       2.54897168E-04
  -7.55999994       2.50746991E-04
  -7.55000019       2.46537151E-04
  -7.53999996       2.42558541E-04
  -7.53000021       2.39259258E-04
  -7.51999998       2.37153596E-04
  -7.51000023       2.36685068E-04
  -7.50000000       2.38087494E-04
  -7.48999977       2.41293630E-04
  -7.48000002       2.45926436E-04
  -7.46999979       2.51383492E-04
  -7.46000004       2.56994506E-04
  -7.44999981       2.62209505E-04
  -7.44000006       2.66761665E-04