  -16.0000000       0.00000000    
  -15.9899998       0.00000000    
  -15.9799995       0.00000000    
  -15.9700003       0.00000000    
  -15.9600000       0.00000000    
  -15.9499998       0.00000000    
  -15.9399996       0.00000000    
  -15.9300003       0.00000000    
  -15.9200001       0.00000000    
  -15.9099998       0.00000000    
  -15.8999996       0.00000000    
  -15.8900003       0.00000000    
  -15.8800001       0.00000000    
  -15.8699999       0.00000000    
  -15.8599997       1.40129846E-45
  -15.8500004       2.10194770E-44
  -15.8400002       2.32615545E-43
  -15.8299999       1.95901525E-42
  -15.8199997       1.33081315E-41
  -15.8100004       7.57247677E-41
  -15.8000002       3.71167529E-40
  -15.7900000       1.60027023E-39
  -15.7799997       6.16515272E-39
  -15.7700005       2.14773036E-38
  -15.7600002       6.82680102E-38
  -15.7500000       1.99348921E-37
  -15.7399998       5.37483877E-37
  -15.7299995       1.34285118E-36
  -15.7200003       3.11591166E-36
  -15.7100000       6.72136248E-36
  -15.6999998       1.34722845E-35
  -15.6899996       2.50352660E-35
  -15.6800003       4.29223755E-35
  -15.6700001       6.72800792E-35
  -15.6599998       9.47768608E-35
  -15.6499996       1.15770983E-34
  -15.6400003       1.11709765E-34
  -15.6300001       5.47926558E-35
  -15.6199999      -8.70944198E-35
  -15.6099997      -3.37118464E-34
  -15.6000004      -6.86813202E-34
  -15.5900002      -1.06759462E-33
  -15.5799999      -1.32726233E-33
  -15.5699997      -1.22957866E-33
  -15.5600004      -4.98118440E-34
  -15.5500002       1.08073931E-33
  -15.5400000       3.50015602E-33
  -15.5299997       6.35598759E-33
  -15.5200005       8.72054223E-33
  -15.5100002       9.16014552E-33
  -15.5000000       5.98707338E-33
  -15.4899998      -2.20167043E-33
  -15.4799995      -1.57192776E-32
  -15.4700003      -3.28396681E-32
  -15.4600000      -4.89504353E-32
  -15.4499998      -5.62071734E-32
  -15.4399996      -4.42615588E-32
  -15.4300003      -2.76809726E-33
  -15.4200001       7.37159325E-32
  -15.4099998       1.78451774E-31
  -15.3999996       2.84380225E-31
  -15.3900003       3.39053031E-31
  -15.3800001       2.69163639E-31
  -15.3699999       2.17335259E-33
  -15.3599997      -4.90829124E-31
  -15.3500004      -1.13693616E-30
  -15.3400002      -1.71027262E-30
  -15.3299999      -1.82783522E-30
  -15.3199997      -1.03940869E-30
  -15.3100004       9.59700765E-31
  -15.3000002       4.01916490E-30
  -15.2900000       7.23994607E-30
  -15.2799997       8.89635490E-30
  -15.2700005       6.80392230E-30
  -15.2600002      -7.31695581E-31
  -15.2500000      -1.35090233E-29
  -15.2399998      -2.80796343E-29
  -15.2299995      -3.73273239E-29
  -15.2200003      -3.19458755E-29
  -15.2100000      -4.34029754E-30
  -15.1999998       4.56189308E-29
  -15.1899996       1.05099658E-28
  -15.1800003       1.46534825E-28
  -15.1700001       1.33249700E-28
  -15.1599998       3.43275135E-29
  -15.1499996      -1.53622247E-28
  -15.1400003      -3.85707747E-28
  -15.1300001      -5.61558031E-28
  -15.1199999      -5.44614229E-28
  -15.1099997      -2.14104019E-28
  -15.1000004       4.58488760E-28
  -15.0900002       1.33518685E-27
  -15.0799999       2.08106919E-27
  -15.0699997       2.21993914E-27
  -15.0600004       1.29692431E-27
  -15.0500002      -8.75749812E-28
  -15.0400000      -3.96963320E-27
  -15.0299997      -7.01163993E-27
  -15.0200005      -8.50361703E-27
  -15.0100002      -6.85779742E-27
  -15.0000000      -1.09441884E-27
  -14.9899998       8.40308041E-27
  -14.9799995       1.93984471E-26
  -14.9700003       2.79155688E-26
  -14.9600000       2.91527954E-26
  -14.9499998       1.91154109E-26
  -14.9399996      -3.45836890E-27
  -14.9300003      -3.55618157E-26
  -14.9200001      -6.94907448E-26
  -14.9099998      -9.39675025E-26
  -14.8999996      -9.67532723E-26
  -14.8900003      -6.81316546E-26
  -14.8800001      -4.31969254E-27
  -14.8699999       9.00451936E-26
  -14.8599997       2.00715279E-25
  -14.8500004       3.03769430E-25
  -14.8400002       3.66392339E-25
  -14.8299999       3.48908593E-25
  -14.8199997       2.09879131E-25
  -14.8100004      -8.27243179E-26
  -14.8000002      -5.31717395E-25
  -14.7900000      -1.08332552E-24
  -14.7799997      -1.60034348E-24
  -14.7700005      -1.85253117E-24
  -14.7600002      -1.54651842E-24
  -14.7500000      -4.13845108E-25
  -14.7399998       1.64212422E-24
  -14.7299995       4.37206396E-24
  -14.7200003       7.04963024E-24
  -14.7100000       8.48150586E-24
  -14.6999998       7.25085998E-24
  -14.6899996       2.22878173E-24
  -14.6800003      -6.72416831E-24
  -14.6700001      -1.80866920E-23
  -14.6599998      -2.83744211E-23
  -14.6499996      -3.25664154E-23
  -14.6400003      -2.54790744E-23
  -14.6300001      -3.98125714E-24
  -14.6199999       3.05063651E-23
  -14.6099997       7.02138460E-23
  -14.6000004       1.01105778E-22
  -14.5900002       1.05775140E-22
  -14.5799999       6.92739403E-23
  -14.5699997      -1.32463583E-23
  -14.5600004      -1.29562414E-22
  -14.5500002      -2.47439741E-22
  -14.5400000      -3.18897841E-22
  -14.5299997      -2.93175397E-22
  -14.5200005      -1.36794388E-22
  -14.5100002       1.44646886E-22
  -14.5000000       4.91440603E-22
  -14.4899998       7.90797338E-22
  -14.4799995       9.00427597E-22
  -14.4700003       6.94437309E-22
  -14.4600000       1.21845751E-22
  -14.4499998      -7.41212091E-22
  -14.4399996      -1.66963468E-21
  -14.4300003      -2.31910626E-21
  -14.4200001      -2.31602736E-21
  -14.4099998      -1.39510240E-21
  -14.3999996       4.52018409E-22
  -14.3900003       2.87211104E-21
  -14.3800001       5.14815686E-21
  -14.3699999       6.33902794E-21
  -14.3599997       5.55931732E-21
  -14.3500004       2.34200257E-21
  -14.3400002      -3.02618090E-21
  -14.3299999      -9.33532371E-21
  -14.3199997      -1.45723762E-20
  -14.3100004      -1.63864496E-20
  -14.3000002      -1.28438256E-20
  -14.2900000      -3.28910175E-21
  -14.2799997       1.09709215E-20
  -14.2700005       2.64712320E-20
  -14.2600002       3.81107861E-20
  -14.2500000       4.04345787E-20
  -14.2399998       2.94546770E-20
  -14.2299995       4.52710779E-21
  -14.2200003      -3.03627501E-20
  -14.2100000      -6.65363664E-20
  -14.1999998      -9.21639533E-20
  -14.1899996      -9.53440557E-20
  -14.1800003      -6.81023485E-20
  -14.1700001      -1.02039619E-20
  -14.1599998       6.85616276E-20
  -14.1499996       1.48801184E-19
  -14.1400003       2.05220705E-19
  -14.1300001       2.13235245E-19
  -14.1199999       1.57057365E-19
  -14.1099997       3.70002832E-20
  -14.1000004      -1.26558621E-19
  -14.0900002      -2.94617255E-19
  -14.0799999      -4.17188697E-19
  -14.0699997      -4.46147101E-19
  -14.0600004      -3.50404073E-19
  -14.0500002      -1.29201450E-19
  -14.0400000       1.80990142E-19
  -14.0299997       5.09410185E-19
  -14.0200005       7.64875766E-19
  -14.0100002       8.58543062E-19
  -14.0000000       7.30427002E-19
  -13.9899998       3.72466738E-19
  -13.9799995      -1.59348448E-19
  -13.9700003      -7.49322341E-19
  -13.9600000      -1.24445725E-18
  -13.9499998      -1.49145607E-18
  -13.9399996      -1.37999658E-18
  -13.9300003      -8.80793600E-19
  -13.9200001      -6.67038898E-20
  -13.9099998       8.91805649E-19
  -13.8999996       1.75934203E-18
  -13.8900003       2.29128926E-18
  -13.8800001       2.30003236E-18
  -13.8699999       1.71440565E-18
  -13.8599997       6.14683238E-19
  -13.8500004      -7.70151214E-19
  -13.8400002      -2.10704595E-18
  -13.8299999      -3.03830118E-18
  -13.8199997      -3.27769656E-18
  -13.8100004      -2.69807559E-18
  -13.8000002      -1.38423299E-18
  -13.7900000       3.68602667E-19
  -13.7799997       2.11711501E-18
  -13.7700005       3.38265668E-18
  -13.7600002       3.78758682E-18
  -13.7500000       3.17750265E-18
  -13.7399998       1.69040004E-18
  -13.7299995      -2.55960727E-19
  -13.7200003      -2.06644813E-18
  -13.7100000      -3.14180960E-18
  -13.6999998      -3.07872591E-18
  -13.6899996      -1.83562069E-18
  -13.6800003       1.96725535E-19
  -13.6700001       2.26146568E-18
  -13.6599998       3.44408559E-18
  -13.6499996       2.98173692E-18
  -13.6400003       5.89391260E-19
  -13.6300001      -3.30646280E-18
  -13.6199999      -7.53114033E-18
  -13.6099997      -1.03852642E-17
  -13.6000004      -1.01200171E-17
  -13.5900002      -5.56802485E-18
  -13.5799999       3.24448154E-18
  -13.5699997       1.47195996E-17
  -13.5600004       2.57395594E-17
  -13.5500002       3.22552165E-17
  -13.5400000       3.03696252E-17
  -13.5299997       1.77005798E-17
  -13.5200005      -5.34564106E-18
  -13.5100002      -3.48309345E-17
  -13.5000000      -6.34651612E-17
  -13.4899998      -8.19149218E-17
  -13.4799995      -8.11440623E-17
  -13.4700003      -5.53366360E-17
  -13.4600000      -4.64901436E-18
  -13.4499998       6.31105522E-17
  -13.4399996       1.32682708E-16
  -13.4300003       1.83878941E-16
  -13.4200001       1.96271841E-16
  -13.4099998       1.55204335E-16
  -13.3999996       5.76579562E-17
  -13.3900003      -8.37966320E-17
  -13.3800001      -2.40607808E-16
  -13.3699999      -3.72393800E-16
  -13.3599997      -4.35516601E-16
  -13.3500004      -3.94649617E-16
  -13.3400002      -2.34716324E-16
  -13.3299999       3.01123389E-17
  -13.3199997       3.53552267E-16
  -13.3100004       6.62607670E-16
  -13.3000002       8.71486524E-16
  -13.2900000       9.01951070E-16
  -13.2799997       7.05826149E-16
  -13.2700005       2.83953820E-16
  -13.2600002      -3.04191898E-16
  -13.2500000      -9.44539674E-16
  -13.2399998      -1.48748483E-15
  -13.2299995      -1.77955333E-15
  -13.2200003      -1.70147754E-15
  -13.2100000      -1.20382069E-15
  -13.1999998      -3.30572475E-16
  -13.1899996       7.77100531E-16
  -13.1800003       1.90070233E-15
  -13.1700001       2.78600423E-15
  -13.1599998       3.19870918E-15
  -13.1499996       2.98201930E-15
  -13.1400003       2.10204503E-15
  -13.1300001       6.68640556E-16
  -13.1199999      -1.07581919E-15
  -13.1099997      -2.79982442E-15
  -13.1000004      -4.15032803E-15
  -13.0900002      -4.82995932E-15
  -13.0799999      -4.66579248E-15
  -13.0699997      -3.65254837E-15
  -13.0600004      -1.95844923E-15
  -13.0500002       1.09325120E-16
  -13.0400000       2.17268821E-15
  -13.0299997       3.86849518E-15
  -13.0200005       4.93126700E-15
  -13.0100002       5.25170126E-15
  -13.0000000       4.89508175E-15
  -12.9899998       4.07325396E-15
  -12.9799995       3.07551734E-15
  -12.9700003       2.17483798E-15
  -12.9600000       1.53345638E-15
  -12.9499998       1.13425240E-15
  -12.9399996       7.60071198E-16
  -12.9300003       3.36051918E-17
  -12.9200001      -1.48337979E-15
  -12.9099998      -4.14751631E-15
  -12.8999996      -8.07706055E-15
  -12.8900003      -1.30180934E-14
  -12.8800001      -1.82721642E-14
  -12.8699999      -2.27169662E-14
  -12.8599997      -2.49370311E-14
  -12.8500004      -2.34606290E-14
  -12.8400002      -1.70754049E-14
  -12.8299999      -5.17252909E-15
  -12.8199997       1.19475132E-14
  -12.8100004       3.28805959E-14
  -12.8000002       5.51010314E-14
  -12.7900000       7.51618277E-14
  -12.7799997       8.91174951E-14
  -12.7700005       9.31281622E-14
  -12.7600002       8.41585983E-14
  -12.7500000       6.06504186E-14
  -12.7399998       2.30319795E-14
  -12.7299995      -2.60556245E-14
  -12.7200003      -8.18946283E-14
  -12.7100000      -1.38198779E-13
  -12.6999998      -1.87925007E-13
  -12.6899996      -2.24247175E-13
  -12.6800003      -2.41504543E-13
  -12.6700001      -2.35932557E-13
  -12.6599998      -2.06027131E-13
  -12.6499996      -1.52480418E-13
  -12.6400003      -7.77373771E-14
  -12.6300001       1.46675207E-14
  -12.6199999       1.20760362E-13
  -12.6099997       2.36513120E-13
  -12.6000004       3.57774113E-13
  -12.5900002       4.79676411E-13
  -12.5799999       5.95626846E-13
  -12.5699997       6.96151307E-13
  -12.5600004       7.67995259E-13
  -12.5500002       7.93921406E-13
  -12.5400000       7.53572823E-13
  -12.5299997       6.25589641E-13
  -12.5200005       3.90906518E-13
  -12.5100002       3.68794655E-14
  -12.5000000      -4.38359500E-13
  -12.4899998      -1.02205527E-12
  -12.4799995      -1.68421885E-12
  -12.4700003      -2.37682552E-12
  -12.4600000      -3.03511621E-12
  -12.4499998      -3.58093568E-12
  -12.4399996      -3.92771579E-12
  -12.4300003      -3.98646264E-12
  -12.4200001      -3.67200497E-12
  -12.4099998      -2.90879668E-12
  -12.3999996      -1.63579512E-12
  -12.3900003       1.89831332E-13
  -12.3800001       2.59013774E-12
  -12.3699999       5.56465160E-12
  -12.3599997       9.08922243E-12
  -12.3500004       1.31151374E-11
  -12.3400002       1.75684276E-11
  -12.3299999       2.23495632E-11
  -12.3199997       2.73338227E-11
  -12.3100004       3.23728579E-11
  -12.3000002       3.72978350E-11
  -12.2900000       4.19244153E-11
  -12.2799997       4.60594306E-11
  -12.2700005       4.95089143E-11
  -12.2600002       5.20868661E-11
  -12.2500000       5.36236437E-11
  -12.2399998       5.39735236E-11
  -12.2299995       5.30204700E-11
  -12.2200003       5.06818823E-11
  -12.2100000       4.69103853E-11
  -12.1999998       4.16937838E-11
  -12.1899996       3.50537585E-11
  -12.1800003       2.70437197E-11
  -12.1700001       1.77463270E-11
  -12.1599998       7.27074997E-12
  -12.1499996      -4.25027678E-12
  -12.1400003      -1.66637468E-11
  -12.1300001      -2.98001068E-11
  -12.1199999      -4.34777145E-11
  -12.1099997      -5.75077867E-11
  -12.1000004      -7.16994589E-11
  -12.0900002      -8.58649332E-11
  -12.0799999      -9.98237396E-11
  -12.0699997      -1.13406153E-10
  -12.0600004      -1.26455291E-10
  -12.0500002      -1.38827838E-10
  -12.0400000      -1.50393920E-10
  -12.0299997      -1.61036157E-10
  -12.0200005      -1.70647760E-10
  -12.0100002      -1.79130599E-10
  -12.0000000      -1.86392526E-10
  -11.9899998      -1.92344085E-10
  -11.9799995      -1.96894570E-10
  -11.9700003      -1.99947253E-10
  -11.9600000      -2.01394401E-10
  -11.9499998      -2.01113029E-10
  -11.9399996      -1.98962444E-10
  -11.9300003      -1.94784827E-10
  -11.9200001      -1.88409940E-10
  -11.9099998      -1.79664270E-10
  -11.8999996      -1.68384848E-10
  -11.8900003      -1.54435659E-10
  -11.8800001      -1.37725178E-10
  -11.8699999      -1.18221447E-10
  -11.8599997      -9.59631610E-11
  -11.8500004      -7.10637660E-11
  -11.8400002      -4.37079331E-11
  -11.8299999      -1.41406956E-11
  -11.8199997       1.73492644E-11
  -11.8100004       5.04489263E-11
  -11.8000002       8.48404888E-11
  -11.7900000       1.20216920E-10
  -11.7799997       1.56292299E-10
  -11.7700005       1.92804966E-10
  -11.7600002       2.29514199E-10
  -11.7500000       2.66191624E-10
  -11.7399998       3.02609521E-10
  -11.7299995       3.38529177E-10
  -11.7200003       3.73691050E-10
  -11.7100000       4.07808759E-10
  -11.6999998       4.40568027E-10
  -11.6899996       4.71630013E-10
  -11.6800003       5.00638697E-10
  -11.6700001       5.27231314E-10
  -11.6599998       5.51049428E-10
  -11.6499996       5.71750813E-10
  -11.6400003       5.89019500E-10
  -11.6300001       6.02574823E-10
  -11.6199999       6.12175310E-10
  -11.6099997       6.17622176E-10
  -11.6000004       6.18756990E-10
  -11.5900002       6.15455575E-10
  -11.5799999       6.07621731E-10
  -11.5699997       5.95176186E-10
  -11.5600004       5.78047665E-10
  -11.5500002       5.56165947E-10
  -11.5400000       5.29458144E-10
  -11.5299997       4.97851427E-10
  -11.5200005       4.61280014E-10
  -11.5100002       4.19696500E-10
  -11.5000000       3.73085562E-10
  -11.4899998       3.21475430E-10
  -11.4799995       2.64945649E-10
  -11.4700003       2.03628045E-10
  -11.4600000       1.37699713E-10
  -11.4499998       6.73701372E-11
  -11.4399996      -7.13570002E-12
  -11.4300003      -8.55948784E-11
  -11.4200001      -1.67799677E-10
  -11.4099998      -2.53562421E-10
  -11.3999996      -3.42714079E-10
  -11.3900003      -4.35094238E-10
  -11.3800001      -5.30535560E-10
  -11.3699999      -6.28849861E-10
  -11.3599997      -7.29816652E-10
  -11.3500004      -8.33179470E-10
  -11.3400002      -9.38652045E-10
  -11.3299999      -1.04593123E-09
  -11.3199997      -1.15471321E-09
  -11.3100004      -1.26471333E-09
  -11.3000002      -1.37567491E-09
  -11.2900000      -1.48737533E-09
  -11.2799997      -1.59961866E-09
  -11.2700005      -1.71221981E-09
  -11.2600002      -1.82498749E-09
  -11.2500000      -1.93770422E-09
  -11.2399998      -2.05011386E-09
  -11.2299995      -2.16191998E-09
  -11.2200003      -2.27279107E-09
  -11.2100000      -2.38237940E-09
  -11.1999998      -2.49034326E-09
  -11.1899996      -2.59637201E-09
  -11.1800003      -2.70020695E-09
  -11.1700001      -2.80165424E-09
  -11.1599998      -2.90058866E-09
  -11.1499996      -2.99694602E-09
  -11.1400003      -3.09071324E-09
  -11.1300001      -3.18191073E-09
  -11.1199999      -3.27056981E-09
  -11.1099997      -3.35672090E-09
  -11.1000004      -3.44038198E-09
  -11.0900002      -3.52154172E-09
  -11.0799999      -3.60017216E-09
  -11.0699997      -3.67622732E-09
  -11.0600004      -3.74966236E-09
  -11.0500002      -3.82044485E-09
  -11.0400000      -3.88857657E-09
  -11.0299997      -3.95411837E-09
  -11.0200005      -4.01719946E-09
  -11.0100002      -4.07803036E-09
  -11.0000000      -4.13689261E-09
  -10.9899998      -4.19411617E-09
  -10.9799995      -4.25004831E-09
  -10.9700003      -4.30500435E-09
  -10.9600000      -4.35923209E-09
  -10.9499998      -4.41286385E-09
  -10.9399996      -4.46589565E-09
  -10.9300003      -4.51819160E-09
  -10.9200001      -4.56949500E-09
  -10.9099998      -4.61948479E-09
  -10.8999996      -4.66780747E-09
  -10.8900003      -4.71414552E-09
  -10.8800001      -4.75824713E-09
  -10.8699999      -4.79995244E-09
  -10.8599997      -4.83920370E-09
  -10.8500004      -4.87600804E-09
  -10.8400002      -4.91042496E-09
  -10.8299999      -4.94251706E-09
  -10.8199997      -4.97234076E-09
  -10.8100004      -4.99991204E-09
  -10.8000002      -5.02520381E-09
  -10.7900000      -5.04816278E-09
  -10.7799997      -5.06871078E-09
  -10.7700005      -5.08675146E-09
  -10.7600002      -5.10217646E-09
  -10.7500000      -5.11487119E-09
  -10.7399998      -5.12468468E-09
  -10.7299995      -5.13145126E-09
  -10.7200003      -5.13498666E-09
  -10.7100000      -5.13508791E-09
  -10.6999998      -5.13158493E-09
  -10.6899996      -5.12435827E-09
  -10.6800003      -5.11337994E-09
  -10.6700001      -5.09873654E-09
  -10.6599998      -5.08062348E-09
  -10.6499996      -5.05933295E-09
  -10.6400003      -5.03522646E-09
  -10.6300001      -5.00869790E-09
  -10.6199999      -4.98011943E-09
  -10.6099997      -4.94981478E-09
  -10.6000004      -4.91805929E-09
  -10.5900002      -4.88506302E-09
  -10.5799999      -4.85100982E-09
  -10.5699997      -4.81610263E-09
  -10.5600004      -4.78052620E-09
  -10.5500002      -4.74451456E-09
  -10.5400000      -4.70832173E-09
  -10.5299997      -4.67219463E-09
  -10.5200005      -4.63636951E-09
  -10.5100002      -4.60102978E-09
  -10.5000000      -4.56632998E-09
  -10.4899998      -4.53235671E-09
  -10.4799995      -4.49918947E-09
  -10.4700003      -4.46692550E-09
  -10.4600000      -4.43566961E-09
  -10.4499998      -4.40560255E-09
  -10.4399996      -4.37693570E-09
  -10.4300003      -4.34992620E-09
  -10.4200001      -4.32483205E-09
  -10.4099998      -4.30187574E-09
  -10.3999996      -4.28123093E-09
  -10.3900003      -4.26300462E-09
  -10.3800001      -4.24723590E-09
  -10.3699999      -4.23390834E-09
  -10.3599997      -4.22299440E-09
  -10.3500004      -4.21446833E-09
  -10.3400002      -4.20832080E-09
  -10.3299999      -4.20458601E-09
  -10.3199997      -4.20330037E-09
  -10.3100004      -4.20454072E-09
  -10.3000002      -4.20837010E-09
  -10.2900000      -4.21484447E-09
  -10.2799997      -4.22401225E-09
  -10.2700005      -4.23592361E-09
  -10.2600002      -4.25060920E-09
  -10.2500000      -4.26810365E-09
  -10.2399998      -4.28845004E-09
  -10.2299995      -4.31166036E-09
  -10.2200003      -4.33772085E-09
  -10.2100000      -4.36656711E-09
  -10.1999998      -4.39806680E-09
  -10.1899996      -4.43204851E-09
  -10.1800003      -4.46828752E-09
  -10.1700001      -4.50654758E-09
  -10.1599998      -4.54664129E-09
  -10.1499996      -4.58840965E-09
  -10.1400003      -4.63178118E-09
  -10.1300001      -4.67677941E-09
  -10.1199999      -4.72348827E-09
  -10.1099997      -4.77205297E-09
  -10.1000004      -4.82263207E-09
  -10.0900002      -4.87539609E-09
  -10.0799999      -4.93048713E-09
  -10.0699997      -4.98802288E-09
  -10.0600004      -5.04811348E-09
  -10.0500002      -5.11087483E-09
  -10.0400000      -5.17642240E-09
  -10.0299997      -5.24487742E-09
  -10.0200005      -5.31638555E-09
  -10.0100002      -5.39109335E-09
  -10.0000000      -5.46915713E-09
  -9.98999977      -5.55071900E-09
  -9.97999954      -5.63590730E-09
  -9.97000027      -5.72488013E-09
  -9.96000004      -5.81779691E-09
  -9.94999981      -5.91486549E-09
  -9.93999958      -6.01632610E-09
  -9.93000031      -6.12244433E-09
  -9.92000008      -6.23348662E-09
  -9.90999985      -6.34968256E-09
  -9.89999962      -6.47119158E-09
  -9.89000034      -6.59805721E-09
  -9.88000011      -6.73023326E-09
  -9.86999989      -6.86751278E-09
  -9.85999966      -7.00967862E-09
  -9.85000038      -7.15642257E-09
  -9.84000015      -7.30749505E-09
  -9.82999992      -7.46271400E-09
  -9.81999969      -7.62198393E-09
  -9.81000042      -7.78529863E-09
  -9.80000019      -7.95277977E-09
  -9.78999996      -8.12456680E-09
  -9.77999973      -8.30085778E-09
  -9.77000046      -8.48188098E-09
  -9.76000023      -8.66787353E-09
  -9.75000000      -8.85907969E-09
  -9.73999977      -9.05579522E-09
  -9.72999954      -9.25837540E-09
  -9.72000027      -9.46722167E-09
  -9.71000004      -9.68273905E-09
  -9.69999981      -9.90534144E-09
  -9.68999958      -1.01353557E-08
  -9.68000031      -1.03730073E-08
  -9.67000008      -1.06183755E-08
  -9.65999985      -1.08713367E-08
  -9.64999962      -1.11316414E-08
  -9.64000034      -1.13989094E-08
  -9.63000011      -1.16726797E-08
  -9.61999989      -1.19524284E-08
  -9.60999966      -1.22376456E-08
  -9.60000038      -1.25277690E-08
  -9.59000015      -1.28221664E-08
  -9.57999992      -1.31201663E-08
  -9.56999969      -1.34209701E-08
  -9.56000042      -1.37236578E-08
  -9.55000019      -1.40272318E-08
  -9.53999996      -1.43306256E-08
  -9.52999973      -1.46328247E-08
  -9.52000046      -1.49328976E-08
  -9.51000023      -1.52300181E-08
  -9.50000000      -1.55235771E-08
  -9.48999977      -1.58130700E-08
  -9.47999954      -1.60980811E-08
  -9.47000027      -1.63783174E-08
  -9.46000004      -1.66534253E-08
  -9.44999981      -1.69231065E-08
  -9.43999958      -1.71870393E-08
  -9.43000031      -1.74449788E-08
  -9.42000008      -1.76967898E-08
  -9.40999985      -1.79424884E-08
  -9.39999962      -1.81822770E-08
  -9.39000034      -1.84165607E-08
  -9.38000011      -1.86458688E-08
  -9.36999989      -1.88708889E-08
  -9.35999966      -1.90923686E-08
  -9.35000038      -1.93110523E-08
  -9.34000015      -1.95277678E-08
  -9.32999992      -1.97434229E-08
  -9.31999969      -1.99590708E-08
  -9.31000042      -2.01759001E-08
  -9.30000019      -2.03952109E-08
  -9.28999996      -2.06184669E-08
  -9.27999973      -2.08471995E-08
  -9.27000046      -2.10828510E-08
  -9.26000023      -2.13267857E-08
  -9.25000000      -2.15801510E-08
  -9.23999977      -2.18439276E-08
  -9.22999954      -2.21189094E-08
  -9.22000027      -2.24057128E-08
  -9.21000004      -2.27050183E-08
  -9.19999981      -2.30174226E-08
  -9.18999958      -2.33435404E-08
  -9.18000031      -2.36839419E-08
  -9.17000008      -2.40391032E-08
  -9.15999985      -2.44093066E-08
  -9.14999962      -2.47946375E-08
  -9.14000034      -2.51948578E-08
  -9.13000011      -2.56095269E-08
  -9.11999989      -2.60379398E-08
  -9.10999966      -2.64793449E-08
  -9.10000038      -2.69329501E-08
  -9.09000015      -2.73979985E-08
  -9.07999992      -2.78737300E-08
  -9.06999969      -2.83593700E-08
  -9.06000042      -2.88540640E-08
  -9.05000019      -2.93568476E-08
  -9.03999996      -2.98666230E-08
  -9.02999973      -3.03821643E-08
  -9.02000046      -3.09021857E-08
  -9.01000023      -3.14254720E-08
  -9.00000000      -3.19507976E-08
  -8.98999977      -3.24771996E-08
  -8.97999954      -3.30037189E-08
  -8.97000027      -3.35294708E-08
  -8.96000004      -3.40535813E-08
  -8.94999981      -3.45750877E-08
  -8.93999958      -3.50928460E-08
  -8.93000031      -3.56056589E-08
  -8.92000008      -3.61122581E-08
  -8.90999985      -3.66113611E-08
  -8.89999962      -3.71018878E-08
  -8.89000034      -3.75828755E-08
  -8.88000011      -3.80536456E-08
  -8.86999989      -3.85135337E-08
  -8.85999966      -3.89621349E-08
  -8.85000038      -3.93989303E-08
  -8.84000015      -3.98233730E-08
  -8.82999992      -4.02348661E-08
  -8.81999969      -4.06328198E-08
  -8.81000042      -4.10166372E-08
  -8.80000019      -4.13859560E-08
  -8.78999996      -4.17406021E-08
  -8.77999973      -4.20807105E-08
  -8.77000046      -4.24065867E-08
  -8.76000023      -4.27187103E-08
  -8.75000000      -4.30177067E-08
  -8.73999977      -4.33041158E-08
  -8.72999954      -4.35785275E-08
  -8.72000027      -4.38415562E-08
  -8.71000004      -4.40938877E-08
  -8.69999981      -4.43364634E-08
  -8.68999958      -4.45703670E-08
  -8.68000031      -4.47970727E-08
  -8.67000008      -4.50183002E-08
  -8.65999985      -4.52359430E-08
  -8.64999962      -4.54518982E-08
  -8.64000034      -4.56680702E-08
  -8.63000011      -4.58862139E-08
  -8.61999989      -4.61078926E-08
  -8.60999966      -4.63345842E-08
  -8.60000038      -4.65676173E-08
  -8.59000015      -4.68082639E-08
  -8.57999992      -4.70578883E-08
  -8.56999969      -4.73177835E-08
  -8.56000042      -4.75890936E-08
  -8.55000019      -4.78728772E-08
  -8.53999996      -4.81700120E-08
  -8.52999973      -4.84811054E-08
  -8.52000046      -4.88063776E-08
  -8.51000023      -4.91458749E-08
  -8.50000000      -4.94995511E-08
  -8.48999977      -4.98671966E-08
  -8.47999954      -5.02485378E-08
  -8.47000027      -5.06434397E-08
  -8.46000004      -5.10516109E-08
  -8.44999981      -5.14729095E-08
  -8.43999958      -5.19070014E-08
  -8.43000031      -5.23534354E-08
  -8.42000008      -5.28117248E-08
  -8.40999985      -5.32811519E-08
  -8.39999962      -5.37610667E-08
  -8.39000034      -5.42507692E-08
  -8.38000011      -5.47495738E-08
  -8.36999989      -5.52568302E-08
  -8.35999966      -5.57721833E-08
  -8.35000038      -5.62949793E-08
  -8.34000015      -5.68247209E-08
  -8.32999992      -5.73608965E-08
  -8.31999969      -5.79027599E-08
  -8.31000042      -5.84496505E-08
  -8.30000019      -5.90007190E-08
  -8.28999996      -5.95552407E-08
  -8.27999973      -6.01125976E-08
  -8.27000046      -6.06722068E-08
  -8.26000023      -6.12335995E-08
  -8.25000000      -6.17963067E-08
  -8.23999977      -6.23599092E-08
  -8.22999954      -6.29238599E-08
  -8.22000027      -6.34876685E-08
  -8.21000004      -6.40506101E-08
  -8.19999981      -6.46121165E-08
  -8.18999958      -6.51715695E-08
  -8.18000031      -6.57282087E-08
  -8.17000008      -6.62815367E-08
  -8.15999985      -6.68310989E-08
  -8.14999962      -6.73765754E-08
  -8.14000034      -6.79176964E-08
  -8.13000011      -6.84542556E-08
  -8.11999989      -6.89862603E-08
  -8.10999966      -6.95135896E-08
  -8.10000038      -7.00364140E-08
  -8.09000015      -7.05550391E-08
  -8.07999992      -7.10699055E-08
  -8.06999969      -7.15816100E-08
  -8.06000042      -7.20911260E-08
  -8.05000019      -7.25995406E-08
  -8.03999996      -7.31081187E-08
  -8.02999973      -7.36184589E-08
  -8.02000046      -7.41320108E-08
  -8.01000023      -7.46503517E-08
  -8.00000000      -7.51754285E-08
  -7.98999977      -7.57088756E-08
  -7.98000002      -7.62523413E-08
  -7.96999979      -7.68074457E-08
  -7.96000004      -7.73758586E-08
  -7.94999981      -7.79589442E-08
  -7.94000006      -7.85581449E-08
  -7.92999983      -7.91746899E-08
  -7.92000008      -7.98098085E-08
  -7.90999985      -8.04645524E-08
  -7.90000010      -8.11399943E-08
  -7.88999987      -8.18372428E-08
  -7.88000011      -8.25567810E-08
  -7.86999989      -8.32995752E-08
  -7.86000013      -8.40661016E-08
  -7.84999990      -8.48566231E-08
  -7.84000015      -8.56712532E-08
  -7.82999992      -8.65101484E-08
  -7.82000017      -8.73730315E-08
  -7.80999994      -8.82596751E-08
  -7.80000019      -8.91699514E-08
  -7.78999996      -9.01032280E-08
  -7.78000021      -9.10592277E-08
  -7.76999998      -9.20376593E-08
  -7.76000023      -9.30379400E-08
  -7.75000000      -9.40593665E-08
  -7.73999977      -9.51013490E-08
  -7.73000002      -9.61631912E-08
  -7.71999979      -9.72442677E-08
  -7.71000004      -9.83439605E-08
  -7.69999981      -9.94618503E-08
  -7.69000006      -1.00598022E-07
  -7.67999983      -1.01752427E-07
  -7.67000008      -1.02925149E-07
  -7.65999985      -1.04116545E-07
  -7.65000010      -1.05327025E-07
  -7.63999987      -1.06556953E-07
  -7.63000011      -1.07806308E-07
  -7.61999989      -1.09075778E-07
  -7.61000013      -1.10365498E-07
  -7.59999990      -1.11675803E-07
  -7.59000015      -1.13006983E-07
  -7.57999992      -1.14359466E-07
  -7.57000017      -1.15733584E-07
  -7.55999994      -1.17129908E-07
  -7.55000019      -1.18548421E-07
  -7.53999996      -1.19989366E-07
  -7.53000021      -1.21452743E-07
  -7.51999998      -1.22938260E-07
  -7.51000023      -1.24445876E-07
  -7.50000000      -1.25975291E-07
  -7.48999977      -1.27526533E-07
  -7.48000002      -1.29099604E-07
  -7.46999979      -1.30694929E-07
  -7.46000004      -1.32312607E-07
  -7.44999981      -1.33953080E-07
  -7.44000006      -1.35616830E-07