  -16.0000000       0.00000000    
  -15.9899998       0.00000000    
  -15.9799995       0.00000000    
  -15.9700003       0.00000000    
  -15.9600000       0.00000000    
  -15.9499998       0.00000000    
  -15.9399996       0.00000000    
  -15.9300003       0.00000000    
  -15.9200001       0.00000000    
  -15.9099998       0.00000000    
  -15.8999996       0.00000000    
  -15.8900003       0.00000000    
  -15.8800001      -0.00000000    
  -15.8699999       9.80908925E-45
  -15.8599997       3.11088259E-43
  -15.8500004       5.10633160E-42
  -15.8400002       5.75695448E-41
  -15.8299999       4.95702325E-40
  -15.8199997       3.46049815E-39
  -15.8100004       2.03395291E-38
  -15.8000002       1.03290954E-37
  -15.7900000       4.61780578E-37
  -15.7799997       1.84325248E-36
  -15.7700005       6.64126040E-36
  -15.7600002       2.17856239E-35
  -15.7500000       6.55105470E-35
  -15.7399998       1.81560417E-34
  -15.7299995       4.65708362E-34
  -15.7200003       1.10895338E-33
  -15.7100000       2.45612106E-33
  -15.6999998       5.06304886E-33
  -15.6899996       9.70558445E-33
  -15.6800003       1.72497492E-32
  -15.6700001       2.82474466E-32
  -15.6599998       4.21104629E-32
  -15.6499996       5.57972080E-32
  -15.6400003       6.21974808E-32
  -15.6300001       4.88777986E-32
  -15.6199999      -1.48672953E-33
  -15.6099997      -1.07043396E-31
  -15.6000004      -2.77039709E-31
  -15.5900002      -4.95707190E-31
  -15.5799999      -7.02451585E-31
  -15.5699997      -7.76911347E-31
  -15.5600004      -5.44486679E-31
  -15.5500002       1.77621992E-31
  -15.5400000       1.47844275E-30
  -15.5299997       3.20117016E-30
  -15.5200005       4.78864387E-30
  -15.5100002       5.22896600E-30
  -15.5000000       3.24573851E-30
  -15.4899998      -2.14053346E-30
  -15.4799995      -1.06847298E-29
  -15.4700003      -1.98989880E-29
  -15.4600000      -2.45772103E-29
  -15.4499998      -1.77598652E-29
  -15.4399996       6.09129850E-30
  -15.4300003       4.57782865E-29
  -15.4200001       8.76386176E-29
  -15.4099998       1.03200631E-28
  -15.3999996       5.53667063E-29
  -15.3900003      -8.28456942E-29
  -15.3800001      -2.98184920E-28
  -15.3699999      -5.06356738E-28
  -15.3599997      -5.42254002E-28
  -15.3500004      -1.98986877E-28
  -15.3400002       6.64617431E-28
  -15.3299999       1.95810857E-27
  -15.3199997       3.19564452E-27
  -15.3100004       3.44987440E-27
  -15.3000002       1.56458639E-27
  -15.2900000      -3.28022347E-27
  -15.2799997      -1.07094855E-26
  -15.2700005      -1.83051229E-26
  -15.2600002      -2.13308097E-26
  -15.2500000      -1.37006142E-26
  -15.2399998       9.36683424E-27
  -15.2299995       4.72652883E-26
  -15.2200003       8.98438985E-26
  -15.2100000       1.15660851E-25
  -15.1999998       9.56195436E-26
  -15.1899996       4.01882839E-27
  -15.1800003      -1.63817062E-25
  -15.1700001      -3.72663660E-25
  -15.1599998      -5.37267278E-25
  -15.1499996      -5.33152087E-25
  -15.1400003      -2.37297126E-25
  -15.1300001       4.02992083E-25
  -15.1199999       1.29163716E-24
  -15.1099997       2.13235966E-24
  -15.1000004       2.45054177E-24
  -15.0900002       1.72524452E-24
  -15.0799999      -3.67255624E-25
  -15.0699997      -3.65589974E-24
  -15.0600004      -7.24573553E-24
  -15.0500002      -9.51992371E-24
  -15.0400000      -8.51463881E-24
  -15.0299997      -2.70103765E-24
  -15.0200005       7.98072197E-24
  -15.0100002       2.12108826E-23
  -15.0000000       3.20346979E-23
  -14.9899998       3.37707031E-23
  -14.9799995       2.02979259E-23
  -14.9700003      -1.06265930E-23
  -14.9600000      -5.40725149E-23
  -14.9499998      -9.62860081E-23
  -14.9399996      -1.16394268E-22
  -14.9300003      -9.24771731E-23
  -14.9200001      -1.14625789E-23
  -14.9099998       1.19813520E-22
  -14.8999996       2.67000210E-22
  -14.8900003       3.69493108E-22
  -14.8800001       3.54653410E-22
  -14.8699999       1.65173009E-22
  -14.8599997      -2.06185118E-22
  -14.8500004      -6.86565563E-22
  -14.8400002      -1.11380687E-21
  -14.8299999      -1.26286852E-21
  -14.8199997      -9.14248339E-22
  -14.8100004       4.47200262E-23
  -14.8000002       1.51377627E-21
  -14.7900000       3.11291107E-21
  -14.7799997       4.20351417E-21
  -14.7700005       4.03225063E-21
  -14.7600002       1.99701009E-21
  -14.7500000      -2.01765810E-21
  -14.7399998      -7.34280556E-21
  -14.7299995      -1.24080897E-20
  -14.7200003      -1.49423602E-20
  -14.7100000      -1.25634049E-20
  -14.6999998      -3.70371250E-21
  -14.6899996       1.13426625E-20
  -14.6800003       2.96173117E-20
  -14.6700001       4.53781914E-20
  -14.6599998       5.10366625E-20
  -14.6499996       3.92784872E-20
  -14.6400003       6.08819552E-21
  -14.6300001      -4.60898704E-20
  -14.6199999      -1.06227471E-19
  -14.6099997      -1.54933746E-19
  -14.6000004      -1.68016965E-19
  -14.5900002      -1.23539476E-19
  -14.5799999      -1.12400767E-20
  -14.5699997       1.58218170E-19
  -14.5600004       3.47780877E-19
  -14.5500002       4.96073345E-19
  -14.5400000       5.29545260E-19
  -14.5299997       3.84500096E-19
  -14.5200005       3.50107684E-20
  -14.5100002      -4.81205290E-19
  -14.5000000      -1.04945397E-18
  -14.4899998      -1.48746895E-18
  -14.4799995      -1.58348229E-18
  -14.4700003      -1.16067957E-18
  -14.4600000      -1.55080635E-19
  -14.4499998       1.31618301E-18
  -14.4399996       2.92474935E-18
  -14.4300003       4.16473568E-18
  -14.4200001       4.46259391E-18
  -14.4099998       3.35253118E-18
  -14.3999996       6.79475882E-19
  -14.3900003      -3.23212201E-18
  -14.3800001      -7.51535938E-18
  -14.3699999      -1.08633547E-17
  -14.3599997      -1.18192091E-17
  -14.3500004      -9.21754819E-18
  -14.3400002      -2.67712704E-18
  -14.3299999       7.00667226E-18
  -14.3199997       1.77352023E-17
  -14.3100004       2.63734478E-17
  -14.3000002       2.94450457E-17
  -14.2900000       2.41568800E-17
  -14.2799997       9.51574018E-18
  -14.2700005      -1.28003057E-17
  -14.2600002      -3.81697398E-17
  -14.2500000      -5.96135105E-17
  -14.2399998      -6.92935817E-17
  -14.2299995      -6.07031654E-17
  -14.2200003      -3.10516488E-17
  -14.2100000       1.68405138E-17
  -14.1999998       7.38445507E-17
  -14.1899996       1.25540156E-16
  -14.1800003       1.55074713E-16
  -14.1700001       1.47477052E-16
  -14.1599998       9.45237815E-17
  -14.1499996      -1.10814647E-18
  -14.1400003      -1.23752533E-16
  -14.1300001      -2.45803747E-16
  -14.1199999      -3.32358153E-16
  -14.1099997      -3.49029058E-16
  -14.1000004      -2.71586212E-16
  -14.0900002      -9.52890824E-17
  -14.0799999       1.58621901E-16
  -14.0699997       4.41676331E-16
  -14.0600004       6.83825315E-16
  -14.0500002       8.06333173E-16
  -14.0400000       7.40519454E-16
  -14.0299997       4.49128738E-16
  -14.0200005      -5.44748097E-17
  -14.0100002      -6.94948711E-16
  -14.0000000      -1.33680423E-15
  -13.9899998      -1.80301890E-15
  -13.9799995      -1.91071405E-15
  -13.9700003      -1.51964805E-15
  -13.9600000      -5.84330549E-16
  -13.9499998       8.03556758E-16
  -13.9399996       2.39753247E-15
  -13.9300003       3.81662204E-15
  -13.9200001       4.61023643E-15
  -13.9099998       4.36353936E-15
  -13.8999996       2.82594501E-15
  -13.8900003       3.29690899E-17
  -13.8800001      -3.61607979E-15
  -13.8699999      -7.36095009E-15
  -13.8599997      -1.01877464E-14
  -13.8500004      -1.10410076E-14
  -13.8400002      -9.11001638E-15
  -13.8299999      -4.12789987E-15
  -13.8199997       3.39944900E-15
  -13.8100004       1.21203046E-14
  -13.8000002       1.99836977E-14
  -13.7900000       2.46225668E-14
  -13.7799997       2.39262057E-14
  -13.7700005       1.66881059E-14
  -13.7600002       3.16492315E-15
  -13.7500000      -1.46320537E-14
  -13.7399998      -3.30584457E-14
  -13.7299995      -4.74335740E-14
  -13.7200003      -5.30555011E-14
  -13.7100000      -4.64482273E-14
  -13.6999998      -2.65505205E-14
  -13.6899996       4.48805108E-15
  -13.6800003       4.11988050E-14
  -13.6700001       7.55385744E-14
  -13.6599998       9.84539056E-14
  -13.6499996       1.02004478E-13
  -13.6400003       8.15896084E-14
  -13.6300001       3.77141894E-14
  -13.6199999      -2.32438580E-14
  -13.6099997      -8.96286761E-14
  -13.6000004      -1.46530859E-13
  -13.5900002      -1.78946742E-13
  -13.5799999      -1.75440297E-13
  -13.5699997      -1.31452968E-13
  -13.5600004      -5.13758618E-14
  -13.5500002       5.13055378E-14
  -13.5400000       1.56086678E-13
  -13.5299997       2.39500965E-13
  -13.5200005       2.80387042E-13
  -13.5100002       2.65189915E-13
  -13.5000000       1.91972442E-13
  -13.4899998       7.19834823E-14
  -13.4799995      -7.18703864E-14
  -13.4700003      -2.09583937E-13
  -13.4600000      -3.10780102E-13
  -13.4499998      -3.52084139E-13
  -13.4399996      -3.23288922E-13
  -13.4300003      -2.30573129E-13
  -13.4200001      -9.56412616E-14
  -13.4099998       4.93667268E-14
  -13.3999996       1.70194425E-13
  -13.3900003       2.39997204E-13
  -13.3800001       2.47472859E-13
  -13.3699999       2.01048596E-13
  -13.3599997       1.27383740E-13
  -13.3500004       6.38686085E-14
  -13.3400002       4.65344519E-14
  -13.3299999       9.63929186E-14
  -13.3199997       2.08227465E-13
  -13.3100004       3.45847889E-13
  -13.3000002       4.46658417E-13
  -13.2900000       4.36166402E-13
  -13.2799997       2.50243944E-13
  -13.2700005      -1.39789628E-13
  -13.2600002      -7.06080973E-13
  -13.2500000      -1.35430480E-12
  -13.2399998      -1.93047011E-12
  -13.2299995      -2.24663864E-12
  -13.2200003      -2.12303027E-12
  -13.2100000      -1.43906837E-12
  -13.1999998      -1.81923148E-13
  -13.1899996       1.52064797E-12
  -13.1800003       3.39512771E-12
  -13.1700001       5.05222123E-12
  -13.1599998       6.05224031E-12
  -13.1499996       5.99760953E-12
  -13.1400003       4.63591448E-12
  -13.1300001       1.95127399E-12
  -13.1199999      -1.77980276E-12
  -13.1099997      -5.98808590E-12
  -13.1000004      -9.87779650E-12
  -13.0900002      -1.25569919E-11
  -13.0799999      -1.32148511E-11
  -13.0699997      -1.13147434E-11
  -13.0600004      -6.76276786E-12
  -13.0500002      -9.74919252E-15
  -13.0400000       7.94781341E-12
  -13.0299997       1.56858710E-11
  -13.0200005       2.15844443E-11
  -13.0100002       2.41409445E-11
  -13.0000000       2.23095778E-11
  -12.9899998       1.57962254E-11
  -12.9799995       5.23647965E-12
  -12.9700003      -7.80082162E-12
  -12.9600000      -2.10120966E-11
  -12.9499998      -3.17456998E-11
  -12.9399996      -3.75182281E-11
  -12.9300003      -3.65639637E-11
  -12.9200001      -2.82997358E-11
  -12.9099998      -1.35904829E-11
  -12.8999996       5.26880449E-12
  -12.8900003       2.48848459E-11
  -12.8800001       4.13734186E-11
  -12.8699999       5.11361266E-11
  -12.8599997       5.16497227E-11
  -12.8500004       4.20916114E-11
  -12.8400002       2.36458388E-11
  -12.8299999      -6.06404900E-13
  -12.8199997      -2.62192750E-11
  -12.8100004      -4.82465769E-11
  -12.8000002      -6.22624174E-11
  -12.7900000      -6.53137405E-11
  -12.7799997      -5.65828773E-11
  -12.7700005      -3.75949584E-11
  -12.7600002      -1.19062885E-11
  -12.7500000       1.56680502E-11
  -12.7399998       4.01145332E-11
  -12.7299995       5.73204956E-11
  -12.7200003       6.49470269E-11
  -12.7100000       6.28600852E-11
  -12.6999998       5.30114390E-11
  -12.6899996       3.87993734E-11
  -12.6800003       2.40729034E-11
  -12.6700001       1.20381899E-11
  -12.6599998       4.35403883E-12
  -12.6499996       6.57890138E-13
  -12.6400003      -1.34775080E-12
  -12.6300001      -5.26348800E-12
  -12.6199999      -1.49741886E-11
  -12.6099997      -3.34999077E-11
  -12.6000004      -6.20052620E-11
  -12.5900002      -9.92062404E-11
  -12.5799999      -1.41304315E-10
  -12.5699997      -1.82435983E-10
  -12.5600004      -2.15495538E-10
  -12.5500002      -2.33110947E-10
  -12.5400000      -2.28544378E-10
  -12.5299997      -1.96356056E-10
  -12.5200005      -1.32786060E-10
  -12.5100002      -3.59335409E-11
  -12.5000000       9.40972023E-11
  -12.4899998       2.54895466E-10
  -12.4799995       4.41163633E-10
  -12.4700003       6.43865627E-10
  -12.4600000       8.49267212E-10
  -12.4499998       1.03817499E-09
  -12.4399996       1.18571275E-09
  -12.4300003       1.26194177E-09
  -12.4200001       1.23346022E-09
  -12.4099998       1.06587383E-09
  -12.3999996       7.26817051E-10
  -12.3900003       1.89013319E-10
  -12.3800001      -5.67182301E-10
  -12.3699999      -1.55216118E-09
  -12.3599997      -2.76659962E-09
  -12.3500004      -4.20196322E-09
  -12.3400002      -5.84160631E-09
  -12.3299999      -7.66179831E-09
  -12.3199997      -9.63217417E-09
  -12.3100004      -1.17151204E-08
  -12.3000002      -1.38641729E-08
  -12.2900000      -1.60217866E-08
  -12.2799997      -1.81174027E-08
  -12.2700005      -2.00667110E-08
  -12.2600002      -2.17730474E-08
  -12.2500000      -2.31314292E-08
  -12.2399998      -2.40352520E-08
  -12.2299995      -2.43847769E-08
  -12.2200003      -2.40962024E-08
  -12.2100000      -2.31096866E-08
  -12.1999998      -2.13948255E-08
  -12.1899996      -1.89524005E-08
  -12.1800003      -1.58122440E-08
  -12.1700001      -1.20275478E-08
  -12.1599998      -7.66704922E-09
  -12.1499996      -2.80695578E-09
  -12.1400003       2.47594123E-09
  -12.1300001       8.10817902E-09
  -12.1199999       1.40202578E-08
  -12.1099997       2.01441743E-08
  -12.1000004       2.64091966E-08
  -12.0900002       3.27374359E-08
  -12.0799999       3.90412360E-08
  -12.0699997       4.52234410E-08
  -12.0600004       5.11814626E-08
  -12.0500002       5.68142440E-08
  -12.0400000       6.20311553E-08
  -12.0299997       6.67602720E-08
  -12.0200005       7.09545631E-08
  -12.0100002       7.45936504E-08
  -12.0000000       7.76808449E-08
  -11.9899998       8.02354023E-08
  -11.9799995       8.22814172E-08
  -11.9700003       8.38354950E-08
  -11.9600000       8.48955608E-08
  -11.9499998       8.54330366E-08
  -11.9399996       8.53897433E-08
  -11.9300003       8.46805008E-08
  -11.9200001       8.32002698E-08
  -11.9099998       8.08352496E-08
  -11.8999996       7.74755193E-08
  -11.8900003       7.30275218E-08
  -11.8800001       6.74242457E-08
  -11.8699999       6.06316988E-08
  -11.8599997       5.26518775E-08
  -11.8500004       4.35208314E-08
  -11.8400002       3.33031629E-08
  -11.8299999       2.20841248E-08
  -11.8199997       9.95949279E-09
  -11.8100004      -2.97355740E-09
  -11.8000002      -1.66248615E-08
  -11.7900000      -3.09157784E-08
  -11.7799997      -4.57805029E-08
  -11.7700005      -6.11611881E-08
  -11.7600002      -7.69996262E-08
  -11.7500000      -9.32247204E-08
  -11.7399998      -1.09738842E-07
  -11.7299995      -1.26405141E-07
  -11.7200003      -1.43040140E-07
  -11.7100000      -1.59413631E-07
  -11.6999998      -1.75257753E-07
  -11.6899996      -1.90285490E-07
  -11.6800003      -2.04216491E-07
  -11.6700001      -2.16806384E-07
  -11.6599998      -2.27873642E-07
  -11.6499996      -2.37319043E-07
  -11.6400003      -2.45131986E-07
  -11.6300001      -2.51381550E-07
  -11.6199999      -2.56192664E-07
  -11.6099997      -2.59709168E-07
  -11.6000004      -2.62053106E-07
  -11.5900002      -2.63284761E-07
  -11.5799999      -2.63374091E-07
  -11.5699997      -2.62188507E-07
  -11.5600004      -2.59500723E-07
  -11.5500002      -2.55016261E-07
  -11.5400000      -2.48415574E-07
  -11.5299997      -2.39403164E-07
  -11.5200005      -2.27754242E-07
  -11.5100002      -2.13349523E-07
  -11.5000000      -1.96193213E-07
  -11.4899998      -1.76407880E-07
  -11.4799995      -1.54209275E-07
  -11.4700003      -1.29865356E-07
  -11.4600000      -1.03647302E-07
  -11.4499998      -7.57828857E-08
  -11.4399996      -4.64185348E-08
  -11.4300003      -1.56003583E-08
  -11.4200001       1.67260374E-08
  -11.4099998       5.06941902E-08
  -11.3999996       8.64810872E-08
  -11.3900003       1.24262414E-07
  -11.3800001       1.64168625E-07
  -11.3699999       2.06247364E-07
  -11.3599997       2.50443804E-07
  -11.3500004       2.96596170E-07
  -11.3400002       3.44451678E-07
  -11.3299999       3.93697434E-07
  -11.3199997       4.43998033E-07
  -11.3100004       4.95036090E-07
  -11.3000002       5.46545209E-07
  -11.2900000       5.98329336E-07
  -11.2799997       6.50268305E-07
  -11.2700005       7.02305670E-07
  -11.2600002       7.54426537E-07
  -11.2500000       8.06629600E-07
  -11.2399998       8.58898886E-07
  -11.2299995       9.11184543E-07
  -11.2200003       9.63394427E-07
  -11.2100000       1.01539740E-06
  -11.1999998       1.06703669E-06
  -11.1899996       1.11815018E-06
  -11.1800003       1.16858621E-06
  -11.1700001       1.21821915E-06
  -11.1599998       1.26695363E-06
  -11.1499996       1.31471938E-06
  -11.1400003       1.36146582E-06
  -11.1300001       1.40714837E-06
  -11.1199999       1.45171930E-06
  -11.1099997       1.49512960E-06
  -11.1000004       1.53732515E-06
  -11.0900002       1.57826139E-06
  -11.0799999       1.61791036E-06
  -11.0699997       1.65626875E-06
  -11.0600004       1.69335976E-06
  -11.0500002       1.72924490E-06
  -11.0400000       1.76400692E-06
  -11.0299997       1.79775691E-06
  -11.0200005       1.83063810E-06
  -11.0100002       1.86282512E-06
  -11.0000000       1.89453044E-06
  -10.9899998       1.92601556E-06
  -10.9799995       1.95757275E-06
  -10.9700003       1.98951057E-06
  -10.9600000       2.02211231E-06
  -10.9499998       2.05557330E-06
  -10.9399996       2.08995675E-06
  -10.9300003       2.12513828E-06
  -10.9200001       2.16079661E-06
  -10.9099998       2.19644471E-06
  -10.8999996       2.23148049E-06
  -10.8900003       2.26531142E-06
  -10.8800001       2.29746161E-06
  -10.8699999       2.32768002E-06
  -10.8599997       2.35601806E-06
  -10.8500004       2.38283701E-06
  -10.8400002       2.40874510E-06
  -10.8299999       2.43446175E-06
  -10.8199997       2.46068475E-06
  -10.8100004       2.48792162E-06
  -10.8000002       2.51637812E-06
  -10.7900000       2.54591032E-06
  -10.7799997       2.57605461E-06
  -10.7700005       2.60614615E-06
  -10.7600002       2.63546667E-06
  -10.7500000       2.66341817E-06
  -10.7399998       2.68964436E-06
  -10.7299995       2.71409704E-06
  -10.7200003       2.73701767E-06
  -10.7100000       2.75881212E-06
  -10.6999998       2.77994695E-06
  -10.6899996       2.80075074E-06
  -10.6800003       2.82131077E-06
  -10.6700001       2.84144085E-06
  -10.6599998       2.86069121E-06
  -10.6499996       2.87846638E-06
  -10.6400003       2.89420609E-06
  -10.6300001       2.90752064E-06
  -10.6199999       2.91834976E-06
  -10.6099997       2.92698223E-06
  -10.6000004       2.93402991E-06
  -10.5900002       2.94032770E-06
  -10.5799999       2.94674510E-06
  -10.5699997       2.95405880E-06
  -10.5600004       2.96275789E-06
  -10.5500002       2.97300676E-06
  -10.5400000       2.98462191E-06
  -10.5299997       2.99719136E-06
  -10.5200005       3.01013688E-06
  -10.5100002       3.02293392E-06
  -10.5000000       3.03518823E-06
  -10.4899998       3.04673745E-06
  -10.4799995       3.05764320E-06
  -10.4700003       3.06815741E-06
  -10.4600000       3.07861842E-06
  -10.4499998       3.08934568E-06
  -10.4399996       3.10057339E-06
  -10.4300003       3.11237295E-06
  -10.4200001       3.12467296E-06
  -10.4099998       3.13733290E-06
  -10.3999996       3.15019429E-06
  -10.3900003       3.16321302E-06
  -10.3800001       3.17650802E-06
  -10.3699999       3.19038281E-06
  -10.3599997       3.20532649E-06
  -10.3500004       3.22188089E-06
  -10.3400002       3.24054804E-06
  -10.3299999       3.26169356E-06
  -10.3199997       3.28536294E-06
  -10.3100004       3.31128103E-06
  -10.3000002       3.33886351E-06
  -10.2900000       3.36726362E-06
  -10.2799997       3.39557914E-06
  -10.2700005       3.42297517E-06
  -10.2600002       3.44884120E-06
  -10.2500000       3.47291893E-06
  -10.2399998       3.49535094E-06
  -10.2299995       3.51670110E-06
  -10.2200003       3.53782684E-06
  -10.2100000       3.55975158E-06
  -10.1999998       3.58350962E-06
  -10.1899996       3.60998797E-06
  -10.1800003       3.63982099E-06
  -10.1700001       3.67333450E-06
  -10.1599998       3.71050896E-06
  -10.1499996       3.75103150E-06
  -10.1400003       3.79440871E-06
  -10.1300001       3.84004124E-06
  -10.1199999       3.88729586E-06
  -10.1099997       3.93565324E-06
  -10.1000004       3.98474322E-06
  -10.0900002       4.03437252E-06
  -10.0799999       4.08456754E-06
  -10.0699997       4.13555836E-06
  -10.0600004       4.18770560E-06
  -10.0500002       4.24145264E-06
  -10.0400000       4.29726106E-06
  -10.0299997       4.35552738E-06
  -10.0200005       4.41657994E-06
  -10.0100002       4.48058199E-06
  -10.0000000       4.54759447E-06
  -9.98999977       4.61758873E-06
  -9.97999954       4.69059751E-06
  -9.97000027       4.76669220E-06
  -9.96000004       4.84611155E-06
  -9.94999981       4.92922027E-06
  -9.93999958       5.01654677E-06
  -9.93000031       5.10861537E-06
  -9.92000008       5.20587400E-06
  -9.90999985       5.30852139E-06
  -9.89999962       5.41641248E-06
  -9.89000034       5.52901656E-06
  -9.88000011       5.64545508E-06
  -9.86999989       5.76460707E-06
  -9.85999966       5.88531339E-06
  -9.85000038       6.00662770E-06
  -9.84000015       6.12792246E-06
  -9.82999992       6.24913855E-06
  -9.81999969       6.37070116E-06
  -9.81000042       6.49356070E-06
  -9.80000019       6.61891136E-06
  -9.78999996       6.74811190E-06
  -9.77999973       6.88232149E-06
  -9.77000046       7.02248599E-06
  -9.76000023       7.16906379E-06
  -9.75000000       7.32218814E-06
  -9.73999977       7.48166121E-06
  -9.72999954       7.64721972E-06
  -9.72000027       7.81855215E-06
  -9.71000004       7.99552527E-06
  -9.69999981       8.17817636E-06
  -9.68999958       8.36671370E-06
  -9.68000031       8.56140650E-06
  -9.67000008       8.76246486E-06
  -9.65999985       8.96988604E-06
  -9.64999962       9.18343449E-06
  -9.64000034       9.40253176E-06
  -9.63000011       9.62643298E-06
  -9.61999989       9.85429506E-06
  -9.60999966       1.00853367E-05
  -9.60000038       1.03189095E-05
  -9.59000015       1.05546278E-05
  -9.57999992       1.07922033E-05
  -9.56999969       1.10314268E-05
  -9.56000042       1.12719954E-05
  -9.55000019       1.15133116E-05
  -9.53999996       1.17544223E-05
  -9.52999973       1.19939477E-05
  -9.52000046       1.22302381E-05
  -9.51000023       1.24614389E-05
  -9.50000000       1.26858104E-05
  -9.48999977       1.29017417E-05
  -9.47999954       1.31079660E-05
  -9.47000027       1.33035392E-05
  -9.46000004       1.34878255E-05
  -9.44999981       1.36603430E-05
  -9.43999958       1.38207788E-05
  -9.43000031       1.39687163E-05
  -9.42000008       1.41039754E-05
  -9.40999985       1.42263052E-05
  -9.39999962       1.43358893E-05
  -9.39000034       1.44332389E-05
  -9.38000011       1.45193335E-05
  -9.36999989       1.45957201E-05
  -9.35999966       1.46642869E-05
  -9.35000038       1.47273404E-05
  -9.34000015       1.47872497E-05
  -9.32999992       1.48463751E-05
  -9.31999969       1.49069929E-05
  -9.31000042       1.49712178E-05
  -9.30000019       1.50410924E-05
  -9.28999996       1.51186450E-05
  -9.27999973       1.52058910E-05
  -9.27000046       1.53048022E-05
  -9.26000023       1.54173904E-05
  -9.25000000       1.55454763E-05
  -9.23999977       1.56907208E-05
  -9.22999954       1.58544772E-05
  -9.22000027       1.60379041E-05
  -9.21000004       1.62419365E-05
  -9.19999981       1.64675494E-05
  -9.18999958       1.67156104E-05
  -9.18000031       1.69872001E-05
  -9.17000008       1.72833334E-05
  -9.15999985       1.76049289E-05
  -9.14999962       1.79526651E-05
  -9.14000034       1.83267384E-05
  -9.13000011       1.87270070E-05
  -9.11999989       1.91526924E-05
  -9.10999966       1.96028541E-05
  -9.10000038       2.00764116E-05
  -9.09000015       2.05723609E-05
  -9.07999992       2.10899489E-05
  -9.06999969       2.16286389E-05
  -9.06000042       2.21875925E-05
  -9.05000019       2.27658675E-05
  -9.03999996       2.33618321E-05
  -9.02999973       2.39730380E-05
  -9.02000046       2.45962547E-05
  -9.01000023       2.52277223E-05
  -9.00000000       2.58633736E-05
  -8.98999977       2.64991486E-05
  -8.97999954       2.71316658E-05
  -8.97000027       2.77580475E-05
  -8.96000004       2.83761019E-05
  -8.94999981       2.89840518E-05
  -8.93999958       2.95804857E-05
  -8.93000031       3.01638083E-05
  -8.92000008       3.07320734E-05
  -8.90999985       3.12829943E-05
  -8.89999962       3.18138955E-05
  -8.89000034       3.23220920E-05
  -8.88000011       3.28050555E-05
  -8.86999989       3.32606251E-05
  -8.85999966       3.36868543E-05
  -8.85000038       3.40823099E-05
  -8.84000015       3.44455548E-05
  -8.82999992       3.47752648E-05
  -8.81999969       3.50701921E-05
  -8.81000042       3.53291034E-05
  -8.80000019       3.55509474E-05
  -8.78999996       3.57352073E-05
  -8.77999973       3.58818252E-05
  -8.77000046       3.59914411E-05
  -8.76000023       3.60652921E-05
  -8.75000000       3.61048915E-05
  -8.73999977       3.61117454E-05
  -8.72999954       3.60872145E-05
  -8.72000027       3.60322701E-05
  -8.71000004       3.59477599E-05
  -8.69999981       3.58342950E-05
  -8.68999958       3.56928831E-05
  -8.68000031       3.55251395E-05
  -8.67000008       3.53329415E-05
  -8.65999985       3.51191775E-05
  -8.64999962       3.48868634E-05
  -8.64000034       3.46391207E-05
  -8.63000011       3.43786705E-05
  -8.61999989       3.41078339E-05
  -8.60999966       3.38280661E-05
  -8.60000038       3.35402183E-05
  -8.59000015       3.32453419E-05
  -8.57999992       3.29442773E-05
  -8.56999969       3.26382506E-05
  -8.56000042       3.23289678E-05
  -8.55000019       3.20185172E-05
  -8.53999996       3.17092345E-05
  -8.52999973       3.14036988E-05
  -8.52000046       3.11040167E-05
  -8.51000023       3.08119670E-05
  -8.50000000       3.05288049E-05
  -8.48999977       3.02559456E-05
  -8.47999954       2.99946350E-05
  -8.47000027       2.97457427E-05
  -8.46000004       2.95106147E-05
  -8.44999981       2.92900313E-05
  -8.43999958       2.90849748E-05
  -8.43000031       2.88958072E-05
  -8.42000008       2.87222065E-05
  -8.40999985       2.85637470E-05
  -8.39999962       2.84191119E-05
  -8.39000034       2.82875262E-05
  -8.38000011       2.81677785E-05
  -8.36999989       2.80595832E-05
  -8.35999966       2.79622818E-05
  -8.35000038       2.78765183E-05
  -8.34000015       2.78029693E-05
  -8.32999992       2.77421241E-05
  -8.31999969       2.76947849E-05
  -8.31000042       2.76615410E-05
  -8.30000019       2.76426526E-05
  -8.28999996       2.76381088E-05
  -8.27999973       2.76481023E-05
  -8.27000046       2.76726842E-05
  -8.26000023       2.77117815E-05
  -8.25000000       2.77656891E-05
  -8.23999977       2.78345306E-05
  -8.22999954       2.79181022E-05
  -8.22000027       2.80164968E-05
  -8.21000004       2.81298435E-05
  -8.19999981       2.82579149E-05
  -8.18999958       2.84010221E-05
  -8.18000031       2.85592978E-05
  -8.17000008       2.87331750E-05
  -8.15999985       2.89233303E-05
  -8.14999962       2.91304932E-05
  -8.14000034       2.93552475E-05
  -8.13000011       2.95983882E-05
  -8.11999989       2.98605682E-05
  -8.10999966       3.01427972E-05
  -8.10000038       3.04460027E-05
  -8.09000015       3.07709852E-05
  -8.07999992       3.11192089E-05
  -8.06999969       3.14922108E-05
  -8.06000042       3.18914208E-05
  -8.05000019       3.23180648E-05
  -8.03999996       3.27737944E-05
  -8.02999973       3.32593117E-05
  -8.02000046       3.37757083E-05
  -8.01000023       3.43237625E-05
  -8.00000000       3.49043439E-05
  -7.98999977       3.55182492E-05
  -7.98000002       3.61657148E-05
  -7.96999979       3.68473302E-05
  -7.96000004       3.75631353E-05
  -7.94999981       3.83125553E-05
  -7.94000006       3.90952773E-05
  -7.92999983       3.99105302E-05
  -7.92000008       4.07573025E-05
  -7.90999985       4.16348521E-05
  -7.90000010       4.25425751E-05
  -7.88999987       4.34801805E-05
  -7.88000011       4.44472171E-05
  -7.86999989       4.54429392E-05
  -7.86000013       4.64671684E-05
  -7.84999990       4.75183624E-05
  -7.84000015       4.85949531E-05
  -7.82999992       4.96942266E-05
  -7.82000017       5.08136327E-05
  -7.80999994       5.19503046E-05
  -7.80000019       5.31016849E-05
  -7.78999996       5.42653288E-05
  -7.78000021       5.54391590E-05
  -7.76999998       5.66216113E-05
  -7.76000023       5.78106847E-05
  -7.75000000       5.90049167E-05
  -7.73999977       6.02024957E-05
  -7.73000002       6.14014061E-05
  -7.71999979       6.25997855E-05
  -7.71000004       6.37960766E-05
  -7.69999981       6.49893918E-05
  -7.69000006       6.61791419E-05
  -7.67999983       6.73652612E-05
  -7.67000008       6.85478080E-05
  -7.65999985       6.97269861E-05
  -7.65000010       7.09027736E-05
  -7.63999987       7.20745593E-05
  -7.63000011       7.32423941E-05
  -7.61999989       7.44054487E-05
  -7.61000013       7.55633082E-05
  -7.59999990       7.67163292E-05
  -7.59000015       7.78636240E-05
  -7.57999992       7.90065969E-05
  -7.57000017       8.01458009E-05
  -7.55999994       8.12820144E-05
  -7.55000019       8.24159943E-05
  -7.53999996       8.35483734E-05
  -7.53000021       8.46790790E-05
  -7.51999998       8.58085914E-05
  -7.51000023       8.69370851E-05
  -7.50000000       8.80652151E-05
  -7.48999977       8.91935997E-05
  -7.48000002       9.03237160E-05
  -7.46999979       9.14562625E-05
  -7.46000004       9.25928471E-05
  -7.44999981       9.37343430E-05
  -7.44000006       9.48819143E-05