  -16.0000000       0.00000000    
  -15.9899998       0.00000000    
  -15.9799995       0.00000000    
  -15.9700003       0.00000000    
  -15.9600000       0.00000000    
  -15.9499998       0.00000000    
  -15.9399996       0.00000000    
  -15.9300003       0.00000000    
  -15.9200001       0.00000000    
  -15.9099998       0.00000000    
  -15.8999996       0.00000000    
  -15.8900003       0.00000000    
  -15.8800001       0.00000000    
  -15.8699999      -0.00000000    
  -15.8599997      -5.60519386E-45
  -15.8500004      -7.28675201E-44
  -15.8400002      -7.23070008E-43
  -15.8299999      -5.49869517E-42
  -15.8199997      -3.33481009E-41
  -15.8100004      -1.67207137E-40
  -15.8000002      -7.09108871E-40
  -15.7900000      -2.58035379E-39
  -15.7799997      -8.11675931E-39
  -15.7700005      -2.20671564E-38
  -15.7600002      -5.12489320E-38
  -15.7500000      -9.80301658E-38
  -15.7399998      -1.37296892E-37
  -15.7299995      -6.12892467E-38
  -15.7200003       4.20210352E-37
  -15.7100000       1.91063965E-36
  -15.6999998       5.41049722E-36
  -15.6899996       1.21784687E-35
  -15.6800003       2.31141162E-35
  -15.6700001       3.74597878E-35
  -15.6599998       5.09455578E-35
  -15.6499996       5.41308490E-35
  -15.6400003       3.23488871E-35
  -15.6300001      -3.13776980E-35
  -15.6199999      -1.50700224E-34
  -15.6099997      -3.31211559E-34
  -15.6000004      -5.73449077E-34
  -15.5900002      -8.88565272E-34
  -15.5799999      -1.31804251E-33
  -15.5699997      -1.92114183E-33
  -15.5600004      -2.66300641E-33
  -15.5500002      -3.13558416E-33
  -15.5400000      -2.12473065E-33
  -15.5299997       2.75728308E-33
  -15.5200005       1.48465245E-32
  -15.5100002       3.68279089E-32
  -15.5000000       6.70966827E-32
  -15.4899998       9.43024768E-32
  -15.4799995       9.21856465E-32
  -15.4700003       1.93859516E-32
  -15.4600000      -1.69080498E-31
  -15.4499998      -4.92709962E-31
  -15.4399996      -8.98797275E-31
  -15.4300003      -1.21081542E-30
  -15.4200001      -1.10217726E-30
  -15.4099998      -1.41536314E-31
  -15.3999996       2.04188259E-30
  -15.3900003       5.45014627E-30
  -15.3800001       9.30797353E-30
  -15.3699999       1.16999379E-29
  -15.3599997       9.52117172E-30
  -15.3500004      -9.02759067E-31
  -15.3400002      -2.21970122E-29
  -15.3299999      -5.32296041E-29
  -15.3199997      -8.57663910E-29
  -15.3100004      -1.01798638E-28
  -15.3000002      -7.38725759E-29
  -15.2900000       2.85071065E-29
  -15.2799997       2.23650806E-28
  -15.2700005       4.93315255E-28
  -15.2600002       7.54294026E-28
  -15.2500000       8.39373811E-28
  -15.2399998       5.10020001E-28
  -15.2299995      -4.72542608E-28
  -15.2200003      -2.19972977E-27
  -15.2100000      -4.40327905E-27
  -15.1999998      -6.24458595E-27
  -15.1899996      -6.24125910E-27
  -15.1800003      -2.51963367E-27
  -15.1700001       6.43253861E-27
  -15.1599998       2.04807889E-26
  -15.1499996       3.62974039E-26
  -15.1400003       4.62548160E-26
  -15.1300001       3.88630322E-26
  -15.1199999       1.95123204E-27
  -15.1099997      -7.07622345E-26
  -15.1000004      -1.70528888E-25
  -15.0900002      -2.64961886E-25
  -15.0799999      -2.95516466E-25
  -15.0699997      -1.87906175E-25
  -15.0600004       1.19338397E-25
  -15.0500002       6.29035418E-25
  -15.0400000       1.23376968E-24
  -15.0299997       1.68291898E-24
  -15.0200005       1.60205196E-24
  -15.0100002       5.96367061E-25
  -15.0000000      -1.55158241E-24
  -14.9899998      -4.62341752E-24
  -14.9799995      -7.73828451E-24
  -14.9700003      -9.30402036E-24
  -14.9600000      -7.30679731E-24
  -14.9499998      -3.96161386E-26
  -14.9399996       1.27873635E-23
  -14.9300003       2.88521017E-23
  -14.9200001       4.24949903E-23
  -14.9099998       4.51651614E-23
  -14.8999996       2.76346684E-23
  -14.8900003      -1.59063089E-23
  -14.8800001      -8.26245024E-23
  -14.8699999      -1.56503895E-22
  -14.8599997      -2.07170398E-22
  -14.8500004      -1.94865973E-22
  -14.8400002      -8.31747360E-23
  -14.8299999       1.41601971E-22
  -14.8199997       4.49390657E-22
  -14.8100004       7.52464857E-22
  -14.8000002       9.09662697E-22
  -14.7900000       7.57813763E-22
  -14.7799997       1.72368052E-22
  -14.7700005      -8.53015264E-22
  -14.7600002      -2.13279090E-21
  -14.7500000      -3.25833592E-21
  -14.7399998      -3.64762255E-21
  -14.7299995      -2.69974304E-21
  -14.7200003      -4.52317602E-23
  -14.7100000       4.16392179E-21
  -14.6999998       9.02856410E-21
  -14.6899996       1.28729603E-20
  -14.6800003       1.35293871E-20
  -14.6700001       8.98209820E-21
  -14.6599998      -1.71294060E-21
  -14.6499996      -1.74749562E-20
  -14.6400003      -3.45911778E-20
  -14.6300001      -4.68805840E-20
  -14.6199999      -4.69452721E-20
  -14.6099997      -2.85351559E-20
  -14.6000004       1.03893013E-20
  -14.5900002       6.47918101E-20
  -14.5799999       1.21129447E-19
  -14.5699997       1.58595442E-19
  -14.5600004       1.53783448E-19
  -14.5500002       8.85120996E-20
  -14.5400000      -4.08051040E-20
  -14.5299997      -2.15173110E-19
  -14.5200005      -3.90085220E-19
  -14.5100002      -5.00964102E-19
  -14.5000000      -4.78504597E-19
  -14.4899998      -2.72341410E-19
  -14.4799995       1.22325589E-19
  -14.4700003       6.43819228E-19
  -14.4600000       1.15883341E-18
  -14.4499998       1.48127120E-18
  -14.4399996       1.41772739E-18
  -14.4300003       8.33577200E-19
  -14.4200001      -2.76161408E-19
  -14.4099998      -1.73471489E-18
  -14.3999996      -3.17578088E-18
  -14.3900003      -4.09928460E-18
  -14.3800001      -3.99432242E-18
  -14.3699999      -2.51062758E-18
  -14.3599997       3.63665278E-19
  -14.3500004       4.17704413E-18
  -14.3400002       8.00349520E-18
  -14.3299999       1.05878018E-17
  -14.3199997       1.06505807E-17
  -14.3100004       7.30322064E-18
  -14.3000002       4.69754009E-19
  -14.2900000      -8.82242800E-18
  -14.2799997      -1.84204834E-17
  -14.2700005      -2.53834565E-17
  -14.2600002      -2.66789372E-17
  -14.2500000      -2.01210559E-17
  -14.2399998      -5.31872088E-18
  -14.2299995       1.56671333E-17
  -14.2200003       3.82503932E-17
  -14.2100000       5.60184843E-17
  -14.1999998       6.21966830E-17
  -14.1899996       5.16276673E-17
  -14.1800003       2.27876546E-17
  -14.1700001      -2.07758835E-17
  -14.1599998      -7.01766797E-17
  -14.1499996      -1.12470702E-16
  -14.1400003      -1.33480918E-16
  -14.1300001      -1.21687480E-16
  -14.1199999      -7.22678584E-17
  -14.1099997       9.88627160E-18
  -14.1000004       1.09308384E-16
  -14.0900002       2.01992357E-16
  -14.0799999       2.60364375E-16
  -14.0699997       2.60371708E-16
  -14.0600004       1.89075078E-16
  -14.0500002       5.06536357E-17
  -14.0400000      -1.31225441E-16
  -14.0299997      -3.16068280E-16
  -14.0200005      -4.54463458E-16
  -14.0100002      -4.99992061E-16
  -14.0000000      -4.22528277E-16
  -13.9899998      -2.19458216E-16
  -13.9799995       7.86661997E-17
  -13.9700003       4.10559252E-16
  -13.9600000       6.95399280E-16
  -13.9499998       8.51152651E-16
  -13.9399996       8.16164578E-16
  -13.9300003       5.68668486E-16
  -13.9200001       1.38642723E-16
  -13.9099998      -3.92288963E-16
  -13.8999996      -9.04592118E-16
  -13.8900003      -1.26643348E-15
  -13.8800001      -1.36600230E-15
  -13.8699999      -1.14291574E-15
  -13.8599997      -6.10358389E-16
  -13.8500004       1.38970287E-16
  -13.8400002       9.46612788E-16
  -13.8299999       1.62058166E-15
  -13.8199997       1.97987556E-15
  -13.8100004       1.90123342E-15
  -13.8000002       1.35639992E-15
  -13.7900000       4.29390356E-16
  -13.7799997      -6.92737055E-16
  -13.7700005      -1.75597236E-15
  -13.7600002      -2.49587554E-15
  -13.7500000      -2.70228519E-15
  -13.7399998      -2.27670280E-15
  -13.7299995      -1.26722757E-15
  -13.7200003       1.29851990E-16
  -13.7100000       1.60532416E-15
  -13.6999998       2.80374851E-15
  -13.6899996       3.40776284E-15
  -13.6800003       3.22048724E-15
  -13.6700001       2.22520934E-15
  -13.6599998       6.05311238E-16
  -13.6499996      -1.28418337E-15
  -13.6400003      -2.99071537E-15
  -13.6300001      -4.06949610E-15
  -13.6199999      -4.19636089E-15
  -13.6099997      -3.26038609E-15
  -13.6000004      -1.41098992E-15
  -13.5900002       9.56655528E-16
  -13.5799999       3.28000676E-15
  -13.5699997       4.95739331E-15
  -13.5600004       5.49817895E-15
  -13.5500002       4.65856051E-15
  -13.5400000       2.52689262E-15
  -13.5299997      -4.68184333E-16
  -13.5200005      -3.63627475E-15
  -13.5100002      -6.17848490E-15
  -13.5000000      -7.38299328E-15
  -13.4899998      -6.81639346E-15
  -13.4799995      -4.46082914E-15
  -13.4700003      -7.56199993E-16
  -13.4600000       3.47247065E-15
  -13.4499998       7.19429043E-15
  -13.4399996       9.42145176E-15
  -13.4300003       9.46914056E-15
  -13.4200001       7.15919193E-15
  -13.4099998       2.90878759E-15
  -13.3999996      -2.32965951E-15
  -13.3900003      -7.27497371E-15
  -13.3800001      -1.06285626E-14
  -13.3699999      -1.14173604E-14
  -13.3599997      -9.27977279E-15
  -13.3500004      -4.61289273E-15
  -13.3400002       1.47128236E-15
  -13.3299999       7.38680662E-15
  -13.3199997       1.14657387E-14
  -13.3100004       1.24098797E-14
  -13.3000002       9.68601149E-15
  -13.2900000       3.75188839E-15
  -13.2799997      -3.96579132E-15
  -13.2700005      -1.13617764E-14
  -13.2600002      -1.61615496E-14
  -13.2500000      -1.65362854E-14
  -13.2399998      -1.16697779E-14
  -13.2299995      -2.11953817E-15
  -13.2200003       1.01486228E-14
  -13.2100000       2.21005905E-14
  -13.1999998       3.03035659E-14
  -13.1899996       3.17889602E-14
  -13.1800003       2.49064702E-14
  -13.1700001       9.94628015E-15
  -13.1599998      -1.06592515E-14
  -13.1499996      -3.26569114E-14
  -13.1400003      -5.07978466E-14
  -13.1300001      -6.00175698E-14
  -13.1199999      -5.67156490E-14
  -13.1099997      -3.98269742E-14
  -13.1000004      -1.13950004E-14
  -13.0900002       2.35495861E-14
  -13.0799999       5.78500260E-14
  -13.0699997       8.36916053E-14
  -13.0600004       9.43811273E-14
  -13.0500002       8.60365178E-14
  -13.0400000       5.87683114E-14
  -13.0299997       1.70193178E-14
  -13.0200005      -3.10969817E-14
  -13.0100002      -7.53892188E-14
  -13.0000000      -1.05809628E-13
  -12.9899998      -1.14822539E-13
  -12.9799995      -9.93621892E-14
  -12.9700003      -6.18753909E-14
  -12.9600000      -1.01257808E-14
  -12.9499998       4.42888287E-14
  -12.9399996       8.84471736E-14
  -12.9300003       1.11116364E-13
  -12.9200001       1.05577188E-13
  -12.9099998       7.15711060E-14
  -12.8999996       1.58392518E-14
  -12.8900003      -4.89743676E-14
  -12.8800001      -1.06907145E-13
  -12.8699999      -1.42235968E-13
  -12.8599997      -1.43231455E-13
  -12.8500004      -1.05237142E-13
  -12.8400002      -3.23116032E-14
  -12.8299999       6.30327970E-14
  -12.8199997       1.62038257E-13
  -12.8100004       2.43448274E-13
  -12.8000002       2.88007709E-13
  -12.7900000       2.82723931E-13
  -12.7799997       2.23915314E-13
  -12.7700005       1.18320298E-13
  -12.7600002      -1.80319152E-14
  -12.7500000      -1.62979764E-13
  -12.7399998      -2.92733231E-13
  -12.7299995      -3.86714776E-13
  -12.7200003      -4.31634464E-13
  -12.7100000      -4.23861711E-13
  -12.6999998      -3.69547871E-13
  -12.6899996      -2.82480501E-13
  -12.6800003      -1.80197830E-13
  -12.6700001      -7.93185030E-14
  -12.6599998       8.74857725E-15
  -12.6499996       8.06177702E-14
  -12.6400003       1.41504145E-13
  -12.6300001       2.03332671E-13
  -12.6199999       2.80753394E-13
  -12.6099997       3.85970552E-13
  -12.6000004       5.23628070E-13
  -12.5900002       6.87049647E-13
  -12.5799999       8.56875931E-13
  -12.5699997       1.00263537E-12
  -12.5600004       1.08713245E-12
  -12.5500002       1.07289514E-12
  -12.5400000       9.29423530E-13
  -12.5299997       6.39771764E-13
  -12.5200005       2.05102320E-13
  -12.5100002      -3.53732289E-13
  -12.5000000      -9.97880706E-13
  -12.4899998      -1.67504921E-12
  -12.4799995      -2.32589078E-12
  -12.4700003      -2.89081823E-12
  -12.4600000      -3.31577951E-12
  -12.4499998      -3.55582556E-12
  -12.4399996      -3.57589544E-12
  -12.4300003      -3.34895523E-12
  -12.4200001      -2.85235572E-12
  -12.4099998      -2.06374913E-12
  -12.3999996      -9.58115315E-13
  -12.3900003       4.92803660E-13
  -12.3800001       2.31787050E-12
  -12.3699999       4.54080480E-12
  -12.3599997       7.17217128E-12
  -12.3500004       1.02007092E-11
  -12.3400002       1.35859466E-11
  -12.3299999       1.72539170E-11
  -12.3199997       2.10973843E-11
  -12.3100004       2.49810155E-11
  -12.3000002       2.87508975E-11
  -12.2900000       3.22468892E-11
  -12.2799997       3.53155595E-11
  -12.2700005       3.78213502E-11
  -12.2600002       3.96538150E-11
  -12.2500000       4.07298223E-11
  -12.2399998       4.09905894E-11
  -12.2299995       4.03946009E-11
  -12.2200003       3.89086610E-11
  -12.2100000       3.64995811E-11
  -12.1999998       3.31289787E-11
  -12.1899996       2.87530798E-11
  -12.1800003       2.33280062E-11
  -12.1700001       1.68199205E-11
  -12.1599998       9.21779927E-12
  -12.1499996       5.46195359E-13
  -12.1400003      -9.12523009E-12
  -12.1300001      -1.96776918E-11
  -12.1199999      -3.09463011E-11
  -12.1099997      -4.27298405E-11
  -12.1000004      -5.48057849E-11
  -12.0900002      -6.69476141E-11
  -12.0799999      -7.89409996E-11
  -12.0699997      -9.05960446E-11
  -12.0600004      -1.01752863E-10
  -12.0500002      -1.12280435E-10
  -12.0400000      -1.22068911E-10
  -12.0299997      -1.31018169E-10
  -12.0200005      -1.39025458E-10
  -12.0100002      -1.45975565E-10
  -12.0000000      -1.51735999E-10
  -11.9899998      -1.56158697E-10
  -11.9799995      -1.59088118E-10
  -11.9700003      -1.60373853E-10
  -11.9600000      -1.59885424E-10
  -11.9499998      -1.57525895E-10
  -11.9399996      -1.53241267E-10
  -11.9300003      -1.47024032E-10
  -11.9200001      -1.38909870E-10
  -11.9099998      -1.28968974E-10
  -11.8999996      -1.17292814E-10
  -11.8900003      -1.03980179E-10
  -11.8800001      -8.91251795E-11
  -11.8699999      -7.28084260E-11
  -11.8599997      -5.50946511E-11
  -11.8500004      -3.60351610E-11
  -11.8400002      -1.56756934E-11
  -11.8299999       5.93333585E-12
  -11.8199997       2.87252427E-11
  -11.8100004       5.26072380E-11
  -11.8000002       7.74533424E-11
  -11.7900000       1.03101701E-10
  -11.7799997       1.29355776E-10
  -11.7700005       1.55989416E-10
  -11.7600002       1.82754520E-10
  -11.7500000       2.09389436E-10
  -11.7399998       2.35627545E-10
  -11.7299995       2.61204669E-10
  -11.7200003       2.85863833E-10
  -11.7100000       3.09359094E-10
  -11.6999998       3.31456251E-10
  -11.6899996       3.51932844E-10
  -11.6800003       3.70577291E-10
  -11.6700001       3.87187615E-10
  -11.6599998       4.01571387E-10
  -11.6499996       4.13545725E-10
  -11.6400003       4.22938934E-10
  -11.6300001       4.29592334E-10
  -11.6199999       4.33363428E-10
  -11.6099997       4.34128233E-10
  -11.6000004       4.31782887E-10
  -11.5900002       4.26244956E-10
  -11.5799999       4.17452600E-10
  -11.5699997       4.05362743E-10
  -11.5600004       3.89948351E-10
  -11.5500002       3.71195602E-10
  -11.5400000       3.49101775E-10
  -11.5299997       3.23674004E-10
  -11.5200005       2.94930413E-10
  -11.5100002       2.62903005E-10
  -11.5000000       2.27641864E-10
  -11.4899998       1.89220084E-10
  -11.4799995       1.47738419E-10
  -11.4700003       1.03326958E-10
  -11.4600000       5.61464868E-11
  -11.4499998       6.38406775E-12
  -11.4399996      -4.57532866E-11
  -11.4300003      -1.00046596E-10
  -11.4200001      -1.56274632E-10
  -11.4099998      -2.14223167E-10
  -11.3999996      -2.73692985E-10
  -11.3900003      -3.34505451E-10
  -11.3800001      -3.96505967E-10
  -11.3699999      -4.59565275E-10
  -11.3599997      -5.23579069E-10
  -11.3500004      -5.88467330E-10
  -11.3400002      -6.54173216E-10
  -11.3299999      -7.20661419E-10
  -11.3199997      -7.87916510E-10
  -11.3100004      -8.55940596E-10
  -11.3000002      -9.24749499E-10
  -11.2900000      -9.94367366E-10
  -11.2799997      -1.06481934E-09
  -11.2700005      -1.13612431E-09
  -11.2600002      -1.20828714E-09
  -11.2500000      -1.28129185E-09
  -11.2399998      -1.35509837E-09
  -11.2299995      -1.42964163E-09
  -11.2200003      -1.50483381E-09
  -11.2100000      -1.58057001E-09
  -11.1999998      -1.65673508E-09
  -11.1899996      -1.73321335E-09
  -11.1800003      -1.80989557E-09
  -11.1700001      -1.88668636E-09
  -11.1599998      -1.96351180E-09
  -11.1499996      -2.04032369E-09
  -11.1400003      -2.11710338E-09
  -11.1300001      -2.19386598E-09
  -11.1199999      -2.27065788E-09
  -11.1099997      -2.34756503E-09
  -11.1000004      -2.42470666E-09
  -11.0900002      -2.50223753E-09
  -11.0799999      -2.58034083E-09
  -11.0699997      -2.65922573E-09
  -11.0600004      -2.73911871E-09
  -11.0500002      -2.82025603E-09
  -11.0400000      -2.90287816E-09
  -11.0299997      -2.98721514E-09
  -11.0200005      -3.07348880E-09
  -11.0100002      -3.16190452E-09
  -11.0000000      -3.25264637E-09
  -10.9899998      -3.34587291E-09
  -10.9799995      -3.44171536E-09
  -10.9700003      -3.54026675E-09
  -10.9600000      -3.64158104E-09
  -10.9499998      -3.74565756E-09
  -10.9399996      -3.85243970E-09
  -10.9300003      -3.96180688E-09
  -10.9200001      -4.07356815E-09
  -10.9099998      -4.18746726E-09
  -10.8999996      -4.30319247E-09
  -10.8900003      -4.42038672E-09
  -10.8800001      -4.53865656E-09
  -10.8699999      -4.65760053E-09
  -10.8599997      -4.77682338E-09
  -10.8500004      -4.89594232E-09
  -10.8400002      -5.01460873E-09
  -10.8299999      -5.13250331E-09
  -10.8199997      -5.24934229E-09
  -10.8100004      -5.36487299E-09
  -10.8000002      -5.47886980E-09
  -10.7900000      -5.59111424E-09
  -10.7799997      -5.70140823E-09
  -10.7700005      -5.80955017E-09
  -10.7600002      -5.91534643E-09
  -10.7500000      -6.01859984E-09
  -10.7399998      -6.11911766E-09
  -10.7299995      -6.21671958E-09
  -10.7200003      -6.31123376E-09
  -10.7100000      -6.40251052E-09
  -10.6999998      -6.49042420E-09
  -10.6899996      -6.57486554E-09
  -10.6800003      -6.65576039E-09
  -10.6700001      -6.73306522E-09
  -10.6599998      -6.80676315E-09
  -10.6499996      -6.87686263E-09
  -10.6400003      -6.94339919E-09
  -10.6300001      -7.00643410E-09
  -10.6199999      -7.06604331E-09
  -10.6099997      -7.12231829E-09
  -10.6000004      -7.17535364E-09
  -10.5900002      -7.22527327E-09
  -10.5799999      -7.27218863E-09
  -10.5699997      -7.31622940E-09
  -10.5600004      -7.35752392E-09
  -10.5500002      -7.39620321E-09
  -10.5400000      -7.43239736E-09
  -10.5299997      -7.46624185E-09
  -10.5200005      -7.49784590E-09
  -10.5100002      -7.52732898E-09
  -10.5000000      -7.55477902E-09
  -10.4899998      -7.58027152E-09
  -10.4799995      -7.60387309E-09
  -10.4700003      -7.62562724E-09
  -10.4600000      -7.64557839E-09
  -10.4499998      -7.66375230E-09
  -10.4399996      -7.68018893E-09
  -10.4300003      -7.69493891E-09
  -10.4200001      -7.70806885E-09
  -10.4099998      -7.71965869E-09
  -10.3999996      -7.72982300E-09
  -10.3900003      -7.73870479E-09
  -10.3800001      -7.74646747E-09
  -10.3699999      -7.75329667E-09
  -10.3599997      -7.75939846E-09
  -10.3500004      -7.76498066E-09
  -10.3400002      -7.77026354E-09
  -10.3299999      -7.77544962E-09
  -10.3199997      -7.78072629E-09
  -10.3100004      -7.78626141E-09
  -10.3000002      -7.79218912E-09
  -10.2900000      -7.79859644E-09
  -10.2799997      -7.80554732E-09
  -10.2700005      -7.81307286E-09
  -10.2600002      -7.82116061E-09
  -10.2500000      -7.82977061E-09
  -10.2399998      -7.83884690E-09
  -10.2299995      -7.84831489E-09
  -10.2200003      -7.85808485E-09
  -10.2100000      -7.86806531E-09
  -10.1999998      -7.87817278E-09
  -10.1899996      -7.88834598E-09
  -10.1800003      -7.89853072E-09
  -10.1700001      -7.90872523E-09
  -10.1599998      -7.91897126E-09
  -10.1499996      -7.92936294E-09
  -10.1400003      -7.94006105E-09
  -10.1300001      -7.95128674E-09
  -10.1199999      -7.96332156E-09
  -10.1099997      -7.97651634E-09
  -10.1000004      -7.99124855E-09
  -10.0900002      -8.00794542E-09
  -10.0799999      -8.02704481E-09
  -10.0699997      -8.04899969E-09
  -10.0600004      -8.07423994E-09
  -10.0500002      -8.10321144E-09
  -10.0400000      -8.13631740E-09
  -10.0299997      -8.17396373E-09
  -10.0200005      -8.21654744E-09
  -10.0100002      -8.26443447E-09
  -10.0000000      -8.31799962E-09
  -9.98999977      -8.37757685E-09
  -9.97999954      -8.44347792E-09
  -9.97000027      -8.51595416E-09
  -9.96000004      -8.59520544E-09
  -9.94999981      -8.68134986E-09
  -9.93999958      -8.77443895E-09
  -9.93000031      -8.87445495E-09
  -9.92000008      -8.98132591E-09
  -9.90999985      -9.09495768E-09
  -9.89999962      -9.21525256E-09
  -9.89000034      -9.34214839E-09
  -9.88000011      -9.47563983E-09
  -9.86999989      -9.61579083E-09
  -9.85999966      -9.76272041E-09
  -9.85000038      -9.91661864E-09
  -9.84000015      -1.00776871E-08
  -9.82999992      -1.02461604E-08
  -9.81999969      -1.04222382E-08
  -9.81000042      -1.06061009E-08
  -9.80000019      -1.07978853E-08
  -9.78999996      -1.09976668E-08
  -9.77999973      -1.12054765E-08
  -9.77000046      -1.14212879E-08
  -9.76000023      -1.16450485E-08
  -9.75000000      -1.18766454E-08
  -9.73999977      -1.21159491E-08
  -9.72999954      -1.23627828E-08
  -9.72000027      -1.26169244E-08
  -9.71000004      -1.28781252E-08
  -9.69999981      -1.31460993E-08
  -9.68999958      -1.34205251E-08
  -9.68000031      -1.37010394E-08
  -9.67000008      -1.39872833E-08
  -9.65999985      -1.42788696E-08
  -9.64999962      -1.45754075E-08
  -9.64000034      -1.48765036E-08
  -9.63000011      -1.51817297E-08
  -9.61999989      -1.54906452E-08
  -9.60999966      -1.58027724E-08
  -9.60000038      -1.61175908E-08
  -9.59000015      -1.64345320E-08
  -9.57999992      -1.67529652E-08
  -9.56999969      -1.70722316E-08
  -9.56000042      -1.73916419E-08
  -9.55000019      -1.77104891E-08
  -9.53999996      -1.80280626E-08
  -9.52999973      -1.83436750E-08
  -9.52000046      -1.86566904E-08
  -9.51000023      -1.89665119E-08
  -9.50000000      -1.92726102E-08
  -9.48999977      -1.95745020E-08
  -9.47999954      -1.98718073E-08
  -9.47000027      -2.01641956E-08
  -9.46000004      -2.04514556E-08
  -9.44999981      -2.07334541E-08
  -9.43999958      -2.10101732E-08
  -9.43000031      -2.12817302E-08
  -9.42000008      -2.15483649E-08
  -9.40999985      -2.18104326E-08
  -9.39999962      -2.20684502E-08
  -9.39000034      -2.23230288E-08
  -9.38000011      -2.25748913E-08
  -9.36999989      -2.28249011E-08
  -9.35999966      -2.30740227E-08
  -9.35000038      -2.33233752E-08
  -9.34000015      -2.35742093E-08
  -9.32999992      -2.38279565E-08
  -9.31999969      -2.40862104E-08
  -9.31000042      -2.43507383E-08
  -9.30000019      -2.46234322E-08
  -9.28999996      -2.49062904E-08
  -9.27999973      -2.52013486E-08
  -9.27000046      -2.55106496E-08
  -9.26000023      -2.58361350E-08
  -9.25000000      -2.61796487E-08
  -9.23999977      -2.65428888E-08
  -9.22999954      -2.69273741E-08
  -9.22000027      -2.73344867E-08
  -9.21000004      -2.77653793E-08
  -9.19999981      -2.82210806E-08
  -9.18999958      -2.87024022E-08
  -9.18000031      -2.92099145E-08
  -9.17000008      -2.97440188E-08
  -9.15999985      -3.03048004E-08
  -9.14999962      -3.08920995E-08
  -9.14000034      -3.15054791E-08
  -9.13000011      -3.21441931E-08
  -9.11999989      -3.28072858E-08
  -9.10999966      -3.34935919E-08
  -9.10000038      -3.42016762E-08
  -9.09000015      -3.49299754E-08
  -9.07999992      -3.56767487E-08
  -9.06999969      -3.64400670E-08
  -9.06000042      -3.72178981E-08
  -9.05000019      -3.80080074E-08
  -9.03999996      -3.88080110E-08
  -9.02999973      -3.96154469E-08
  -9.02000046      -4.04277074E-08
  -9.01000023      -4.12421883E-08
  -9.00000000      -4.20562429E-08
  -8.98999977      -4.28672031E-08
  -8.97999954      -4.36724328E-08
  -8.97000027      -4.44693775E-08
  -8.96000004      -4.52554900E-08
  -8.94999981      -4.60284255E-08
  -8.93999958      -4.67858499E-08
  -8.93000031      -4.75256634E-08
  -8.92000008      -4.82459122E-08
  -8.90999985      -4.89448801E-08
  -8.89999962      -4.96211250E-08
  -8.89000034      -5.02733606E-08
  -8.88000011      -5.09005709E-08
  -8.86999989      -5.15019281E-08
  -8.85999966      -5.20767536E-08
  -8.85000038      -5.26246069E-08
  -8.84000015      -5.31452073E-08
  -8.82999992      -5.36383844E-08
  -8.81999969      -5.41041345E-08
  -8.81000042      -5.45426388E-08
  -8.80000019      -5.49542634E-08
  -8.78999996      -5.53395232E-08
  -8.77999973      -5.56990472E-08
  -8.77000046      -5.60335991E-08
  -8.76000023      -5.63440281E-08
  -8.75000000      -5.66312863E-08
  -8.73999977      -5.68964325E-08
  -8.72999954      -5.71406211E-08
  -8.72000027      -5.73651775E-08
  -8.71000004      -5.75716079E-08
  -8.69999981      -5.77615467E-08
  -8.68999958      -5.79368766E-08
  -8.68000031      -5.80996051E-08
  -8.67000008      -5.82518247E-08
  -8.65999985      -5.83957593E-08
  -8.64999962      -5.85336153E-08
  -8.64000034      -5.86677018E-08
  -8.63000011      -5.88002855E-08
  -8.61999989      -5.89335620E-08
  -8.60999966      -5.90698157E-08
  -8.60000038      -5.92112315E-08
  -8.59000015      -5.93599374E-08
  -8.57999992      -5.95179444E-08
  -8.56999969      -5.96870962E-08
  -8.56000042      -5.98691798E-08
  -8.55000019      -6.00656804E-08
  -8.53999996      -6.02780261E-08
  -8.52999973      -6.05073964E-08
  -8.52000046      -6.07548571E-08
  -8.51000023      -6.10212538E-08
  -8.50000000      -6.13073539E-08
  -8.48999977      -6.16137470E-08
  -8.47999954      -6.19408382E-08
  -8.47000027      -6.22887484E-08
  -8.46000004      -6.26574064E-08
  -8.44999981      -6.30465280E-08
  -8.43999958      -6.34556656E-08
  -8.43000031      -6.38841442E-08
  -8.42000008      -6.43311822E-08
  -8.40999985      -6.47959055E-08
  -8.39999962      -6.52774190E-08
  -8.39000034      -6.57746639E-08
  -8.38000011      -6.62865034E-08
  -8.36999989      -6.68116726E-08
  -8.35999966      -6.73486937E-08
  -8.35000038      -6.78959324E-08
  -8.34000015      -6.84516479E-08
  -8.32999992      -6.90140354E-08
  -8.31999969      -6.95813327E-08
  -8.31000042      -7.01518843E-08
  -8.30000019      -7.07242620E-08
  -8.28999996      -7.12972295E-08
  -8.27999973      -7.18698772E-08
  -8.27000046      -7.24413312E-08
  -8.26000023      -7.30109733E-08
  -8.25000000      -7.35783345E-08
  -8.23999977      -7.41429673E-08
  -8.22999954      -7.47045235E-08
  -8.22000027      -7.52628608E-08
  -8.21000004      -7.58180718E-08
  -8.19999981      -7.63704691E-08
  -8.18999958      -7.69206991E-08
  -8.18000031      -7.74697142E-08
  -8.17000008      -7.80186369E-08
  -8.15999985      -7.85690446E-08
  -8.14999962      -7.91224579E-08
  -8.14000034      -7.96804329E-08
  -8.13000011      -8.02445328E-08
  -8.11999989      -8.08164486E-08
  -8.10999966      -8.13978929E-08
  -8.10000038      -8.19904571E-08
  -8.09000015      -8.25960242E-08
  -8.07999992      -8.32164488E-08
  -8.06999969      -8.38536423E-08
  -8.06000042      -8.45095016E-08
  -8.05000019      -8.51859028E-08
  -8.03999996      -8.58846008E-08
  -8.02999973      -8.66070664E-08
  -8.02000046      -8.73546853E-08
  -8.01000023      -8.81285942E-08
  -8.00000000      -8.89299159E-08
  -7.98999977      -8.97595456E-08
  -7.98000002      -9.06184781E-08
  -7.96999979      -9.15076015E-08
  -7.96000004      -9.24277259E-08
  -7.94999981      -9.33796471E-08
  -7.94000006      -9.43636707E-08
  -7.92999983      -9.53800310E-08
  -7.92000008      -9.64285434E-08
  -7.90999985      -9.75089378E-08
  -7.90000010      -9.86205109E-08
  -7.88999987      -9.97624596E-08
  -7.88000011      -1.00934180E-07
  -7.86999989      -1.02134912E-07
  -7.86000013      -1.03363895E-07
  -7.84999990      -1.04620725E-07
  -7.84000015      -1.05904647E-07
  -7.82999992      -1.07215222E-07
  -7.82000017      -1.08551745E-07
  -7.80999994      -1.09913238E-07
  -7.80000019      -1.11298625E-07
  -7.78999996      -1.12706672E-07
  -7.78000021      -1.14136306E-07
  -7.76999998      -1.15586474E-07
  -7.76000023      -1.17056274E-07
  -7.75000000      -1.18544968E-07
  -7.73999977      -1.20052164E-07
  -7.73000002      -1.21577585E-07
  -7.71999979      -1.23121055E-07
  -7.71000004      -1.24682387E-07
  -7.69999981      -1.26261213E-07
  -7.69000006      -1.27857305E-07
  -7.67999983      -1.29470337E-07
  -7.67000008      -1.31100052E-07
  -7.65999985      -1.32746180E-07
  -7.65000010      -1.34408722E-07
  -7.63999987      -1.36087934E-07
  -7.63000011      -1.37784042E-07
  -7.61999989      -1.39497274E-07
  -7.61000013      -1.41228014E-07
  -7.59999990      -1.42976646E-07
  -7.59000015      -1.44743254E-07
  -7.57999992      -1.46527867E-07
  -7.57000017      -1.48330656E-07
  -7.55999994      -1.50151678E-07
  -7.55000019      -1.51991074E-07
  -7.53999996      -1.53849342E-07
  -7.53000021      -1.55727108E-07
  -7.51999998      -1.57624939E-07
  -7.51000023      -1.59544086E-07
  -7.50000000      -1.61485261E-07
  -7.48999977      -1.63449513E-07
  -7.48000002      -1.65437683E-07
  -7.46999979      -1.67450665E-07
  -7.46000004      -1.69489184E-07
  -7.44999981      -1.71553779E-07
  -7.44000006      -1.73645319E-07