  -16.0000000       0.00000000    
  -15.9899998       0.00000000    
  -15.9799995       0.00000000    
  -15.9700003       0.00000000    
  -15.9600000       0.00000000    
  -15.9499998       0.00000000    
  -15.9399996       0.00000000    
  -15.9300003       0.00000000    
  -15.9200001       0.00000000    
  -15.9099998       0.00000000    
  -15.8999996       0.00000000    
  -15.8900003       7.41987537E-42
  -15.8800001       7.40109797E-41
  -15.8699999       3.54122135E-40
  -15.8599997       2.49212244E-39
  -15.8500004       3.37250333E-38
  -15.8400002       3.67065671E-37
  -15.8299999       2.91436198E-36
  -15.8199997       1.79988073E-35
  -15.8100004       9.08161336E-35
  -15.8000002       3.85916724E-34
  -15.7900000       1.40675744E-33
  -15.7799997       4.44435753E-33
  -15.7700005       1.22093198E-32
  -15.7600002       2.90191381E-32
  -15.7500000       5.85309435E-32
  -15.7399998       9.48386668E-32
  -15.7299995       1.01107901E-31
  -15.7200003      -2.76213460E-32
  -15.7100000      -5.08641719E-31
  -15.6999998      -1.68790080E-30
  -15.6899996      -3.95918271E-30
  -15.6800003      -7.49819221E-30
  -15.6700001      -1.17622726E-29
  -15.6599998      -1.48427434E-29
  -15.6499996      -1.29744423E-29
  -15.6400003      -6.95588391E-31
  -15.6300001       2.78860964E-29
  -15.6199999       7.66775484E-29
  -15.6099997       1.44584219E-28
  -15.6000004       2.22611068E-28
  -15.5900002       2.90667558E-28
  -15.5799999       3.11347737E-28
  -15.5699997       2.16829715E-28
  -15.5600004      -1.09486457E-28
  -15.5500002      -8.37238532E-28
  -15.5400000      -2.13171748E-27
  -15.5299997      -3.96758401E-27
  -15.5200005      -5.77733223E-27
  -15.5100002      -6.02843845E-27
  -15.5000000      -2.06578058E-27
  -15.4899998       9.18312286E-27
  -15.4799995       2.90082490E-26
  -15.4700003       5.31409308E-26
  -15.4600000       6.77099098E-26
  -15.4499998       4.82435036E-26
  -15.4399996      -3.34146966E-26
  -15.4300003      -1.90272979E-25
  -15.4200001      -3.90833567E-25
  -15.4099998      -5.31103415E-25
  -15.3999996      -4.32416570E-25
  -15.3900003       1.04136197E-25
  -15.3800001       1.16731692E-24
  -15.3699999       2.54895197E-24
  -15.3599997       3.58376709E-24
  -15.3500004       3.16275498E-24
  -15.3400002       8.32910837E-26
  -15.3299999      -6.18995171E-24
  -15.3199997      -1.45048912E-23
  -15.3100004      -2.12182521E-23
  -15.3000002      -2.03611752E-23
  -15.2900000      -5.52329640E-24
  -15.2799997       2.63178971E-23
  -15.2700005       6.99115734E-23
  -15.2600002       1.08114031E-22
  -15.2500000       1.12912716E-22
  -15.2399998       5.41378831E-23
  -15.2299995      -8.36463170E-23
  -15.2200003      -2.80398779E-22
  -15.2100000      -4.65977436E-22
  -15.1999998      -5.25124283E-22
  -15.1899996      -3.33134496E-22
  -15.1800003       1.77630486E-22
  -15.1700001       9.38933501E-22
  -15.1599998       1.69418161E-21
  -15.1499996       2.02114111E-21
  -15.1400003       1.46635565E-21
  -15.1300001      -2.14899266E-22
  -15.1199999      -2.78571529E-21
  -15.1099997      -5.36073137E-21
  -15.1000004      -6.51031007E-21
  -15.0900002      -4.74621291E-21
  -15.0799999       6.54335660E-22
  -15.0699997       8.75478913E-21
  -15.0600004       1.64716750E-20
  -15.0500002       1.90308765E-20
  -15.0400000       1.16949752E-20
  -15.0299997      -7.43785863E-21
  -15.0200005      -3.44974640E-20
  -15.0100002      -5.83546001E-20
  -15.0000000      -6.23323243E-20
  -14.9899998      -3.01586142E-20
  -14.9799995       4.45023460E-20
  -14.9700003       1.47933459E-19
  -14.9600000       2.40794784E-19
  -14.9499998       2.62839612E-19
  -14.9399996       1.51707406E-19
  -14.9300003      -1.25491597E-19
  -14.9200001      -5.36294020E-19
  -14.9099998      -9.58185239E-19
  -14.8999996      -1.18379947E-18
  -14.8900003      -9.70592948E-19
  -14.8800001      -1.36499419E-19
  -14.8699999       1.31777544E-18
  -14.8599997       3.10153563E-18
  -14.8500004       4.59880698E-18
  -14.8400002       4.95909915E-18
  -14.8299999       3.34091921E-18
  -14.8199997      -7.17667897E-19
  -14.8100004      -6.89350402E-18
  -14.8000002      -1.37895111E-17
  -14.7900000      -1.89404706E-17
  -14.7799997      -1.92570558E-17
  -14.7700005      -1.19474932E-17
  -14.7600002       4.21295204E-18
  -14.7500000       2.75912446E-17
  -14.7399998       5.28716377E-17
  -14.7299995       7.12399972E-17
  -14.7200003       7.19954315E-17
  -14.7100000       4.56802321E-17
  -14.6999998      -1.17109468E-17
  -14.6899996      -9.44829386E-17
  -14.6800003      -1.84520887E-16
  -14.6700001      -2.51865379E-16
  -14.6599998      -2.59996525E-16
  -14.6499996      -1.76196551E-16
  -14.6400003       1.43614949E-17
  -14.6300001       2.94216894E-16
  -14.6199999       6.04168802E-16
  -14.6099997       8.44806574E-16
  -14.6000004       8.93890704E-16
  -14.5900002       6.40872751E-16
  -14.5799999       3.38944237E-17
  -14.5699997      -8.72522445E-16
  -14.5600004      -1.88697659E-15
  -14.5500002      -2.68782443E-15
  -14.5400000      -2.88234576E-15
  -14.5299997      -2.12069691E-15
  -14.5200005      -2.46875985E-16
  -14.5100002       2.55392483E-15
  -14.5000000       5.66982256E-15
  -14.4899998       8.09956960E-15
  -14.4799995       8.65408056E-15
  -14.4700003       6.31820849E-15
  -14.4600000       7.06172268E-16
  -14.4499998      -7.52349487E-15
  -14.4399996      -1.64675318E-14
  -14.4300003      -2.31609115E-14
  -14.4200001      -2.42359352E-14
  -14.4099998      -1.70053740E-14
  -14.3999996      -7.37605978E-16
  -14.3900003       2.22801615E-14
  -14.3800001       4.63743898E-14
  -14.3699999       6.32298440E-14
  -14.3599997       6.39080328E-14
  -14.3500004       4.18836650E-14
  -14.3400002      -3.63144666E-15
  -14.3299999      -6.52033156E-14
  -14.3199997      -1.26761638E-13
  -14.3100004      -1.66185926E-13
  -14.3000002      -1.61064724E-13
  -14.2900000      -9.66790599E-14
  -14.2799997       2.58712221E-14
  -14.2700005       1.84308162E-13
  -14.2600002       3.35509317E-13
  -14.2500000       4.23422853E-13
  -14.2399998       3.94390738E-13
  -14.2299995       2.16966541E-13
  -14.2200003      -9.92459289E-14
  -14.2100000      -4.92821279E-13
  -14.1999998      -8.54220828E-13
  -14.1899996      -1.04762878E-12
  -14.1800003      -9.49193523E-13
  -14.1700001      -4.93715474E-13
  -14.1599998       2.83585818E-13
  -14.1499996       1.22644418E-12
  -14.1400003       2.07166250E-12
  -14.1300001       2.50413058E-12
  -14.1199999       2.24681059E-12
  -14.1099997       1.16559594E-12
  -14.1000004      -6.41706035E-13
  -14.0900002      -2.80720954E-12
  -14.0799999      -4.73331574E-12
  -14.0699997      -5.72154043E-12
  -14.0600004      -5.17225889E-12
  -14.0500002      -2.80938293E-12
  -14.0400000       1.13685602E-12
  -14.0299997       5.86173341E-12
  -14.0200005       1.00857135E-11
  -14.0100002       1.23359994E-11
  -14.0000000       1.13665232E-11
  -13.9899998       6.61659659E-12
  -13.9799995      -1.42991109E-12
  -13.9700003      -1.11278703E-11
  -13.9600000      -1.98956112E-11
  -13.9499998      -2.47952058E-11
  -13.9399996      -2.33692475E-11
  -13.9300003      -1.45316589E-11
  -13.9200001       7.64280241E-13
  -13.9099998       1.93426750E-11
  -13.8999996       3.62832368E-11
  -13.8900003       4.60609433E-11
  -13.8800001       4.41353377E-11
  -13.8699999       2.85875941E-11
  -13.8599997       1.29287607E-12
  -13.8500004      -3.18474656E-11
  -13.8400002      -6.18954263E-11
  -13.8299999      -7.90370200E-11
  -13.8199997      -7.54809409E-11
  -13.8100004      -4.83290942E-11
  -13.8000002      -1.49327295E-12
  -13.7900000       5.41505694E-11
  -13.7799997       1.02798763E-10
  -13.7700005       1.27747951E-10
  -13.7600002       1.16560248E-10
  -13.7500000       6.59258481E-11
  -13.7399998      -1.53752913E-11
  -13.7299995      -1.06786739E-10
  -13.7200003      -1.80152018E-10
  -13.7100000      -2.07239961E-10
  -13.6999998      -1.68937198E-10
  -13.6899996      -6.35089412E-11
  -13.6800003       8.88923934E-11
  -13.6700001       2.47766418E-10
  -13.6599998       3.60681651E-10
  -13.6499996       3.77460452E-10
  -13.6400003       2.66960481E-10
  -13.6300001       3.17599974E-11
  -13.6199999      -2.84281682E-10
  -13.6099997      -5.99597927E-10
  -13.6000004      -8.11071099E-10
  -13.5900002      -8.20760515E-10
  -13.5799999      -5.67509040E-10
  -13.5699997      -5.51043135E-11
  -13.5600004       6.32255803E-10
  -13.5500002       1.33468325E-09
  -13.5400000       1.84479709E-09
  -13.5299997       1.95664218E-09
  -13.5200005       1.52595436E-09
  -13.5100002       5.27182242E-10
  -13.5000000      -9.09668119E-10
  -13.4899998      -2.49728815E-09
  -13.4799995      -3.83287801E-09
  -13.4700003      -4.48166304E-09
  -13.4600000      -4.08855527E-09
  -13.4499998      -2.49364862E-09
  -13.4399996       1.78896994E-10
  -13.4300003       3.48826346E-09
  -13.4200001       6.72162681E-09
  -13.4099998       9.02076547E-09
  -13.3999996       9.57427471E-09
  -13.3900003       7.83880072E-09
  -13.3800001       3.73704090E-09
  -13.3699999      -2.22374830E-09
  -13.3599997      -8.95954777E-09
  -13.3500004      -1.49666484E-08
  -13.3400002      -1.86170102E-08
  -13.3299999      -1.85421971E-08
  -13.3199997      -1.40249403E-08
  -13.3100004      -5.29899857E-09
  -13.3000002       6.33434594E-09
  -13.2900000       1.86362019E-08
  -13.2799997       2.88160376E-08
  -13.2700005       3.41189370E-08
  -13.2600002       3.25005871E-08
  -13.2500000       2.32347475E-08
  -13.2399998       7.28949479E-09
  -13.2299995      -1.26543584E-08
  -13.2200003      -3.26015694E-08
  -13.2100000      -4.80158810E-08
  -13.1999998      -5.48278187E-08
  -13.1899996      -5.04596791E-08
  -13.1800003      -3.46125795E-08
  -13.1700001      -9.59737445E-09
  -13.1599998       1.99301748E-08
  -13.1499996       4.78272497E-08
  -13.1400003       6.77686742E-08
  -13.1300001       7.47201128E-08
  -13.1199999       6.62340796E-08
  -13.1099997       4.32325855E-08
  -13.1000004       1.00355315E-08
  -13.0900002      -2.64316888E-08
  -13.0799999      -5.81247441E-08
  -13.0699997      -7.77425768E-08
  -13.0600004      -8.05290412E-08
  -13.0500002      -6.55614798E-08
  -13.0400000      -3.61687498E-08
  -13.0299997       6.90605961E-10
  -13.0200005       3.59912669E-08
  -13.0100002       6.08199429E-08
  -13.0000000       6.86543729E-08
  -12.9899998       5.71702046E-08
  -12.9799995       2.90868627E-08
  -12.9700003      -8.22844726E-09
  -12.9600000      -4.43795010E-08
  -12.9499998      -6.84593644E-08
  -12.9399996      -7.18903408E-08
  -12.9300003      -5.08943998E-08
  -12.9200001      -7.94317145E-09
  -12.9099998       4.82524385E-08
  -12.8999996       1.04323988E-07
  -12.8900003       1.45131011E-07
  -12.8800001       1.57349987E-07
  -12.8699999       1.32946226E-07
  -12.8599997       7.16899251E-08
  -12.8500004      -1.79658155E-08
  -12.8400002      -1.19983866E-07
  -12.8299999      -2.13707580E-07
  -12.8199997      -2.78156136E-07
  -12.8100004      -2.96742513E-07
  -12.8000002      -2.61371099E-07
  -12.7900000      -1.74891625E-07
  -12.7799997      -5.12622265E-08
  -12.7700005       8.68349233E-08
  -12.7600002       2.12548770E-07
  -12.7500000       3.00710582E-07
  -12.7399998       3.33745561E-07
  -12.7299995       3.06248694E-07
  -12.7200003       2.27084243E-07
  -12.7100000       1.18243399E-07
  -12.6999998       1.04523341E-08
  -12.6899996      -6.37856274E-08
  -12.6800003      -7.83761749E-08
  -12.6700001      -2.12339781E-08
  -12.6599998       1.00462167E-07
  -12.6499996       2.58892612E-07
  -12.6400003       4.08846574E-07
  -12.6300001       4.95410404E-07
  -12.6199999       4.64951654E-07
  -12.6099997       2.77388693E-07
  -12.6000004      -8.27021012E-08
  -12.5900002      -5.98530846E-07
  -12.5799999      -1.21894936E-06
  -12.5699997      -1.86254329E-06
  -12.5600004      -2.42756278E-06
  -12.5500002      -2.80609879E-06
  -12.5400000      -2.89997001E-06
  -12.5299997      -2.63546417E-06
  -12.5200005      -1.97429495E-06
  -12.5100002      -9.19064576E-07
  -12.5000000       4.87160548E-07
  -12.4899998       2.16636181E-06
  -12.4799995       4.01368834E-06
  -12.4700003       5.90573609E-06
  -12.4600000       7.70615316E-06
  -12.4499998       9.26686516E-06
  -12.4399996       1.04246692E-05
  -12.4300003       1.09947978E-05
  -12.4200001       1.07643473E-05
  -12.4099998       9.48950674E-06
  -12.3999996       6.90054867E-06
  -12.3900003       2.71692056E-06
  -12.3800001      -3.32689729E-06
  -12.3699999      -1.14468066E-05
  -12.3599997      -2.17699999E-05
  -12.3500004      -3.42982603E-05
  -12.3400002      -4.88797086E-05
  -12.3299999      -6.51950395E-05
  -12.3199997      -8.27625117E-05
  -12.3100004      -1.00960970E-04
  -12.3000002      -1.19068805E-04
  -12.2900000      -1.36313553E-04
  -12.2799997      -1.51922242E-04
  -12.2700005      -1.65168356E-04
  -12.2600002      -1.75406312E-04
  -12.2500000      -1.82092626E-04
  -12.2399998      -1.84790275E-04
  -12.2299995      -1.83163182E-04
  -12.2200003      -1.76963717E-04
  -12.2100000      -1.66017795E-04
  -12.1999998      -1.50216700E-04
  -12.1899996      -1.29510852E-04
  -12.1800003      -1.03918275E-04
  -12.1700001      -7.35281283E-05
  -12.1599998      -3.85148269E-05
  -12.1499996       8.56646864E-07
  -12.1400003       4.42245182E-05
  -12.1300001       9.11357856E-05
  -12.1199999       1.41053883E-04
  -12.1099997       1.93367581E-04
  -12.1000004       2.47401011E-04
  -12.0900002       3.02422821E-04
  -12.0799999       3.57649289E-04
  -12.0699997       4.12249152E-04
  -12.0600004       4.65350342E-04
  -12.0500002       5.16050612E-04
  -12.0400000       5.63442009E-04
  -12.0299997       6.06638088E-04
  -12.0200005       6.44811837E-04
  -12.0100002       6.77234610E-04
  -12.0000000       7.03302620E-04
  -11.9899998       7.22554862E-04
  -11.9799995       7.34664151E-04
  -11.9700003       7.39414361E-04
  -11.9600000       7.36652641E-04
  -11.9499998       7.26237253E-04
  -11.9399996       7.07991712E-04
  -11.9300003       6.81667239E-04
  -11.9200001       6.46941480E-04
  -11.9099998       6.03437657E-04
  -11.8999996       5.50777593E-04
  -11.8900003       4.88652906E-04
  -11.8800001       4.16897674E-04
  -11.8699999       3.35557474E-04
  -11.8599997       2.44924100E-04
  -11.8500004       1.45547558E-04
  -11.8400002       3.82053986E-05
  -11.8299999      -7.61466217E-05
  -11.8199997      -1.96449386E-04
  -11.8100004      -3.21604311E-04
  -11.8000002      -4.50534630E-04
  -11.7900000      -5.82211476E-04
  -11.7799997      -7.15656905E-04
  -11.7700005      -8.49921606E-04
  -11.7600002      -9.84044280E-04
  -11.7500000      -1.11700885E-03
  -11.7399998      -1.24771055E-03
  -11.7299995      -1.37493899E-03
  -11.7200003      -1.49738626E-03
  -11.7100000      -1.61367271E-03
  -11.6999998      -1.72239239E-03
  -11.6899996      -1.82216323E-03
  -11.6800003      -1.91166915E-03
  -11.6700001      -1.98970665E-03
  -11.6599998      -2.05519912E-03
  -11.6499996      -2.10721162E-03
  -11.6400003      -2.14494835E-03
  -11.6300001      -2.16773571E-03
  -11.6199999      -2.17500958E-03
  -11.6099997      -2.16629566E-03
  -11.6000004      -2.14118557E-03
  -11.5900002      -2.09931307E-03
  -11.5799999      -2.04033661E-03
  -11.5699997      -1.96392112E-03
  -11.5600004      -1.86973158E-03
  -11.5500002      -1.75744179E-03
  -11.5400000      -1.62675756E-03
  -11.5299997      -1.47746212E-03
  -11.5200005      -1.30947435E-03
  -11.5100002      -1.12291053E-03
  -11.5000000      -9.18137957E-04
  -11.4899998      -6.95815135E-04
  -11.4799995      -4.56886773E-04
  -11.4700003      -2.02559313E-04
  -11.4600000       6.57678538E-05
  -11.4499998       3.46575223E-04
  -11.4399996       6.38315047E-04
  -11.4300003       9.39466758E-04
  -11.4200001       1.24858296E-03
  -11.4099998       1.56428572E-03
  -11.3999996       1.88524975E-03
  -11.3900003       2.21016398E-03
  -11.3800001       2.53771408E-03
  -11.3699999       2.86657666E-03
  -11.3599997       3.19546973E-03
  -11.3500004       3.52323288E-03
  -11.3400002       3.84892104E-03
  -11.3299999       4.17191116E-03
  -11.3199997       4.49196855E-03
  -11.3100004       4.80925059E-03
  -11.3000002       5.12425276E-03
  -11.2900000       5.43767447E-03
  -11.2799997       5.75024029E-03
  -11.2700005       6.06251089E-03
  -11.2600002       6.37470186E-03
  -11.2500000       6.68656966E-03
  -11.2399998       6.99736457E-03
  -11.2299995       7.30587076E-03
  -11.2200003       7.61050824E-03
  -11.2100000       7.90949166E-03
  -11.1999998       8.20098724E-03
  -11.1899996       8.48328136E-03
  -11.1800003       8.75488296E-03
  -11.1700001       9.01460834E-03
  -11.1599998       9.26159881E-03
  -11.1499996       9.49531235E-03
  -11.1400003       9.71549191E-03
  -11.1300001       9.92211048E-03
  -11.1199999       1.01153385E-02
  -11.1099997       1.02954824E-02
  -11.1000004       1.04629556E-02
  -11.0900002       1.06182378E-02
  -11.0799999       1.07618785E-02
  -11.0699997       1.08944550E-02
  -11.0600004       1.10166119E-02
  -11.0500002       1.11290487E-02
  -11.0400000       1.12325381E-02
  -11.0299997       1.13279428E-02
  -11.0200005       1.14161801E-02
  -11.0100002       1.14981905E-02
  -11.0000000       1.15748877E-02
  -10.9899998       1.16470652E-02
  -10.9799995       1.17153283E-02
  -10.9700003       1.17800562E-02
  -10.9600000       1.18413903E-02
  -10.9499998       1.18992859E-02
  -10.9399996       1.19535746E-02
  -10.9300003       1.20040607E-02
  -10.9200001       1.20505774E-02
  -10.9099998       1.20929684E-02
  -10.8999996       1.21310428E-02
  -10.8900003       1.21644316E-02
  -10.8800001       1.21924253E-02
  -10.8699999       1.22138346E-02
  -10.8599997       1.22269634E-02
  -10.8500004       1.22296559E-02
  -10.8400002       1.22195249E-02
  -10.8299999       1.21942656E-02
  -10.8199997       1.21519957E-02
  -10.8100004       1.20915752E-02
  -10.8000002       1.20127583E-02
  -10.7900000       1.19161960E-02
  -10.7799997       1.18032014E-02
  -10.7700005       1.16753625E-02
  -10.7600002       1.15340985E-02
  -10.7500000       1.13802440E-02
  -10.7399998       1.12137729E-02
  -10.7299995       1.10337418E-02
  -10.7200003       1.08384630E-02
  -10.7100000       1.06258560E-02
  -10.6999998       1.03939176E-02
  -10.6899996       1.01411529E-02
  -10.6800003       9.86695196E-03
  -10.6700001       9.57173668E-03
  -10.6599998       9.25698783E-03
  -10.6499996       8.92506354E-03
  -10.6400003       8.57890863E-03
  -10.6300001       8.22175387E-03
  -10.6199999       7.85681978E-03
  -10.6099997       7.48704048E-03
  -10.6000004       7.11491052E-03
  -10.5900002       6.74230140E-03
  -10.5799999       6.37044525E-03
  -10.5699997       5.99983614E-03
  -10.5600004       5.63030224E-03
  -10.5500002       5.26108732E-03
  -10.5400000       4.89109475E-03
  -10.5299997       4.51916084E-03
  -10.5200005       4.14443808E-03
  -10.5100002       3.76674114E-03
  -10.5000000       3.38681624E-03
  -10.4899998       3.00645898E-03
  -10.4799995       2.62836553E-03
  -10.4700003       2.25589355E-03
  -10.4600000       1.89253292E-03
  -10.4499998       1.54147088E-03
  -10.4399996       1.20512280E-03
  -10.4300003       8.84899579E-04
  -10.4200001       5.81156171E-04
  -10.4099998       2.93313497E-04
  -10.3999996       2.01553903E-05
  -10.3900003      -2.39893910E-04
  -10.3800001      -4.88577760E-04
  -10.3699999      -7.27678300E-04
  -10.3599997      -9.59084253E-04
  -10.3500004      -1.18488085E-03
  -10.3400002      -1.40742492E-03
  -10.3299999      -1.62925757E-03
  -10.3199997      -1.85286545E-03
  -10.3100004      -2.08027312E-03
  -10.3000002      -2.31254846E-03
  -10.2900000      -2.54942174E-03
  -10.2799997      -2.78912275E-03
  -10.2700005      -3.02853086E-03
  -10.2600002      -3.26375733E-03
  -10.2500000      -3.49090644E-03
  -10.2399998      -3.70703335E-03
  -10.2299995      -3.91090522E-03
  -10.2200003      -4.10346314E-03
  -10.2100000      -4.28781146E-03
  -10.1999998      -4.46872320E-03
  -10.1899996      -4.65178769E-03
  -10.1800003      -4.84230509E-03
  -10.1700001      -5.04430896E-03
  -10.1599998      -5.25980862E-03
  -10.1499996      -5.48845250E-03
  -10.1400003      -5.72763104E-03
  -10.1300001      -5.97293815E-03
  -10.1199999      -6.21887483E-03
  -10.1099997      -6.45959610E-03
  -10.1000004      -6.68958016E-03
  -10.0900002      -6.90410193E-03
  -10.0799999      -7.09959399E-03
  -10.0699997      -7.27379089E-03
  -10.0600004      -7.42575666E-03
  -10.0500002      -7.55592901E-03
  -10.0400000      -7.66596664E-03
  -10.0299997      -7.75855081E-03
  -10.0200005      -7.83705991E-03
  -10.0100002      -7.90493656E-03
  -10.0000000      -7.96511397E-03
  -9.98999977      -8.01929086E-03
  -9.97999954      -8.06735922E-03
  -9.97000027      -8.10726825E-03
  -9.96000004      -8.13515484E-03
  -9.94999981      -8.14602710E-03
  -9.93999958      -8.13473668E-03
  -9.93000031      -8.09702929E-03
  -9.92000008      -8.03043507E-03
  -9.90999985      -7.93469790E-03
  -9.89999962      -7.81169161E-03
  -9.89000034      -7.66469305E-03
  -9.88000011      -7.49736698E-03
  -9.86999989      -7.31266569E-03
  -9.85999966      -7.11198570E-03
  -9.85000038      -6.89487252E-03
  -9.84000015      -6.65933127E-03
  -9.82999992      -6.40268670E-03
  -9.81999969      -6.12259703E-03
  -9.81000042      -5.81805082E-03
  -9.80000019      -5.48985228E-03
  -9.78999996      -5.14049735E-03
  -9.77999973      -4.77355765E-03
  -9.77000046      -4.39257873E-03
  -9.76000023      -4.00010729E-03
  -9.75000000      -3.59702250E-03
  -9.73999977      -3.18258675E-03
  -9.72999954      -2.75503448E-03
  -9.72000027      -2.31276383E-03
  -9.71000004      -1.85543997E-03
  -9.69999981      -1.38493802E-03
  -9.68999958      -9.05557419E-04
  -9.68000031      -4.23467951E-04
  -9.67000008       5.44429968E-05
  -9.65999985       5.21931041E-04
  -9.64999962       9.74660739E-04
  -9.64000034       1.41076441E-03
  -9.63000011       1.83070672E-03
  -9.61999989       2.23645940E-03
  -9.60999966       2.63024820E-03
  -9.60000038       3.01337196E-03
  -9.59000015       3.38558271E-03
  -9.57999992       3.74515192E-03
  -9.56999969       4.08961903E-03
  -9.56000042       4.41703247E-03
  -9.55000019       4.72703809E-03
  -9.53999996       5.02152229E-03
  -9.52999973       5.30445995E-03
  -9.52000046       5.58098080E-03
  -9.51000023       5.85592538E-03
  -9.50000000       6.13252260E-03
  -9.48999977       6.41147699E-03
  -9.47999954       6.69096923E-03
  -9.47000027       6.96752686E-03
  -9.46000004       7.23750424E-03
  -9.44999981       7.49861822E-03
  -9.43999958       7.75094982E-03
  -9.43000031       7.99708534E-03
  -9.42000008       8.24127998E-03
  -9.40999985       8.48783460E-03
  -9.39999962       8.73946585E-03
  -9.39000034       8.99601635E-03
  -9.38000011       9.25423484E-03
  -9.36999989       9.50861070E-03
  -9.35999966       9.75307450E-03
  -9.35000038       9.98290069E-03
  -9.34000015       1.01961968E-02
  -9.32999992       1.03942463E-02
  -9.31999969       1.05806747E-02
  -9.31000042       1.07595269E-02
  -9.30000019       1.09329196E-02
  -9.28999996       1.10990545E-02
  -9.27999973       1.12514226E-02
  -9.27000046       1.13793286E-02
  -9.26000023       1.14698689E-02
  -9.25000000       1.15106246E-02
  -9.23999977       1.14921704E-02
  -9.22999954       1.14098135E-02
  -9.22000027       1.12636462E-02
  -9.21000004       1.10574374E-02
  -9.19999981       1.07962126E-02
  -9.18999958       1.04838964E-02
  -9.18000031       1.01214834E-02
  -9.17000008       9.70649626E-03
  -9.15999985       9.23388172E-03
  -9.14999962       8.69777892E-03
  -9.14000034       8.09379760E-03
  -9.13000011       7.42057338E-03
  -9.11999989       6.68029627E-03
  -9.10999966       5.87797025E-03
  -9.10000038       5.01961773E-03
  -9.09000015       4.11041221E-03
  -9.07999992       3.15317162E-03
  -9.06999969       2.14818423E-03
  -9.06000042       1.09422079E-03
  -9.05000019      -9.33236697E-06
  -9.03999996      -1.16026506E-03
  -9.02999973      -2.35177670E-03
  -9.02000046      -3.57221975E-03
  -9.01000023      -4.80610644E-03
  -9.00000000      -6.03663875E-03
  -8.98999977      -7.24846497E-03
  -8.97999954      -8.43001436E-03
  -8.97000027      -9.57473740E-03
  -8.96000004      -1.06805582E-02
  -8.94999981      -1.17480075E-02
  -8.93999958      -1.27776647E-02
  -8.93000031      -1.37677211E-02
  -8.92000008      -1.47126094E-02
  -8.90999985      -1.56030841E-02
  -8.89999962      -1.64276231E-02
  -8.89000034      -1.71747115E-02
  -8.88000011      -1.78350154E-02
  -8.86999989      -1.84026938E-02
  -8.85999966      -1.88754853E-02
  -8.85000038      -1.92533750E-02
  -8.84000015      -1.95366815E-02
  -8.82999992      -1.97240002E-02
  -8.81999969      -1.98111255E-02
  -8.81000042      -1.97910462E-02
  -8.80000019      -1.96554530E-02
  -8.78999996      -1.93967987E-02
  -8.77999973      -1.90104824E-02
  -8.77000046      -1.84961855E-02
  -8.76000023      -1.78578570E-02
  -8.75000000      -1.71023849E-02
  -8.73999977      -1.62373614E-02
  -8.72999954      -1.52686229E-02
  -8.72000027      -1.41985575E-02
  -8.71000004      -1.30256237E-02
  -8.69999981      -1.17452256E-02
  -8.68999958      -1.03517585E-02
  -8.68000031      -8.84089712E-03
  -8.67000008      -7.21147936E-03
  -8.65999985      -5.46638388E-03
  -8.64999962      -3.61196743E-03
  -8.64000034      -1.65657059E-03
  -8.63000011       3.91564448E-04
  -8.61999989       2.52619735E-03
  -8.60999966       4.74414742E-03
  -8.60000038       7.04510417E-03
  -8.59000015       9.43054445E-03
  -8.57999992       1.19020110E-02
  -8.56999969       1.44593399E-02
  -8.56000042       1.70995761E-02
  -8.55000019       1.98167562E-02
  -8.53999996       2.26026680E-02
  -8.52999973       2.54482049E-02
  -8.52000046       2.83448715E-02
  -8.51000023       3.12859826E-02
  -8.50000000       3.42671461E-02
  -8.48999977       3.72859314E-02
  -8.47999954       4.03413102E-02
  -8.47000027       4.34323512E-02
  -8.46000004       4.65575382E-02
  -8.44999981       4.97141294E-02
  -8.43999958       5.28981462E-02
  -8.43000031       5.61046898E-02
  -8.42000008       5.93285300E-02
  -8.40999985       6.25643879E-02
  -8.39999962       6.58073500E-02
  -8.39000034       6.90527409E-02
  -8.38000011       7.22959936E-02
  -8.36999989       7.55322278E-02
  -8.35999966       7.87559897E-02
  -8.35000038       8.19611400E-02
  -8.34000015       8.51406530E-02
  -8.32999992       8.82866830E-02
  -8.31999969       9.13905650E-02
  -8.31000042       9.44428146E-02
  -8.30000019       9.74331796E-02
  -8.28999996      0.100350529    
  -8.27999973      0.103183180    
  -8.27000046      0.105918817    
  -8.26000023      0.108545005    
  -8.25000000      0.111049242    
  -8.23999977      0.113419190    
  -8.22999954      0.115642875    
  -8.22000027      0.117708594    
  -8.21000004      0.119604886    
  -8.19999981      0.121320702    
  -8.18999958      0.122845680    
  -8.18000031      0.124170341    
  -8.17000008      0.125286803    
  -8.15999985      0.126189008    
  -8.14999962      0.126872972    
  -8.14000034      0.127336666    
  -8.13000011      0.127579466    
  -8.11999989      0.127601340    
  -8.10999966      0.127402440    
  -8.10000038      0.126982346    
  -8.09000015      0.126340389    
  -8.07999992      0.125476032    
  -8.06999969      0.124389842    
  -8.06000042      0.123084329    
  -8.05000019      0.121564485    
  -8.03999996      0.119837724    
  -8.02999973      0.117913552    
  -8.02000046      0.115802169    
  -8.01000023      0.113513455    
  -8.00000000      0.111055985    
  -7.98999977      0.108436398    
  -7.98000002      0.105660044    
  -7.96999979      0.102731705    
  -7.96000004       9.96569246E-02
  -7.94999981       9.64430049E-02
  -7.94000006       9.30996686E-02
  -7.92999983       8.96388665E-02
  -7.92000008       8.60738829E-02
  -7.90999985       8.24182928E-02
  -7.90000010       7.86845684E-02
  -7.88999987       7.48835951E-02
  -7.88000011       7.10244179E-02
  -7.86999989       6.71152994E-02
  -7.86000013       6.31642714E-02
  -7.84999990       5.91806136E-02
  -7.84000015       5.51754348E-02
  -7.82999992       5.11617623E-02
  -7.82000017       4.71536517E-02
  -7.80999994       4.31653410E-02
  -7.80000019       3.92100140E-02
  -7.78999996       3.52986939E-02
  -7.78000021       3.14401947E-02
  -7.76999998       2.76414193E-02
  -7.76000023       2.39083041E-02
  -7.75000000       2.02469546E-02
  -7.73999977       1.66643467E-02
  -7.73000002       1.31687010E-02
  -7.71999979       9.76939406E-03
  -7.71000004       6.47612149E-03
  -7.69999981       3.29779997E-03
  -7.69000006       2.42214242E-04
  -7.67999983      -2.68481229E-03
  -7.67000008      -5.47881937E-03
  -7.65999985      -8.13639630E-03
  -7.65000010      -1.06544299E-02
  -7.63999987      -1.30293788E-02
  -7.63000011      -1.52572384E-02
  -7.61999989      -1.73335448E-02
  -7.61000013      -1.92542896E-02
  -7.59999990      -2.10161097E-02
  -7.59000015      -2.26173121E-02
  -7.57999992      -2.40577422E-02
  -7.57000017      -2.53387857E-02
  -7.55999994      -2.64627766E-02
  -7.55000019      -2.74321400E-02
  -7.53999996      -2.82491054E-02
  -7.53000021      -2.89153475E-02
  -7.51999998      -2.94319373E-02
  -7.51000023      -2.98001841E-02
  -7.50000000      -3.00220046E-02
  -7.48999977      -3.01004983E-02
  -7.48000002      -3.00402790E-02
  -7.46999979      -2.98474748E-02
  -7.46000004      -2.95291971E-02
  -7.44999981      -2.90929209E-02
  -7.44000006      -2.85460148E-02