  -16.0000000       0.00000000    
  -15.9899998       0.00000000    
  -15.9799995       0.00000000    
  -15.9700003       0.00000000    
  -15.9600000       0.00000000    
  -15.9499998       0.00000000    
  -15.9399996       0.00000000    
  -15.9300003       0.00000000    
  -15.9200001       0.00000000    
  -15.9099998       0.00000000    
  -15.8999996       0.00000000    
  -15.8900003       0.00000000    
  -15.8800001      -0.00000000    
  -15.8699999      -2.80259693E-45
  -15.8599997      -5.74532370E-44
  -15.8500004      -7.18866112E-43
  -15.8400002      -6.10405611E-42
  -15.8299999      -3.92825999E-41
  -15.8199997      -2.02868781E-40
  -15.8100004      -8.66560168E-40
  -15.8000002      -3.10310258E-39
  -15.7900000      -9.29107405E-39
  -15.7799997      -2.25948728E-38
  -15.7700005      -4.01351386E-38
  -15.7600002      -2.56727688E-38
  -15.7500000       1.67212731E-37
  -15.7399998       9.63729948E-37
  -15.7299995       3.35572786E-36
  -15.7200003       9.23921125E-36
  -15.7100000       2.14827648E-35
  -15.6999998       4.29808862E-35
  -15.6899996       7.34842385E-35
  -15.6800003       1.02974717E-34
  -15.6700001       1.01635216E-34
  -15.6599998       1.00626951E-35
  -15.6499996      -2.60369037E-34
  -15.6400003      -7.99909212E-34
  -15.6300001      -1.62572669E-33
  -15.6199999      -2.55122921E-33
  -15.6099997      -3.02625694E-33
  -15.6000004      -2.04084939E-33
  -15.5900002       1.73115292E-33
  -15.5799999       9.31642823E-33
  -15.5699997       2.01812235E-32
  -15.5600004       3.04446043E-32
  -15.5500002       3.13068529E-32
  -15.5400000       9.33933568E-33
  -15.5299997      -4.88923836E-32
  -15.5200005      -1.45505759E-31
  -15.5100002      -2.53269826E-31
  -15.5000000      -2.96760766E-31
  -15.4899998      -1.48067725E-31
  -15.4799995       3.37838605E-31
  -15.4700003       1.22140606E-30
  -15.4600000       2.30398191E-30
  -15.4499998       2.92928791E-30
  -15.4399996       1.90075161E-30
  -15.4300003      -2.24958623E-30
  -15.4200001      -1.03824634E-29
  -15.4099998      -2.11765492E-29
  -15.3999996      -2.92489476E-29
  -15.3900003      -2.41431027E-29
  -15.3800001       7.82794903E-30
  -15.3699999       7.66814364E-29
  -15.3599997       1.75927501E-28
  -15.3500004       2.66593049E-28
  -15.3400002       2.66848018E-28
  -15.3299999       6.21788047E-29
  -15.3199997      -4.47019366E-28
  -15.3100004      -1.25233344E-27
  -15.3000002      -2.11554988E-27
  -15.2900000      -2.47548288E-27
  -15.2799997      -1.48374885E-27
  -15.2700005       1.71313934E-27
  -15.2600002       7.37682244E-27
  -15.2500000       1.43456975E-26
  -15.2399998       1.92970138E-26
  -15.2299995       1.67050264E-26
  -15.2200003       2.38752624E-28
  -15.2100000      -3.38764729E-26
  -15.1999998      -8.17912434E-26
  -15.1899996      -1.26881460E-25
  -15.1800003      -1.37747945E-25
  -15.1700001      -7.36426800E-26
  -15.1599998       9.91039977E-26
  -15.1499996       3.79657602E-25
  -15.1400003       7.01035788E-25
  -15.1300001       9.09643990E-25
  -15.1199999       7.78196147E-25
  -15.1099997       7.35991016E-26
  -15.1000004      -1.31254612E-24
  -15.0900002      -3.19320008E-24
  -15.0799999      -4.93909954E-24
  -15.0699997      -5.45917858E-24
  -15.0600004      -3.42324415E-24
  -15.0500002       2.20139406E-24
  -15.0400000       1.13447570E-23
  -15.0299997       2.19881882E-23
  -15.0200005       2.97022697E-23
  -15.0100002       2.81093954E-23
  -15.0000000       1.07249569E-23
  -14.9899998      -2.57591169E-23
  -14.9799995      -7.73898170E-23
  -14.9700003      -1.29584553E-22
  -14.9600000      -1.56706525E-22
  -14.9499998      -1.26883758E-22
  -14.9399996      -1.33307396E-23
  -14.9300003       1.88942991E-22
  -14.9200001       4.45561665E-22
  -14.9099998       6.72312651E-22
  -14.8999996       7.41542378E-22
  -14.8900003       5.13432329E-22
  -14.8800001      -1.06529834E-22
  -14.8699999      -1.09409954E-21
  -14.8599997      -2.24093588E-21
  -14.8500004      -3.13259579E-21
  -14.8400002      -3.20663350E-21
  -14.8299999      -1.91319202E-21
  -14.8199997       1.03259131E-21
  -14.8100004       5.36457808E-21
  -14.8000002       1.00529716E-20
  -14.7900000       1.33008865E-20
  -14.7799997       1.28712502E-20
  -14.7700005       6.78913658E-21
  -14.7600002      -5.67253484E-21
  -14.7500000      -2.29874655E-20
  -14.7399998      -4.07646529E-20
  -14.7299995      -5.19989838E-20
  -14.7200003      -4.85362377E-20
  -14.7100000      -2.37829742E-20
  -14.6999998       2.38060545E-20
  -14.6899996       8.74848317E-20
  -14.6800003       1.50649920E-19
  -14.6700001       1.88411878E-19
  -14.6599998       1.73218664E-19
  -14.6499996       8.42716615E-20
  -14.6400003      -8.11455069E-20
  -14.6300001      -2.97934611E-19
  -14.6199999      -5.09553028E-19
  -14.6099997      -6.34683380E-19
  -14.6000004      -5.86329348E-19
  -14.5900002      -3.01664679E-19
  -14.5799999       2.23844095E-19
  -14.5699997       9.08923118E-19
  -14.5600004       1.57862839E-18
  -14.5500002       1.98735705E-18
  -14.5400000       1.87720058E-18
  -14.5299997       1.06499163E-18
  -14.5200005      -4.61750002E-19
  -14.5100002      -2.47082633E-18
  -14.5000000      -4.46836308E-18
  -14.4899998      -5.76699446E-18
  -14.4799995      -5.64789162E-18
  -14.4700003      -3.59543194E-18
  -14.4600000       4.49981342E-19
  -14.4499998       5.90158956E-18
  -14.4399996       1.14862647E-17
  -14.4300003       1.54219007E-17
  -14.4200001       1.58282201E-17
  -14.4099998       1.13130134E-17
  -14.3999996       1.59710740E-18
  -14.3900003      -1.20169722E-17
  -14.3800001      -2.65389584E-17
  -14.3699999      -3.76992825E-17
  -14.3599997      -4.09018876E-17
  -14.3500004      -3.25815789E-17
  -14.3400002      -1.16515445E-17
  -14.3299999       1.93968841E-17
  -14.3199997       5.41965098E-17
  -14.3100004       8.33361372E-17
  -14.3000002       9.63818607E-17
  -14.2900000       8.47858804E-17
  -14.2799997       4.50175545E-17
  -14.2700005      -1.89965221E-17
  -14.2600002      -9.50607871E-17
  -14.2500000      -1.64198951E-16
  -14.2399998      -2.04570712E-16
  -14.2299995      -1.97227731E-16
  -14.2200003      -1.32411777E-16
  -14.2100000      -1.46242935E-17
  -14.1999998       1.35341810E-16
  -14.1899996       2.82708019E-16
  -14.1800003       3.85634513E-16
  -14.1700001       4.05716288E-16
  -14.1599998       3.19712639E-16
  -14.1499996       1.29316533E-16
  -14.1400003      -1.34293950E-16
  -14.1300001      -4.13484030E-16
  -14.1199999      -6.35350520E-16
  -14.1099997      -7.29358154E-16
  -14.1000004      -6.47507454E-16
  -14.0900002      -3.81670531E-16
  -14.0799999       2.73844114E-17
  -14.0699997       4.93272496E-16
  -14.0600004       9.00666226E-16
  -14.0500002       1.13274214E-15
  -14.0400000       1.10324644E-15
  -14.0299997       7.84740927E-16
  -14.0200005       2.24415053E-16
  -14.0100002      -4.58831077E-16
  -14.0000000      -1.09783697E-15
  -13.9899998      -1.51731352E-15
  -13.9799995      -1.58146589E-15
  -13.9700003      -1.23653141E-15
  -13.9600000      -5.35449919E-16
  -13.9499998       3.64631617E-16
  -13.9399996       1.23469092E-15
  -13.9300003       1.83041681E-15
  -13.9200001       1.95980236E-15
  -13.9099998       1.54370241E-15
  -13.8999996       6.51142020E-16
  -13.8900003      -5.03763316E-16
  -13.8800001      -1.60696719E-15
  -13.8699999      -2.32377517E-15
  -13.8599997      -2.39357302E-15
  -13.8500004      -1.71470512E-15
  -13.8400002      -3.94027604E-16
  -13.8299999       1.25726763E-15
  -13.8199997       2.78687075E-15
  -13.8100004       3.71286559E-15
  -13.8000002       3.65792745E-15
  -13.7900000       2.47129592E-15
  -13.7799997       3.02978762E-16
  -13.7700005      -2.39616790E-15
  -13.7600002      -4.95741364E-15
  -13.7500000      -6.64737057E-15
  -13.7399998      -6.85812042E-15
  -13.7299995      -5.28729019E-15
  -13.7200003      -2.05876440E-15
  -13.7100000       2.25467994E-15
  -13.6999998       6.72357051E-15
  -13.6899996       1.02570074E-14
  -13.6800003       1.18610811E-14
  -13.6700001       1.09002163E-14
  -13.6599998       7.29465452E-15
  -13.6499996       1.59757052E-15
  -13.6400003      -5.07911067E-15
  -13.6300001      -1.12851072E-14
  -13.6199999      -1.55557533E-14
  -13.6099997      -1.67668986E-14
  -13.6000004      -1.44341309E-14
  -13.5900002      -8.87678924E-15
  -13.5799999      -1.19487518E-15
  -13.5699997       6.94973127E-15
  -13.5600004       1.37073622E-14
  -13.5500002       1.74870223E-14
  -13.5400000       1.73671434E-14
  -13.5299997       1.33631136E-14
  -13.5200005       6.47219188E-15
  -13.5100002      -1.53284842E-15
  -13.5000000      -8.52744745E-15
  -13.4899998      -1.25831369E-14
  -13.4799995      -1.25058443E-14
  -13.4700003      -8.22137124E-15
  -13.4600000      -8.91528753E-16
  -13.4499998       7.29597335E-15
  -13.4399996       1.36405423E-14
  -13.4300003       1.56391234E-14
  -13.4200001       1.17255643E-14
  -13.4099998       1.84488858E-15
  -13.3999996      -1.23093132E-14
  -13.3900003      -2.74968596E-14
  -13.3800001      -3.95718004E-14
  -13.3699999      -4.44476778E-14
  -13.3599997      -3.91764935E-14
  -13.3500004      -2.28781973E-14
  -13.3400002       2.73290268E-15
  -13.3299999       3.34031170E-14
  -13.3199997       6.30267187E-14
  -13.3100004       8.48632688E-14
  -13.3000002       9.30401928E-14
  -13.2900000       8.40034829E-14
  -13.2799997       5.75603882E-14
  -13.2700005       1.72291736E-14
  -13.2600002      -3.02437281E-14
  -13.2500000      -7.61455176E-14
  -13.2399998      -1.11590391E-13
  -13.2299995      -1.29451164E-13
  -13.2200003      -1.25977408E-13
  -13.2100000      -1.01698008E-13
  -13.1999998      -6.13604423E-14
  -13.1899996      -1.28839945E-14
  -13.1800003       3.44526653E-14
  -13.1700001       7.21663465E-14
  -13.1599998       9.45385195E-14
  -13.1499996       9.98942614E-14
  -13.1400003       9.08402924E-14
  -13.1300001       7.33666532E-14
  -13.1199999       5.50091250E-14
  -13.1099997       4.25303713E-14
  -13.1000004       3.97331636E-14
  -13.0900002       4.60245381E-14
  -13.0799999       5.61913627E-14
  -13.0699997       6.15569133E-14
  -13.0600004       5.23294448E-14
  -13.0500002       2.06174545E-14
  -13.0400000      -3.66415577E-14
  -13.0299997      -1.15641939E-13
  -13.0200005      -2.05211390E-13
  -13.0100002      -2.88173375E-13
  -13.0000000      -3.44449485E-13
  -12.9899998      -3.55336718E-13
  -12.9799995      -3.08052032E-13
  -12.9700003      -1.99492129E-13
  -12.9600000      -3.82570698E-14
  -12.9499998       1.55680454E-13
  -12.9399996       3.53773163E-13
  -12.9300003       5.23721257E-13
  -12.9200001       6.35391804E-13
  -12.9099998       6.66615797E-13
  -12.8999996       6.07629181E-13
  -12.8900003       4.63182498E-13
  -12.8800001       2.51841543E-13
  -12.8699999       2.61326181E-15
  -12.8599997      -2.50377410E-13
  -12.8500004      -4.74004787E-13
  -12.8400002      -6.41741217E-13
  -12.8299999      -7.37564578E-13
  -12.8199997      -7.57418650E-13
  -12.8100004      -7.08066472E-13
  -12.8000002      -6.03795876E-13
  -12.7900000      -4.61940219E-13
  -12.7799997      -2.98429819E-13
  -12.7700005      -1.24549649E-13
  -12.7600002       5.42786641E-14
  -12.7500000       2.37425124E-13
  -12.7399998       4.26054293E-13
  -12.7299995       6.19117442E-13
  -12.7200003       8.09563083E-13
  -12.7100000       9.82010914E-13
  -12.6999998       1.11280841E-12
  -12.6899996       1.17283863E-12
  -12.6800003       1.13274212E-12
  -12.6700001       9.69575982E-13
  -12.6599998       6.73483513E-13
  -12.6499996       2.52817569E-13
  -12.6400003      -2.63619584E-13
  -12.6300001      -8.28010024E-13
  -12.6199999      -1.37868135E-12
  -12.6099997      -1.84825787E-12
  -12.6000004      -2.17343027E-12
  -12.5900002      -2.30458491E-12
  -12.5799999      -2.21354727E-12
  -12.5699997      -1.89804054E-12
  -12.5600004      -1.38211035E-12
  -12.5500002      -7.12557509E-13
  -12.5400000       4.78187131E-14
  -12.5299997       8.28797480E-13
  -12.5200005       1.56151806E-12
  -12.5100002       2.18591768E-12
  -12.5000000       2.65575994E-12
  -12.4899998       2.94073750E-12
  -12.4799995       3.02592608E-12
  -12.4700003       2.90934529E-12
  -12.4600000       2.59878772E-12
  -12.4499998       2.10905620E-12
  -12.4399996       1.46045394E-12
  -12.4300003       6.78826299E-13
  -12.4200001      -2.03148736E-13
  -12.4099998      -1.14428844E-12
  -12.3999996      -2.09397972E-12
  -12.3900003      -2.99313504E-12
  -12.3800001      -3.77776456E-12
  -12.3699999      -4.38523783E-12
  -12.3599997      -4.76256838E-12
  -12.3500004      -4.87533017E-12
  -12.3400002      -4.71543160E-12
  -12.3299999      -4.30586426E-12
  -12.3199997      -3.70101953E-12
  -12.3100004      -2.98189316E-12
  -12.3000002      -2.24654171E-12
  -12.2900000      -1.59711675E-12
  -12.2799997      -1.12555429E-12
  -12.2700005      -9.00423562E-13
  -12.2600002      -9.57140617E-13
  -12.2500000      -1.29318789E-12
  -12.2399998      -1.86896288E-12
  -12.2299995      -2.61374472E-12
  -12.2200003      -3.43530976E-12
  -12.2100000      -4.23109594E-12
  -12.1999998      -4.89884305E-12
  -12.1899996      -5.34486864E-12
  -12.1800003      -5.48912565E-12
  -12.1700001      -5.26698563E-12
  -12.1599998      -4.62878130E-12
  -12.1499996      -3.53851518E-12
  -12.1400003      -1.97324015E-12
  -12.1300001       7.56307858E-14
  -12.1199999       2.59888443E-12
  -12.1099997       5.56440094E-12
  -12.1000004       8.91184956E-12
  -12.0900002       1.25489905E-11
  -12.0799999       1.63513317E-11
  -12.0699997       2.01664432E-11
  -12.0600004       2.38229957E-11
  -12.0500002       2.71438670E-11
  -12.0400000       2.99613459E-11
  -12.0299997       3.21321511E-11
  -12.0200005       3.35498539E-11
  -12.0100002       3.41526286E-11
  -12.0000000       3.39256297E-11
  -11.9899998       3.28980558E-11
  -11.9799995       3.11359202E-11
  -11.9700003       2.87324331E-11
  -11.9600000       2.57980338E-11
  -11.9499998       2.24515389E-11
  -11.9399996       1.88131732E-11
  -11.9300003       1.50000273E-11
  -11.9200001       1.11226089E-11
  -11.9099998       7.28191812E-12
  -11.8999996       3.56577224E-12
  -11.8900003       4.41427392E-14
  -11.8800001      -3.23677717E-12
  -11.8699999      -6.26021153E-12
  -11.8599997      -9.04294261E-12
  -11.8500004      -1.16366691E-11
  -11.8400002      -1.41246286E-11
  -11.8299999      -1.66139394E-11
  -11.8199997      -1.92235412E-11
  -11.8100004      -2.20701079E-11
  -11.8000002      -2.52534729E-11
  -11.7900000      -2.88444772E-11
  -11.7799997      -3.28769928E-11
  -11.7700005      -3.73452658E-11
  -11.7600002      -4.22064814E-11
  -11.7500000      -4.73873232E-11
  -11.7399998      -5.27926661E-11
  -11.7299995      -5.83140342E-11
  -11.7200003      -6.38360059E-11
  -11.7100000      -6.92395377E-11
  -11.6999998      -7.44018527E-11
  -11.6899996      -7.91943178E-11
  -11.6800003      -8.34795080E-11
  -11.6700001      -8.71098402E-11
  -11.6599998      -8.99292238E-11
  -11.6499996      -9.17786611E-11
  -11.6400003      -9.25054963E-11
  -11.6300001      -9.19754481E-11
  -11.6199999      -9.00857375E-11
  -11.6099997      -8.67762182E-11
  -11.6000004      -8.20377932E-11
  -11.5900002      -7.59153088E-11
  -11.5799999      -6.85059232E-11
  -11.5699997      -5.99513772E-11
  -11.5600004      -5.04269820E-11
  -11.5500002      -4.01277310E-11
  -11.5400000      -2.92542553E-11
  -11.5299997      -1.79990866E-11
  -11.5200005      -6.53577973E-12
  -11.5100002       4.98884701E-12
  -11.5000000       1.64591778E-11
  -11.4899998       2.77917637E-11
  -11.4799995       3.89327424E-11
  -11.4700003       4.98539404E-11
  -11.4600000       6.05464220E-11
  -11.4499998       7.10148537E-11
  -11.4399996       8.12720793E-11
  -11.4300003       9.13355433E-11
  -11.4200001       1.01225528E-10
  -11.4099998       1.10966125E-10
  -11.3999996       1.20586804E-10
  -11.3900003       1.30124980E-10
  -11.3800001       1.39626713E-10
  -11.3699999       1.49145946E-10
  -11.3599997       1.58739036E-10
  -11.3500004       1.68457082E-10
  -11.3400002       1.78334736E-10
  -11.3299999       1.88378452E-10
  -11.3199997       1.98556407E-10
  -11.3100004       2.08791401E-10
  -11.3000002       2.18960461E-10
  -11.2900000       2.28900038E-10
  -11.2799997       2.38417008E-10
  -11.2700005       2.47304677E-10
  -11.2600002       2.55359095E-10
  -11.2500000       2.62394106E-10
  -11.2399998       2.68253003E-10
  -11.2299995       2.72814077E-10
  -11.2200003       2.75990786E-10
  -11.2100000       2.77728202E-10
  -11.1999998       2.77997125E-10
  -11.1899996       2.76789841E-10
  -11.1800003       2.74116202E-10
  -11.1700001       2.70006517E-10
  -11.1599998       2.64514827E-10
  -11.1499996       2.57724592E-10
  -11.1400003       2.49754106E-10
  -11.1300001       2.40756692E-10
  -11.1199999       2.30916800E-10
  -11.1099997       2.20438917E-10
  -11.1000004       2.09532516E-10
  -11.0900002       1.98393788E-10
  -11.0799999       1.87190610E-10
  -11.0699997       1.76046913E-10
  -11.0600004       1.65038913E-10
  -11.0500002       1.54191437E-10
  -11.0400000       1.43488929E-10
  -11.0299997       1.32881151E-10
  -11.0200005       1.22299254E-10
  -11.0100002       1.11662603E-10
  -11.0000000       1.00885522E-10
  -10.9899998       8.98809013E-11
  -10.9799995       7.85552040E-11
  -10.9700003       6.68076150E-11
  -10.9600000       5.45261475E-11
  -10.9499998       4.15868034E-11
  -10.9399996       2.78571662E-11
  -10.9300003       1.32063128E-11
  -10.9200001      -2.49072898E-12
  -10.9099998      -1.93387979E-11
  -10.8999996      -3.74164311E-11
  -10.8900003      -5.67692976E-11
  -10.8800001      -7.74099326E-11
  -10.8699999      -9.93260613E-11
  -10.8599997      -1.22477015E-10
  -10.8500004      -1.46805013E-10
  -10.8400002      -1.72236572E-10
  -10.8299999      -1.98684971E-10
  -10.8199997      -2.26051372E-10
  -10.8100004      -2.54226057E-10
  -10.8000002      -2.83086721E-10
  -10.7900000      -3.12503273E-10
  -10.7799997      -3.42346262E-10
  -10.7700005      -3.72492204E-10
  -10.7600002      -4.02832850E-10
  -10.7500000      -4.33279496E-10
  -10.7399998      -4.63764305E-10
  -10.7299995      -4.94235319E-10
  -10.7200003      -5.24648935E-10
  -10.7100000      -5.54957746E-10
  -10.6999998      -5.85100024E-10
  -10.6899996      -6.14996776E-10
  -10.6800003      -6.44551801E-10
  -10.6700001      -6.73662570E-10
  -10.6599998      -7.02236214E-10
  -10.6499996      -7.30209337E-10
  -10.6400003      -7.57564567E-10
  -10.6300001      -7.84339926E-10
  -10.6199999      -8.10627843E-10
  -10.6099997      -8.36562375E-10
  -10.6000004      -8.62299454E-10
  -10.5900002      -8.87990959E-10
  -10.5799999      -9.13759401E-10
  -10.5699997      -9.39681222E-10
  -10.5600004      -9.65781677E-10
  -10.5500002      -9.92038784E-10
  -10.5400000      -1.01840147E-09
  -10.5299997      -1.04481301E-09
  -10.5200005      -1.07122855E-09
  -10.5100002      -1.09763532E-09
  -10.5000000      -1.12405285E-09
  -10.4899998      -1.15052845E-09
  -10.4799995      -1.17711740E-09
  -10.4700003      -1.20385901E-09
  -10.4600000      -1.23075317E-09
  -10.4499998      -1.25774180E-09
  -10.4399996      -1.28470057E-09
  -10.4300003      -1.31144395E-09
  -10.4200001      -1.33774136E-09
  -10.4099998      -1.36333811E-09
  -10.3999996      -1.38798084E-09
  -10.3900003      -1.41144041E-09
  -10.3800001      -1.43352497E-09
  -10.3699999      -1.45408896E-09
  -10.3599997      -1.47303081E-09
  -10.3500004      -1.49028778E-09
  -10.3400002      -1.50582724E-09
  -10.3299999      -1.51964408E-09
  -10.3199997      -1.53175395E-09
  -10.3100004      -1.54219892E-09
  -10.3000002      -1.55104796E-09
  -10.2900000      -1.55839996E-09
  -10.2799997      -1.56438873E-09
  -10.2700005      -1.56917190E-09
  -10.2600002      -1.57293101E-09
  -10.2500000      -1.57585411E-09
  -10.2399998      -1.57813151E-09
  -10.2299995      -1.57994740E-09
  -10.2200003      -1.58147828E-09
  -10.2100000      -1.58290070E-09
  -10.1999998      -1.58439895E-09
  -10.1899996      -1.58617330E-09
  -10.1800003      -1.58845326E-09
  -10.1700001      -1.59148927E-09
  -10.1599998      -1.59555325E-09
  -10.1499996      -1.60091840E-09
  -10.1400003      -1.60783797E-09
  -10.1300001      -1.61652314E-09
  -10.1199999      -1.62712588E-09
  -10.1099997      -1.63972425E-09
  -10.1000004      -1.65432534E-09
  -10.0900002      -1.67087078E-09
  -10.0799999      -1.68925218E-09
  -10.0699997      -1.70933190E-09
  -10.0600004      -1.73095460E-09
  -10.0500002      -1.75397130E-09
  -10.0400000      -1.77824255E-09
  -10.0299997      -1.80364279E-09
  -10.0200005      -1.83005444E-09
  -10.0100002      -1.85737681E-09
  -10.0000000      -1.88550642E-09
  -9.98999977      -1.91434157E-09
  -9.97999954      -1.94377647E-09
  -9.97000027      -1.97369743E-09
  -9.96000004      -2.00398320E-09
  -9.94999981      -2.03449546E-09
  -9.93999958      -2.06508810E-09
  -9.93000031      -2.09560458E-09
  -9.92000008      -2.12588191E-09
  -9.90999985      -2.15577378E-09
  -9.89999962      -2.18516050E-09
  -9.89000034      -2.21397345E-09
  -9.88000011      -2.24220420E-09
  -9.86999989      -2.26993047E-09
  -9.85999966      -2.29731945E-09
  -9.85000038      -2.32462183E-09
  -9.84000015      -2.35215358E-09
  -9.82999992      -2.38028552E-09
  -9.81999969      -2.40941267E-09
  -9.81000042      -2.43992893E-09
  -9.80000019      -2.47222243E-09
  -9.78999996      -2.50664423E-09
  -9.77999973      -2.54351473E-09
  -9.77000046      -2.58313282E-09
  -9.76000023      -2.62576449E-09
  -9.75000000      -2.67165379E-09
  -9.73999977      -2.72102274E-09
  -9.72999954      -2.77407275E-09
  -9.72000027      -2.83096613E-09
  -9.71000004      -2.89183344E-09
  -9.69999981      -2.95674396E-09
  -9.68999958      -3.02571856E-09
  -9.68000031      -3.09871750E-09
  -9.67000008      -3.17563842E-09
  -9.65999985      -3.25631389E-09
  -9.64999962      -3.34052630E-09
  -9.64000034      -3.42799900E-09
  -9.63000011      -3.51840401E-09
  -9.61999989      -3.61136232E-09
  -9.60999966      -3.70642472E-09
  -9.60000038      -3.80309872E-09
  -9.59000015      -3.90083787E-09
  -9.57999992      -3.99902911E-09
  -9.56999969      -4.09702672E-09
  -9.56000042      -4.19416235E-09
  -9.55000019      -4.28973967E-09
  -9.53999996      -4.38307124E-09
  -9.52999973      -4.47350335E-09
  -9.52000046      -4.56039961E-09
  -9.51000023      -4.64320182E-09
  -9.50000000      -4.72140060E-09
  -9.48999977      -4.79454387E-09
  -9.47999954      -4.86225282E-09
  -9.47000027      -4.92419572E-09
  -9.46000004      -4.98009900E-09
  -9.44999981      -5.02976327E-09
  -9.43999958      -5.07302644E-09
  -9.43000031      -5.10982545E-09
  -9.42000008      -5.14018161E-09
  -9.40999985      -5.16422372E-09
  -9.39999962      -5.18220356E-09
  -9.39000034      -5.19451415E-09
  -9.38000011      -5.20165466E-09
  -9.36999989      -5.20428101E-09
  -9.35999966      -5.20311216E-09
  -9.35000038      -5.19896171E-09
  -9.34000015      -5.19269738E-09
  -9.32999992      -5.18522736E-09
  -9.31999969      -5.17748289E-09
  -9.31000042      -5.17042809E-09
  -9.30000019      -5.16505017E-09
  -9.28999996      -5.16235943E-09
  -9.27999973      -5.16338794E-09
  -9.27000046      -5.16917620E-09
  -9.26000023      -5.18075405E-09
  -9.25000000      -5.19914289E-09
  -9.23999977      -5.22530330E-09
  -9.22999954      -5.26014432E-09
  -9.22000027      -5.30452837E-09
  -9.21000004      -5.35926503E-09
  -9.19999981      -5.42508927E-09
  -9.18999958      -5.50272805E-09
  -9.18000031      -5.59284707E-09
  -9.17000008      -5.69606096E-09
  -9.15999985      -5.81291770E-09
  -9.14999962      -5.94385030E-09
  -9.14000034      -6.08917761E-09
  -9.13000011      -6.24902263E-09
  -9.11999989      -6.42337161E-09
  -9.10999966      -6.61198962E-09
  -9.10000038      -6.81445789E-09
  -9.09000015      -7.03021108E-09
  -9.07999992      -7.25854665E-09
  -9.06999969      -7.49862394E-09
  -9.06000042      -7.74948905E-09
  -9.05000019      -8.01013833E-09
  -9.03999996      -8.27943225E-09
  -9.02999973      -8.55618598E-09
  -9.02000046      -8.83911611E-09
  -9.01000023      -9.12686637E-09
  -9.00000000      -9.41801925E-09
  -8.98999977      -9.71106573E-09
  -8.97999954      -1.00044799E-08
  -8.97000027      -1.02966835E-08
  -8.96000004      -1.05860583E-08
  -8.94999981      -1.08709681E-08
  -8.93999958      -1.11497886E-08
  -8.93000031      -1.14208962E-08
  -8.92000008      -1.16827188E-08
  -8.90999985      -1.19337331E-08
  -8.89999962      -1.21725021E-08
  -8.89000034      -1.23977228E-08
  -8.88000011      -1.26082274E-08
  -8.86999989      -1.28029534E-08
  -8.85999966      -1.29809852E-08
  -8.85000038      -1.31414710E-08
  -8.84000015      -1.32836728E-08
  -8.82999992      -1.34069067E-08
  -8.81999969      -1.35105642E-08
  -8.81000042      -1.35941249E-08
  -8.80000019      -1.36571554E-08
  -8.78999996      -1.36993581E-08
  -8.77999973      -1.37205678E-08
  -8.77000046      -1.37208334E-08
  -8.76000023      -1.37003164E-08
  -8.75000000      -1.36593403E-08
  -8.73999977      -1.35983385E-08
  -8.72999954      -1.35178757E-08
  -8.72000027      -1.34186191E-08
  -8.71000004      -1.33012836E-08
  -8.69999981      -1.31667015E-08
  -8.68999958      -1.30158719E-08
  -8.68000031      -1.28498137E-08
  -8.67000008      -1.26697968E-08
  -8.65999985      -1.24771224E-08
  -8.64999962      -1.22732180E-08
  -8.64000034      -1.20595249E-08
  -8.63000011      -1.18374928E-08
  -8.61999989      -1.16085417E-08
  -8.60999966      -1.13740164E-08
  -8.60000038      -1.11351985E-08
  -8.59000015      -1.08932738E-08
  -8.57999992      -1.06494475E-08
  -8.56999969      -1.04049027E-08
  -8.56000042      -1.01607647E-08
  -8.55000019      -9.91815341E-09
  -8.53999996      -9.67820224E-09
  -8.52999973      -9.44195211E-09
  -8.52000046      -9.21038534E-09
  -8.51000023      -8.98439989E-09
  -8.50000000      -8.76476136E-09
  -8.48999977      -8.55219007E-09
  -8.47999954      -8.34730329E-09
  -8.47000027      -8.15059575E-09
  -8.46000004      -7.96249378E-09
  -8.44999981      -7.78332065E-09
  -8.43999958      -7.61332952E-09
  -8.43000031      -7.45260653E-09
  -8.42000008      -7.30120098E-09
  -8.40999985      -7.15907600E-09
  -8.39999962      -7.02612502E-09
  -8.39000034      -6.90228630E-09
  -8.38000011      -6.78745593E-09
  -8.36999989      -6.68164279E-09
  -8.35999966      -6.58478339E-09
  -8.35000038      -6.49692611E-09
  -8.34000015      -6.41805586E-09
  -8.32999992      -6.34811848E-09
  -8.31999969      -6.28701757E-09
  -8.31000042      -6.23462926E-09
  -8.30000019      -6.19080875E-09
  -8.28999996      -6.15540419E-09
  -8.27999973      -6.12837381E-09
  -8.27000046      -6.10967987E-09
  -8.26000023      -6.09940098E-09
  -8.25000000      -6.09765172E-09
  -8.23999977      -6.10469941E-09
  -8.22999954      -6.12079543E-09
  -8.22000027      -6.14621465E-09
  -8.21000004      -6.18131413E-09
  -8.19999981      -6.22647089E-09
  -8.18999958      -6.28210595E-09
  -8.18000031      -6.34867536E-09
  -8.17000008      -6.42682751E-09
  -8.15999985      -6.51715304E-09
  -8.14999962      -6.62034827E-09
  -8.14000034      -6.73705269E-09
  -8.13000011      -6.86791735E-09
  -8.11999989      -7.01347425E-09
  -8.10999966      -7.17422699E-09
  -8.10000038      -7.35063166E-09
  -8.09000015      -7.54305063E-09
  -8.07999992      -7.75191911E-09
  -8.06999969      -7.97758215E-09
  -8.06000042      -8.22042523E-09
  -8.05000019      -8.48078141E-09
  -8.03999996      -8.75898909E-09
  -8.02999973      -9.05524100E-09
  -8.02000046      -9.36967304E-09
  -8.01000023      -9.70226210E-09
  -8.00000000      -1.00529824E-08
  -7.98999977      -1.04216431E-08
  -7.98000002      -1.08080975E-08
  -7.96999979      -1.12120864E-08
  -7.96000004      -1.16333787E-08
  -7.94999981      -1.20716317E-08
  -7.94000006      -1.25264155E-08
  -7.92999983      -1.29972131E-08
  -7.92000008      -1.34833176E-08
  -7.90999985      -1.39839891E-08
  -7.90000010      -1.44983057E-08
  -7.88999987      -1.50253356E-08
  -7.88000011      -1.55641011E-08
  -7.86999989      -1.61135763E-08
  -7.86000013      -1.66727006E-08
  -7.84999990      -1.72404260E-08
  -7.84000015      -1.78156299E-08
  -7.82999992      -1.83970528E-08
  -7.82000017      -1.89833855E-08
  -7.80999994      -1.95732248E-08
  -7.80000019      -2.01651176E-08
  -7.78999996      -2.07576285E-08
  -7.78000021      -2.13493827E-08
  -7.76999998      -2.19390994E-08
  -7.76000023      -2.25255690E-08
  -7.75000000      -2.31077166E-08
  -7.73999977      -2.36845779E-08
  -7.73000002      -2.42552041E-08
  -7.71999979      -2.48187408E-08
  -7.71000004      -2.53743302E-08
  -7.69999981      -2.59213220E-08
  -7.69000006      -2.64590359E-08
  -7.67999983      -2.69869957E-08
  -7.67000008      -2.75047896E-08
  -7.65999985      -2.80120691E-08
  -7.65000010      -2.85086976E-08
  -7.63999987      -2.89944655E-08
  -7.63000011      -2.94693443E-08
  -7.61999989      -2.99332577E-08
  -7.61000013      -3.03861896E-08
  -7.59999990      -3.08281543E-08
  -7.59000015      -3.12592796E-08
  -7.57999992      -3.16798214E-08
  -7.57000017      -3.20901030E-08
  -7.55999994      -3.24905507E-08
  -7.55000019      -3.28817258E-08
  -7.53999996      -3.32641683E-08
  -7.53000021      -3.36385284E-08
  -7.51999998      -3.40054278E-08
  -7.51000023      -3.43656907E-08
  -7.50000000      -3.47199958E-08
  -7.48999977      -3.50692630E-08
  -7.48000002      -3.54144056E-08
  -7.46999979      -3.57563401E-08
  -7.46000004      -3.60961074E-08
  -7.44999981      -3.64346349E-08
  -7.44000006      -3.67728106E-08