  -16.0000000       0.00000000    
  -15.9899998       0.00000000    
  -15.9799995       0.00000000    
  -15.9700003       0.00000000    
  -15.9600000       0.00000000    
  -15.9499998       0.00000000    
  -15.9399996       0.00000000    
  -15.9300003       0.00000000    
  -15.9200001       0.00000000    
  -15.9099998       0.00000000    
  -15.8999996       0.00000000    
  -15.8900003       0.00000000    
  -15.8800001       0.00000000    
  -15.8699999      -0.00000000    
  -15.8599997       0.00000000    
  -15.8500004      -0.00000000    
  -15.8400002      -2.66246708E-44
  -15.8299999      -3.69942795E-43
  -15.8199997      -3.51866044E-42
  -15.8100004      -2.59044034E-41
  -15.8000002      -1.56841732E-40
  -15.7900000      -8.09345151E-40
  -15.7799997      -3.64559847E-39
  -15.7700005      -1.45798911E-38
  -15.7600002      -5.24316896E-38
  -15.7500000      -1.71196017E-37
  -15.7399998      -5.11334976E-37
  -15.7299995      -1.40518506E-36
  -15.7200003      -3.56824740E-36
  -15.7100000      -8.39806699E-36
  -15.6999998      -1.83506908E-35
  -15.6899996      -3.72389550E-35
  -15.6800003      -7.00747137E-35
  -15.6700001      -1.21784463E-34
  -15.6599998      -1.93895038E-34
  -15.6499996      -2.78390995E-34
  -15.6400003      -3.48815321E-34
  -15.6300001      -3.50738173E-34
  -15.6199999      -1.97054524E-34
  -15.6099997       2.22545463E-34
  -15.6000004       1.00623161E-33
  -15.5900002       2.16979525E-33
  -15.5799999       3.54443359E-33
  -15.5699997       4.66921417E-33
  -15.5600004       4.73793945E-33
  -15.5500002       2.69051922E-33
  -15.5400000      -2.45622851E-33
  -15.5299997      -1.09949482E-32
  -15.5200005      -2.17200514E-32
  -15.5100002      -3.12231489E-32
  -15.5000000      -3.38117373E-32
  -15.4899998      -2.26755770E-32
  -15.4799995       7.27554155E-33
  -15.4700003       5.51442973E-32
  -15.4600000       1.09716164E-31
  -15.4499998       1.47696833E-31
  -15.4399996       1.37816298E-31
  -15.4300003       5.31820446E-32
  -15.4200001      -1.09065093E-31
  -15.4099998      -3.07377126E-31
  -15.3999996      -4.47463021E-31
  -15.3900003      -4.01709631E-31
  -15.3800001      -6.70004979E-32
  -15.3699999       5.45088297E-31
  -15.3599997       1.21873731E-30
  -15.3500004       1.50603405E-30
  -15.3400002       8.33194534E-31
  -15.3299999      -1.21360961E-30
  -15.3199997      -4.45628216E-30
  -15.3100004      -7.70326839E-30
  -15.3000002      -8.61994709E-30
  -15.2900000      -4.22351735E-30
  -15.2799997       7.77614302E-30
  -15.2700005       2.68991897E-29
  -15.2600002       4.77158563E-29
  -15.2500000       5.87614527E-29
  -15.2399998       4.40675461E-29
  -15.2299995      -1.14308780E-29
  -15.2200003      -1.12476656E-28
  -15.2100000      -2.41952123E-28
  -15.1999998      -3.51690408E-28
  -15.1899996      -3.62387288E-28
  -15.1800003      -1.80072030E-28
  -15.1700001       2.65794486E-28
  -15.1599998       9.64317649E-28
  -15.1499996       1.75853197E-27
  -15.1400003       2.30219830E-27
  -15.1300001       2.07955752E-27
  -15.1199999       5.33364680E-28
  -15.1099997      -2.67052027E-27
  -15.1000004      -7.26254778E-27
  -15.0900002      -1.19771834E-26
  -15.0799999      -1.43571052E-26
  -15.0699997      -1.10444540E-26
  -15.0600004       1.16043866E-27
  -15.0500002       2.33771611E-26
  -15.0400000       5.21790813E-26
  -15.0299997       7.75086531E-26
  -15.0200005       8.25092177E-26
  -15.0100002       4.70561231E-26
  -15.0000000      -4.38177350E-26
  -14.9899998      -1.87207379E-25
  -14.9799995      -3.48928660E-25
  -14.9700003      -4.56435561E-25
  -14.9600000      -4.07288540E-25
  -14.9499998      -1.01108573E-25
  -14.9399996       5.03907238E-25
  -14.9300003       1.32175252E-24
  -14.9200001       2.08488246E-24
  -14.9099998       2.34743253E-24
  -14.8999996       1.58713410E-24
  -14.8900003      -5.74825883E-25
  -14.8800001      -4.06637168E-24
  -14.8699999      -8.06930711E-24
  -14.8599997      -1.09016372E-23
  -14.8500004      -1.02664654E-23
  -14.8400002      -3.99663677E-24
  -14.8299999       8.74523705E-24
  -14.8199997       2.61157562E-23
  -14.8100004       4.26770247E-23
  -14.8000002       4.96788153E-23
  -14.7900000       3.71889762E-23
  -14.7799997      -1.78118955E-24
  -14.7700005      -6.59135885E-23
  -14.7600002      -1.40836221E-22
  -14.7500000      -1.97709621E-22
  -14.7399998      -1.97920783E-22
  -14.7299995      -1.05393048E-22
  -14.7200003       9.47387174E-23
  -14.7100000       3.76140593E-22
  -14.6999998       6.58648975E-22
  -14.6899996       8.13270155E-22
  -14.6800003       6.92753918E-22
  -14.6700001       1.88319172E-22
  -14.6599998      -6.98660808E-22
  -14.6499996      -1.79432802E-21
  -14.6400003      -2.73282703E-21
  -14.6300001      -3.01193122E-21
  -14.6199999      -2.13975610E-21
  -14.6099997       1.43685321E-22
  -14.6000004       3.62808929E-21
  -14.5900002       7.47319071E-21
  -14.5799999       1.02380863E-20
  -14.5699997       1.01836257E-20
  -14.5600004       5.85634705E-21
  -14.5500002      -3.15415479E-21
  -14.5400000      -1.55192508E-20
  -14.5299997      -2.78593106E-20
  -14.5200005      -3.51311781E-20
  -14.5100002      -3.18877609E-20
  -14.5000000      -1.43012161E-20
  -14.4899998       1.75230264E-20
  -14.4799995       5.77486257E-20
  -14.4700003       9.44872581E-20
  -14.4600000       1.11744760E-19
  -14.4499998       9.38626139E-20
  -14.4399996       3.17869515E-20
  -14.4300003      -7.05110726E-20
  -14.4200001      -1.91908073E-19
  -14.4099998      -2.94861247E-19
  -14.3999996      -3.32737408E-19
  -14.3900003      -2.63637428E-19
  -14.3800001      -6.80826642E-20
  -14.3699999       2.34580124E-19
  -14.3599997       5.77724395E-19
  -14.3500004       8.53188102E-19
  -14.3400002       9.34540694E-19
  -14.3299999       7.15936814E-19
  -14.3199997       1.58162452E-19
  -14.3100004      -6.72218665E-19
  -14.3000002      -1.58727347E-18
  -14.2900000      -2.29969673E-18
  -14.2799997      -2.48784640E-18
  -14.2700005      -1.89576706E-18
  -14.2600002      -4.45019292E-19
  -14.2500000       1.67679188E-18
  -14.2399998       3.98932749E-18
  -14.2299995       5.78418451E-18
  -14.2200003       6.28835895E-18
  -14.2100000       4.90231361E-18
  -14.1999998       1.45557359E-18
  -14.1899996      -3.60066509E-18
  -14.1800003      -9.14738508E-18
  -14.1700001      -1.35572793E-17
  -14.1599998      -1.50680941E-17
  -14.1499996      -1.23096908E-17
  -14.1400003      -4.85753502E-18
  -14.1300001       6.35874706E-18
  -14.1199999       1.89626490E-17
  -14.1099997       2.94693152E-17
  -14.1000004       3.40636483E-17
  -14.0900002       2.96890143E-17
  -14.0799999       1.51876432E-17
  -14.0699997      -7.84752616E-18
  -14.0600004      -3.48430742E-17
  -14.0500002      -5.88603724E-17
  -14.0400000      -7.20728423E-17
  -14.0299997      -6.78650275E-17
  -14.0200005      -4.30711092E-17
  -14.0100002       2.78917367E-19
  -14.0000000       5.43300630E-17
  -13.9899998       1.06320568E-16
  -13.9799995       1.41116801E-16
  -13.9700003       1.44979403E-16
  -13.9600000       1.09742879E-16
  -13.9499998       3.63069622E-17
  -13.9399996      -6.36829148E-17
  -13.9300003      -1.68798274E-16
  -13.9200001      -2.51685782E-16
  -13.9099998      -2.85317198E-16
  -13.8999996      -2.50376507E-16
  -13.8900003      -1.41987246E-16
  -13.8800001       2.61607714E-17
  -13.8699999       2.21874722E-16
  -13.8599997       3.99454915E-16
  -13.8500004       5.09185756E-16
  -13.8400002       5.09614196E-16
  -13.8299999       3.79879030E-16
  -13.8199997       1.28870862E-16
  -13.8100004      -2.01717799E-16
  -13.8000002      -5.42301939E-16
  -13.7900000      -8.08373464E-16
  -13.7799997      -9.19555591E-16
  -13.7700005      -8.20862223E-16
  -13.7600002      -5.01060169E-16
  -13.7500000      -2.91805311E-18
  -13.7399998       5.78661411E-16
  -13.7299995       1.11216559E-15
  -13.7200003       1.45692769E-15
  -13.7100000       1.49740655E-15
  -13.6999998       1.17656381E-15
  -13.6899996       5.19550528E-16
  -13.6800003      -3.59998955E-16
  -13.6700001      -1.27548794E-15
  -13.6599998      -2.00412485E-15
  -13.6499996      -2.33865606E-15
  -13.6400003      -2.14283644E-15
  -13.6300001      -1.39660306E-15
  -13.6199999      -2.17475894E-16
  -13.6099997       1.15106928E-15
  -13.6000004       2.38604840E-15
  -13.5900002       3.15890710E-15
  -13.5799999       3.22108779E-15
  -13.5699997       2.47981410E-15
  -13.5600004       1.04221316E-15
  -13.5500002      -7.88635478E-16
  -13.5400000      -2.57126063E-15
  -13.5299997      -3.82848940E-15
  -13.5200005      -4.17309331E-15
  -13.5100002      -3.42470222E-15
  -13.5000000      -1.68432184E-15
  -13.4899998       6.60007596E-16
  -13.4799995       3.00718253E-15
  -13.4700003       4.68648930E-15
  -13.4600000       5.13939951E-15
  -13.4499998       4.09346121E-15
  -13.4399996       1.67790715E-15
  -13.4300003      -1.55979360E-15
  -13.4200001      -4.75479573E-15
  -13.4099998      -6.93080686E-15
  -13.3999996      -7.26725131E-15
  -13.3900003      -5.36049036E-15
  -13.3800001      -1.40417268E-15
  -13.3699999       3.77395530E-15
  -13.3599997       8.84996456E-15
  -13.3500004       1.23031078E-14
  -13.3400002       1.28165495E-14
  -13.3299999       9.68269197E-15
  -13.3199997       3.10144841E-15
  -13.3100004      -5.72658139E-15
  -13.3000002      -1.47679042E-14
  -13.2900000      -2.15775155E-14
  -13.2799997      -2.38969357E-14
  -13.2700005      -2.02936626E-14
  -13.2600002      -1.06766385E-14
  -13.2500000       3.46756908E-15
  -13.2399998       1.92206260E-14
  -13.2299995       3.27767124E-14
  -13.2200003       4.02991273E-14
  -13.2100000       3.89097730E-14
  -13.1999998       2.75731823E-14
  -13.1899996       7.63177448E-15
  -13.1800003      -1.71935152E-14
  -13.1700001      -4.14104921E-14
  -13.1599998      -5.88979413E-14
  -13.1499996      -6.43633909E-14
  -13.1400003      -5.47883848E-14
  -13.1300001      -3.04928913E-14
  -13.1199999       4.49934245E-15
  -13.1099997       4.29774082E-14
  -13.1000004       7.59245978E-14
  -13.0900002       9.45272506E-14
  -13.0799999       9.23866018E-14
  -13.0699997       6.74056012E-14
  -13.0600004       2.28401553E-14
  -13.0500002      -3.28482155E-14
  -13.0400000      -8.74449371E-14
  -13.0299997      -1.27533075E-13
  -13.0200005      -1.41638342E-13
  -13.0100002      -1.23258446E-13
  -13.0000000      -7.30161171E-14
  -12.9899998       6.90928163E-16
  -12.9799995       8.28676117E-14
  -12.9700003       1.54832161E-13
  -12.9600000       1.98330284E-13
  -12.9499998       1.99971143E-13
  -12.9399996       1.54937911E-13
  -12.9300003       6.89988702E-14
  -12.9200001      -4.18320570E-14
  -12.9099998      -1.54123377E-13
  -12.8999996      -2.41888893E-13
  -12.8900003      -2.82496059E-13
  -12.8800001      -2.62291816E-13
  -12.8699999      -1.80575390E-13
  -12.8599997      -5.08330289E-14
  -12.8500004       1.01274871E-13
  -12.8400002       2.42943225E-13
  -12.8299999       3.41296842E-13
  -12.8199997       3.70979370E-13
  -12.8100004       3.20495963E-13
  -12.8000002       1.95731736E-13
  -12.7900000       1.96413303E-14
  -12.7799997      -1.72043627E-13
  -12.7700005      -3.38299023E-13
  -12.7600002      -4.41890068E-13
  -12.7500000      -4.57986134E-13
  -12.7399998      -3.80248377E-13
  -12.7299995      -2.22835842E-13
  -12.7200003      -1.76804914E-14
  -12.7100000       1.92503633E-13
  -12.6999998       3.63956478E-13
  -12.6899996       4.62093254E-13
  -12.6800003       4.69733410E-13
  -12.6700001       3.91235655E-13
  -12.6599998       2.51360564E-13
  -12.6499996       8.89360403E-14
  -12.6400003      -5.32842948E-14
  -12.6300001      -1.40150614E-13
  -12.6199999      -1.54125844E-13
  -12.6099997      -1.01081219E-13
  -12.6000004      -1.00850385E-14
  -12.5900002       7.31964741E-14
  -12.5799999       9.82798708E-14
  -12.5699997       2.42143257E-14
  -12.5600004      -1.66952932E-13
  -12.5500002      -4.61098878E-13
  -12.5400000      -8.10040294E-13
  -12.5299997      -1.13782746E-12
  -12.5200005      -1.35460892E-12
  -12.5100002      -1.37550485E-12
  -12.5000000      -1.14057689E-12
  -12.4899998      -6.31453277E-13
  -12.4799995       1.19336195E-13
  -12.4700003       1.02885376E-12
  -12.4600000       1.97455203E-12
  -12.4499998       2.81359528E-12
  -12.4399996       3.40697566E-12
  -12.4300003       3.64353166E-12
  -12.4200001       3.45884085E-12
  -12.4099998       2.84495734E-12
  -12.3999996       1.84885744E-12
  -12.3900003       5.59888561E-13
  -12.3800001      -9.11091840E-13
  -12.3699999      -2.45632269E-12
  -12.3599997      -3.99400304E-12
  -12.3500004      -5.48425715E-12
  -12.3400002      -6.93437495E-12
  -12.3299999      -8.39184538E-12
  -12.3199997      -9.92637830E-12
  -12.3100004      -1.16045281E-11
  -12.3000002      -1.34625410E-11
  -12.2900000      -1.54834340E-11
  -12.2799997      -1.75841147E-11
  -12.2700005      -1.96161143E-11
  -12.2600002      -2.13811104E-11
  -12.2500000      -2.26591142E-11
  -12.2399998      -2.32443110E-11
  -12.2299995      -2.29818421E-11
  -12.2200003      -2.17976071E-11
  -12.2100000      -1.97145529E-11
  -12.1999998      -1.68509668E-11
  -12.1899996      -1.33998845E-11
  -12.1800003      -9.59251775E-12
  -12.1700001      -5.65233797E-12
  -12.1599998      -1.74891037E-12
  -12.1499996       2.03887753E-12
  -12.1400003       5.74163547E-12
  -12.1300001       9.49514425E-12
  -12.1199999       1.35121792E-11
  -12.1099997       1.80347334E-11
  -12.1000004       2.32758136E-11
  -12.0900002       2.93623216E-11
  -12.0799999       3.62911368E-11
  -12.0699997       4.39086684E-11
  -12.0600004       5.19193646E-11
  -12.0500002       5.99226502E-11
  -12.0400000       6.74720627E-11
  -12.0299997       7.41447112E-11
  -12.0200005       7.96072722E-11
  -12.0100002       8.36643810E-11
  -12.0000000       8.62795044E-11
  -11.9899998       8.75638798E-11
  -11.9799995       8.77359643E-11
  -11.9700003       8.70609349E-11
  -11.9600000       8.57834567E-11
  -11.9499998       8.40689462E-11
  -11.9399996       8.19660451E-11
  -11.9300003       7.93982657E-11
  -11.9200001       7.61849889E-11
  -11.9099998       7.20872320E-11
  -11.8999996       6.68651454E-11
  -11.8900003       6.03339045E-11
  -11.8800001       5.24050976E-11
  -11.8699999       4.31043083E-11
  -11.8599997       3.25619809E-11
  -11.8500004       2.09814058E-11
  -11.8400002       8.59339076E-12
  -11.8299999      -4.39133278E-12
  -11.8199997      -1.78193606E-11
  -11.8100004      -3.16132606E-11
  -11.8000002      -4.57682434E-11
  -11.7900000      -6.03293041E-11
  -11.7799997      -7.53553678E-11
  -11.7700005      -9.08806919E-11
  -11.7600002      -1.06882184E-10
  -11.7500000      -1.23260152E-10
  -11.7399998      -1.39834644E-10
  -11.7299995      -1.56357108E-10
  -11.7200003      -1.72532252E-10
  -11.7100000      -1.88044441E-10
  -11.6999998      -2.02582950E-10
  -11.6899996      -2.15862925E-10
  -11.6800003      -2.27640143E-10
  -11.6700001      -2.37721010E-10
  -11.6599998      -2.45969661E-10
  -11.6499996      -2.52312587E-10
  -11.6400003      -2.56741267E-10
  -11.6300001      -2.59310268E-10
  -11.6199999      -2.60128225E-10
  -11.6099997      -2.59337218E-10
  -11.6000004      -2.57082328E-10
  -11.5900002      -2.53472660E-10
  -11.5799999      -2.48540827E-10
  -11.5699997      -2.42210280E-10
  -11.5600004      -2.34281206E-10
  -11.5500002      -2.24441146E-10
  -11.5400000      -2.12304563E-10
  -11.5299997      -1.97478103E-10
  -11.5200005      -1.79636403E-10
  -11.5100002      -1.58598454E-10
  -11.5000000      -1.34383019E-10
  -11.4899998      -1.07230086E-10
  -11.4799995      -7.75792763E-11
  -11.4700003      -4.60070732E-11
  -11.4600000      -1.31332575E-11
  -11.4499998       2.04846574E-11
  -11.4399996       5.44475472E-11
  -11.4300003       8.85784848E-11
  -11.4200001       1.22942531E-10
  -11.4099998       1.57813582E-10
  -11.3999996       1.93597804E-10
  -11.3900003       2.30726757E-10
  -11.3800001       2.69546052E-10
  -11.3699999       3.10220072E-10
  -11.3599997       3.52674362E-10
  -11.3500004       3.96587985E-10
  -11.3400002       4.41434611E-10
  -11.3299999       4.86565455E-10
  -11.3199997       5.31314270E-10
  -11.3100004       5.75104520E-10
  -11.3000002       6.17535356E-10
  -11.2900000       6.58433641E-10
  -11.2799997       6.97860547E-10
  -11.2700005       7.36076144E-10
  -11.2600002       7.73468956E-10
  -11.2500000       8.10465473E-10
  -11.2399998       8.47439618E-10
  -11.2299995       8.84630813E-10
  -11.2200003       9.22094623E-10
  -11.2100000       9.59682445E-10
  -11.1999998       9.97058880E-10
  -11.1899996       1.03375031E-09
  -11.1800003       1.06921616E-09
  -11.1700001       1.10292953E-09
  -11.1599998       1.13446008E-09
  -11.1499996       1.16353549E-09
  -11.1400003       1.19008947E-09
  -11.1300001       1.21426014E-09
  -11.1199999       1.23637056E-09
  -11.1099997       1.25686883E-09
  -11.1000004       1.27624455E-09
  -11.0900002       1.29493927E-09
  -11.0799999       1.31326694E-09
  -11.0699997       1.33134626E-09
  -11.0600004       1.34908251E-09
  -11.0500002       1.36617861E-09
  -11.0400000       1.38219292E-09
  -11.0299997       1.39662237E-09
  -11.0200005       1.40900391E-09
  -11.0100002       1.41900325E-09
  -11.0000000       1.42647039E-09
  -10.9899998       1.43146373E-09
  -10.9799995       1.43422429E-09
  -10.9700003       1.43510814E-09
  -10.9600000       1.43449297E-09
  -10.9499998       1.43268020E-09
  -10.9399996       1.42981416E-09
  -10.9300003       1.42583190E-09
  -10.9200001       1.42046785E-09
  -10.9099998       1.41329914E-09
  -10.8999996       1.40383072E-09
  -10.8900003       1.39161294E-09
  -10.8800001       1.37632705E-09
  -10.8699999       1.35788603E-09
  -10.8599997       1.33645983E-09
  -10.8500004       1.31246414E-09
  -10.8400002       1.28649147E-09
  -10.8299999       1.25920840E-09
  -10.8199997       1.23121757E-09
  -10.8100004       1.20294308E-09
  -10.8000002       1.17451360E-09
  -10.7900000       1.14573595E-09
  -10.7799997       1.11609222E-09
  -10.7700005       1.08481535E-09
  -10.7600002       1.05103137E-09
  -10.7500000       1.01391329E-09
  -10.7399998       9.72846248E-10
  -10.7299995       9.27553589E-10
  -10.7200003       8.78184581E-10
  -10.7100000       8.25301105E-10
  -10.6999998       7.69812936E-10
  -10.6899996       7.12820691E-10
  -10.6800003       6.55444643E-10
  -10.6700001       5.98649075E-10
  -10.6599998       5.43075918E-10
  -10.6499996       4.88967700E-10
  -10.6400003       4.36156944E-10
  -10.6300001       3.84125343E-10
  -10.6199999       3.32131572E-10
  -10.6099997       2.79364754E-10
  -10.6000004       2.25098717E-10
  -10.5900002       1.68806288E-10
  -10.5799999       1.10234620E-10
  -10.5699997       4.94231808E-11
  -10.5600004      -1.33464871E-11
  -10.5500002      -7.76026951E-11
  -10.5400000      -1.42783341E-10
  -10.5299997      -2.08305248E-10
  -10.5200005      -2.73624318E-10
  -10.5100002      -3.38285872E-10
  -10.5000000      -4.01925354E-10
  -10.4899998      -4.64280947E-10
  -10.4799995      -5.25176624E-10
  -10.4700003      -5.84520599E-10
  -10.4600000      -6.42285447E-10
  -10.4499998      -6.98489599E-10
  -10.4399996      -7.53189511E-10
  -10.4300003      -8.06442468E-10
  -10.4200001      -8.58300153E-10
  -10.4099998      -9.08780939E-10
  -10.3999996      -9.57865010E-10
  -10.3900003      -1.00549502E-09
  -10.3800001      -1.05158526E-09
  -10.3699999      -1.09605025E-09
  -10.3599997      -1.13881182E-09
  -10.3500004      -1.17980958E-09
  -10.3400002      -1.21899402E-09
  -10.3299999      -1.25631305E-09
  -10.3199997      -1.29166855E-09
  -10.3100004      -1.32490996E-09
  -10.3000002      -1.35580736E-09
  -10.2900000      -1.38407885E-09
  -10.2799997      -1.40942724E-09
  -10.2700005      -1.43160339E-09
  -10.2600002      -1.45047574E-09
  -10.2500000      -1.46608015E-09
  -10.2399998      -1.47863854E-09
  -10.2299995      -1.48856016E-09
  -10.2200003      -1.49637325E-09
  -10.2100000      -1.50265034E-09
  -10.1999998      -1.50792845E-09
  -10.1899996      -1.51262358E-09
  -10.1800003      -1.51700175E-09
  -10.1700001      -1.52117885E-09
  -10.1599998      -1.52515445E-09
  -10.1499996      -1.52888746E-09
  -10.1400003      -1.53235247E-09
  -10.1300001      -1.53559188E-09
  -10.1199999      -1.53873281E-09
  -10.1099997      -1.54196456E-09
  -10.1000004      -1.54548674E-09
  -10.0900002      -1.54945379E-09
  -10.0799999      -1.55392621E-09
  -10.0699997      -1.55885505E-09
  -10.0600004      -1.56410263E-09
  -10.0500002      -1.56950442E-09
  -10.0400000      -1.57494995E-09
  -10.0299997      -1.58046143E-09
  -10.0200005      -1.58625280E-09
  -10.0100002      -1.59273361E-09
  -10.0000000      -1.60046998E-09
  -9.98999977      -1.61009728E-09
  -9.97999954      -1.62220726E-09
  -9.97000027      -1.63723612E-09
  -9.96000004      -1.65538105E-09
  -9.94999981      -1.67656189E-09
  -9.93999958      -1.70044190E-09
  -9.93000031      -1.72649184E-09
  -9.92000008      -1.75408921E-09
  -9.90999985      -1.78262516E-09
  -9.89999962      -1.81159054E-09
  -9.89000034      -1.84063431E-09
  -9.88000011      -1.86957871E-09
  -9.86999989      -1.89840410E-09
  -9.85999966      -1.92720973E-09
  -9.85000038      -1.95617633E-09
  -9.84000015      -1.98553085E-09
  -9.82999992      -2.01553285E-09
  -9.81999969      -2.04647654E-09
  -9.81000042      -2.07869477E-09
  -9.80000019      -2.11256190E-09
  -9.78999996      -2.14848384E-09
  -9.77999973      -2.18686669E-09
  -9.77000046      -2.22808128E-09
  -9.76000023      -2.27242314E-09
  -9.75000000      -2.32009545E-09
  -9.73999977      -2.37121478E-09
  -9.72999954      -2.42584330E-09
  -9.72000027      -2.48405074E-09
  -9.71000004      -2.54597854E-09
  -9.69999981      -2.61188271E-09
  -9.68999958      -2.68215672E-09
  -9.68000031      -2.75729262E-09
  -9.67000008      -2.83780976E-09
  -9.65999985      -2.92415736E-09
  -9.64999962      -3.01659853E-09
  -9.64000034      -3.11512460E-09
  -9.63000011      -3.21941762E-09
  -9.61999989      -3.32884320E-09
  -9.60999966      -3.44252049E-09
  -9.60000038      -3.55939833E-09
  -9.59000015      -3.67835495E-09
  -9.57999992      -3.79828480E-09
  -9.56999969      -3.91816135E-09
  -9.56000042      -4.03704536E-09
  -9.55000019      -4.15407930E-09
  -9.53999996      -4.26844826E-09
  -9.52999973      -4.37933600E-09
  -9.52000046      -4.48588100E-09
  -9.51000023      -4.58717153E-09
  -9.50000000      -4.68222305E-09
  -9.48999977      -4.77000928E-09
  -9.47999954      -4.84949592E-09
  -9.47000027      -4.91967045E-09
  -9.46000004      -4.97962560E-09
  -9.44999981      -5.02857533E-09
  -9.43999958      -5.06594189E-09
  -9.43000031      -5.09138376E-09
  -9.42000008      -5.10485787E-09
  -9.40999985      -5.10661691E-09
  -9.39999962      -5.09722753E-09
  -9.39000034      -5.07752329E-09
  -9.38000011      -5.04855180E-09
  -9.36999989      -5.01150188E-09
  -9.35999966      -4.96764674E-09
  -9.35000038      -4.91827556E-09
  -9.34000015      -4.86465490E-09
  -9.32999992      -4.80805173E-09
  -9.31999969      -4.74973039E-09
  -9.31000042      -4.69098715E-09
  -9.30000019      -4.63318539E-09
  -9.28999996      -4.57779370E-09
  -9.27999973      -4.52638504E-09
  -9.27000046      -4.48061011E-09
  -9.26000023      -4.44219461E-09
  -9.25000000      -4.41294157E-09
  -9.23999977      -4.39466641E-09
  -9.22999954      -4.38921743E-09
  -9.22000027      -4.39843939E-09
  -9.21000004      -4.42412640E-09
  -9.19999981      -4.46796022E-09
  -9.18999958      -4.53148763E-09
  -9.18000031      -4.61596450E-09
  -9.17000008      -4.72235007E-09
  -9.15999985      -4.85124430E-09
  -9.14999962      -5.00289721E-09
  -9.14000034      -5.17727061E-09
  -9.13000011      -5.37410383E-09
  -9.11999989      -5.59302560E-09
  -9.10999966      -5.83359583E-09
  -9.10000038      -6.09535977E-09
  -9.09000015      -6.37781161E-09
  -9.07999992      -6.68025502E-09
  -9.06999969      -7.00174851E-09
  -9.06000042      -7.34098693E-09
  -9.05000019      -7.69619568E-09
  -9.03999996      -8.06519651E-09
  -9.02999973      -8.44544434E-09
  -9.02000046      -8.83419027E-09
  -9.01000023      -9.22863919E-09
  -9.00000000      -9.62608482E-09
  -8.98999977      -1.00240030E-08
  -8.97999954      -1.04200693E-08
  -8.97000027      -1.08121103E-08
  -8.96000004      -1.11980345E-08
  -8.94999981      -1.15757022E-08
  -8.93999958      -1.19429151E-08
  -8.93000031      -1.22973836E-08
  -8.92000008      -1.26367237E-08
  -8.90999985      -1.29586093E-08
  -8.89999962      -1.32608236E-08
  -8.89000034      -1.35413192E-08
  -8.88000011      -1.37983065E-08
  -8.86999989      -1.40301761E-08
  -8.85999966      -1.42354732E-08
  -8.85000038      -1.44128673E-08
  -8.84000015      -1.45611452E-08
  -8.82999992      -1.46791113E-08
  -8.81999969      -1.47656971E-08
  -8.81000042      -1.48199817E-08
  -8.80000019      -1.48412873E-08
  -8.78999996      -1.48292507E-08
  -8.77999973      -1.47837902E-08
  -8.77000046      -1.47051704E-08
  -8.76000023      -1.45939039E-08
  -8.75000000      -1.44506700E-08
  -8.73999977      -1.42762113E-08
  -8.72999954      -1.40712411E-08
  -8.72000027      -1.38364262E-08
  -8.71000004      -1.35722686E-08
  -8.69999981      -1.32792364E-08
  -8.68999958      -1.29576838E-08
  -8.68000031      -1.26080080E-08
  -8.67000008      -1.22306867E-08
  -8.65999985      -1.18263657E-08
  -8.64999962      -1.13959464E-08
  -8.64000034      -1.09406306E-08
  -8.63000011      -1.04619780E-08
  -8.61999989      -9.96184291E-09
  -8.60999966      -9.44235801E-09
  -8.60000038      -8.90586804E-09
  -8.59000015      -8.35475511E-09
  -8.57999992      -7.79138887E-09
  -8.56999969      -7.21803906E-09
  -8.56000042      -6.63676225E-09
  -8.55000019      -6.04940142E-09
  -8.53999996      -5.45760059E-09
  -8.52999973      -4.86283147E-09
  -8.52000046      -4.26644897E-09
  -8.51000023      -3.66975161E-09
  -8.50000000      -3.07389847E-09
  -8.48999977      -2.47998488E-09
  -8.47999954      -1.88894744E-09
  -8.47000027      -1.30154887E-09
  -8.46000004      -7.18331949E-10
  -8.44999981      -1.39595099E-10
  -8.43999958       4.34444203E-10
  -8.43000031       1.00365660E-09
  -8.42000008       1.56791080E-09
  -8.40999985       2.12689311E-09
  -8.39999962       2.68018829E-09
  -8.39000034       3.22720228E-09
  -8.38000011       3.76722875E-09
  -8.36999989       4.29951363E-09
  -8.35999966       4.82332707E-09
  -8.35000038       5.33803313E-09
  -8.34000015       5.84315174E-09
  -8.32999992       6.33826991E-09
  -8.31999969       6.82309986E-09
  -8.31000042       7.29727834E-09
  -8.30000019       7.76041276E-09
  -8.28999996       8.21193780E-09
  -8.27999973       8.65115091E-09
  -8.27000046       9.07721098E-09
  -8.26000023       9.48918988E-09
  -8.25000000       9.88615412E-09
  -8.23999977       1.02672306E-08
  -8.22999954       1.06315987E-08
  -8.22000027       1.09786322E-08
  -8.21000004       1.13078009E-08
  -8.19999981       1.16187140E-08
  -8.18999958       1.19110313E-08
  -8.18000031       1.21844677E-08
  -8.17000008       1.24387229E-08
  -8.15999985       1.26734312E-08
  -8.14999962       1.28881403E-08
  -8.14000034       1.30822944E-08
  -8.13000011       1.32551605E-08
  -8.11999989       1.34058284E-08
  -8.10999966       1.35331675E-08
  -8.10000038       1.36358578E-08
  -8.09000015       1.37123548E-08
  -8.07999992       1.37609915E-08
  -8.06999969       1.37800678E-08
  -8.06000042       1.37679415E-08
  -8.05000019       1.37231941E-08
  -8.03999996       1.36447484E-08
  -8.02999973       1.35319622E-08
  -8.02000046       1.33846809E-08
  -8.01000023       1.32031914E-08
  -8.00000000       1.29881368E-08
  -7.98999977       1.27403368E-08
  -7.98000002       1.24606245E-08
  -7.96999979       1.21496964E-08
  -7.96000004       1.18079955E-08
  -7.94999981       1.14356995E-08
  -7.94000006       1.10327436E-08
  -7.92999983       1.05989715E-08
  -7.92000008       1.01342632E-08
  -7.90999985       9.63867208E-09
  -7.90000010       9.11253384E-09
  -7.88999987       8.55654481E-09
  -7.88000011       7.97171218E-09
  -7.86999989       7.35935490E-09
  -7.86000013       6.72100953E-09
  -7.84999990       6.05841066E-09
  -7.84000015       5.37343725E-09
  -7.82999992       4.66812233E-09
  -7.82000017       3.94466015E-09
  -7.80999994       3.20540483E-09
  -7.80000019       2.45284637E-09
  -7.78999996       1.68955583E-09
  -7.78000021       9.18110643E-10
  -7.76999998       1.41007012E-10
  -7.76000023      -6.39404807E-10
  -7.75000000      -1.42094481E-09
  -7.73999977      -2.20158980E-09
  -7.73000002      -2.97942648E-09
  -7.71999979      -3.75258269E-09
  -7.71000004      -4.51919613E-09
  -7.69999981      -5.27741939E-09
  -7.69000006      -6.02549832E-09
  -7.67999983      -6.76180933E-09
  -7.67000008      -7.48498952E-09
  -7.65999985      -8.19395929E-09
  -7.65000010      -8.88792329E-09
  -7.63999987      -9.56628643E-09
  -7.63000011      -1.02285247E-08
  -7.61999989      -1.08740297E-08
  -7.61000013      -1.15020491E-08
  -7.59999990      -1.21116397E-08
  -7.59000015      -1.27017357E-08
  -7.57999992      -1.32713263E-08
  -7.57000017      -1.38196006E-08
  -7.55999994      -1.43460808E-08
  -7.55000019      -1.48507144E-08
  -7.53999996      -1.53338053E-08
  -7.53000021      -1.57959263E-08
  -7.51999998      -1.62377543E-08
  -7.51000023      -1.66599552E-08
  -7.50000000      -1.70631100E-08
  -7.48999977      -1.74477890E-08
  -7.48000002      -1.78146955E-08
  -7.46999979      -1.81648314E-08
  -7.46000004      -1.84997031E-08
  -7.44999981      -1.88212859E-08
  -7.44000006      -1.91320417E-08