  -16.0000000       0.00000000    
  -15.9899998       0.00000000    
  -15.9799995       0.00000000    
  -15.9700003       0.00000000    
  -15.9600000       0.00000000    
  -15.9499998       0.00000000    
  -15.9399996       0.00000000    
  -15.9300003       0.00000000    
  -15.9200001       0.00000000    
  -15.9099998       0.00000000    
  -15.8999996       0.00000000    
  -15.8900003       0.00000000    
  -15.8800001       0.00000000    
  -15.8699999       0.00000000    
  -15.8599997       0.00000000    
  -15.8500004       1.40129846E-44
  -15.8400002       1.62550622E-43
  -15.8299999       1.42091664E-42
  -15.8199997       9.98425156E-42
  -15.8100004       5.86415381E-41
  -15.8000002       2.96207871E-40
  -15.7900000       1.31340202E-39
  -15.7799997       5.19092939E-39
  -15.7700005       1.85027015E-38
  -15.7600002       6.00260266E-38
  -15.7500000       1.78515144E-37
  -15.7399998       4.89414811E-37
  -15.7299995       1.24224414E-36
  -15.7200003       2.92826968E-36
  -15.7100000       6.42296456E-36
  -15.6999998       1.31188154E-35
  -15.6899996       2.49328924E-35
  -15.6800003       4.39764232E-35
  -15.6700001       7.15880824E-35
  -15.6599998       1.06444974E-34
  -15.6499996       1.41706567E-34
  -15.6400003       1.61753223E-34
  -15.6300001       1.40087484E-34
  -15.6199999       4.11542610E-35
  -15.6099997      -1.70410991E-34
  -15.6000004      -5.10328612E-34
  -15.5900002      -9.45633043E-34
  -15.5799999      -1.36335231E-33
  -15.5699997      -1.55322587E-33
  -15.5600004      -1.22849353E-33
  -15.5500002      -1.08767057E-34
  -15.5400000       1.92625082E-33
  -15.5299997       4.63851724E-33
  -15.5200005       7.26557556E-33
  -15.5100002       8.51003617E-33
  -15.5000000       6.81739557E-33
  -15.4899998       1.00863807E-33
  -15.4799995      -8.82882656E-33
  -15.4700003      -2.05214527E-32
  -15.4600000      -2.95983189E-32
  -15.4499998      -3.02501452E-32
  -15.4399996      -1.77008055E-32
  -15.4300003       8.48631543E-33
  -15.4200001       4.15916526E-32
  -15.4099998       6.75439289E-32
  -15.3999996       6.92773599E-32
  -15.3900003       3.59085283E-32
  -15.3800001      -2.60998420E-32
  -15.3699999      -8.61033802E-32
  -15.3599997      -9.48147337E-32
  -15.3500004      -7.68854708E-33
  -15.3400002       1.76754066E-31
  -15.3299999       3.79384148E-31
  -15.3199997       4.31201844E-31
  -15.3100004       1.21718631E-31
  -15.3000002      -6.82381806E-31
  -15.2900000      -1.87352434E-30
  -15.2799997      -2.96897824E-30
  -15.2700005      -3.11716840E-30
  -15.2600002      -1.34711521E-30
  -15.2500000       2.91595367E-30
  -15.2399998       9.19379522E-30
  -15.2299995       1.54516908E-29
  -15.2200003       1.81450015E-29
  -15.2100000       1.31440822E-29
  -15.1999998      -2.43247529E-30
  -15.1899996      -2.79308201E-29
  -15.1800003      -5.73679581E-29
  -15.1700001      -7.93027534E-29
  -15.1599998      -7.92454871E-29
  -15.1499996      -4.45886004E-29
  -15.1400003       2.91942482E-29
  -15.1300001       1.33354146E-28
  -15.1199999       2.44103700E-28
  -15.1099997       3.25628218E-28
  -15.1000004       3.37223472E-28
  -15.0900002       2.42096183E-28
  -15.0799999       1.51825827E-29
  -15.0699997      -3.50340812E-28
  -15.0600004      -8.34212126E-28
  -15.0500002      -1.37176344E-27
  -15.0400000      -1.82530299E-27
  -15.0299997      -1.95369993E-27
  -15.0200005      -1.40897770E-27
  -15.0100002       1.94680979E-28
  -15.0000000       3.09720311E-27
  -14.9899998       7.09191192E-27
  -14.9799995       1.11877086E-26
  -14.9700003       1.34187875E-26
  -14.9600000       1.10616927E-26
  -14.9499998       1.49118313E-27
  -14.9399996      -1.62912581E-26
  -14.9300003      -3.97981066E-26
  -14.9200001      -6.16681227E-26
  -14.9099998      -6.98854588E-26
  -14.8999996      -5.06615810E-26
  -14.8900003       5.69479381E-27
  -14.8800001       9.70053442E-26
  -14.8699999       2.02384052E-25
  -14.8599997       2.80521009E-25
  -14.8500004       2.77241985E-25
  -14.8400002       1.44247531E-25
  -14.8299999      -1.33672789E-25
  -14.8199997      -5.11593258E-25
  -14.8100004      -8.71169765E-25
  -14.8000002      -1.03557794E-24
  -14.7900000      -8.21185911E-25
  -14.7799997      -1.20998875E-25
  -14.7700005       1.00336047E-24
  -14.7600002       2.26088462E-24
  -14.7500000       3.14708741E-24
  -14.7399998       3.06859733E-24
  -14.7299995       1.57281657E-24
  -14.7200003      -1.37251010E-24
  -14.7100000      -5.15568840E-24
  -14.6999998      -8.48416117E-24
  -14.6899996      -9.64084188E-24
  -14.6800003      -7.05514358E-24
  -14.6700001      -7.63747457E-26
  -14.6599998       1.03056394E-23
  -14.6499996       2.11376163E-23
  -14.6400003       2.78971098E-23
  -14.6300001       2.57445640E-23
  -14.6199999       1.14585510E-23
  -14.6099997      -1.44868483E-23
  -14.6000004      -4.65243940E-23
  -14.5900002      -7.41331468E-23
  -14.5799999      -8.40626589E-23
  -14.5699997      -6.45371335E-23
  -14.5600004      -1.04930949E-23
  -14.5500002       7.18351003E-23
  -14.5400000       1.62983295E-22
  -14.5299997       2.32593909E-22
  -14.5200005       2.46524839E-22
  -14.5100002       1.77626182E-22
  -14.5000000       1.74452850E-23
  -14.4899998      -2.14847618E-22
  -14.4799995      -4.69940723E-22
  -14.4700003      -6.74502580E-22
  -14.4600000      -7.45897193E-22
  -14.4499998      -6.12972893E-22
  -14.4399996      -2.38575519E-22
  -14.4300003       3.61093822E-22
  -14.4200001       1.10445262E-21
  -14.4099998       1.84264458E-21
  -14.3999996       2.36982237E-21
  -14.3900003       2.44767630E-21
  -14.3800001       1.84736573E-21
  -14.3699999       4.11919461E-22
  -14.3599997      -1.86147828E-21
  -14.3500004      -4.72966769E-21
  -14.3400002      -7.62809482E-21
  -14.3299999      -9.65483595E-21
  -14.3199997      -9.66729052E-21
  -14.3100004      -6.53524908E-21
  -14.3000002       4.43110819E-22
  -14.2900000       1.10238546E-20
  -14.2799997       2.35447979E-20
  -14.2700005       3.47182599E-20
  -14.2600002       3.99306060E-20
  -14.2500000       3.42202325E-20
  -14.2399998       1.39242107E-20
  -14.2299995      -2.12911960E-20
  -14.2200003      -6.66039755E-20
  -14.2100000      -1.11216514E-19
  -14.1999998      -1.39351357E-19
  -14.1899996      -1.33555095E-19
  -14.1800003      -8.01534718E-20
  -14.1700001       2.41785879E-20
  -14.1599998       1.66643134E-19
  -14.1499996       3.15780025E-19
  -14.1400003       4.24441132E-19
  -14.1300001       4.39495277E-19
  -14.1199999       3.17549002E-19
  -14.1099997       4.35554440E-20
  -14.1000004      -3.53036369E-19
  -14.0900002      -7.91077332E-19
  -14.0799999      -1.14522132E-18
  -14.0699997      -1.27091638E-18
  -14.0600004      -1.04468186E-18
  -14.0500002      -4.11553271E-19
  -14.0400000       5.73531675E-19
  -14.0299997       1.72597863E-18
  -14.0200005       2.74687160E-18
  -14.0100002       3.27962617E-18
  -14.0000000       3.00274689E-18
  -13.9899998       1.74029185E-18
  -13.9799995      -4.39420365E-19
  -13.9700003      -3.17107732E-18
  -13.9600000      -5.81517525E-18
  -13.9499998      -7.57054804E-18
  -13.9399996      -7.66702874E-18
  -13.9300003      -5.60158894E-18
  -13.9200001      -1.35862151E-18
  -13.9099998       4.45526385E-18
  -13.8999996       1.06233532E-17
  -13.8900003       1.55107035E-17
  -13.8800001       1.74236481E-17
  -13.8699999       1.50730770E-17
  -13.8599997       8.03323814E-18
  -13.8500004      -2.93516644E-18
  -13.8400002      -1.58189689E-17
  -13.8299999      -2.76181280E-17
  -13.8199997      -3.49404002E-17
  -13.8100004      -3.48305374E-17
  -13.8000002      -2.56556668E-17
  -13.7900000      -7.81791558E-18
  -13.7799997       1.59318626E-17
  -13.7700005       4.07406337E-17
  -13.7600002       6.05013201E-17
  -13.7500000       6.91906804E-17
  -13.7399998       6.24354934E-17
  -13.7299995       3.89387829E-17
  -13.7200003       1.37055566E-18
  -13.7100000      -4.35999721E-17
  -13.6999998      -8.62858699E-17
  -13.6899996      -1.15894979E-16
  -13.6800003      -1.23037319E-16
  -13.6700001      -1.02283325E-16
  -13.6599998      -5.41296306E-17
  -13.6499996       1.42183794E-17
  -13.6400003       8.96251782E-17
  -13.6300001       1.55397353E-16
  -13.6199999       1.94876129E-16
  -13.6099997       1.95507844E-16
  -13.6000004       1.52419450E-16
  -13.5900002       7.05204162E-17
  -13.5799999      -3.55974265E-17
  -13.5699997      -1.44206234E-16
  -13.5600004      -2.31065162E-16
  -13.5500002      -2.75147112E-16
  -13.5400000      -2.64079038E-16
  -13.5299997      -1.97814672E-16
  -13.5200005      -8.93698242E-17
  -13.5100002       3.78653043E-17
  -13.5000000       1.55807237E-16
  -13.4899998       2.39011469E-16
  -13.4799995       2.71670465E-16
  -13.4700003       2.52157553E-16
  -13.4600000       1.93481688E-16
  -13.4499998       1.19084296E-16
  -13.4399996       5.48100793E-17
  -13.4300003       1.92467905E-17
  -13.4200001       1.55178388E-17
  -13.4099998       2.76586714E-17
  -13.3999996       2.37490899E-17
  -13.3900003      -3.38788066E-17
  -13.3800001      -1.73365357E-16
  -13.3699999      -3.97151435E-16
  -13.3599997      -6.70351404E-16
  -13.3500004      -9.18926563E-16
  -13.3400002      -1.04101344E-15
  -13.3299999      -9.31379641E-16
  -13.3199997      -5.14853148E-16
  -13.3100004       2.19233488E-16
  -13.3000002       1.19180246E-15
  -13.2900000       2.22795542E-15
  -13.2799997       3.07682643E-15
  -13.2700005       3.45830021E-15
  -13.2600002       3.13020920E-15
  -13.2500000       1.96259228E-15
  -13.2399998       7.56888200E-19
  -13.2299995      -2.50196232E-15
  -13.2200003      -5.09683145E-15
  -13.2100000      -7.20407451E-15
  -13.1999998      -8.22341683E-15
  -13.1899996      -7.67260401E-15
  -13.1800003      -5.32545369E-15
  -13.1700001      -1.31611577E-15
  -13.1599998       3.82137940E-15
  -13.1499996       9.19887437E-15
  -13.1400003       1.37089292E-14
  -13.1300001       1.62322514E-14
  -13.1199999       1.58819220E-14
  -13.1099997       1.22347650E-14
  -13.1000004       5.49606306E-15
  -13.0900002      -3.44883864E-15
  -13.0799999      -1.31232314E-14
  -13.0699997      -2.16876857E-14
  -13.0600004      -2.72769190E-14
  -13.0500002      -2.83852972E-14
  -13.0400000      -2.42233279E-14
  -13.0299997      -1.49645599E-14
  -13.0200005      -1.81715333E-15
  -13.0100002       1.31144883E-14
  -13.0000000       2.71702437E-14
  -12.9899998       3.76238855E-14
  -12.9799995       4.22304132E-14
  -12.9700003       3.97179644E-14
  -12.9600000       3.01128514E-14
  -12.9499998       1.48131781E-14
  -12.9399996      -3.62436123E-15
  -12.9300003      -2.19581874E-14
  -12.9200001      -3.69080309E-14
  -12.9099998      -4.58389532E-14
  -12.8999996      -4.73290671E-14
  -12.8900003      -4.14827779E-14
  -12.8800001      -2.99010728E-14
  -12.8699999      -1.52967543E-14
  -12.8599997      -8.28448409E-16
  -12.8500004       1.06972104E-14
  -12.8400002       1.75604939E-14
  -12.8299999       1.96049147E-14
  -12.8199997       1.83081343E-14
  -12.8100004       1.63917037E-14
  -12.8000002       1.70287826E-14
  -12.7900000       2.28211377E-14
  -12.7799997       3.47967775E-14
  -12.7700005       5.17049477E-14
  -12.7600002       6.98411530E-14
  -12.7500000       8.35273081E-14
  -12.7399998       8.62203240E-14
  -12.7299995       7.20589698E-14
  -12.7200003       3.75255687E-14
  -12.7100000      -1.71686294E-14
  -12.6999998      -8.73448585E-14
  -12.6899996      -1.64020422E-13
  -12.6800003      -2.35043620E-13
  -12.6700001      -2.87046672E-13
  -12.6599998      -3.07862188E-13
  -12.6499996      -2.88913045E-13
  -12.6400003      -2.27060992E-13
  -12.6300001      -1.25494789E-13
  -12.6199999       6.56070979E-15
  -12.6099997       1.55267848E-13
  -12.6000004       3.04420904E-13
  -12.5900002       4.38002878E-13
  -12.5799999       5.42468739E-13
  -12.5699997       6.08238557E-13
  -12.5600004       6.30089405E-13
  -12.5500002       6.06433686E-13
  -12.5400000       5.37785311E-13
  -12.5299997       4.24963558E-13
  -12.5200005       2.67700602E-13
  -12.5100002       6.42516503E-14
  -12.5000000      -1.87624046E-13
  -12.4899998      -4.88303950E-13
  -12.4799995      -8.32950137E-13
  -12.4700003      -1.20788969E-12
  -12.4600000      -1.58763410E-12
  -12.4499998      -1.93341328E-12
  -12.4399996      -2.19386792E-12
  -12.4300003      -2.30812700E-12
  -12.4200001      -2.21101544E-12
  -12.4099998      -1.83967511E-12
  -12.3999996      -1.14059532E-12
  -12.3900003      -7.59210064E-14
  -12.3800001       1.37189359E-12
  -12.3699999       3.19774979E-12
  -12.3599997       5.37398815E-12
  -12.3500004       7.85261786E-12
  -12.3400002       1.05689901E-11
  -12.3299999       1.34460897E-11
  -12.3199997       1.63985978E-11
  -12.3100004       1.93361351E-11
  -12.3000002       2.21654674E-11
  -12.2900000       2.47916878E-11
  -12.2799997       2.71188905E-11
  -12.2700005       2.90506993E-11
  -12.2600002       3.04912866E-11
  -12.2500000       3.13471783E-11
  -12.2399998       3.15299245E-11
  -12.2299995       3.09595335E-11
  -12.2200003       2.95684172E-11
  -12.2100000       2.73052657E-11
  -12.1999998       2.41386997E-11
  -12.1899996       2.00601463E-11
  -12.1800003       1.50858510E-11
  -12.1700001       9.25774821E-12
  -12.1599998       2.64319100E-12
  -12.1499996      -4.66675093E-12
  -12.1400003      -1.25603885E-11
  -12.1300001      -2.09100601E-11
  -12.1199999      -2.95781767E-11
  -12.1099997      -3.84241944E-11
  -12.1000004      -4.73120015E-11
  -12.0900002      -5.61167224E-11
  -12.0799999      -6.47298048E-11
  -12.0699997      -7.30616054E-11
  -12.0600004      -8.10406256E-11
  -12.0500002      -8.86093213E-11
  -12.0400000      -9.57172674E-11
  -12.0299997      -1.02312575E-10
  -12.0200005      -1.08333481E-10
  -12.0100002      -1.13701562E-10
  -12.0000000      -1.18318383E-10
  -11.9899998      -1.22065857E-10
  -11.9799995      -1.24810925E-10
  -11.9700003      -1.26413172E-10
  -11.9600000      -1.26734304E-10
  -11.9499998      -1.25647132E-10
  -11.9399996      -1.23043159E-10
  -11.9300003      -1.18837176E-10
  -11.9200001      -1.12968863E-10
  -11.9099998      -1.05401944E-10
  -11.8999996      -9.61218397E-11
  -11.8900003      -8.51334628E-11
  -11.8800001      -7.24599755E-11
  -11.8699999      -5.81436184E-11
  -11.8599997      -4.22477123E-11
  -11.8500004      -2.48597740E-11
  -11.8400002      -6.09412997E-12
  -11.8299999       1.39067169E-11
  -11.8199997       3.49733575E-11
  -11.8100004       5.69132623E-11
  -11.8000002       7.95166988E-11
  -11.7900000       1.02563805E-10
  -11.7799997       1.25831678E-10
  -11.7700005       1.49100565E-10
  -11.7600002       1.72158413E-10
  -11.7500000       1.94803965E-10
  -11.7399998       2.16848067E-10
  -11.7299995       2.38114861E-10
  -11.7200003       2.58442018E-10
  -11.7100000       2.77680129E-10
  -11.6999998       2.95692193E-10
  -11.6899996       3.12350090E-10
  -11.6800003       3.27529670E-10
  -11.6700001       3.41103507E-10
  -11.6599998       3.52931823E-10
  -11.6499996       3.62854718E-10
  -11.6400003       3.70686981E-10
  -11.6300001       3.76218667E-10
  -11.6199999       3.79222709E-10
  -11.6099997       3.79470039E-10
  -11.6000004       3.76750270E-10
  -11.5900002       3.70894232E-10
  -11.5799999       3.61793567E-10
  -11.5699997       3.49412194E-10
  -11.5600004       3.33786554E-10
  -11.5500002       3.15012794E-10
  -11.5400000       2.93222474E-10
  -11.5299997       2.68552069E-10
  -11.5200005       2.41112130E-10
  -11.5100002       2.10964399E-10
  -11.5000000       1.78110707E-10
  -11.4899998       1.42499443E-10
  -11.4799995       1.04046834E-10
  -11.4700003       6.26697375E-11
  -11.4600000       1.83229942E-11
  -11.4499998      -2.89674361E-11
  -11.4399996      -7.90836494E-11
  -11.4300003      -1.31809633E-10
  -11.4200001      -1.86844179E-10
  -11.4099998      -2.43828430E-10
  -11.3999996      -3.02381065E-10
  -11.3900003      -3.62135683E-10
  -11.3800001      -4.22770707E-10
  -11.3699999      -4.84027873E-10
  -11.3599997      -5.45715140E-10
  -11.3500004      -6.07696893E-10
  -11.3400002      -6.69873268E-10
  -11.3299999      -7.32157113E-10
  -11.3199997      -7.94452115E-10
  -11.3100004      -8.56639037E-10
  -11.3000002      -9.18572107E-10
  -11.2900000      -9.80085013E-10
  -11.2799997      -1.04100573E-09
  -11.2700005      -1.10117415E-09
  -11.2600002      -1.16045873E-09
  -11.2500000      -1.21876831E-09
  -11.2399998      -1.27605626E-09
  -11.2299995      -1.33231548E-09
  -11.2200003      -1.38756340E-09
  -11.2100000      -1.44182521E-09
  -11.1999998      -1.49511292E-09
  -11.1899996      -1.54740654E-09
  -11.1800003      -1.59864255E-09
  -11.1700001      -1.64870761E-09
  -11.1599998      -1.69744607E-09
  -11.1499996      -1.74467185E-09
  -11.1400003      -1.79019000E-09
  -11.1300001      -1.83381887E-09
  -11.1199999      -1.87541449E-09
  -11.1099997      -1.91488803E-09
  -11.1000004      -1.95221328E-09
  -11.0900002      -1.98742911E-09
  -11.0799999      -2.02062500E-09
  -11.0699997      -2.05192263E-09
  -11.0600004      -2.08144968E-09
  -11.0500002      -2.10931073E-09
  -11.0400000      -2.13556861E-09
  -11.0299997      -2.16022222E-09
  -11.0200005      -2.18319829E-09
  -11.0100002      -2.20435514E-09
  -11.0000000      -2.22349184E-09
  -10.9899998      -2.24036567E-09
  -10.9799995      -2.25471797E-09
  -10.9700003      -2.26629648E-09
  -10.9600000      -2.27488917E-09
  -10.9499998      -2.28034747E-09
  -10.9399996      -2.28260810E-09
  -10.9300003      -2.28170571E-09
  -10.9200001      -2.27777819E-09
  -10.9099998      -2.27105157E-09
  -10.8999996      -2.26181363E-09
  -10.8900003      -2.25038344E-09
  -10.8800001      -2.23704744E-09
  -10.8699999      -2.22202723E-09
  -10.8599997      -2.20542429E-09
  -10.8500004      -2.18719709E-09
  -10.8400002      -2.16716689E-09
  -10.8299999      -2.14503282E-09
  -10.8199997      -2.12042117E-09
  -10.8100004      -2.09294182E-09
  -10.8000002      -2.06225415E-09
  -10.7900000      -2.02811656E-09
  -10.7799997      -1.99042027E-09
  -10.7700005      -1.94919503E-09
  -10.7600002      -1.90459293E-09
  -10.7500000      -1.85685123E-09
  -10.7399998      -1.80624848E-09
  -10.7299995      -1.75306158E-09
  -10.7200003      -1.69753656E-09
  -10.7100000      -1.63987757E-09
  -10.6999998      -1.58024405E-09
  -10.6899996      -1.51877022E-09
  -10.6800003      -1.45557810E-09
  -10.6700001      -1.39079170E-09
  -10.6599998      -1.32453859E-09
  -10.6499996      -1.25695720E-09
  -10.6400003      -1.18818766E-09
  -10.6300001      -1.11836584E-09
  -10.6199999      -1.04762110E-09
  -10.6099997      -9.76086989E-10
  -10.6000004      -9.03904118E-10
  -10.5900002      -8.31225422E-10
  -10.5799999      -7.58219765E-10
  -10.5699997      -6.85063950E-10
  -10.5600004      -6.11919848E-10
  -10.5500002      -5.38918299E-10
  -10.5400000      -4.66138461E-10
  -10.5299997      -3.93601957E-10
  -10.5200005      -3.21285054E-10
  -10.5100002      -2.49152227E-10
  -10.5000000      -1.77190318E-10
  -10.4899998      -1.05458933E-10
  -10.4799995      -3.41121090E-11
  -10.4700003       3.65838089E-11
  -10.4600000       1.06281449E-10
  -10.4499998       1.74592618E-10
  -10.4399996       2.41142967E-10
  -10.4300003       3.05626524E-10
  -10.4200001       3.67845504E-10
  -10.4099998       4.27706259E-10
  -10.3999996       4.85198770E-10
  -10.3900003       5.40351819E-10
  -10.3800001       5.93176230E-10
  -10.3699999       6.43612885E-10
  -10.3599997       6.91522839E-10
  -10.3500004       7.36690819E-10
  -10.3400002       7.78858700E-10
  -10.3299999       8.17780843E-10
  -10.3199997       8.53270288E-10
  -10.3100004       8.85232720E-10
  -10.3000002       9.13676745E-10
  -10.2900000       9.38693123E-10
  -10.2799997       9.60418856E-10
  -10.2700005       9.78995218E-10
  -10.2600002       9.94539451E-10
  -10.2500000       1.00713515E-09
  -10.2399998       1.01684872E-09
  -10.2299995       1.02375775E-09
  -10.2200003       1.02799269E-09
  -10.2100000       1.02976350E-09
  -10.1999998       1.02937314E-09
  -10.1899996       1.02719888E-09
  -10.1800003       1.02366271E-09
  -10.1700001       1.01918152E-09
  -10.1599998       1.01412911E-09
  -10.1499996       1.00880415E-09
  -10.1400003       1.00341835E-09
  -10.1300001       9.98104266E-10
  -10.1199999       9.92927518E-10
  -10.1099997       9.87907978E-10
  -10.1000004       9.83030102E-10
  -10.0900002       9.78247816E-10
  -10.0799999       9.73483849E-10
  -10.0699997       9.68631175E-10
  -10.0600004       9.63561009E-10
  -10.0500002       9.58149449E-10
  -10.0400000       9.52315893E-10
  -10.0299997       9.46066891E-10
  -10.0200005       9.39529676E-10
  -10.0100002       9.32969590E-10
  -10.0000000       9.26774102E-10
  -9.98999977       9.21406951E-10
  -9.97999954       9.17342813E-10
  -9.97000027       9.14991916E-10
  -9.96000004       9.14642806E-10
  -9.94999981       9.16433651E-10
  -9.93999958       9.20364895E-10
  -9.93000031       9.26340615E-10
  -9.92000008       9.34237798E-10
  -9.90999985       9.43973233E-10
  -9.89999962       9.55550972E-10
  -9.89000034       9.69074154E-10
  -9.88000011       9.84720749E-10
  -9.86999989       1.00268904E-09
  -9.85999966       1.02313180E-09
  -9.85000038       1.04610143E-09
  -9.84000015       1.07152609E-09
  -9.82999992       1.09922349E-09
  -9.81999969       1.12895182E-09
  -9.81000042       1.16048582E-09
  -9.80000019       1.19369004E-09
  -9.78999996       1.22857424E-09
  -9.77999973       1.26531119E-09
  -9.77000046       1.30421374E-09
  -9.76000023       1.34567657E-09
  -9.75000000       1.39010248E-09
  -9.73999977       1.43783163E-09
  -9.72999954       1.48909574E-09
  -9.72000027       1.54400659E-09
  -9.71000004       1.60257629E-09
  -9.69999981       1.66476333E-09
  -9.68999958       1.73052150E-09
  -9.68000031       1.79983628E-09
  -9.67000008       1.87273752E-09
  -9.65999985       1.94927563E-09
  -9.64999962       2.02948325E-09
  -9.64000034       2.11332285E-09
  -9.63000011       2.20064345E-09
  -9.61999989       2.29116104E-09
  -9.60999966       2.38446218E-09
  -9.60000038       2.48003285E-09
  -9.59000015       2.57729282E-09
  -9.57999992       2.67562372E-09
  -9.56999969       2.77437340E-09
  -9.56000042       2.87283353E-09
  -9.55000019       2.97019698E-09
  -9.53999996       3.06550429E-09
  -9.52999973       3.15760751E-09
  -9.52000046       3.24516525E-09
  -9.51000023       3.32667893E-09
  -9.50000000       3.40056983E-09
  -9.48999977       3.46527962E-09
  -9.47999954       3.51937635E-09
  -9.47000027       3.56163499E-09
  -9.46000004       3.59108276E-09
  -9.44999981       3.60699626E-09
  -9.43999958       3.60886965E-09
  -9.43000031       3.59636165E-09
  -9.42000008       3.56926377E-09
  -9.40999985       3.52748875E-09
  -9.39999962       3.47109896E-09
  -9.39000034       3.40037110E-09
  -9.38000011       3.31586825E-09
  -9.36999989       3.21848925E-09
  -9.35999966       3.10950266E-09
  -9.35000038       2.99051250E-09
  -9.34000015       2.86338908E-09
  -9.32999992       2.73019074E-09
  -9.31999969       2.59306687E-09
  -9.31000042       2.45422038E-09
  -9.30000019       2.31588282E-09
  -9.28999996       2.18035434E-09
  -9.27999973       2.05005812E-09
  -9.27000046       1.92758032E-09
  -9.26000023       1.81566562E-09
  -9.25000000       1.71718761E-09
  -9.23999977       1.63503300E-09
  -9.22999954       1.57197289E-09
  -9.22000027       1.53052959E-09
  -9.21000004       1.51287594E-09
  -9.19999981       1.52079715E-09
  -9.18999958       1.55571733E-09
  -9.18000031       1.61875613E-09
  -9.17000008       1.71081105E-09
  -9.15999985       1.83261295E-09
  -9.14999962       1.98471484E-09
  -9.14000034       2.16742357E-09
  -9.13000011       2.38070474E-09
  -9.11999989       2.62404276E-09
  -9.10999966       2.89635960E-09
  -9.10000038       3.19600479E-09
  -9.09000015       3.52079788E-09
  -9.07999992       3.86816534E-09
  -9.06999969       4.23530411E-09
  -9.06000042       4.61933247E-09
  -9.05000019       5.01738695E-09
  -9.03999996       5.42664225E-09
  -9.02999973       5.84426818E-09
  -9.02000046       6.26732977E-09
  -9.01000023       6.69271127E-09
  -9.00000000       7.11706294E-09
  -8.98999977       7.53681384E-09
  -8.97999954       7.94828825E-09
  -8.97000027       8.34782288E-09
  -8.96000004       8.73194228E-09
  -8.94999981       9.09744369E-09
  -8.93999958       9.44144762E-09
  -8.93000031       9.76136239E-09
  -8.92000008       1.00547828E-08
  -8.90999985       1.03194129E-08
  -8.89999962       1.05529718E-08
  -8.89000034       1.07531806E-08
  -8.88000011       1.09178098E-08
  -8.86999989       1.10447989E-08
  -8.85999966       1.11323324E-08
  -8.85000038       1.11789555E-08
  -8.84000015       1.11836025E-08
  -8.82999992       1.11455574E-08
  -8.81999969       1.10643708E-08
  -8.81000042       1.09397691E-08
  -8.80000019       1.07715632E-08
  -8.78999996       1.05596545E-08
  -8.77999973       1.03040456E-08
  -8.77000046       1.00049560E-08
  -8.76000023       9.66288916E-09
  -8.75000000       9.27869959E-09
  -8.73999977       8.85360052E-09
  -8.72999954       8.38906100E-09
  -8.72000027       7.88668952E-09
  -8.71000004       7.34809102E-09
  -8.69999981       6.77475764E-09
  -8.68999958       6.16801010E-09
  -8.68000031       5.52906210E-09
  -8.67000008       4.85910601E-09
  -8.65999985       4.15945633E-09
  -8.64999962       3.43169027E-09
  -8.64000034       2.67767986E-09
  -8.63000011       1.89960359E-09
  -8.61999989       1.09981013E-09
  -8.60999966       2.80695689E-10
  -8.60000038      -5.55430202E-10
  -8.59000015      -1.40646428E-09
  -8.57999992      -2.27044650E-09
  -8.56999969      -3.14555537E-09
  -8.56000042      -4.02996569E-09
  -8.55000019      -4.92172969E-09
  -8.53999996      -5.81871840E-09
  -8.52999973      -6.71861322E-09
  -8.52000046      -7.61902186E-09
  -8.51000023      -8.51762039E-09
  -8.50000000      -9.41235445E-09
  -8.48999977      -1.03015072E-08
  -8.47999954      -1.11838556E-08
  -8.47000027      -1.20585844E-08
  -8.46000004      -1.29251836E-08
  -8.44999981      -1.37833460E-08
  -8.43999958      -1.46328079E-08
  -8.43000031      -1.54732760E-08
  -8.42000008      -1.63043676E-08
  -8.40999985      -1.71256680E-08
  -8.39999962      -1.79367969E-08
  -8.39000034      -1.87374649E-08
  -8.38000011      -1.95274907E-08
  -8.36999989      -2.03068122E-08
  -8.35999966      -2.10753601E-08
  -8.35000038      -2.18329799E-08
  -8.34000015      -2.25793446E-08
  -8.32999992      -2.33138664E-08
  -8.31999969      -2.40357174E-08
  -8.31000042      -2.47439029E-08
  -8.30000019      -2.54373234E-08
  -8.28999996      -2.61149466E-08
  -8.27999973      -2.67758207E-08
  -8.27000046      -2.74191141E-08
  -8.26000023      -2.80441181E-08
  -8.25000000      -2.86501081E-08
  -8.23999977      -2.92362987E-08
  -8.22999954      -2.98017202E-08
  -8.22000027      -3.03452516E-08
  -8.21000004      -3.08655785E-08
  -8.19999981      -3.13613278E-08
  -8.18999958      -3.18311280E-08
  -8.18000031      -3.22737321E-08
  -8.17000008      -3.26880318E-08
  -8.15999985      -3.30730821E-08
  -8.14999962      -3.34280834E-08
  -8.14000034      -3.37522970E-08
  -8.13000011      -3.40449766E-08
  -8.11999989      -3.43053195E-08
  -8.10999966      -3.45324906E-08
  -8.10000038      -3.47256162E-08
  -8.09000015      -3.48838753E-08
  -8.07999992      -3.50065328E-08
  -8.06999969      -3.50929810E-08
  -8.06000042      -3.51427545E-08
  -8.05000019      -3.51554696E-08
  -8.03999996      -3.51308032E-08
  -8.02999973      -3.50684317E-08
  -8.02000046      -3.49680072E-08
  -8.01000023      -3.48292062E-08
  -8.00000000      -3.46517588E-08
  -7.98999977      -3.44355726E-08
  -7.98000002      -3.41807542E-08
  -7.96999979      -3.38877264E-08
  -7.96000004      -3.35571748E-08
  -7.94999981      -3.31900409E-08
  -7.94000006      -3.27874190E-08
  -7.92999983      -3.23504992E-08
  -7.92000008      -3.18804361E-08
  -7.90999985      -3.13784234E-08
  -7.90000010      -3.08456087E-08
  -7.88999987      -3.02832426E-08
  -7.88000011      -2.96927158E-08
  -7.86999989      -2.90756894E-08
  -7.86000013      -2.84341120E-08
  -7.84999990      -2.77702377E-08
  -7.84000015      -2.70866032E-08
  -7.82999992      -2.63859263E-08
  -7.82000017      -2.56710670E-08
  -7.80999994      -2.49449243E-08
  -7.80000019      -2.42104381E-08
  -7.78999996      -2.34705340E-08
  -7.78000021      -2.27281607E-08
  -7.76999998      -2.19862706E-08
  -7.76000023      -2.12478355E-08
  -7.75000000      -2.05157900E-08
  -7.73999977      -1.97929815E-08
  -7.73000002      -1.90821137E-08
  -7.71999979      -1.83856663E-08
  -7.71000004      -1.77058705E-08
  -7.69999981      -1.70446981E-08
  -7.69000006      -1.64038720E-08
  -7.67999983      -1.57849112E-08
  -7.67000008      -1.51891442E-08
  -7.65999985      -1.46177541E-08
  -7.65000010      -1.40717633E-08
  -7.63999987      -1.35519995E-08
  -7.63000011      -1.30590720E-08
  -7.61999989      -1.25933468E-08
  -7.61000013      -1.21549277E-08
  -7.59999990      -1.17436780E-08
  -7.59000015      -1.13592602E-08
  -7.57999992      -1.10011902E-08
  -7.57000017      -1.06688756E-08
  -7.55999994      -1.03616671E-08
  -7.55000019      -1.00788560E-08
  -7.53999996      -9.81968284E-09
  -7.53000021      -9.58333235E-09
  -7.51999998      -9.36892786E-09
  -7.51000023      -9.17553944E-09
  -7.50000000      -9.00221497E-09
  -7.48999977      -8.84799700E-09
  -7.48000002      -8.71196359E-09
  -7.46999979      -8.59321947E-09
  -7.46000004      -8.49089155E-09
  -7.44999981      -8.40409875E-09
  -7.44000006      -8.33191827E-09