  -16.0000000       0.00000000    
  -15.9899998       0.00000000    
  -15.9799995       0.00000000    
  -15.9700003       0.00000000    
  -15.9600000       0.00000000    
  -15.9499998       0.00000000    
  -15.9399996       0.00000000    
  -15.9300003       0.00000000    
  -15.9200001       0.00000000    
  -15.9099998       0.00000000    
  -15.8999996       0.00000000    
  -15.8900003      -0.00000000    
  -15.8800001       0.00000000    
  -15.8699999       1.40129846E-45
  -15.8599997       1.68155816E-44
  -15.8500004       1.54142831E-43
  -15.8400002       1.19390629E-42
  -15.8299999       8.10370902E-42
  -15.8199997       4.86110437E-41
  -15.8100004       2.57291010E-40
  -15.8000002       1.19958295E-39
  -15.7900000       4.94186401E-39
  -15.7799997       1.81015644E-38
  -15.7700005       5.93878193E-38
  -15.7600002       1.75763062E-37
  -15.7500000       4.72147451E-37
  -15.7399998       1.15661749E-36
  -15.7299995       2.59106211E-36
  -15.7200003       5.30907173E-36
  -15.7100000       9.91217388E-36
  -15.6999998       1.66844721E-35
  -15.6899996       2.47002645E-35
  -15.6800003       3.02159589E-35
  -15.6700001       2.43916168E-35
  -15.6599998      -8.89290175E-36
  -15.6499996      -9.29923651E-35
  -15.6400003      -2.52250733E-34
  -15.6300001      -4.94371965E-34
  -15.6199999      -7.78097547E-34
  -15.6099997      -9.71361032E-34
  -15.6000004      -8.22557774E-34
  -15.5900002       9.39477700E-36
  -15.5799999       1.80684741E-33
  -15.5699997       4.49184567E-33
  -15.5600004       7.23006535E-33
  -15.5500002       8.17039691E-33
  -15.5400000       4.73757284E-33
  -15.5299997      -5.06468243E-33
  -15.5200005      -2.02295731E-32
  -15.5100002      -3.40061317E-32
  -15.5000000      -3.29901197E-32
  -15.4899998      -1.24417325E-33
  -15.4799995       6.79779508E-32
  -15.4700003       1.54134628E-31
  -15.4600000       1.93582091E-31
  -15.4499998       8.33689158E-32
  -15.4399996      -2.74405944E-31
  -15.4300003      -8.77306229E-31
  -15.4200001      -1.49803853E-30
  -15.4099998      -1.60291218E-30
  -15.3999996      -4.32392431E-31
  -15.3900003       2.63679144E-30
  -15.3800001       7.42542290E-30
  -15.3699999       1.21779191E-29
  -15.3599997       1.31717885E-29
  -15.3500004       5.41807013E-30
  -15.3400002      -1.49461011E-29
  -15.3299999      -4.66392945E-29
  -15.3199997      -7.89292554E-29
  -15.3100004      -8.98825607E-29
  -15.3000002      -5.08778571E-29
  -15.2900000       5.99125148E-29
  -15.2799997       2.36201995E-28
  -15.2700005       4.22052573E-28
  -15.2600002       5.04674631E-28
  -15.2500000       3.39074532E-28
  -15.2399998      -1.84388473E-28
  -15.2299995      -1.03787007E-27
  -15.2200003      -1.95772108E-27
  -15.2100000      -2.41775217E-27
  -15.1999998      -1.75058115E-27
  -15.1899996       5.40744362E-28
  -15.1800003       4.32777952E-27
  -15.1700001       8.43481511E-27
  -15.1599998       1.05447114E-26
  -15.1499996       7.75017552E-27
  -15.1400003      -2.09110232E-27
  -15.1300001      -1.84189284E-26
  -15.1199999      -3.62020164E-26
  -15.1099997      -4.55549978E-26
  -15.1000004      -3.40271053E-26
  -15.0900002       7.80815680E-27
  -15.0799999       7.83451292E-26
  -15.0699997       1.57485997E-25
  -15.0600004       2.04524294E-25
  -15.0500002       1.66503787E-25
  -15.0400000      -2.01795593E-28
  -15.0299997      -2.97951235E-25
  -15.0200005      -6.56253338E-25
  -15.0100002      -9.18436732E-25
  -15.0000000      -8.66596541E-25
  -14.9899998      -2.97389468E-25
  -14.9799995       8.57854483E-25
  -14.9700003       2.40328092E-24
  -14.9600000       3.80107736E-24
  -14.9499998       4.22106178E-24
  -14.9399996       2.77332689E-24
  -14.9300003      -1.07874214E-24
  -14.9200001      -7.02079658E-24
  -14.9099998      -1.35015579E-23
  -14.8999996      -1.77169876E-23
  -14.8900003      -1.61941753E-23
  -14.8800001      -6.04707401E-24
  -14.8699999       1.33052010E-23
  -14.8599997       3.85051275E-23
  -14.8500004       6.15207313E-23
  -14.8400002       7.06464068E-23
  -14.8299999       5.37344028E-23
  -14.8199997       3.39274048E-24
  -14.8100004      -7.71392748E-23
  -14.8000002      -1.69697246E-22
  -14.7900000      -2.41182370E-22
  -14.7799997      -2.50011882E-22
  -14.7700005      -1.59465531E-22
  -14.7600002       4.43978301E-23
  -14.7500000       3.35626716E-22
  -14.7399998       6.39627304E-22
  -14.7299995       8.40317608E-22
  -14.7200003       8.07530176E-22
  -14.7100000       4.42655022E-22
  -14.6999998      -2.67819338E-22
  -14.6899996      -1.20880491E-21
  -14.6800003      -2.12469560E-21
  -14.6700001      -2.65696572E-21
  -14.6599998      -2.43716913E-21
  -14.6499996      -1.22201910E-21
  -14.6400003       9.64121817E-22
  -14.6300001       3.73024125E-21
  -14.6199999       6.31670497E-21
  -14.6099997       7.72766426E-21
  -14.6000004       6.99867419E-21
  -14.5900002       3.55151854E-21
  -14.5799999      -2.46042531E-21
  -14.5699997      -9.94182077E-21
  -14.5600004      -1.68999138E-20
  -14.5500002      -2.08127673E-20
  -14.5400000      -1.92993919E-20
  -14.5299997      -1.09600179E-20
  -14.5200005       3.84332548E-21
  -14.5100002       2.25425619E-20
  -14.5000000       4.05000682E-20
  -14.4899998       5.18489797E-20
  -14.4799995       5.09657706E-20
  -14.4700003       3.42833988E-20
  -14.4600000       1.97326520E-21
  -14.4499998      -4.10531677E-20
  -14.4399996      -8.52972039E-20
  -14.4300003      -1.18217099E-19
  -14.4200001      -1.27050780E-19
  -14.4099998      -1.02401089E-19
  -14.3999996      -4.17501126E-20
  -14.3900003       4.80874405E-20
  -14.3800001       1.50479405E-19
  -14.3699999       2.41016933E-19
  -14.3599997       2.92097430E-19
  -14.3500004       2.79412150E-19
  -14.3400002       1.89112268E-19
  -14.3299999       2.39913736E-20
  -14.3199997      -1.93054520E-19
  -14.3100004      -4.19785553E-19
  -14.3000002      -6.00397467E-19
  -14.2900000      -6.76146428E-19
  -14.2799997      -5.99447502E-19
  -14.2700005      -3.48869937E-19
  -14.2600002       5.84332922E-20
  -14.2500000       5.60728005E-19
  -14.2399998       1.05542001E-18
  -14.2299995       1.41440285E-18
  -14.2200003       1.51026533E-18
  -14.2100000       1.24965887E-18
  -14.1999998       6.06847046E-19
  -14.1899996      -3.51567348E-19
  -14.1800003      -1.46002972E-18
  -14.1700001      -2.47241535E-18
  -14.1599998      -3.10712468E-18
  -14.1499996      -3.11336431E-18
  -14.1400003      -2.34546318E-18
  -14.1300001      -8.26295736E-19
  -14.1199999       1.22085572E-18
  -14.1099997       3.38824222E-18
  -14.1000004       5.15388612E-18
  -14.0900002       5.99771746E-18
  -14.0799999       5.54032174E-18
  -14.0699997       3.66932481E-18
  -14.0600004       6.15309983E-19
  -14.0500002      -3.05311702E-18
  -14.0400000      -6.52732192E-18
  -14.0299997      -8.93642424E-18
  -14.0200005      -9.56711803E-18
  -14.0100002      -8.06823367E-18
  -14.0000000      -4.58211324E-18
  -13.9899998       2.43871999E-19
  -13.9799995       5.38007493E-18
  -13.9700003       9.65060371E-18
  -13.9600000       1.20247436E-17
  -13.9499998       1.18870834E-17
  -13.9399996       9.20863201E-18
  -13.9300003       4.56775628E-18
  -13.9200001      -9.89698235E-19
  -13.9099998      -6.21414638E-18
  -13.8999996      -9.96698541E-18
  -13.8900003      -1.14961231E-17
  -13.8800001      -1.05994006E-17
  -13.8699999      -7.63576379E-18
  -13.8599997      -3.39494962E-18
  -13.8500004       1.12241647E-18
  -13.8400002       4.93988291E-18
  -13.8299999       7.28944312E-18
  -13.8199997       7.70932248E-18
  -13.8100004       6.06710427E-18
  -13.8000002       2.54545912E-18
  -13.7900000      -2.35659290E-18
  -13.7799997      -7.78748774E-18
  -13.7700005      -1.24963714E-17
  -13.7600002      -1.48574492E-17
  -13.7500000      -1.30641026E-17
  -13.7399998      -5.56533485E-18
  -13.7299995       8.27263165E-18
  -13.7200003       2.74209414E-17
  -13.7100000       4.86225665E-17
  -13.6999998       6.63277487E-17
  -13.6899996       7.34018304E-17
  -13.6800003       6.26960950E-17
  -13.6700001       2.93017714E-17
  -13.6599998      -2.70122926E-17
  -13.6499996      -9.99080258E-17
  -13.6400003      -1.75922271E-16
  -13.6300001      -2.35863736E-16
  -13.6199999      -2.58327288E-16
  -13.6099997      -2.24911917E-16
  -13.6000004      -1.26101527E-16
  -13.5900002       3.36755981E-17
  -13.5799999       2.33424943E-16
  -13.5699997       4.36656999E-16
  -13.5600004       5.96720206E-16
  -13.5500002       6.65867899E-16
  -13.5400000       6.06520906E-16
  -13.5299997       4.02311877E-16
  -13.5200005       6.61691484E-17
  -13.5100002      -3.57009749E-16
  -13.5000000      -7.94611719E-16
  -13.4899998      -1.15755544E-15
  -13.4799995      -1.35698903E-15
  -13.4700003      -1.32347087E-15
  -13.4600000      -1.02469514E-15
  -13.4499998      -4.77725100E-16
  -13.4399996       2.47621691E-16
  -13.4300003       1.03600441E-15
  -13.4200001       1.74418198E-15
  -13.4099998       2.22649768E-15
  -13.3999996       2.36382649E-15
  -13.3900003       2.09034539E-15
  -13.3800001       1.41229647E-15
  -13.3699999       4.13964801E-16
  -13.3599997      -7.51701189E-16
  -13.3500004      -1.88748417E-15
  -13.3400002      -2.78755917E-15
  -13.3299999      -3.27787478E-15
  -13.3199997      -3.25288413E-15
  -13.3100004      -2.70016528E-15
  -13.3000002      -1.70643427E-15
  -13.2900000      -4.42110064E-16
  -13.2799997       8.73487110E-16
  -13.2700005       2.01924333E-15
  -13.2600002       2.82085519E-15
  -13.2500000       3.18872689E-15
  -13.2399998       3.13458603E-15
  -13.2299995       2.76106335E-15
  -13.2200003       2.22542216E-15
  -13.2100000       1.68602448E-15
  -13.1999998       1.24617764E-15
  -13.1899996       9.12465395E-16
  -13.1800003       5.82505352E-16
  -13.1700001       7.04380489E-17
  -13.1599998      -8.31888316E-16
  -13.1499996      -2.27106283E-15
  -13.1400003      -4.24750389E-15
  -13.1300001      -6.55597868E-15
  -13.1199999      -8.77429148E-15
  -13.1099997      -1.03135519E-14
  -13.1000004      -1.05284713E-14
  -13.0900002      -8.86990371E-15
  -13.0799999      -5.04779629E-15
  -13.0699997       8.34662508E-16
  -13.0600004       8.21302882E-15
  -13.0500002       1.60863381E-14
  -13.0400000       2.31414873E-14
  -13.0299997       2.79630157E-14
  -13.0200005       2.92921544E-14
  -13.0100002       2.62858599E-14
  -13.0000000       1.87226841E-14
  -12.9899998       7.10980652E-15
  -12.9799995      -7.33538749E-15
  -12.9700003      -2.28318781E-14
  -12.9600000      -3.72861498E-14
  -12.9499998      -4.86039364E-14
  -12.9399996      -5.50061671E-14
  -12.9300003      -5.52928912E-14
  -12.9200001      -4.90109797E-14
  -12.9099998      -3.65009943E-14
  -12.8999996      -1.88247262E-14
  -12.8900003       2.40307652E-15
  -12.8800001       2.52372433E-14
  -12.8699999       4.76316882E-14
  -12.8599997       6.76329788E-14
  -12.8500004       8.35106927E-14
  -12.8400002       9.38180265E-14
  -12.8299999       9.73984619E-14
  -12.8199997       9.33714369E-14
  -12.8100004       8.11350770E-14
  -12.8000002       6.04203645E-14
  -12.7900000       3.14101196E-14
  -12.7799997      -5.08805534E-15
  -12.7700005      -4.74549700E-14
  -12.7600002      -9.31198274E-14
  -12.7500000      -1.38535410E-13
  -12.7399998      -1.79326321E-13
  -12.7299995      -2.10638242E-13
  -12.7200003      -2.27674325E-13
  -12.7100000      -2.26354119E-13
  -12.6999998      -2.03992910E-13
  -12.6899996      -1.59872983E-13
  -12.6800003      -9.55841038E-14
  -12.6700001      -1.50410808E-14
  -12.6599998       7.58552563E-14
  -12.6499996       1.69879220E-13
  -12.6400003       2.59358642E-13
  -12.6300001       3.37115996E-13
  -12.6199999       3.97296155E-13
  -12.6099997       4.35924436E-13
  -12.6000004       4.51088738E-13
  -12.5900002       4.42718914E-13
  -12.5799999       4.12023226E-13
  -12.5699997       3.60720595E-13
  -12.5600004       2.90252766E-13
  -12.5500002       2.01175787E-13
  -12.5400000       9.28959939E-14
  -12.5299997      -3.61507123E-14
  -12.5200005      -1.87866405E-13
  -12.5100002      -3.63490000E-13
  -12.5000000      -5.62388406E-13
  -12.4899998      -7.80843868E-13
  -12.4799995      -1.01105224E-12
  -12.4700003      -1.24050434E-12
  -12.4600000      -1.45186478E-12
  -12.4499998      -1.62336778E-12
  -12.4399996      -1.72967164E-12
  -12.4300003      -1.74305080E-12
  -12.4200001      -1.63476903E-12
  -12.4099998      -1.37648226E-12
  -12.3999996      -9.41565619E-13
  -12.3900003      -3.06320073E-13
  -12.3800001       5.48929554E-13
  -12.3699999       1.63874838E-12
  -12.3599997       2.97144297E-12
  -12.3500004       4.54775627E-12
  -12.3400002       6.35938871E-12
  -12.3299999       8.38744265E-12
  -12.3199997       1.06009168E-11
  -12.3100004       1.29555628E-11
  -12.3000002       1.53933602E-11
  -12.2900000       1.78428713E-11
  -12.2799997       2.02207123E-11
  -12.2700005       2.24341743E-11
  -12.2600002       2.43848500E-11
  -12.2500000       2.59730588E-11
  -12.2399998       2.71026760E-11
  -12.2299995       2.76857703E-11
  -12.2200003       2.76468102E-11
  -12.2100000       2.69258765E-11
  -12.1999998       2.54806679E-11
  -12.1899996       2.32874414E-11
  -12.1800003       2.03406458E-11
  -12.1700001       1.66517911E-11
  -12.1599998       1.22475910E-11
  -12.1499996       7.16786699E-12
  -12.1400003       1.46353882E-12
  -12.1300001      -4.80543513E-12
  -12.1199999      -1.15714148E-11
  -12.1099997      -1.87602486E-11
  -12.1000004      -2.62918628E-11
  -12.0900002      -3.40807001E-11
  -12.0799999      -4.20357048E-11
  -12.0699997      -5.00601435E-11
  -12.0600004      -5.80515601E-11
  -12.0500002      -6.59016175E-11
  -12.0400000      -7.34965075E-11
  -12.0299997      -8.07178213E-11
  -12.0200005      -8.74439271E-11
  -12.0100002      -9.35521521E-11
  -12.0000000      -9.89217597E-11
  -11.9899998      -1.03437696E-10
  -11.9799995      -1.06994136E-10
  -11.9700003      -1.09498535E-10
  -11.9600000      -1.10874858E-10
  -11.9499998      -1.11065740E-10
  -11.9399996      -1.10033552E-10
  -11.9300003      -1.07759954E-10
  -11.9200001      -1.04243926E-10
  -11.9099998      -9.94987148E-11
  -11.8999996      -9.35479333E-11
  -11.8900003      -8.64221333E-11
  -11.8800001      -7.81549478E-11
  -11.8699999      -6.87811405E-11
  -11.8599997      -5.83352533E-11
  -11.8500004      -4.68515782E-11
  -11.8400002      -3.43652780E-11
  -11.8299999      -2.09138557E-11
  -11.8199997      -6.53910563E-12
  -11.8100004       8.71150114E-12
  -11.8000002       2.47834236E-11
  -11.7900000       4.16140143E-11
  -11.7799997       5.91320395E-11
  -11.7700005       7.72566247E-11
  -11.7600002       9.58956872E-11
  -11.7500000       1.14944256E-10
  -11.7399998       1.34281739E-10
  -11.7299995       1.53770024E-10
  -11.7200003       1.73251316E-10
  -11.7100000       1.92547700E-10
  -11.6999998       2.11462181E-10
  -11.6899996       2.29782124E-10
  -11.6800003       2.47284554E-10
  -11.6700001       2.63743416E-10
  -11.6599998       2.78937012E-10
  -11.6499996       2.92656066E-10
  -11.6400003       3.04710368E-10
  -11.6300001       3.14932580E-10
  -11.6199999       3.23181093E-10
  -11.6099997       3.29338529E-10
  -11.6000004       3.33308880E-10
  -11.5900002       3.35012795E-10
  -11.5799999       3.34382022E-10
  -11.5699997       3.31354777E-10
  -11.5600004       3.25871857E-10
  -11.5500002       3.17873949E-10
  -11.5400000       3.07302905E-10
  -11.5299997       2.94103158E-10
  -11.5200005       2.78225831E-10
  -11.5100002       2.59633454E-10
  -11.5000000       2.38303127E-10
  -11.4899998       2.14231508E-10
  -11.4799995       1.87435345E-10
  -11.4700003       1.57951249E-10
  -11.4600000       1.25832997E-10
  -11.4499998       9.11469858E-11
  -11.4399996       5.39670877E-11
  -11.4300003       1.43691985E-11
  -11.4200001      -2.75724166E-11
  -11.4099998      -7.17876453E-11
  -11.3999996      -1.18209442E-10
  -11.3900003      -1.66770722E-10
  -11.3800001      -2.17399890E-10
  -11.3699999      -2.70013040E-10
  -11.3599997      -3.24508947E-10
  -11.3500004      -3.80762893E-10
  -11.3400002      -4.38624109E-10
  -11.3299999      -4.97915098E-10
  -11.3199997      -5.58432411E-10
  -11.3100004      -6.19952978E-10
  -11.3000002      -6.82238432E-10
  -11.2900000      -7.45042472E-10
  -11.2799997      -8.08117684E-10
  -11.2700005      -8.71221872E-10
  -11.2600002      -9.34122335E-10
  -11.2500000      -9.96602356E-10
  -11.2399998      -1.05846298E-09
  -11.2299995      -1.11952658E-09
  -11.2200003      -1.17963994E-09
  -11.2100000      -1.23867416E-09
  -11.1999998      -1.29652700E-09
  -11.1899996      -1.35312073E-09
  -11.1800003      -1.40839940E-09
  -11.1700001      -1.46232537E-09
  -11.1599998      -1.51487434E-09
  -11.1499996      -1.56602797E-09
  -11.1400003      -1.61576241E-09
  -11.1300001      -1.66404646E-09
  -11.1199999      -1.71083125E-09
  -11.1099997      -1.75605042E-09
  -11.1000004      -1.79961124E-09
  -11.0900002      -1.84140370E-09
  -11.0799999      -1.88129956E-09
  -11.0699997      -1.91915572E-09
  -11.0600004      -1.95482741E-09
  -11.0500002      -1.98816896E-09
  -11.0400000      -2.01904760E-09
  -11.0299997      -2.04734496E-09
  -11.0200005      -2.07297002E-09
  -11.0100002      -2.09586171E-09
  -11.0000000      -2.11599449E-09
  -10.9899998      -2.13339169E-09
  -10.9799995      -2.14812013E-09
  -10.9700003      -2.16029350E-09
  -10.9600000      -2.17007323E-09
  -10.9499998      -2.17765450E-09
  -10.9399996      -2.18326357E-09
  -10.9300003      -2.18712581E-09
  -10.9200001      -2.18946772E-09
  -10.9099998      -2.19047980E-09
  -10.8999996      -2.19031127E-09
  -10.8900003      -2.18904850E-09
  -10.8800001      -2.18671192E-09
  -10.8699999      -2.18325535E-09
  -10.8599997      -2.17857710E-09
  -10.8500004      -2.17254015E-09
  -10.8400002      -2.16498353E-09
  -10.8299999      -2.15573759E-09
  -10.8199997      -2.14466223E-09
  -10.8100004      -2.13163154E-09
  -10.8000002      -2.11657358E-09
  -10.7900000      -2.09943996E-09
  -10.7799997      -2.08021933E-09
  -10.7700005      -2.05893147E-09
  -10.7600002      -2.03560968E-09
  -10.7500000      -2.01029660E-09
  -10.7399998      -1.98304795E-09
  -10.7299995      -1.95390371E-09
  -10.7200003      -1.92290917E-09
  -10.7100000      -1.89011318E-09
  -10.6999998      -1.85557592E-09
  -10.6899996      -1.81935822E-09
  -10.6800003      -1.78152271E-09
  -10.6700001      -1.74216386E-09
  -10.6599998      -1.70138170E-09
  -10.6499996      -1.65928415E-09
  -10.6400003      -1.61599245E-09
  -10.6300001      -1.57165148E-09
  -10.6199999      -1.52637947E-09
  -10.6099997      -1.48032708E-09
  -10.6000004      -1.43364098E-09
  -10.5900002      -1.38645206E-09
  -10.5799999      -1.33893840E-09
  -10.5699997      -1.29126132E-09
  -10.5600004      -1.24360078E-09
  -10.5500002      -1.19615773E-09
  -10.5400000      -1.14914267E-09
  -10.5299997      -1.10276732E-09
  -10.5200005      -1.05724418E-09
  -10.5100002      -1.01279618E-09
  -10.5000000      -9.69616387E-10
  -10.4899998      -9.27886046E-10
  -10.4799995      -8.87746376E-10
  -10.4700003      -8.49315562E-10
  -10.4600000      -8.12679812E-10
  -10.4499998      -7.77885645E-10
  -10.4399996      -7.44957762E-10
  -10.4300003      -7.13885118E-10
  -10.4200001      -6.84640233E-10
  -10.4099998      -6.57179644E-10
  -10.3999996      -6.31456720E-10
  -10.3900003      -6.07409789E-10
  -10.3800001      -5.84976734E-10
  -10.3699999      -5.64104097E-10
  -10.3599997      -5.44742806E-10
  -10.3500004      -5.26840294E-10
  -10.3400002      -5.10366027E-10
  -10.3299999      -4.95309127E-10
  -10.3199997      -4.81663098E-10
  -10.3100004      -4.69464467E-10
  -10.3000002      -4.58769300E-10
  -10.2900000      -4.49654008E-10
  -10.2799997      -4.42242298E-10
  -10.2700005      -4.36660957E-10
  -10.2600002      -4.33066916E-10
  -10.2500000      -4.31623681E-10
  -10.2399998      -4.32463287E-10
  -10.2299995      -4.35712688E-10
  -10.2200003      -4.41431808E-10
  -10.2100000      -4.49649790E-10
  -10.1999998      -4.60327471E-10
  -10.1899996      -4.73377282E-10
  -10.1800003      -4.88669716E-10
  -10.1700001      -5.06041098E-10
  -10.1599998      -5.25311239E-10
  -10.1499996      -5.46309331E-10
  -10.1400003      -5.68850633E-10
  -10.1300001      -5.92789762E-10
  -10.1199999      -6.17993323E-10
  -10.1099997      -6.44353959E-10
  -10.1000004      -6.71778355E-10
  -10.0900002      -7.00193181E-10
  -10.0799999      -7.29517780E-10
  -10.0699997      -7.59697860E-10
  -10.0600004      -7.90657706E-10
  -10.0500002      -8.22349577E-10
  -10.0400000      -8.54696813E-10
  -10.0299997      -8.87645124E-10
  -10.0200005      -9.21143772E-10
  -10.0100002      -9.55174384E-10
  -10.0000000      -9.89725635E-10
  -9.98999977      -1.02484055E-09
  -9.97999954      -1.06058951E-09
  -9.97000027      -1.09706377E-09
  -9.96000004      -1.13441900E-09
  -9.94999981      -1.17283194E-09
  -9.93999958      -1.21248911E-09
  -9.93000031      -1.25358690E-09
  -9.92000008      -1.29632161E-09
  -9.90999985      -1.34086653E-09
  -9.89999962      -1.38734790E-09
  -9.89000034      -1.43584999E-09
  -9.88000011      -1.48639823E-09
  -9.86999989      -1.53895152E-09
  -9.85999966      -1.59340729E-09
  -9.85000038      -1.64961378E-09
  -9.84000015      -1.70738668E-09
  -9.82999992      -1.76652704E-09
  -9.81999969      -1.82684712E-09
  -9.81000042      -1.88820781E-09
  -9.80000019      -1.95051930E-09
  -9.78999996      -2.01377759E-09
  -9.77999973      -2.07805040E-09
  -9.77000046      -2.14348894E-09
  -9.76000023      -2.21029461E-09
  -9.75000000      -2.27868702E-09
  -9.73999977      -2.34888464E-09
  -9.72999954      -2.42105824E-09
  -9.72000027      -2.49534637E-09
  -9.71000004      -2.57182609E-09
  -9.69999981      -2.65049116E-09
  -9.68999958      -2.73128253E-09
  -9.68000031      -2.81407186E-09
  -9.67000008      -2.89871260E-09
  -9.65999985      -2.98500757E-09
  -9.64999962      -3.07274584E-09
  -9.64000034      -3.16172000E-09
  -9.63000011      -3.25170668E-09
  -9.61999989      -3.34252315E-09
  -9.60999966      -3.43399997E-09
  -9.60000038      -3.52598839E-09
  -9.59000015      -3.61838604E-09
  -9.57999992      -3.71109543E-09
  -9.56999969      -3.80402687E-09
  -9.56000042      -3.89707644E-09
  -9.55000019      -3.99009403E-09
  -9.53999996      -4.08290912E-09
  -9.52999973      -4.17530410E-09
  -9.52000046      -4.26699742E-09
  -9.51000023      -4.35775371E-09
  -9.50000000      -4.44730253E-09
  -9.48999977      -4.53539739E-09
  -9.47999954      -4.62182692E-09
  -9.47000027      -4.70646411E-09
  -9.46000004      -4.78915929E-09
  -9.44999981      -4.86982366E-09
  -9.43999958      -4.94837371E-09
  -9.43000031      -5.02471931E-09
  -9.42000008      -5.09879827E-09
  -9.40999985      -5.17052889E-09
  -9.39999962      -5.23986854E-09
  -9.39000034      -5.30681943E-09
  -9.38000011      -5.37144107E-09
  -9.36999989      -5.43383116E-09
  -9.35999966      -5.49409451E-09
  -9.35000038      -5.55238611E-09
  -9.34000015      -5.60883473E-09
  -9.32999992      -5.66356828E-09
  -9.31999969      -5.71666714E-09
  -9.31000042      -5.76821213E-09
  -9.30000019      -5.81825965E-09
  -9.28999996      -5.86691096E-09
  -9.27999973      -5.91424865E-09
  -9.27000046      -5.96037530E-09
  -9.26000023      -6.00546635E-09
  -9.25000000      -6.04969053E-09
  -9.23999977      -6.09319706E-09
  -9.22999954      -6.13618845E-09
  -9.22000027      -6.17881124E-09
  -9.21000004      -6.22122798E-09
  -9.19999981      -6.26367580E-09
  -9.18999958      -6.30637320E-09
  -9.18000031      -6.34955999E-09
  -9.17000008      -6.39353503E-09
  -9.15999985      -6.43852172E-09
  -9.14999962      -6.48473897E-09
  -9.14000034      -6.53233601E-09
  -9.13000011      -6.58138122E-09
  -9.11999989      -6.63191058E-09
  -9.10999966      -6.68390765E-09
  -9.10000038      -6.73731915E-09
  -9.09000015      -6.79212331E-09
  -9.07999992      -6.84832235E-09
  -9.06999969      -6.90597846E-09
  -9.06000042      -6.96515423E-09
  -9.05000019      -7.02595271E-09
  -9.03999996      -7.08837700E-09
  -9.02999973      -7.15244131E-09
  -9.02000046      -7.21802529E-09
  -9.01000023      -7.28503613E-09
  -9.00000000      -7.35334993E-09
  -8.98999977      -7.42279349E-09
  -8.97999954      -7.49332330E-09
  -8.97000027      -7.56490159E-09
  -8.96000004      -7.63757946E-09
  -8.94999981      -7.71144304E-09
  -8.93999958      -7.78661757E-09
  -8.93000031      -7.86320431E-09
  -8.92000008      -7.94131427E-09
  -8.90999985      -8.02097055E-09
  -8.89999962      -8.10223355E-09
  -8.89000034      -8.18508461E-09
  -8.88000011      -8.26951130E-09
  -8.86999989      -8.35546565E-09
  -8.85999966      -8.44288106E-09
  -8.85000038      -8.53171045E-09
  -8.84000015      -8.62188543E-09
  -8.82999992      -8.71326655E-09
  -8.81999969      -8.80571083E-09
  -8.81000042      -8.89897933E-09
  -8.80000019      -8.99295660E-09
  -8.78999996      -9.08744191E-09
  -8.77999973      -9.18234466E-09
  -8.77000046      -9.27755384E-09
  -8.76000023      -9.37303746E-09
  -8.75000000      -9.46872447E-09
  -8.73999977      -9.56464152E-09
  -8.72999954      -9.66075753E-09
  -8.72000027      -9.75707248E-09
  -8.71000004      -9.85367254E-09
  -8.69999981      -9.95057015E-09
  -8.68999958      -1.00478807E-08
  -8.68000031      -1.01458442E-08
  -8.67000008      -1.02447082E-08
  -8.65999985      -1.03448459E-08
  -8.64999962      -1.04467341E-08
  -8.64000034      -1.05508322E-08
  -8.63000011      -1.06576961E-08
  -8.61999989      -1.07679323E-08
  -8.60999966      -1.08821077E-08
  -8.60000038      -1.10009069E-08
  -8.59000015      -1.11249658E-08
  -8.57999992      -1.12548788E-08
  -8.56999969      -1.13912124E-08
  -8.56000042      -1.15344445E-08
  -8.55000019      -1.16850183E-08
  -8.53999996      -1.18432615E-08
  -8.52999973      -1.20093482E-08
  -8.52000046      -1.21833805E-08
  -8.51000023      -1.23654358E-08
  -8.50000000      -1.25554438E-08
  -8.48999977      -1.27534090E-08
  -8.47999954      -1.29592177E-08
  -8.47000027      -1.31727811E-08
  -8.46000004      -1.33939402E-08
  -8.44999981      -1.36225511E-08
  -8.43999958      -1.38583740E-08
  -8.43000031      -1.41011451E-08
  -8.42000008      -1.43505536E-08
  -8.40999985      -1.46061643E-08
  -8.39999962      -1.48676271E-08
  -8.39000034      -1.51344270E-08
  -8.38000011      -1.54061528E-08
  -8.36999989      -1.56823017E-08
  -8.35999966      -1.59622537E-08
  -8.35000038      -1.62453535E-08
  -8.34000015      -1.65308833E-08
  -8.32999992      -1.68179728E-08
  -8.31999969      -1.71057319E-08
  -8.31000042      -1.73933365E-08
  -8.30000019      -1.76798967E-08
  -8.28999996      -1.79645721E-08
  -8.27999973      -1.82465119E-08
  -8.27000046      -1.85249309E-08
  -8.26000023      -1.87990565E-08
  -8.25000000      -1.90681497E-08
  -8.23999977      -1.93313507E-08
  -8.22999954      -1.95877874E-08
  -8.22000027      -1.98365946E-08
  -8.21000004      -2.00769552E-08
  -8.19999981      -2.03081303E-08
  -8.18999958      -2.05294430E-08
  -8.18000031      -2.07403517E-08
  -8.17000008      -2.09403357E-08
  -8.15999985      -2.11290185E-08
  -8.14999962      -2.13061373E-08
  -8.14000034      -2.14714095E-08
  -8.13000011      -2.16244818E-08
  -8.11999989      -2.17652580E-08
  -8.10999966      -2.18934790E-08
  -8.10000038      -2.20089085E-08
  -8.09000015      -2.21115393E-08
  -8.07999992      -2.22013021E-08
  -8.06999969      -2.22783676E-08
  -8.06000042      -2.23430021E-08
  -8.05000019      -2.23953140E-08
  -8.03999996      -2.24357635E-08
  -8.02999973      -2.24647874E-08
  -8.02000046      -2.24827570E-08
  -8.01000023      -2.24903030E-08
  -8.00000000      -2.24880310E-08
  -7.98999977      -2.24765682E-08
  -7.98000002      -2.24569927E-08
  -7.96999979      -2.24302479E-08
  -7.96000004      -2.23973977E-08
  -7.94999981      -2.23595897E-08
  -7.94000006      -2.23179608E-08
  -7.92999983      -2.22737473E-08
  -7.92000008      -2.22279759E-08
  -7.90999985      -2.21816965E-08
  -7.90000010      -2.21356871E-08
  -7.88999987      -2.20909193E-08
  -7.88000011      -2.20480523E-08
  -7.86999989      -2.20077858E-08
  -7.86000013      -2.19708181E-08
  -7.84999990      -2.19377725E-08
  -7.84000015      -2.19093099E-08
  -7.82999992      -2.18858087E-08
  -7.82000017      -2.18680061E-08
  -7.80999994      -2.18563407E-08
  -7.80000019      -2.18514717E-08
  -7.78999996      -2.18539196E-08
  -7.78000021      -2.18641301E-08
  -7.76999998      -2.18826983E-08
  -7.76000023      -2.19100418E-08
  -7.75000000      -2.19466596E-08
  -7.73999977      -2.19930332E-08
  -7.73000002      -2.20495657E-08
  -7.71999979      -2.21167014E-08
  -7.71000004      -2.21949712E-08
  -7.69999981      -2.22846044E-08
  -7.69000006      -2.23859473E-08
  -7.67999983      -2.24993357E-08
  -7.67000008      -2.26249774E-08
  -7.65999985      -2.27628956E-08
  -7.65000010      -2.29133441E-08
  -7.63999987      -2.30763550E-08
  -7.63000011      -2.32520989E-08
  -7.61999989      -2.34406006E-08
  -7.61000013      -2.36421087E-08
  -7.59999990      -2.38567974E-08
  -7.59000015      -2.40849189E-08
  -7.57999992      -2.43265248E-08
  -7.57000017      -2.45816896E-08
  -7.55999994      -2.48502445E-08
  -7.55000019      -2.51321595E-08
  -7.53999996      -2.54270240E-08
  -7.53000021      -2.57346446E-08
  -7.51999998      -2.60546287E-08
  -7.51000023      -2.63867559E-08
  -7.50000000      -2.67310369E-08
  -7.48999977      -2.70872604E-08
  -7.48000002      -2.74556093E-08
  -7.46999979      -2.78360996E-08
  -7.46000004      -2.82286123E-08
  -7.44999981      -2.86333179E-08
  -7.44000006      -2.90497990E-08