  -16.0000000       0.00000000    
  -15.9899998       0.00000000    
  -15.9799995       0.00000000    
  -15.9700003       0.00000000    
  -15.9600000       0.00000000    
  -15.9499998       0.00000000    
  -15.9399996       0.00000000    
  -15.9300003       0.00000000    
  -15.9200001       0.00000000    
  -15.9099998       0.00000000    
  -15.8999996       0.00000000    
  -15.8900003       0.00000000    
  -15.8800001      -1.40129846E-45
  -15.8699999      -2.38220739E-44
  -15.8599997      -2.10194770E-43
  -15.8500004      -9.92119313E-43
  -15.8400002      -1.38448288E-42
  -15.8299999       1.84046540E-41
  -15.8199997       1.91511257E-40
  -15.8100004       1.14456097E-39
  -15.8000002       5.24099779E-39
  -15.7900000       2.00372536E-38
  -15.7799997       6.66107617E-38
  -15.7700005       1.96889228E-37
  -15.7600002       5.23391747E-37
  -15.7500000       1.25408016E-36
  -15.7399998       2.68522255E-36
  -15.7299995       5.00178012E-36
  -15.7200003       7.53018926E-36
  -15.7100000       6.79575497E-36
  -15.6999998      -7.45680122E-36
  -15.6899996      -5.86924559E-35
  -15.6800003      -1.90937281E-34
  -15.6700001      -4.71227308E-34
  -15.6599998      -9.75136757E-34
  -15.6499996      -1.73908567E-33
  -15.6400003      -2.66947200E-33
  -15.6300001      -3.42748916E-33
  -15.6199999      -3.36576249E-33
  -15.6099997      -1.66150194E-33
  -15.6000004       2.18837632E-33
  -15.5900002       7.47270942E-33
  -15.5799999       1.13067481E-32
  -15.5699997       8.53320222E-33
  -15.5600004      -6.08353959E-33
  -15.5500002      -3.21733832E-32
  -15.5400000      -5.52178538E-32
  -15.5299997      -3.96210862E-32
  -15.5200005       6.72805829E-32
  -15.5100002       3.08450799E-31
  -15.5000000       6.61208237E-31
  -15.4899998       9.64263376E-31
  -15.4799995       8.71368384E-31
  -15.4700003      -9.27824039E-32
  -15.4600000      -2.29399491E-30
  -15.4499998      -5.54629305E-30
  -15.4399996      -8.59257707E-30
  -15.4300003      -8.84745434E-30
  -15.4200001      -2.91482651E-30
  -15.4099998       1.16593121E-29
  -15.3999996       3.34218149E-29
  -15.3900003       5.38476952E-29
  -15.3800001       5.62401576E-29
  -15.3699999       1.97689908E-29
  -15.3599997      -6.89976981E-29
  -15.3500004      -1.97971756E-28
  -15.3400002      -3.11649313E-28
  -15.3299999      -3.07074917E-28
  -15.3199997      -6.09255901E-29
  -15.3100004       5.00351159E-28
  -15.3000002       1.29448348E-27
  -15.2900000       1.98111978E-27
  -15.2799997       1.93918034E-27
  -15.2700005       4.17927665E-28
  -15.2600002      -3.07247533E-27
  -15.2500000      -8.16387143E-27
  -15.2399998      -1.30270533E-26
  -15.2299995      -1.41529242E-26
  -15.2200003      -7.01737766E-27
  -15.2100000       1.19807349E-26
  -15.1999998       4.23706991E-26
  -15.1899996       7.61197649E-26
  -15.1800003       9.56429629E-26
  -15.1700001       7.58432321E-26
  -15.1599998      -7.53693039E-27
  -15.1499996      -1.62791173E-25
  -15.1400003      -3.63498502E-25
  -15.1300001      -5.34064059E-25
  -15.1199999      -5.51533877E-25
  -15.1099997      -2.76128606E-25
  -15.1000004       3.83410879E-25
  -15.0900002       1.37856451E-24
  -15.0799999       2.43469454E-24
  -15.0699997       3.02238862E-24
  -15.0600004       2.44858185E-24
  -15.0500002       1.11056861E-25
  -15.0400000      -4.09769143E-24
  -15.0299997      -9.34610846E-24
  -15.0200005      -1.35950853E-23
  -15.0100002      -1.37904372E-23
  -15.0000000      -6.76380700E-24
  -14.9899998       9.11640636E-24
  -14.9799995       3.18876069E-23
  -14.9700003       5.43595025E-23
  -14.9600000       6.41255122E-23
  -14.9499998       4.64473570E-23
  -14.9399996      -9.42789283E-24
  -14.9300003      -1.01433351E-22
  -14.9200001      -2.06303283E-22
  -14.9099998      -2.76560926E-22
  -14.8999996      -2.48445242E-22
  -14.8900003      -6.44600902E-23
  -14.8800001       2.91029948E-22
  -14.8699999       7.52889656E-22
  -14.8599997       1.15145642E-21
  -14.8500004       1.22740365E-21
  -14.8400002       7.04699519E-22
  -14.8299999      -5.75928540E-22
  -14.8199997      -2.49072322E-21
  -14.8100004      -4.49775500E-21
  -14.8000002      -5.62431077E-21
  -14.7900000      -4.66698896E-21
  -14.7799997      -6.46213800E-22
  -14.7700005       6.54488484E-21
  -14.7600002       1.54951980E-20
  -14.7500000       2.29597227E-20
  -14.7399998       2.42452034E-20
  -14.7299995       1.45611721E-20
  -14.7200003      -8.70729006E-21
  -14.7100000      -4.33267964E-20
  -14.6999998      -8.01834506E-20
  -14.6899996      -1.03265480E-19
  -14.6800003      -9.29105872E-20
  -14.6700001      -3.27717100E-20
  -14.6599998       8.05260585E-20
  -14.6499996       2.27933986E-19
  -14.6400003       3.63232972E-19
  -14.6300001       4.17923389E-19
  -14.6199999       3.19096476E-19
  -14.6099997       1.96151504E-20
  -14.6000004      -4.66006570E-19
  -14.5900002      -1.03286972E-18
  -14.5799999      -1.48081635E-18
  -14.5699997      -1.54863038E-18
  -14.5600004      -9.93536250E-19
  -14.5500002       2.94274259E-19
  -14.5400000       2.17295797E-18
  -14.5299997       4.17485128E-18
  -14.5200005       5.53148207E-18
  -14.5100002       5.33802397E-18
  -14.5000000       2.85880051E-18
  -14.4899998      -2.08290013E-18
  -14.4799995      -8.75040042E-18
  -14.4700003      -1.53377583E-17
  -14.4600000      -1.91722864E-17
  -14.4499998      -1.73646486E-17
  -14.4399996      -7.85605191E-18
  -14.4300003       9.37133265E-18
  -14.4200001       3.13270636E-17
  -14.4099998       5.17813773E-17
  -14.3999996       6.21931361E-17
  -14.3900003       5.39509993E-17
  -14.3800001       2.16367320E-17
  -14.3699999      -3.35008247E-17
  -14.3599997      -1.01100211E-16
  -14.3500004      -1.61635234E-16
  -14.3400002      -1.89777348E-16
  -14.3299999      -1.61323063E-16
  -14.3199997      -6.25590808E-17
  -14.3100004       1.00421401E-16
  -14.3000002       2.95899022E-16
  -14.2900000       4.67703853E-16
  -14.2799997       5.45669213E-16
  -14.2700005       4.65135967E-16
  -14.2600002       1.91919163E-16
  -14.2500000      -2.54129128E-16
  -14.2399998      -7.85825711E-16
  -14.2299995      -1.25402667E-15
  -14.2200003      -1.47643888E-15
  -14.2100000      -1.28810608E-15
  -14.1999998      -6.03626066E-16
  -14.1899996       5.26252359E-16
  -14.1800003       1.88487764E-15
  -14.1700001       3.10579030E-15
  -14.1599998       3.74423503E-15
  -14.1499996       3.39795949E-15
  -14.1400003       1.85268954E-15
  -14.1300001      -7.88220115E-16
  -14.1199999      -4.03750917E-15
  -14.1099997      -7.06202370E-15
  -14.1000004      -8.84371938E-15
  -14.0900002      -8.44763746E-15
  -14.0799999      -5.34149564E-15
  -14.0699997       3.20672777E-16
  -14.0600004       7.55112762E-15
  -14.0500002       1.46013047E-14
  -14.0400000       1.92915125E-14
  -14.0299997       1.95624783E-14
  -14.0200005       1.41349741E-14
  -14.0100002       3.10114114E-15
  -14.0000000      -1.17517639E-14
  -13.9899998      -2.70505122E-14
  -13.9799995      -3.84497833E-14
  -13.9700003      -4.16851137E-14
  -13.9600000      -3.38501403E-14
  -13.9499998      -1.45662833E-14
  -13.9399996       1.33289249E-14
  -13.9300003       4.38859459E-14
  -13.9200001       6.90811340E-14
  -13.9099998       8.06816026E-14
  -13.8999996       7.25618025E-14
  -13.8900003       4.28874160E-14
  -13.8800001      -4.49707241E-15
  -13.8699999      -6.00370177E-14
  -13.8599997      -1.10064349E-13
  -13.8500004      -1.39870849E-13
  -13.8400002      -1.37648424E-13
  -13.8299999      -9.83227104E-14
  -13.8199997      -2.61619526E-14
  -13.8100004       6.48029807E-14
  -13.8000002       1.53048608E-13
  -13.7900000       2.14330439E-13
  -13.7799997       2.28014873E-13
  -13.7700005       1.83420404E-13
  -13.7600002       8.43553404E-14
  -13.7500000      -4.97425316E-14
  -13.7399998      -1.86940375E-13
  -13.7299995      -2.90003319E-13
  -13.7200003      -3.26218734E-13
  -13.7100000      -2.77426167E-13
  -13.6999998      -1.47369299E-13
  -13.6899996       3.62089272E-14
  -13.6800003       2.26195080E-13
  -13.6700001       3.67195423E-13
  -13.6599998       4.10874107E-13
  -13.6499996       3.31687965E-13
  -13.6400003       1.38375395E-13
  -13.6300001      -1.23007249E-13
  -13.6199999      -3.76940802E-13
  -13.6099997      -5.36823949E-13
  -13.6000004      -5.30282469E-13
  -13.5900002      -3.25040803E-13
  -13.5799999       5.24236958E-14
  -13.5699997       5.12606396E-13
  -13.5600004       9.17369696E-13
  -13.5500002       1.11258095E-12
  -13.5400000       9.73018432E-13
  -13.5299997       4.48653538E-13
  -13.5200005      -4.01308517E-13
  -13.5100002      -1.39953880E-12
  -13.5000000      -2.27512063E-12
  -13.4899998      -2.72177593E-12
  -13.4799995      -2.48027879E-12
  -13.4700003      -1.42648079E-12
  -13.4600000       3.59228543E-13
  -13.4499998       2.56508096E-12
  -13.4399996       4.68075275E-12
  -13.4300003       6.09363254E-12
  -13.4200001       6.23529527E-12
  -13.4099998       4.74818145E-12
  -13.3999996       1.63076692E-12
  -13.3900003      -2.68300551E-12
  -13.3800001      -7.34504558E-12
  -13.3699999      -1.12296821E-11
  -13.3599997      -1.31715845E-11
  -13.3500004      -1.22613673E-11
  -13.3400002      -8.13161344E-12
  -13.3299999      -1.15638629E-12
  -13.3199997       7.50358976E-12
  -13.3100004       1.60492973E-11
  -13.3000002       2.23806945E-11
  -13.2900000       2.45684514E-11
  -13.2799997       2.13620163E-11
  -13.2700005       1.26108299E-11
  -13.2600002      -5.21436464E-13
  -13.2500000      -1.56354166E-11
  -13.2399998      -2.94914509E-11
  -13.2299995      -3.86696022E-11
  -13.2200003      -4.03678271E-11
  -13.2100000      -3.31599019E-11
  -13.1999998      -1.75208060E-11
  -13.1899996       4.03975508E-12
  -13.1800003       2.73182067E-11
  -13.1700001       4.72073769E-11
  -13.1599998       5.87973004E-11
  -13.1499996       5.85550913E-11
  -13.1400003       4.53065571E-11
  -13.1300001       2.07602512E-11
  -13.1199999      -1.06010721E-11
  -13.1099997      -4.23004201E-11
  -13.1000004      -6.71968245E-11
  -13.0900002      -7.90984292E-11
  -13.0799999      -7.42968603E-11
  -13.0699997      -5.26463075E-11
  -13.0600004      -1.78873739E-11
  -13.0500002       2.29271289E-11
  -13.0400000       6.08410752E-11
  -13.0299997       8.69672806E-11
  -13.0200005       9.45923201E-11
  -13.0100002       8.09160516E-11
  -13.0000000       4.79784407E-11
  -12.9899998       2.48945222E-12
  -12.9799995      -4.54758141E-11
  -12.9700003      -8.46803253E-11
  -12.9600000      -1.05353788E-10
  -12.9499998      -1.01635686E-10
  -12.9399996      -7.32248151E-11
  -12.9300003      -2.57793908E-11
  -12.9200001       3.01120066E-11
  -12.9099998       8.12285725E-11
  -12.8999996       1.14801550E-10
  -12.8900003       1.21675045E-10
  -12.8800001       9.87681256E-11
  -12.8699999       5.01851997E-11
  -12.8599997      -1.33861325E-11
  -12.8500004      -7.69483574E-11
  -12.8400002      -1.24678698E-10
  -12.8299999      -1.43833404E-10
  -12.8199997      -1.28123373E-10
  -12.8100004      -7.96823094E-11
  -12.8000002      -9.04214724E-12
  -12.7900000       6.70089331E-11
  -12.7799997       1.29288621E-10
  -12.7700005       1.60947269E-10
  -12.7600002       1.51927360E-10
  -12.7500000       1.02012662E-10
  -12.7399998       2.15990646E-11
  -12.7299995      -7.01728883E-11
  -12.7200003      -1.49646295E-10
  -12.7100000      -1.94348204E-10
  -12.6999998      -1.88841179E-10
  -12.6899996      -1.29269706E-10
  -12.6800003      -2.53638464E-11
  -12.6700001       1.00797551E-10
  -12.6599998       2.19208179E-10
  -12.6499996       2.98692460E-10
  -12.6400003       3.14513721E-10
  -12.6300001       2.55025501E-10
  -12.6199999       1.25661676E-10
  -12.6099997      -5.09114868E-11
  -12.6000004      -2.38806114E-10
  -12.5900002      -3.96420730E-10
  -12.5799999      -4.85882112E-10
  -12.5699997      -4.82276108E-10
  -12.5600004      -3.80425413E-10
  -12.5500002      -1.97405758E-10
  -12.5400000       3.01029202E-11
  -12.5299997       2.53354199E-10
  -12.5200005       4.22487823E-10
  -12.5100002       4.98497077E-10
  -12.5000000       4.63403371E-10
  -12.4899998       3.26055849E-10
  -12.4799995       1.21835542E-10
  -12.4700003      -9.41305228E-11
  -12.4600000      -2.59132243E-10
  -12.4499998      -3.17959992E-10
  -12.4399996      -2.37594472E-10
  -12.4300003      -1.80568529E-11
  -12.4200001       3.03363695E-10
  -12.4099998       6.55942578E-10
  -12.3999996       9.47086631E-10
  -12.3900003       1.07951104E-09
  -12.3800001       9.70519554E-10
  -12.3699999       5.69205905E-10
  -12.3599997      -1.32329245E-10
  -12.3500004      -1.09647302E-09
  -12.3400002      -2.24714292E-09
  -12.3299999      -3.48509643E-09
  -12.3199997      -4.70819428E-09
  -12.3100004      -5.83212589E-09
  -12.3000002      -6.80672896E-09
  -12.2900000      -7.62396724E-09
  -12.2799997      -8.31535285E-09
  -12.2700005      -8.93912500E-09
  -12.2600002      -9.55982227E-09
  -12.2500000      -1.02249782E-08
  -12.2399998      -1.09443876E-08
  -12.2299995      -1.16772219E-08
  -12.2200003      -1.23306751E-08
  -12.2100000      -1.27710598E-08
  -12.1999998      -1.28457094E-08
  -12.1899996      -1.24113191E-08
  -12.1800003      -1.13625029E-08
  -12.1700001      -9.65448343E-09
  -12.1599998      -7.31458183E-09
  -12.1499996      -4.43954651E-09
  -12.1400003      -1.17928767E-09
  -12.1300001       2.28997021E-09
  -12.1199999       5.79706727E-09
  -12.1099997       9.20528276E-09
  -12.1000004       1.24332882E-08
  -12.0900002       1.54632680E-08
  -12.0799999       1.83347968E-08
  -12.0699997       2.11262403E-08
  -12.0600004       2.39282283E-08
  -12.0500002       2.68154778E-08
  -12.0400000       2.98233189E-08
  -12.0299997       3.29341923E-08
  -12.0200005       3.60765142E-08
  -12.0100002       3.91357879E-08
  -12.0000000       4.19745554E-08
  -11.9899998       4.44561685E-08
  -11.9799995       4.64665568E-08
  -11.9700003       4.79292517E-08
  -11.9600000       4.88102501E-08
  -11.9499998       4.91127530E-08
  -11.9399996       4.88638108E-08
  -11.9300003       4.80969753E-08
  -11.9200001       4.68358081E-08
  -11.9099998       4.50825866E-08
  -11.8999996       4.28150884E-08
  -11.8900003       3.99920914E-08
  -11.8800001       3.65656057E-08
  -11.8699999       3.24965157E-08
  -11.8599997       2.77696568E-08
  -11.8500004       2.24034142E-08
  -11.8400002       1.64520966E-08
  -11.8299999       1.00000266E-08
  -11.8199997       3.14864912E-09
  -11.8100004      -4.00022193E-09
  -11.8000002      -1.13604761E-08
  -11.7900000      -1.88742106E-08
  -11.7799997      -2.65162914E-08
  -11.7700005      -3.42910553E-08
  -11.7600002      -4.22211599E-08
  -11.7500000      -5.03311526E-08
  -11.7399998      -5.86297624E-08
  -11.7299995      -6.70944402E-08
  -11.7200003      -7.56615322E-08
  -11.7100000      -8.42244745E-08
  -11.6999998      -9.26399082E-08
  -11.6899996      -1.00740820E-07
  -11.6800003      -1.08353724E-07
  -11.6700001      -1.15317143E-07
  -11.6599998      -1.21497422E-07
  -11.6499996      -1.26800060E-07
  -11.6400003      -1.31174204E-07
  -11.6300001      -1.34610431E-07
  -11.6199999      -1.37132901E-07
  -11.6099997      -1.38786532E-07
  -11.6000004      -1.39622657E-07
  -11.5900002      -1.39683564E-07
  -11.5799999      -1.38989762E-07
  -11.5699997      -1.37529867E-07
  -11.5600004      -1.35255121E-07
  -11.5500002      -1.32078924E-07
  -11.5400000      -1.27882458E-07
  -11.5299997      -1.22525620E-07
  -11.5200005      -1.15862008E-07
  -11.5100002      -1.07759519E-07
  -11.5000000      -9.81200046E-08
  -11.4899998      -8.68992842E-08
  -11.4799995      -7.41215871E-08
  -11.4700003      -5.98860126E-08
  -11.4600000      -4.43624373E-08
  -11.4499998      -2.77769487E-08
  -11.4399996      -1.03853681E-08
  -11.4300003       7.55868790E-09
  -11.4200001       2.58401709E-08
  -11.4099998       4.43119319E-08
  -11.3999996       6.29180974E-08
  -11.3900003       8.16981398E-08
  -11.3800001       1.00776539E-07
  -11.3699999       1.20334931E-07
  -11.3599997       1.40571828E-07
  -11.3500004       1.61656331E-07
  -11.3400002       1.83686041E-07
  -11.3299999       2.06655685E-07
  -11.3199997       2.30444925E-07
  -11.3100004       2.54828251E-07
  -11.3000002       2.79506850E-07
  -11.2900000       3.04156885E-07
  -11.2799997       3.28486522E-07
  -11.2700005       3.52290300E-07
  -11.2600002       3.75490174E-07
  -11.2500000       3.98153844E-07
  -11.2399998       4.20485975E-07
  -11.2299995       4.42792043E-07
  -11.2200003       4.65420044E-07
  -11.2100000       4.88689864E-07
  -11.1999998       5.12825068E-07
  -11.1899996       5.37897961E-07
  -11.1800003       5.63799745E-07
  -11.1700001       5.90243530E-07
  -11.1599998       6.16800321E-07
  -11.1499996       6.42960003E-07
  -11.1400003       6.68209225E-07
  -11.1300001       6.92111428E-07
  -11.1199999       7.14372845E-07
  -11.1099997       7.34884736E-07
  -11.1000004       7.53732081E-07
  -11.0900002       7.71170221E-07
  -11.0799999       7.87576369E-07
  -11.0699997       8.03382591E-07
  -11.0600004       8.19001684E-07
  -11.0500002       8.34771981E-07
  -11.0400000       8.50911874E-07
  -11.0299997       8.67504923E-07
  -11.0200005       8.84509461E-07
  -11.0100002       9.01785938E-07
  -11.0000000       9.19138813E-07
  -10.9899998       9.36358560E-07
  -10.9799995       9.53261519E-07
  -10.9700003       9.69712801E-07
  -10.9600000       9.85631345E-07
  -10.9499998       1.00099498E-06
  -10.9399996       1.01581088E-06
  -10.9300003       1.03010677E-06
  -10.9200001       1.04390131E-06
  -10.9099998       1.05720198E-06
  -10.8999996       1.06999653E-06
  -10.8900003       1.08226482E-06
  -10.8800001       1.09398979E-06
  -10.8699999       1.10518010E-06
  -10.8599997       1.11588645E-06
  -10.8500004       1.12619216E-06
  -10.8400002       1.13621672E-06
  -10.8299999       1.14607747E-06
  -10.8199997       1.15585874E-06
  -10.8100004       1.16556612E-06
  -10.8000002       1.17508591E-06
  -10.7900000       1.18417290E-06
  -10.7799997       1.19244453E-06
  -10.7700005       1.19943627E-06
  -10.7600002       1.20465234E-06
  -10.7500000       1.20766174E-06
  -10.7399998       1.20817094E-06
  -10.7299995       1.20611094E-06
  -10.7200003       1.20165225E-06
  -10.7100000       1.19520837E-06
  -10.6999998       1.18737171E-06
  -10.6899996       1.17881279E-06
  -10.6800003       1.17015747E-06
  -10.6700001       1.16188039E-06
  -10.6599998       1.15420107E-06
  -10.6499996       1.14705415E-06
  -10.6400003       1.14009777E-06
  -10.6300001       1.13278361E-06
  -10.6199999       1.12446139E-06
  -10.6099997       1.11451550E-06
  -10.6000004       1.10246572E-06
  -10.5900002       1.08806455E-06
  -10.5799999       1.07133280E-06
  -10.5699997       1.05256913E-06
  -10.5600004       1.03227978E-06
  -10.5500002       1.01111743E-06
  -10.5400000       9.89785804E-07
  -10.5299997       9.68950644E-07
  -10.5200005       9.49166690E-07
  -10.5100002       9.30818146E-07
  -10.5000000       9.14099189E-07
  -10.4899998       8.99006011E-07
  -10.4799995       8.85343354E-07
  -10.4700003       8.72767430E-07
  -10.4600000       8.60843159E-07
  -10.4499998       8.49076343E-07
  -10.4399996       8.37010077E-07
  -10.4300003       8.24274196E-07
  -10.4200001       8.10651670E-07
  -10.4099998       7.96123118E-07
  -10.3999996       7.80862990E-07
  -10.3900003       7.65215987E-07
  -10.3800001       7.49642425E-07
  -10.3699999       7.34639286E-07
  -10.3599997       7.20640344E-07
  -10.3500004       7.07949710E-07
  -10.3400002       6.96664472E-07
  -10.3299999       6.86688281E-07
  -10.3199997       6.77734135E-07
  -10.3100004       6.69389465E-07
  -10.3000002       6.61187926E-07
  -10.2900000       6.52710469E-07
  -10.2799997       6.43619217E-07
  -10.2700005       6.33724653E-07
  -10.2600002       6.22976586E-07
  -10.2500000       6.11464202E-07
  -10.2399998       5.99346663E-07
  -10.2299995       5.86820079E-07
  -10.2200003       5.74078967E-07
  -10.2100000       5.61286640E-07
  -10.1999998       5.48562582E-07
  -10.1899996       5.35996037E-07
  -10.1800003       5.23656070E-07
  -10.1700001       5.11618964E-07
  -10.1599998       4.99959242E-07
  -10.1499996       4.88767284E-07
  -10.1400003       4.78124662E-07
  -10.1300001       4.68084323E-07
  -10.1199999       4.58650447E-07
  -10.1099997       4.49754111E-07
  -10.1000004       4.41250421E-07
  -10.0900002       4.32936417E-07
  -10.0799999       4.24587626E-07
  -10.0699997       4.15980622E-07
  -10.0600004       4.06962272E-07
  -10.0500002       3.97471553E-07
  -10.0400000       3.87597566E-07
  -10.0299997       3.77570444E-07
  -10.0200005       3.67749379E-07
  -10.0100002       3.58592217E-07
  -10.0000000       3.50587442E-07
  -9.98999977       3.44194660E-07
  -9.97999954       3.39767439E-07
  -9.97000027       3.37507657E-07
  -9.96000004       3.37434386E-07
  -9.94999981       3.39380477E-07
  -9.93999958       3.43040938E-07
  -9.93000031       3.48033666E-07
  -9.92000008       3.53967522E-07
  -9.90999985       3.60542487E-07
  -9.89999962       3.67605395E-07
  -9.89000034       3.75191121E-07
  -9.88000011       3.83517403E-07
  -9.86999989       3.92943377E-07
  -9.85999966       4.03889942E-07
  -9.85000038       4.16732121E-07
  -9.84000015       4.31719911E-07
  -9.82999992       4.48896259E-07
  -9.81999969       4.68077587E-07
  -9.81000042       4.88870910E-07
  -9.80000019       5.10764664E-07
  -9.78999996       5.33224693E-07
  -9.77999973       5.55817849E-07
  -9.77000046       5.78309198E-07
  -9.76000023       6.00717328E-07
  -9.75000000       6.23301105E-07
  -9.73999977       6.46497881E-07
  -9.72999954       6.70818679E-07
  -9.72000027       6.96719383E-07
  -9.71000004       7.24504503E-07
  -9.69999981       7.54249641E-07
  -9.68999958       7.85795692E-07
  -9.68000031       8.18798867E-07
  -9.67000008       8.52798735E-07
  -9.65999985       8.87311046E-07
  -9.64999962       9.21900323E-07
  -9.64000034       9.56213512E-07
  -9.63000011       9.89984642E-07
  -9.61999989       1.02301294E-06
  -9.60999966       1.05512493E-06
  -9.60000038       1.08615779E-06
  -9.59000015       1.11597126E-06
  -9.57999992       1.14449551E-06
  -9.56999969       1.17176762E-06
  -9.56000042       1.19799824E-06
  -9.55000019       1.22356460E-06
  -9.53999996       1.24898486E-06
  -9.52999973       1.27482997E-06
  -9.52000046       1.30161629E-06
  -9.51000023       1.32969797E-06
  -9.50000000       1.35920288E-06
  -9.48999977       1.39001895E-06
  -9.47999954       1.42184888E-06
  -9.47000027       1.45431329E-06
  -9.46000004       1.48705988E-06
  -9.44999981       1.51984614E-06
  -9.43999958       1.55257817E-06
  -9.43000031       1.58529281E-06
  -9.42000008       1.61806565E-06
  -9.40999985       1.65096208E-06
  -9.39999962       1.68396195E-06
  -9.39000034       1.71696456E-06
  -9.38000011       1.74985553E-06
  -9.36999989       1.78258074E-06
  -9.35999966       1.81525388E-06
  -9.35000038       1.84818623E-06
  -9.34000015       1.88185641E-06
  -9.32999992       1.91679965E-06
  -9.31999969       1.95343046E-06
  -9.31000042       1.99187934E-06
  -9.30000019       2.03188461E-06
  -9.28999996       2.07279163E-06
  -9.27999973       2.11366205E-06
  -9.27000046       2.15344312E-06
  -9.26000023       2.19121489E-06
  -9.25000000       2.22632298E-06
  -9.23999977       2.25844883E-06
  -9.22999954       2.28753152E-06
  -9.22000027       2.31359172E-06
  -9.21000004       2.33649371E-06
  -9.19999981       2.35577272E-06
  -9.18999958       2.37055224E-06
  -9.18000031       2.37962013E-06
  -9.17000008       2.38163784E-06
  -9.15999985       2.37544305E-06
  -9.14999962       2.36029928E-06
  -9.14000034       2.33609308E-06
  -9.13000011       2.30333353E-06
  -9.11999989       2.26302245E-06
  -9.10999966       2.21640880E-06
  -9.10000038       2.16469925E-06
  -9.09000015       2.10885196E-06
  -9.07999992       2.04946218E-06
  -9.06999969       1.98683938E-06
  -9.06000042       1.92115522E-06
  -9.05000019       1.85264048E-06
  -9.03999996       1.78174571E-06
  -9.02999973       1.70918827E-06
  -9.02000046       1.63589436E-06
  -9.01000023       1.56284455E-06
  -9.00000000       1.49087566E-06
  -8.98999977       1.42056103E-06
  -8.97999954       1.35215930E-06
  -8.97000027       1.28569673E-06
  -8.96000004       1.22115978E-06
  -8.94999981       1.15867590E-06
  -8.93999958       1.09866414E-06
  -8.93000031       1.04188643E-06
  -8.92000008       9.89395062E-07
  -8.90999985       9.42370718E-07
  -8.89999962       9.01942371E-07
  -8.89000034       8.69038104E-07
  -8.88000011       8.44328156E-07
  -8.86999989       8.28245504E-07
  -8.85999966       8.21080619E-07
  -8.85000038       8.23092250E-07
  -8.84000015       8.34573541E-07
  -8.82999992       8.55849578E-07
  -8.81999969       8.87198610E-07
  -8.81000042       9.28754162E-07
  -8.80000019       9.80435175E-07
  -8.78999996       1.04194453E-06
  -8.77999973       1.11286374E-06
  -8.77000046       1.19285335E-06
  -8.76000023       1.28183297E-06
  -8.75000000       1.38013274E-06
  -8.73999977       1.48852041E-06
  -8.72999954       1.60807372E-06
  -8.72000027       1.73995784E-06
  -8.71000004       1.88514332E-06
  -8.69999981       2.04415278E-06
  -8.68999958       2.21697474E-06
  -8.68000031       2.40308759E-06
  -8.67000008       2.60165507E-06
  -8.65999985       2.81176244E-06
  -8.64999962       3.03264710E-06
  -8.64000034       3.26383201E-06
  -8.63000011       3.50508958E-06
  -8.61999989       3.75631998E-06
  -8.60999966       4.01735360E-06
  -8.60000038       4.28775365E-06
  -8.59000015       4.56676844E-06
  -8.57999992       4.85338842E-06
  -8.56999969       5.14653993E-06
  -8.56000042       5.44527893E-06
  -8.55000019       5.74901514E-06
  -8.53999996       6.05755577E-06
  -8.52999973       6.37103039E-06
  -8.52000046       6.68970597E-06
  -8.51000023       7.01374756E-06
  -8.50000000       7.34304376E-06
  -8.48999977       7.67713482E-06
  -8.47999954       8.01532769E-06
  -8.47000027       8.35688934E-06
  -8.46000004       8.70129315E-06
  -8.44999981       9.04836725E-06
  -8.43999958       9.39836718E-06
  -8.43000031       9.75180137E-06
  -8.42000008       1.01091828E-05
  -8.40999985       1.04707551E-05
  -8.39999962       1.08362419E-05
  -8.39000034       1.12047819E-05
  -8.38000011       1.15750945E-05
  -8.36999989       1.19456627E-05
  -8.35999966       1.23150658E-05
  -8.35000038       1.26822288E-05
  -8.34000015       1.30464841E-05
  -8.32999992       1.34074826E-05
  -8.31999969       1.37649668E-05
  -8.31000042       1.41184655E-05
  -8.30000019       1.44671412E-05
  -8.28999996       1.48096515E-05
  -8.27999973       1.51443455E-05
  -8.27000046       1.54694280E-05
  -8.26000023       1.57833911E-05
  -8.25000000       1.60851669E-05
  -8.23999977       1.63742243E-05
  -8.22999954       1.66505306E-05
  -8.22000027       1.69142622E-05
  -8.21000004       1.71655138E-05
  -8.19999981       1.74040688E-05
  -8.18999958       1.76292651E-05
  -8.18000031       1.78400460E-05
  -8.17000008       1.80352345E-05
  -8.15999985       1.82137301E-05
  -8.14999962       1.83747052E-05
  -8.14000034       1.85177269E-05
  -8.13000011       1.86426987E-05
  -8.11999989       1.87495880E-05
  -8.10999966       1.88383256E-05
  -8.10000038       1.89085495E-05
  -8.09000015       1.89595648E-05
  -8.07999992       1.89905695E-05
  -8.06999969       1.90007086E-05
  -8.06000042       1.89894927E-05
  -8.05000019       1.89568673E-05
  -8.03999996       1.89032617E-05
  -8.02999973       1.88295107E-05
  -8.02000046       1.87366404E-05
  -8.01000023       1.86255820E-05
  -8.00000000       1.84970213E-05
  -7.98999977       1.83513894E-05
  -7.98000002       1.81889209E-05
  -7.96999979       1.80099978E-05
  -7.96000004       1.78152422E-05
  -7.94999981       1.76057692E-05
  -7.94000006       1.73831286E-05
  -7.92999983       1.71492447E-05
  -7.92000008       1.69060477E-05
  -7.90999985       1.66552054E-05
  -7.90000010       1.63980494E-05
  -7.88999987       1.61354565E-05
  -7.88000011       1.58679159E-05
  -7.86999989       1.55958242E-05
  -7.86000013       1.53197070E-05
  -7.84999990       1.50403657E-05
  -7.84000015       1.47590345E-05
  -7.82999992       1.44771211E-05
  -7.82000017       1.41961264E-05
  -7.80999994       1.39174326E-05
  -7.80000019       1.36420749E-05
  -7.78999996       1.33706499E-05
  -7.78000021       1.31035949E-05
  -7.76999998       1.28411029E-05
  -7.76000023       1.25835550E-05
  -7.75000000       1.23315804E-05
  -7.73999977       1.20860095E-05
  -7.73000002       1.18478602E-05
  -7.71999979       1.16182418E-05
  -7.71000004       1.13980232E-05
  -7.69999981       1.11879026E-05
  -7.69000006       1.09883013E-05
  -7.67999983       1.07994656E-05
  -7.67000008       1.06216958E-05
  -7.65999985       1.04554283E-05
  -7.65000010       1.03014509E-05
  -7.63999987       1.01608630E-05
  -7.63000011       1.00348743E-05
  -7.61999989       9.92460446E-06
  -7.61000013       9.83092923E-06
  -7.59999990       9.75439525E-06
  -7.59000015       9.69511530E-06
  -7.57999992       9.65288746E-06
  -7.57000017       9.62742797E-06
  -7.55999994       9.61842306E-06
  -7.55000019       9.62581635E-06
  -7.53999996       9.64969604E-06
  -7.53000021       9.69037410E-06
  -7.51999998       9.74801151E-06
  -7.51000023       9.82267011E-06
  -7.50000000       9.91410070E-06
  -7.48999977       1.00216912E-05
  -7.48000002       1.01446558E-05
  -7.46999979       1.02821050E-05
  -7.46000004       1.04331666E-05
  -7.44999981       1.05972895E-05
  -7.44000006       1.07740580E-05