  -16.0000000       0.00000000    
  -15.9899998       0.00000000    
  -15.9799995       0.00000000    
  -15.9700003       0.00000000    
  -15.9600000       0.00000000    
  -15.9499998       0.00000000    
  -15.9399996       0.00000000    
  -15.9300003       0.00000000    
  -15.9200001       0.00000000    
  -15.9099998       0.00000000    
  -15.8999996       0.00000000    
  -15.8900003       2.99298154E-39
  -15.8800001       3.80087187E-38
  -15.8699999       2.05139176E-37
  -15.8599997       5.02975120E-37
  -15.8500004      -1.91687944E-37
  -15.8400002      -4.82353388E-36
  -15.8299999      -8.41482840E-36
  -15.8199997       3.84848815E-35
  -15.8100004       2.30390855E-34
  -15.8000002       2.21596022E-34
  -15.7900000      -3.13698226E-33
  -15.7799997      -2.25536650E-32
  -15.7700005      -9.30169914E-32
  -15.7600002      -2.84167836E-31
  -15.7500000      -6.86215234E-31
  -15.7399998      -1.31526684E-30
  -15.7299995      -1.87279196E-30
  -15.7200003      -1.35012372E-30
  -15.7100000       2.35755924E-30
  -15.6999998       1.23884466E-29
  -15.6899996       3.17398611E-29
  -15.6800003       6.04258113E-29
  -15.6700001       9.10648710E-29
  -15.6599998       1.04067239E-28
  -15.6499996       6.44945429E-29
  -15.6400003      -7.70687951E-29
  -15.6300001      -3.76793412E-28
  -15.6199999      -8.76515081E-28
  -15.6099997      -1.55320886E-27
  -15.6000004      -2.21252604E-27
  -15.5900002      -2.31128965E-27
  -15.5799999      -7.68568344E-28
  -15.5699997       4.00354266E-27
  -15.5600004       1.33922266E-26
  -15.5500002       2.66658960E-26
  -15.5400000       3.77769957E-26
  -15.5299997       3.22290109E-26
  -15.5200005      -1.23339096E-26
  -15.5100002      -1.16104942E-25
  -15.5000000      -2.72866174E-25
  -15.4899998      -4.14195757E-25
  -15.4799995      -3.80810153E-25
  -15.4700003       5.97203820E-26
  -15.4600000       1.09853427E-24
  -15.4499998       2.64604123E-24
  -15.4399996       4.01786541E-24
  -15.4300003       3.73270600E-24
  -15.4200001      -2.48040499E-25
  -15.4099998      -9.47705385E-24
  -15.3999996      -2.30555091E-23
  -15.3900003      -3.52652537E-23
  -15.3800001      -3.42803419E-23
  -15.3699999      -4.30187151E-24
  -15.3599997       6.65876985E-23
  -15.3500004       1.72479312E-22
  -15.3400002       2.73561260E-22
  -15.3299999       2.87839062E-22
  -15.3199997       1.05366700E-22
  -15.3100004      -3.61470658E-22
  -15.3000002      -1.09039641E-21
  -15.2900000      -1.84879492E-21
  -15.2799997      -2.13842021E-21
  -15.2700005      -1.26903208E-21
  -15.2600002       1.36286528E-21
  -15.2500000       5.78085955E-21
  -15.2399998       1.08472079E-20
  -15.2299995       1.38951350E-20
  -15.2200003       1.10130722E-20
  -15.2100000      -1.60794258E-21
  -15.1999998      -2.51674047E-20
  -15.1899996      -5.51418177E-20
  -15.1800003      -7.89748816E-20
  -15.1700001      -7.66881537E-20
  -15.1599998      -2.65252976E-20
  -15.1499996       8.35472064E-20
  -15.1400003       2.40489761E-19
  -15.1300001       3.92903889E-19
  -15.1199999       4.49240808E-19
  -15.1099997       2.97712978E-19
  -15.1000004      -1.46397669E-19
  -15.0900002      -8.71538070E-19
  -15.0799999      -1.70082954E-18
  -15.0699997      -2.26169398E-18
  -15.0600004      -2.03994712E-18
  -15.0500002      -5.51510162E-19
  -15.0400000       2.37492301E-18
  -15.0299997       6.27540985E-18
  -15.0200005       9.83137907E-18
  -15.0100002       1.09420212E-17
  -15.0000000       7.25510934E-18
  -14.9899998      -2.80097624E-18
  -14.9799995      -1.86706410E-17
  -14.9700003      -3.64824436E-17
  -14.9600000      -4.87247133E-17
  -14.9499998      -4.55209270E-17
  -14.9399996      -1.79197926E-17
  -14.9300003       3.71146379E-17
  -14.9200001       1.11362863E-16
  -14.9099998       1.82027923E-16
  -14.8999996       2.13297785E-16
  -14.8900003       1.65077444E-16
  -14.8800001       9.15702917E-18
  -14.8699999      -2.50273751E-16
  -14.8599997      -5.58725802E-16
  -14.8500004      -8.05976890E-16
  -14.8400002      -8.42928331E-16
  -14.8299999      -5.26026942E-16
  -14.8199997       2.15019592E-16
  -14.8100004       1.30344151E-15
  -14.8000002       2.46504735E-15
  -14.7900000       3.23669818E-15
  -14.7799997       3.06226614E-15
  -14.7700005       1.48179499E-15
  -14.7600002      -1.61806925E-15
  -14.7500000      -5.76766460E-15
  -14.7399998      -9.80051933E-15
  -14.7299995      -1.19744074E-14
  -14.7200003      -1.03971211E-14
  -14.7100000      -3.73359968E-15
  -14.6999998       7.95839208E-15
  -14.6899996       2.25457758E-14
  -14.6800003       3.56466362E-14
  -14.6700001       4.12841419E-14
  -14.6599998       3.35006138E-14
  -14.6499996       8.73808675E-15
  -14.6400003      -3.16072140E-14
  -14.6300001      -7.93909074E-14
  -14.6199999      -1.19744533E-13
  -14.6099997      -1.33732191E-13
  -14.6000004      -1.03782658E-13
  -14.5900002      -2.10215519E-14
  -14.5799999       1.07488102E-13
  -14.5699997       2.54404381E-13
  -14.5600004       3.73549336E-13
  -14.5500002       4.09025407E-13
  -14.5400000       3.11775155E-13
  -14.5299997       6.04667412E-14
  -14.5200005      -3.19279000E-13
  -14.5100002      -7.45060263E-13
  -14.5000000      -1.08456191E-12
  -14.4899998      -1.18312803E-12
  -14.4799995      -9.10025744E-13
  -14.4700003      -2.13882297E-13
  -14.4600000       8.29059206E-13
  -14.4499998       1.99360298E-12
  -14.4399996       2.92849404E-12
  -14.4300003       3.23135334E-12
  -14.4200001       2.56795735E-12
  -14.4099998       8.10048046E-13
  -14.3999996      -1.84935379E-12
  -14.3900003      -4.85008171E-12
  -14.3800001      -7.32708599E-12
  -14.3699999      -8.29520827E-12
  -14.3599997      -6.93401109E-12
  -14.3500004      -2.90952202E-12
  -14.3400002       3.36221480E-12
  -14.3299999       1.06142777E-11
  -14.3199997       1.68729440E-11
  -14.3100004       1.98725064E-11
  -14.3000002       1.76859395E-11
  -14.2900000       9.43070361E-12
  -14.2799997      -4.15428369E-12
  -14.2700005      -2.04791930E-11
  -14.2600002      -3.53882826E-11
  -14.2500000      -4.40070931E-11
  -14.2399998      -4.20354446E-11
  -14.2299995      -2.72005040E-11
  -14.2200003      -4.63437665E-13
  -14.2100000       3.34499858E-11
  -14.1999998       6.65194289E-11
  -14.1899996       8.89962062E-11
  -14.1800003       9.18494308E-11
  -14.1700001       6.95636604E-11
  -14.1599998       2.25364363E-11
  -14.1499996      -4.17158703E-11
  -14.1400003      -1.09151195E-10
  -14.1300001      -1.61793218E-10
  -14.1199999      -1.81978974E-10
  -14.1099997      -1.57370061E-10
  -14.1000004      -8.54462334E-11
  -14.0900002       2.38892881E-11
  -14.0799999       1.48675738E-10
  -14.0699997       2.58658706E-10
  -14.0600004       3.22001231E-10
  -14.0500002       3.13587378E-10
  -14.0400000       2.22901850E-10
  -14.0299997       5.92681529E-11
  -14.0200005      -1.47390933E-10
  -14.0100002      -3.51159046E-10
  -14.0000000      -4.99663977E-10
  -13.9899998      -5.46720780E-10
  -13.9799995      -4.65175620E-10
  -13.9700003      -2.56598937E-10
  -13.9600000       4.51288555E-11
  -13.9499998       3.78065718E-10
  -13.9399996       6.64189093E-10
  -13.9300003       8.26991031E-10
  -13.9200001       8.10865264E-10
  -13.9099998       5.97565997E-10
  -13.8999996       2.15229362E-10
  -13.8900003      -2.63173150E-10
  -13.8800001      -7.32735761E-10
  -13.8699999      -1.07891851E-09
  -13.8599997      -1.20468935E-09
  -13.8500004      -1.05629472E-09
  -13.8400002      -6.41111941E-10
  -13.8299999      -3.23142381E-11
  -13.8199997       6.42186471E-10
  -13.8100004       1.22544830E-09
  -13.8000002       1.56704050E-09
  -13.7900000       1.56069146E-09
  -13.7799997       1.17493881E-09
  -13.7700005       4.68488526E-10
  -13.7600002      -4.15121132E-10
  -13.7500000      -1.27441735E-09
  -13.7399998      -1.89402427E-09
  -13.7299995      -2.09671991E-09
  -13.7200003      -1.79137860E-09
  -13.7100000      -1.00443054E-09
  -13.6999998       1.14729191E-10
  -13.6899996       1.31844502E-09
  -13.6800003       2.31254038E-09
  -13.6700001       2.82488166E-09
  -13.6599998       2.67533551E-09
  -13.6499996       1.82971172E-09
  -13.6400003       4.22715446E-10
  -13.6300001      -1.25876920E-09
  -13.6199999      -2.83150969E-09
  -13.6099997      -3.90047994E-09
  -13.6000004      -4.15363210E-09
  -13.5900002      -3.44434947E-09
  -13.5799999      -1.84044724E-09
  -13.5699997       3.74716591E-10
  -13.5600004       2.75242984E-09
  -13.5500002       4.77119322E-09
  -13.5400000       5.95181815E-09
  -13.5299997       5.96886407E-09
  -13.5200005       4.73184869E-09
  -13.5100002       2.41622677E-09
  -13.5000000      -5.64513103E-10
  -13.4899998      -3.64062958E-09
  -13.4799995      -6.20382146E-09
  -13.4700003      -7.73459163E-09
  -13.4600000      -7.91089416E-09
  -13.4499998      -6.67410660E-09
  -13.4399996      -4.23870894E-09
  -13.4300003      -1.04466524E-09
  -13.4200001       2.33531416E-09
  -13.4099998       5.31284750E-09
  -13.3999996       7.39917416E-09
  -13.3900003       8.29521341E-09
  -13.3800001       7.93854049E-09
  -13.3699999       6.49970922E-09
  -13.3599997       4.33062608E-09
  -13.3500004       1.87723281E-09
  -13.3400002      -4.24412117E-10
  -13.3299999      -2.24659535E-09
  -13.3199997      -3.44175333E-09
  -13.3100004      -4.07051592E-09
  -13.3000002      -4.37705161E-09
  -13.2900000      -4.71244688E-09
  -13.2799997      -5.41836842E-09
  -13.2700005      -6.69425759E-09
  -13.2600002      -8.47948023E-09
  -13.2500000      -1.03848823E-08
  -13.2399998      -1.17041292E-08
  -13.2299995      -1.15219603E-08
  -13.2200003      -8.91628016E-09
  -13.2100000      -3.22560623E-09
  -13.1999998       5.67079539E-09
  -13.1899996       1.71295049E-08
  -13.1800003       2.96491560E-08
  -13.1700001       4.09634744E-08
  -13.1599998       4.83462266E-08
  -13.1499996       4.91057186E-08
  -13.1400003       4.11955519E-08
  -13.1300001       2.38251872E-08
  -13.1199999      -2.07132178E-09
  -13.1099997      -3.36437260E-08
  -13.1000004      -6.63087221E-08
  -13.0900002      -9.43383611E-08
  -13.0799999      -1.11796012E-07
  -13.0699997      -1.13679484E-07
  -13.0600004      -9.70586029E-08
  -13.0500002      -6.19658493E-08
  -13.0400000      -1.18166747E-08
  -13.0299997       4.67943693E-08
  -13.0200005       1.04961522E-07
  -13.0100002       1.52901706E-07
  -13.0000000       1.81722356E-07
  -12.9899998       1.85190629E-07
  -12.9799995       1.61133201E-07
  -12.9700003       1.12132923E-07
  -12.9600000       4.53068765E-08
  -12.9499998      -2.88662321E-08
  -12.9399996      -9.84959101E-08
  -12.9300003      -1.52633575E-07
  -12.9200001      -1.83532208E-07
  -12.9099998      -1.88282556E-07
  -12.8999996      -1.69398390E-07
  -12.8900003      -1.34131923E-07
  -12.8800001      -9.25960109E-08
  -12.8699999      -5.50722561E-08
  -12.8599997      -2.91337514E-08
  -12.8500004      -1.73239414E-08
  -12.8400002      -1.60719917E-08
  -12.8299999      -1.62806000E-08
  -12.8199997      -5.62773561E-09
  -12.8100004       2.78216987E-08
  -12.8000002       9.15049370E-08
  -12.7900000       1.84802161E-07
  -12.7799997       2.97077065E-07
  -12.7700005       4.08097122E-07
  -12.7600002       4.91095193E-07
  -12.7500000       5.18103093E-07
  -12.7399998       4.66551398E-07
  -12.7299995       3.25688177E-07
  -12.7200003       1.01225083E-07
  -12.7100000      -1.83139704E-07
  -12.6999998      -4.88077205E-07
  -12.6899996      -7.64779202E-07
  -12.6800003      -9.63910452E-07
  -12.6700001      -1.04562207E-06
  -12.6599998      -9.88464649E-07
  -12.6499996      -7.95116591E-07
  -12.6400003      -4.93384505E-07
  -12.6300001      -1.31903278E-07
  -12.6199999       2.28890045E-07
  -12.6099997       5.28809267E-07
  -12.6000004       7.20533706E-07
  -12.5900002       7.80004882E-07
  -12.5799999       7.12203700E-07
  -12.5699997       5.50772086E-07
  -12.5600004       3.51268511E-07
  -12.5500002       1.79253547E-07
  -12.5400000       9.56076960E-08
  -12.5299997       1.42227577E-07
  -12.5200005       3.31273668E-07
  -12.5100002       6.40478959E-07
  -12.5000000       1.01574062E-06
  -12.4899998       1.38059943E-06
  -12.4799995       1.65063000E-06
  -12.4700003       1.74955630E-06
  -12.4600000       1.62342110E-06
  -12.4499998       1.24948895E-06
  -12.4399996       6.37720120E-07
  -12.4300003      -1.75587061E-07
  -12.4200001      -1.14047270E-06
  -12.4099998      -2.20912375E-06
  -12.3999996      -3.35066147E-06
  -12.3900003      -4.56074622E-06
  -12.3800001      -5.86291480E-06
  -12.3699999      -7.30043303E-06
  -12.3599997      -8.91984564E-06
  -12.3500004      -1.07496271E-05
  -12.3400002      -1.27789936E-05
  -12.3299999      -1.49423886E-05
  -12.3199997      -1.71143456E-05
  -12.3100004      -1.91174240E-05
  -12.3000002      -2.07430021E-05
  -12.2900000      -2.17816942E-05
  -12.2799997      -2.20576258E-05
  -12.2700005      -2.14594111E-05
  -12.2600002      -1.99610113E-05
  -12.2500000      -1.76273006E-05
  -12.2399998      -1.46025623E-05
  -12.2299995      -1.10836954E-05
  -12.2200003      -7.28358327E-06
  -12.2100000      -3.39248322E-06
  -12.1999998       4.53989742E-07
  -12.1899996       4.19293019E-06
  -12.1800003       7.83398627E-06
  -12.1700001       1.14408449E-05
  -12.1599998       1.50986980E-05
  -12.1499996       1.88754075E-05
  -12.1400003       2.27860673E-05
  -12.1300001       2.67699706E-05
  -12.1199999       3.06865659E-05
  -12.1099997       3.43323190E-05
  -12.1000004       3.74755946E-05
  -12.0900002       3.99019118E-05
  -12.0799999       4.14592905E-05
  -12.0699997       4.20925317E-05
  -12.0600004       4.18579293E-05
  -12.0500002       4.09138593E-05
  -12.0400000       3.94884846E-05
  -12.0299997       3.78313853E-05
  -12.0200005       3.61598250E-05
  -12.0100002       3.46120760E-05
  -12.0000000       3.32189156E-05
  -11.9899998       3.19002502E-05
  -11.9799995       3.04880487E-05
  -11.9700003       2.87705097E-05
  -11.9600000       2.65471954E-05
  -11.9499998       2.36820179E-05
  -11.9399996       2.01412822E-05
  -11.9300003       1.60075069E-05
  -11.9200001       1.14650993E-05
  -11.9099998       6.76109084E-06
  -11.8999996       2.14993042E-06
  -11.8900003      -2.16462990E-06
  -11.8800001      -6.07654238E-06
  -11.8699999      -9.60179113E-06
  -11.8599997      -1.28736765E-05
  -11.8500004      -1.61095304E-05
  -11.8400002      -1.95559551E-05
  -11.8299999      -2.34250001E-05
  -11.8199997      -2.78357966E-05
  -11.8100004      -3.27753260E-05
  -11.8000002      -3.80874990E-05
  -11.7900000      -4.34935318E-05
  -11.7799997      -4.86393583E-05
  -11.7700005      -5.31598816E-05
  -11.7600002      -5.67459028E-05
  -11.7500000      -5.91991775E-05
  -11.7399998      -6.04637717E-05
  -11.7299995      -6.06274043E-05
  -11.7200003      -5.98930819E-05
  -11.7100000      -5.85283015E-05
  -11.6999998      -5.68034957E-05
  -11.6899996      -5.49341130E-05
  -11.6800003      -5.30388279E-05
  -11.6700001      -5.11231083E-05
  -11.6599998      -4.90905186E-05
  -11.6499996      -4.67783138E-05
  -11.6400003      -4.40079966E-05
  -11.6300001      -4.06384243E-05
  -11.6199999      -3.66087297E-05
  -11.6099997      -3.19611645E-05
  -11.6000004      -2.68387212E-05
  -11.5900002      -2.14585179E-05
  -11.5799999      -1.60676245E-05
  -11.5699997      -1.08917129E-05
  -11.5600004      -6.08858500E-06
  -11.5500002      -1.71714089E-06
  -11.5400000       2.27134683E-06
  -11.5299997       6.01809415E-06
  -11.5200005       9.72148518E-06
  -11.5100002       1.35898581E-05
  -11.5000000       1.77930033E-05
  -11.4899998       2.24231408E-05
  -11.4799995       2.74734193E-05
  -11.4700003       3.28385140E-05
  -11.4600000       3.83362167E-05
  -11.4499998       4.37448543E-05
  -11.4399996       4.88478363E-05
  -11.4300003       5.34751562E-05
  -11.4200001       5.75328122E-05
  -11.4099998       6.10137395E-05
  -11.3999996       6.39882346E-05
  -11.3900003       6.65764674E-05
  -11.3800001       6.89097651E-05
  -11.3699999       7.10898603E-05
  -11.3599997       7.31557375E-05
  -11.3500004       7.50663676E-05
  -11.3400002       7.67032980E-05
  -11.3299999       7.78931790E-05
  -11.3199997       7.84452131E-05
  -11.3100004       7.81951239E-05
  -11.3000002       7.70455008E-05
  -11.2900000       7.49934770E-05
  -11.2799997       7.21391552E-05
  -11.2700005       6.86731510E-05
  -11.2600002       6.48462737E-05
  -11.2500000       6.09282106E-05
  -11.2399998       5.71645942E-05
  -11.2299995       5.37416272E-05
  -11.2200003       5.07649602E-05
  -11.2100000       4.82559626E-05
  -11.1999998       4.61640157E-05
  -11.1899996       4.43900390E-05
  -11.1800003       4.28143903E-05
  -11.1700001       4.13223861E-05
  -11.1599998       3.98221964E-05
  -11.1499996       3.82529870E-05
  -11.1400003       3.65838241E-05
  -11.1300001       3.48061476E-05
  -11.1199999       3.29234790E-05
  -11.1099997       3.09416464E-05
  -11.1000004       2.88616793E-05
  -11.0900002       2.66758325E-05
  -11.0799999       2.43662125E-05
  -11.0699997       2.19054109E-05
  -11.0600004       1.92586594E-05
  -11.0500002       1.63880723E-05
  -11.0400000       1.32600017E-05
  -11.0299997       9.85638508E-06
  -11.0200005       6.18976173E-06
  -11.0100002       2.31986473E-06
  -11.0000000      -1.63208927E-06
  -10.9899998      -5.47651644E-06
  -10.9799995      -8.96071106E-06
  -10.9700003      -1.17890268E-05
  -10.9600000      -1.36574581E-05
  -10.9499998      -1.42983845E-05
  -10.9399996      -1.35278051E-05
  -10.9300003      -1.12857088E-05
  -10.9200001      -7.66064386E-06
  -10.9099998      -2.89202148E-06
  -10.8999996       2.65191966E-06
  -10.8900003       8.51787081E-06
  -10.8800001       1.42258477E-05
  -10.8699999       1.93323776E-05
  -10.8599997       2.34876188E-05
  -10.8500004       2.64768423E-05
  -10.8400002       2.82395849E-05
  -10.8299999       2.88635310E-05
  -10.8199997       2.85545739E-05
  -10.8100004       2.75881157E-05
  -10.8000002       2.62500616E-05
  -10.7900000       2.47775042E-05
  -10.7799997       2.33096416E-05
  -10.7700005       2.18582081E-05
  -10.7600002       2.03037180E-05
  -10.7500000       1.84192759E-05
  -10.7399998       1.59185456E-05
  -10.7299995       1.25190700E-05
  -10.7200003       8.00833459E-06
  -10.7100000       2.29842271E-06
  -10.6999998      -4.54300334E-06
  -10.6899996      -1.22926767E-05
  -10.6800003      -2.06028653E-05
  -10.6700001      -2.90559710E-05
  -10.6599998      -3.72292379E-05
  -10.6499996      -4.47535240E-05
  -10.6400003      -5.13522355E-05
  -10.6300001      -5.68524592E-05
  -10.6199999      -6.11691503E-05
  -10.6099997      -6.42709856E-05
  -10.6000004      -6.61425511E-05
  -10.5900002      -6.67576387E-05
  -10.5799999      -6.60746882E-05
  -10.5699997      -6.40566795E-05
  -10.5600004      -6.07089387E-05
  -10.5500002      -5.61204579E-05
  -10.5400000      -5.04919626E-05
  -10.5299997      -4.41366537E-05
  -10.5200005      -3.74476294E-05
  -10.5100002      -3.08366289E-05
  -10.5000000      -2.46585005E-05
  -10.4899998      -1.91414638E-05
  -10.4799995      -1.43430761E-05
  -10.4700003      -1.01453079E-05
  -10.4600000      -6.29158467E-06
  -10.4499998      -2.45710771E-06
  -10.4399996       1.66512211E-06
  -10.4300003       6.28399539E-06
  -10.4200001       1.14545746E-05
  -10.4099998       1.70584499E-05
  -10.3999996       2.28218396E-05
  -10.3900003       2.83636109E-05
  -10.3800001       3.32598720E-05
  -10.3699999       3.71102360E-05
  -10.3599997       3.95942734E-05
  -10.3500004       4.05118444E-05
  -10.3400002       3.98066077E-05
  -10.3299999       3.75754717E-05
  -10.3199997       3.40670413E-05
  -10.3100004       2.96702292E-05
  -10.3000002       2.48911128E-05
  -10.2900000       2.03144136E-05
  -10.2799997       1.65470083E-05
  -10.2700005       1.41448127E-05
  -10.2600002       1.35304499E-05
  -10.2500000       1.49150910E-05
  -10.2399998       1.82410949E-05
  -10.2299995       2.31613521E-05
  -10.2200003       2.90653352E-05
  -10.2100000       3.51527342E-05
  -10.1999998       4.05449973E-05
  -10.1899996       4.44163707E-05
  -10.1800003       4.61211821E-05
  -10.1700001       4.52946297E-05
  -10.1599998       4.19100543E-05
  -10.1499996       3.62840037E-05
  -10.1400003       2.90304397E-05
  -10.1300001       2.09735081E-05
  -10.1199999       1.30339204E-05
  -10.1099997       6.10586994E-06
  -10.1000004       9.41228109E-07
  -10.0900002      -1.94523341E-06
  -10.0799999      -2.33863511E-06
  -10.0699997      -3.47900993E-07
  -10.0600004       3.61236584E-06
  -10.0500002       8.88081740E-06
  -10.0400000       1.46424409E-05
  -10.0299997       2.00439736E-05
  -10.0200005       2.43151408E-05
  -10.0100002       2.68767926E-05
  -10.0000000       2.74179456E-05
  -9.98999977       2.59287663E-05
  -9.97999954       2.26846423E-05
  -9.97000027       1.81863397E-05
  -9.96000004       1.30697763E-05
  -9.94999981       8.00434100E-06
  -9.93999958       3.59918363E-06
  -9.93000031       3.32268002E-07
  -9.92000008      -1.49051277E-06
  -9.90999985      -1.74750801E-06
  -9.89999962      -4.92030154E-07
  -9.89000034       2.06828076E-06
  -9.88000011       5.59587033E-06
  -9.86999989       9.64874016E-06
  -9.85999966       1.37098759E-05
  -9.85000038       1.72270175E-05
  -9.84000015       1.96686160E-05
  -9.82999992       2.05965407E-05
  -9.81999969       1.97486606E-05
  -9.81000042       1.71161937E-05
  -9.80000019       1.29962373E-05
  -9.78999996       8.00057660E-06
  -9.77999973       3.00867214E-06
  -9.77000046      -9.36129993E-07
  -9.76000023      -2.77450931E-06
  -9.75000000      -1.59952322E-06
  -9.73999977       3.18451544E-06
  -9.72999954       1.17423160E-05
  -9.72000027       2.37498625E-05
  -9.71000004       3.84099367E-05
  -9.69999981       5.45393996E-05
  -9.68999958       7.07145155E-05
  -9.68000031       8.54523096E-05
  -9.67000008       9.74013237E-05
  -9.65999985       1.05515559E-04
  -9.64999962       1.09187953E-04
  -9.64000034       1.08325781E-04
  -9.63000011       1.03357539E-04
  -9.61999989       9.51689726E-05
  -9.60999966       8.49754142E-05
  -9.60000038       7.41472177E-05
  -9.59000015       6.40132712E-05
  -9.57999992       5.56726227E-05
  -9.56999969       4.98459558E-05
  -9.56000042       4.67924401E-05
  -9.55000019       4.63066717E-05
  -9.53999996       4.77954454E-05
  -9.52999973       5.04175187E-05
  -9.52000046       5.32574886E-05
  -9.51000023       5.54976396E-05
  -9.50000000       5.65548216E-05
  -9.48999977       5.61583402E-05
  -9.47999954       5.43608148E-05
  -9.47000027       5.14890453E-05
  -9.46000004       4.80546878E-05
  -9.44999981       4.46498998E-05
  -9.43999958       4.18515992E-05
  -9.43000031       4.01501420E-05
  -9.42000008       3.99080200E-05
  -9.40999985       4.13449307E-05
  -9.39999962       4.45402839E-05
  -9.39000034       4.94441047E-05
  -9.38000011       5.58902539E-05
  -9.36999989       6.36115074E-05
  -9.35999966       7.22588738E-05
  -9.35000038       8.14288724E-05
  -9.34000015       9.06984351E-05
  -9.32999992       9.96636227E-05
  -9.31999969       1.07973749E-04
  -9.31000042       1.15352297E-04
  -9.30000019       1.21599420E-04
  -9.28999996       1.26576793E-04
  -9.27999973       1.30183573E-04
  -9.27000046       1.32335495E-04
  -9.26000023       1.32959161E-04
  -9.25000000       1.32006739E-04
  -9.23999977       1.29487045E-04
  -9.22999954       1.25499078E-04
  -9.22000027       1.20249075E-04
  -9.21000004       1.14035312E-04
  -9.19999981       1.07193860E-04
  -9.18999958       1.00013713E-04
  -9.18000031       9.26438006E-05
  -9.17000008       8.50228098E-05
  -9.15999985       7.68592436E-05
  -9.14999962       6.76782802E-05
  -9.14000034       5.69312251E-05
  -9.13000011       4.41419397E-05
  -9.11999989       2.90518547E-05
  -9.10999966       1.17215850E-05
  -9.10000038      -7.44120462E-06
  -9.09000015      -2.77373729E-05
  -9.07999992      -4.82982832E-05
  -9.06999969      -6.82397149E-05
  -9.06000042      -8.68023053E-05
  -9.05000019      -1.03441358E-04
  -9.03999996      -1.17846917E-04
  -9.02999973      -1.29899287E-04
  -9.02000046      -1.39587413E-04
  -9.01000023      -1.46927137E-04
  -9.00000000      -1.51914210E-04
  -8.98999977      -1.54528738E-04
  -8.97999954      -1.54786001E-04
  -8.97000027      -1.52807072E-04
  -8.96000004      -1.48873456E-04
  -8.94999981      -1.43433135E-04
  -8.93999958      -1.37044495E-04
  -8.93000031      -1.30267363E-04
  -8.92000008      -1.23533900E-04
  -8.90999985      -1.17042204E-04
  -8.89999962      -1.10711364E-04
  -8.89000034      -1.04217273E-04
  -8.88000011      -9.71028348E-05
  -8.86999989      -8.89286748E-05
  -8.85999966      -7.94189618E-05
  -8.85000038      -6.85555788E-05
  -8.84000015      -5.65932714E-05
  -8.82999992      -4.39941250E-05
  -8.81999969      -3.13072524E-05
  -8.81000042      -1.90348728E-05
  -8.80000019      -7.53013819E-06
  -8.78999996       3.04458263E-06
  -8.77999973       1.26914238E-05
  -8.77000046       2.15023556E-05
  -8.76000023       2.95703376E-05
  -8.75000000       3.69240224E-05
  -8.73999977       4.35109177E-05
  -8.72999954       4.92334329E-05
  -8.72000027       5.40200272E-05
  -8.71000004       5.79005646E-05
  -8.69999981       6.10538409E-05
  -8.68999958       6.38078418E-05
  -8.68000031       6.65928383E-05
  -8.67000008       6.98652220E-05
  -8.65999985       7.40325413E-05
  -8.64999962       7.94054140E-05
  -8.64000034       8.61898079E-05
  -8.63000011       9.45141437E-05
  -8.61999989       1.04469924E-04
  -8.60999966       1.16138901E-04
  -8.60000038       1.29587221E-04
  -8.59000015       1.44825026E-04
  -8.57999992       1.61747899E-04
  -8.56999969       1.80092611E-04
  -8.56000042       1.99435919E-04
  -8.55000019       2.19253241E-04
  -8.53999996       2.39027533E-04
  -8.52999973       2.58375367E-04
  -8.52000046       2.77144078E-04
  -8.51000023       2.95435631E-04
  -8.50000000       3.13540775E-04
  -8.48999977       3.31796065E-04
  -8.47999954       3.50410613E-04
  -8.47000027       3.69328307E-04
  -8.46000004       3.88181361E-04
  -8.44999981       4.06365842E-04
  -8.43999958       4.23222489E-04
  -8.43000031       4.38265939E-04
  -8.42000008       4.51380707E-04
  -8.40999985       4.62905067E-04
  -8.39999962       4.73560271E-04
  -8.39000034       4.84235090E-04
  -8.38000011       4.95687709E-04
  -8.36999989       5.08264056E-04
  -8.35999966       5.21731679E-04
  -8.35000038       5.35293599E-04
  -8.34000015       5.47786534E-04
  -8.32999992       5.58003900E-04
  -8.31999969       5.65037015E-04
  -8.31000042       5.68519172E-04
  -8.30000019       5.68687625E-04
  -8.28999996       5.66241564E-04
  -8.27999973       5.62046887E-04
  -8.27000046       5.56792540E-04
  -8.26000023       5.50723576E-04
  -8.25000000       5.43548667E-04
  -8.23999977       5.34557854E-04
  -8.22999954       5.22906543E-04
  -8.22000027       5.07965975E-04
  -8.21000004       4.89604019E-04
  -8.19999981       4.68292827E-04
  -8.18999958       4.44994832E-04
  -8.18000031       4.20862110E-04
  -8.17000008       3.96856427E-04
  -8.15999985       3.73424817E-04
  -8.14999962       3.50352522E-04
  -8.14000034       3.26851587E-04
  -8.13000011       3.01858090E-04
  -8.11999989       2.74436461E-04
  -8.10999966       2.44145253E-04
  -8.10000038       2.11233972E-04
  -8.09000015       1.76597299E-04
  -8.07999992       1.41499608E-04
  -8.06999969       1.07168278E-04
  -8.06000042       7.43997953E-05
  -8.05000019       4.33212663E-05
  -8.03999996       1.33938083E-05
  -8.02999973      -1.63410295E-05
  -8.02000046      -4.68589387E-05
  -8.01000023      -7.87363388E-05
  -8.00000000      -1.11867521E-04
  -7.98999977      -1.45415397E-04
  -7.98000002      -1.78011935E-04
  -7.96999979      -2.08137411E-04
  -7.96000004      -2.34545951E-04
  -7.94999981      -2.56589643E-04
  -7.94000006      -2.74336111E-04
  -7.92999983      -2.88446579E-04
  -7.92000008      -2.99868116E-04
  -7.90999985      -3.09457741E-04
  -7.90000010      -3.17672995E-04
  -7.88999987      -3.24434455E-04
  -7.88000011      -3.29199160E-04
  -7.86999989      -3.31204268E-04
  -7.86000013      -3.29781498E-04
  -7.84999990      -3.24622146E-04
  -7.84000015      -3.15896759E-04
  -7.82999992      -3.04191082E-04
  -7.82000017      -2.90292868E-04
  -7.80999994      -2.74914899E-04
  -7.80000019      -2.58461660E-04
  -7.78999996      -2.40924302E-04
  -7.78000021      -2.21936905E-04
  -7.76999998      -2.00965820E-04
  -7.76000023      -1.77556183E-04
  -7.75000000      -1.51543034E-04
  -7.73999977      -1.23153863E-04
  -7.73000002      -9.29760645E-05
  -7.71999979      -6.18130362E-05
  -7.71000004      -3.04918321E-05
  -7.69999981       3.03962281E-07
  -7.69000006       3.01209875E-05
  -7.67999983       5.87290488E-05
  -7.67000008       8.60434666E-05
  -7.65999985       1.12029360E-04
  -7.65000010       1.36640156E-04
  -7.63999987       1.59815812E-04
  -7.63000011       1.81536001E-04
  -7.61999989       2.01888543E-04
  -7.61000013       2.21102717E-04
  -7.59999990       2.39514586E-04
  -7.59000015       2.57460779E-04
  -7.57999992       2.75138271E-04
  -7.57000017       2.92492448E-04
  -7.55999994       3.09191848E-04
  -7.55000019       3.24720197E-04
  -7.53999996       3.38566955E-04
  -7.53000021       3.50453542E-04
  -7.51999998       3.60506820E-04
  -7.51000023       3.69301415E-04
  -7.50000000       3.77737568E-04
  -7.48999977       3.86784406E-04
  -7.48000002       3.97172087E-04
  -7.46999979       4.09146829E-04
  -7.46000004       4.22387064E-04
  -7.44999981       4.36122384E-04
  -7.44000006       4.49423649E-04