  -16.0000000       0.00000000    
  -15.9899998       0.00000000    
  -15.9799995       0.00000000    
  -15.9700003       0.00000000    
  -15.9600000       0.00000000    
  -15.9499998       0.00000000    
  -15.9399996       0.00000000    
  -15.9300003       0.00000000    
  -15.9200001       0.00000000    
  -15.9099998       0.00000000    
  -15.8999996       0.00000000    
  -15.8900003      -0.00000000    
  -15.8800001      -5.04747707E-42
  -15.8699999       1.96222423E-40
  -15.8599997       5.31311842E-39
  -15.8500004       6.01988460E-38
  -15.8400002       4.23072409E-37
  -15.8299999       1.99357517E-36
  -15.8199997       5.43497999E-36
  -15.8100004      -5.11057182E-36
  -15.8000002      -1.68555616E-34
  -15.7900000      -1.24789672E-33
  -15.7799997      -6.54359502E-33
  -15.7700005      -2.80993755E-32
  -15.7600002      -1.04139819E-31
  -15.7500000      -3.41841139E-31
  -15.7399998      -1.00864873E-30
  -15.7299995      -2.69941181E-30
  -15.7200003      -6.58743047E-30
  -15.7100000      -1.46941308E-29
  -15.6999998      -2.99525199E-29
  -15.6899996      -5.55923290E-29
  -15.6800003      -9.31386101E-29
  -15.6700001      -1.38347841E-28
  -15.6599998      -1.75102180E-28
  -15.6499996      -1.69048212E-28
  -15.6400003      -6.55269557E-29
  -15.6300001       2.00947390E-28
  -15.6199999       6.78110689E-28
  -15.6099997       1.34604033E-27
  -15.6000004       2.05656712E-27
  -15.5900002       2.49121446E-27
  -15.5799999       2.18167149E-27
  -15.5699997       6.33368544E-28
  -15.5600004      -2.44311628E-27
  -15.5500002      -6.85526983E-27
  -15.5400000      -1.17386709E-26
  -15.5299997      -1.56011912E-26
  -15.5200005      -1.66534361E-26
  -15.5100002      -1.32675403E-26
  -15.5000000      -4.19837629E-27
  -15.4899998       1.17762296E-26
  -15.4799995       3.66366418E-26
  -15.4700003       7.31815908E-26
  -15.4600000       1.22266797E-25
  -15.4499998       1.75312244E-25
  -15.4399996       2.02834640E-25
  -15.4300003       1.45359381E-25
  -15.4200001      -8.02012572E-26
  -15.4099998      -5.42732112E-25
  -15.3999996      -1.21981651E-24
  -15.3900003      -1.89806166E-24
  -15.3800001      -2.10587484E-24
  -15.3699999      -1.16884879E-24
  -15.3599997       1.52124716E-24
  -15.3500004       6.00188530E-24
  -15.3400002       1.11307887E-23
  -15.3299999       1.42069447E-23
  -15.3199997       1.13057028E-23
  -15.3100004      -1.24674693E-24
  -15.3000002      -2.42415868E-23
  -15.2900000      -5.25490951E-23
  -15.2799997      -7.33270382E-23
  -15.2700005      -6.76666772E-23
  -15.2600002      -1.73924755E-23
  -15.2500000       8.32150310E-23
  -15.2399998       2.14275549E-22
  -15.2299995       3.22743898E-22
  -15.2200003       3.29071446E-22
  -15.2100000       1.54305522E-22
  -15.1999998      -2.34063916E-22
  -15.1899996      -7.71300432E-22
  -15.1800003      -1.26540408E-21
  -15.1700001      -1.41818813E-21
  -15.1599998      -9.17973883E-22
  -15.1499996       4.02683023E-22
  -15.1400003       2.38974317E-21
  -15.1300001       4.45244828E-21
  -15.1199999       5.60326129E-21
  -15.1099997       4.71582695E-21
  -15.1000004       9.86842526E-22
  -15.0900002      -5.51637299E-21
  -15.0799999      -1.34314728E-20
  -15.0699997      -2.00374503E-20
  -15.0600004      -2.17221183E-20
  -15.0500002      -1.49947973E-20
  -15.0400000       2.13660268E-21
  -15.0299997       2.87575544E-20
  -15.0200005       5.99907246E-20
  -15.0100002       8.66312395E-20
  -15.0000000       9.57473385E-20
  -14.9899998       7.25586290E-20
  -14.9799995       4.06387494E-21
  -14.9700003      -1.15037339E-19
  -14.9600000      -2.73981192E-19
  -14.9499998      -4.36461437E-19
  -14.9399996      -5.33970883E-19
  -14.9300003      -4.69085750E-19
  -14.9200001      -1.37555483E-19
  -14.9099998       5.24435869E-19
  -14.8999996       1.47071586E-18
  -14.8900003       2.47282046E-18
  -14.8800001       3.08390613E-18
  -14.8699999       2.69077779E-18
  -14.8599997       6.98892913E-19
  -14.8500004      -3.14381903E-18
  -14.8400002      -8.35212040E-18
  -14.8299999      -1.33952446E-17
  -14.8199997      -1.57037923E-17
  -14.8100004      -1.22152664E-17
  -14.8000002      -5.54640524E-19
  -14.7900000       1.93191258E-17
  -14.7799997       4.35256019E-17
  -14.7700005       6.35672022E-17
  -14.7600002       6.74471954E-17
  -14.7500000       4.31826926E-17
  -14.7399998      -1.55246200E-17
  -14.7299995      -1.02902373E-16
  -14.7200003      -1.96647738E-16
  -14.7100000      -2.58610356E-16
  -14.6999998      -2.43218126E-16
  -14.6899996      -1.13998300E-16
  -14.6800003       1.35043177E-16
  -14.6700001       4.60437740E-16
  -14.6599998       7.62547128E-16
  -14.6499996       9.00519478E-16
  -14.6400003       7.33048359E-16
  -14.6300001       1.79552800E-16
  -14.6199999      -7.15636538E-16
  -14.6099997      -1.74285351E-15
  -14.6000004      -2.53948969E-15
  -14.5900002      -2.67397904E-15
  -14.5799999      -1.79711952E-15
  -14.5699997       1.74817502E-16
  -14.5600004       2.91074995E-15
  -14.5500002       5.62752469E-15
  -14.5400000       7.22850124E-15
  -14.5299997       6.63086063E-15
  -14.5200005       3.21998834E-15
  -14.5100002      -2.71320704E-15
  -14.5000000      -9.74435342E-15
  -14.4899998      -1.54755223E-14
  -14.4799995      -1.71662984E-14
  -14.4700003      -1.27441757E-14
  -14.4600000      -1.90881331E-15
  -14.4499998       1.31097348E-14
  -14.4399996       2.75896114E-14
  -14.4300003       3.54333025E-14
  -14.4200001       3.12762274E-14
  -14.4099998       1.30373727E-14
  -14.3999996      -1.60269510E-14
  -14.3900003      -4.68523535E-14
  -14.3800001      -6.64632330E-14
  -14.3699999      -6.22951059E-14
  -14.3599997      -2.79430020E-14
  -14.3500004       3.16526793E-14
  -14.3400002       9.80710264E-14
  -14.3299999       1.42496814E-13
  -14.3199997       1.34603659E-13
  -14.3100004       5.56925111E-14
  -14.3000002      -8.80762883E-14
  -14.2900000      -2.58027649E-13
  -14.2799997      -3.86493219E-13
  -14.2700005      -3.94446222E-13
  -14.2600002      -2.21264603E-13
  -14.2500000       1.41073608E-13
  -14.2399998       6.22041047E-13
  -14.2299995       1.06893823E-12
  -14.2200003       1.27588532E-12
  -14.2100000       1.04638162E-12
  -14.1999998       2.77116112E-13
  -14.1899996      -9.62164159E-13
  -14.1800003      -2.38587275E-12
  -14.1700001      -3.51792532E-12
  -14.1599998      -3.79957611E-12
  -14.1499996      -2.77062314E-12
  -14.1400003      -2.79825723E-13
  -14.1300001       3.34206534E-12
  -14.1199999       7.22476115E-12
  -14.1099997       1.00777477E-11
  -14.1000004       1.05018572E-11
  -14.0900002       7.44708375E-12
  -14.0799999       7.01496858E-13
  -14.0699997      -8.75032252E-12
  -14.0600004      -1.86659698E-11
  -14.0500002      -2.58947308E-11
  -14.0400000      -2.71443753E-11
  -14.0299997      -2.00309890E-11
  -14.0200005      -4.14520154E-12
  -14.0100002       1.82146399E-11
  -14.0000000       4.19792257E-11
  -13.9899998       6.01188196E-11
  -13.9799995       6.53107568E-11
  -13.9700003       5.21536807E-11
  -13.9600000       1.93798103E-11
  -13.9499998      -2.86398492E-11
  -13.9399996      -8.17372420E-11
  -13.9300003      -1.25521440E-10
  -13.9200001      -1.44626172E-10
  -13.9099998      -1.27042557E-10
  -13.8999996      -6.84887078E-11
  -13.8900003       2.44789900E-11
  -13.8800001       1.33819775E-10
  -13.8699999       2.32558375E-10
  -13.8599997       2.90481972E-10
  -13.8500004       2.82017465E-10
  -13.8400002       1.94449179E-10
  -13.8299999       3.42658124E-11
  -13.8199997      -1.70612219E-10
  -13.8100004      -3.74121734E-10
  -13.8000002      -5.21041210E-10
  -13.7900000      -5.60294089E-10
  -13.7799997      -4.59684152E-10
  -13.7700005      -2.18301155E-10
  -13.7600002       1.27235722E-10
  -13.7500000       5.05562037E-10
  -13.7399998       8.23265234E-10
  -13.7299995       9.85841409E-10
  -13.7200003       9.22763310E-10
  -13.7100000       6.10612005E-10
  -13.6999998       8.76789752E-11
  -13.6899996      -5.45410384E-10
  -13.6800003      -1.14167142E-09
  -13.6700001      -1.53896462E-09
  -13.6599998      -1.60074765E-09
  -13.6499996      -1.25693000E-09
  -13.6400003      -5.33915523E-10
  -13.6300001       4.36329362E-10
  -13.6199999       1.43416212E-09
  -13.6099997       2.19713026E-09
  -13.6000004       2.48411669E-09
  -13.5900002       2.14461560E-09
  -13.5799999       1.17509302E-09
  -13.5699997      -2.55598626E-10
  -13.5600004      -1.82397353E-09
  -13.5500002      -3.11546278E-09
  -13.5400000      -3.72431574E-09
  -13.5299997      -3.36826189E-09
  -13.5200005      -1.98846628E-09
  -13.5100002       1.95354802E-10
  -13.5000000       2.69823963E-09
  -13.4899998       4.85961271E-09
  -13.4799995       5.99786620E-09
  -13.4700003       5.59771784E-09
  -13.4600000       3.48408680E-09
  -13.4499998      -6.79377041E-11
  -13.4399996      -4.32899139E-09
  -13.4300003      -8.23567170E-09
  -13.4200001      -1.06238076E-08
  -13.4099998      -1.05294360E-08
  -13.3999996      -7.48730677E-09
  -13.3900003      -1.74558668E-09
  -13.3800001       5.67492453E-09
  -13.3699999       1.31173614E-08
  -13.3599997       1.86167188E-08
  -13.3500004       2.03623625E-08
  -13.3400002       1.71957080E-08
  -13.3299999       9.01843400E-09
  -13.3199997      -3.00715142E-09
  -13.3100004      -1.65468439E-08
  -13.3000002      -2.84933890E-08
  -13.2900000      -3.56193866E-08
  -13.2799997      -3.53577398E-08
  -13.2700005      -2.65335363E-08
  -13.2600002      -9.86321869E-09
  -13.2500000       1.19362875E-08
  -13.2399998       3.45032518E-08
  -13.2299995       5.26314068E-08
  -13.2200003       6.13820816E-08
  -13.2100000       5.72843533E-08
  -13.1999998       3.93527557E-08
  -13.1899996       9.66198144E-09
  -13.1800003      -2.67143871E-08
  -13.1700001      -6.24649346E-08
  -13.1599998      -8.94134047E-08
  -13.1499996      -1.00262767E-07
  -13.1400003      -9.03586681E-08
  -13.1300001      -5.90664833E-08
  -13.1199999      -1.04091873E-08
  -13.1099997       4.72701487E-08
  -13.1000004       1.02652230E-07
  -13.0900002       1.43598172E-07
  -13.0799999       1.59716407E-07
  -13.0699997       1.44802257E-07
  -13.0600004       9.85845219E-08
  -13.0500002       2.73170038E-08
  -13.0400000      -5.70216585E-08
  -13.0299997      -1.38850965E-07
  -13.0200005      -2.02057180E-07
  -13.0100002      -2.33367786E-07
  -13.0000000      -2.25274420E-07
  -12.9899998      -1.77805717E-07
  -12.9799995      -9.86658364E-08
  -12.9700003      -1.64878111E-09
  -12.9600000       9.63737463E-08
  -12.9499998       1.79189399E-07
  -12.9399996       2.34802499E-07
  -12.9300003       2.57906891E-07
  -12.9200001       2.50589181E-07
  -12.9099998       2.21037325E-07
  -12.8999996       1.80530833E-07
  -12.8900003       1.39504508E-07
  -12.8800001       1.03775307E-07
  -12.8699999       7.20661575E-08
  -12.8599997       3.57219641E-08
  -12.8500004      -1.90616092E-08
  -12.8400002      -1.06803490E-07
  -12.8299999      -2.37083796E-07
  -12.8199997      -4.09089211E-07
  -12.8100004      -6.07908760E-07
  -12.8000002      -8.03861496E-07
  -12.7900000      -9.55514452E-07
  -12.7799997      -1.01619923E-06
  -12.7700005      -9.43000487E-07
  -12.7600002      -7.06462345E-07
  -12.7500000      -2.98997833E-07
  -12.7399998       2.59935831E-07
  -12.7299995       9.23204652E-07
  -12.7200003       1.62031733E-06
  -12.7100000       2.26613406E-06
  -12.6999998       2.77236131E-06
  -12.6899996       3.05980552E-06
  -12.6800003       3.06906804E-06
  -12.6700001       2.76787182E-06
  -12.6599998       2.15387240E-06
  -12.6499996       1.25295139E-06
  -12.6400003       1.13898849E-07
  -12.6300001      -1.19878769E-06
  -12.6199999      -2.61193918E-06
  -12.6099997      -4.04871571E-06
  -12.6000004      -5.43031592E-06
  -12.5900002      -6.67434006E-06
  -12.5799999      -7.69058988E-06
  -12.5699997      -8.37635343E-06
  -12.5600004      -8.61360058E-06
  -12.5500002      -8.27063286E-06
  -12.5400000      -7.21013794E-06
  -12.5299997      -5.30430407E-06
  -12.5200005      -2.45652996E-06
  -12.5100002       1.37274446E-06
  -12.5000000       6.13924567E-06
  -12.4899998       1.16914071E-05
  -12.4799995       1.77540896E-05
  -12.4700003       2.39229848E-05
  -12.4600000       2.96716589E-05
  -12.4499998       3.43710890E-05
  -12.4399996       3.73206785E-05
  -12.4300003       3.77872202E-05
  -12.4200001       3.50490336E-05
  -12.4099998       2.84405687E-05
  -12.3999996       1.73952503E-05
  -12.3900003       1.48360641E-06
  -12.3800001      -1.95537596E-05
  -12.3699999      -4.57782044E-05
  -12.3599997      -7.70297920E-05
  -12.3500004      -1.12909867E-04
  -12.3400002      -1.52766806E-04
  -12.3299999      -1.95692832E-04
  -12.3199997      -2.40526831E-04
  -12.3100004      -2.85874528E-04
  -12.3000002      -3.30143695E-04
  -12.2900000      -3.71599803E-04
  -12.2799997      -4.08438529E-04
  -12.2700005      -4.38871386E-04
  -12.2600002      -4.61224088E-04
  -12.2500000      -4.74021421E-04
  -12.2399998      -4.76073619E-04
  -12.2299995      -4.66523605E-04
  -12.2200003      -4.44879784E-04
  -12.2100000      -4.11000830E-04
  -12.1999998      -3.65057494E-04
  -12.1899996      -3.07472772E-04
  -12.1800003      -2.38845547E-04
  -12.1700001      -1.59875330E-04
  -12.1599998      -7.13150730E-05
  -12.1499996       2.60634388E-05
  -12.1400003       1.31466062E-04
  -12.1300001       2.44048206E-04
  -12.1199999       3.62863648E-04
  -12.1099997       4.86814795E-04
  -12.1000004       6.14604272E-04
  -12.0900002       7.44719873E-04
  -12.0799999       8.75443046E-04
  -12.0699997       1.00489124E-03
  -12.0600004       1.13109197E-03
  -12.0500002       1.25207030E-03
  -12.0400000       1.36592810E-03
  -12.0299997       1.47091050E-03
  -12.0200005       1.56543718E-03
  -12.0100002       1.64811197E-03
  -12.0000000       1.71768712E-03
  -11.9899998       1.77300966E-03
  -11.9799995       1.81297876E-03
  -11.9700003       1.83650118E-03
  -11.9600000       1.84248143E-03
  -11.9499998       1.82983826E-03
  -11.9399996       1.79756666E-03
  -11.9300003       1.74479117E-03
  -11.9200001       1.67084555E-03
  -11.9099998       1.57532771E-03
  -11.8999996       1.45811704E-03
  -11.8900003       1.31936744E-03
  -11.8800001       1.15945714E-03
  -11.8699999       9.78929340E-04
  -11.8599997       7.78415706E-04
  -11.8500004       5.58591331E-04
  -11.8400002       3.20153806E-04
  -11.8299999       6.38610145E-05
  -11.8199997      -2.09422156E-04
  -11.8100004      -4.98613284E-04
  -11.8000002      -8.02321767E-04
  -11.7900000      -1.11877359E-03
  -11.7799997      -1.44574384E-03
  -11.7700005      -1.78058213E-03
  -11.7600002      -2.12024758E-03
  -11.7500000      -2.46140268E-03
  -11.7399998      -2.80053401E-03
  -11.7299995      -3.13405809E-03
  -11.7200003      -3.45843611E-03
  -11.7100000      -3.77023453E-03
  -11.6999998      -4.06617485E-03
  -11.6899996      -4.34314413E-03
  -11.6800003      -4.59818868E-03
  -11.6700001      -4.82851081E-03
  -11.6599998      -5.03147440E-03
  -11.6499996      -5.20461192E-03
  -11.6400003      -5.34567051E-03
  -11.6300001      -5.45263477E-03
  -11.6199999      -5.52376360E-03
  -11.6099997      -5.55759249E-03
  -11.6000004      -5.55293215E-03
  -11.5900002      -5.50879771E-03
  -11.5799999      -5.42435935E-03
  -11.5699997      -5.29886223E-03
  -11.5600004      -5.13155572E-03
  -11.5500002      -4.92164539E-03
  -11.5400000      -4.66830377E-03
  -11.5299997      -4.37069591E-03
  -11.5200005      -4.02806373E-03
  -11.5100002      -3.63982492E-03
  -11.5000000      -3.20567843E-03
  -11.4899998      -2.72571319E-03
  -11.4799995      -2.20046658E-03
  -11.4700003      -1.63098203E-03
  -11.4600000      -1.01876794E-03
  -11.4499998      -3.65786691E-04
  -11.4399996       3.25642788E-04
  -11.4300003       1.05293968E-03
  -11.4200001       1.81335944E-03
  -11.4099998       2.60410155E-03
  -11.3999996       3.42239998E-03
  -11.3900003       4.26559290E-03
  -11.3800001       5.13117062E-03
  -11.3699999       6.01679925E-03
  -11.3599997       6.92031626E-03
  -11.3500004       7.83971418E-03
  -11.3400002       8.77308939E-03
  -11.3299999       9.71859880E-03
  -11.3199997       1.06744217E-02
  -11.3100004       1.16387075E-02
  -11.3000002       1.26095731E-02
  -11.2900000       1.35850543E-02
  -11.2799997       1.45631162E-02
  -11.2700005       1.55416578E-02
  -11.2600002       1.65184662E-02
  -11.2500000       1.74912158E-02
  -11.2399998       1.84574127E-02
  -11.2299995       1.94143597E-02
  -11.2200003       2.03591324E-02
  -11.2100000       2.12886073E-02
  -11.1999998       2.21995134E-02
  -11.1899996       2.30885595E-02
  -11.1800003       2.39526164E-02
  -11.1700001       2.47889273E-02
  -11.1599998       2.55952831E-02
  -11.1499996       2.63701994E-02
  -11.1400003       2.71129701E-02
  -11.1300001       2.78236438E-02
  -11.1199999       2.85028890E-02
  -11.1099997       2.91517768E-02
  -11.1000004       2.97715534E-02
  -11.0900002       3.03634237E-02
  -11.0799999       3.09283864E-02
  -11.0699997       3.14671546E-02
  -11.0600004       3.19802649E-02
  -11.0500002       3.24681364E-02
  -11.0400000       3.29312421E-02
  -11.0299997       3.33702751E-02
  -11.0200005       3.37862000E-02
  -11.0100002       3.41802351E-02
  -11.0000000       3.45538370E-02
  -10.9899998       3.49084027E-02
  -10.9799995       3.52452360E-02
  -10.9700003       3.55652794E-02
  -10.9600000       3.58691141E-02
  -10.9499998       3.61569338E-02
  -10.9399996       3.64286304E-02
  -10.9300003       3.66839543E-02
  -10.9200001       3.69226523E-02
  -10.9099998       3.71446013E-02
  -10.8999996       3.73498350E-02
  -10.8900003       3.75385284E-02
  -10.8800001       3.77108790E-02
  -10.8699999       3.78669463E-02
  -10.8599997       3.80065776E-02
  -10.8500004       3.81292067E-02
  -10.8400002       3.82338986E-02
  -10.8299999       3.83193083E-02
  -10.8199997       3.83837707E-02
  -10.8100004       3.84254754E-02
  -10.8000002       3.84425037E-02
  -10.7900000       3.84330712E-02
  -10.7799997       3.83955911E-02
  -10.7700005       3.83288376E-02
  -10.7600002       3.82319428E-02
  -10.7500000       3.81046087E-02
  -10.7399998       3.79469953E-02
  -10.7299995       3.77597995E-02
  -10.7200003       3.75441685E-02
  -10.7100000       3.73015217E-02
  -10.6999998       3.70334461E-02
  -10.6899996       3.67414989E-02
  -10.6800003       3.64270210E-02
  -10.6700001       3.60910669E-02
  -10.6599998       3.57344151E-02
  -10.6499996       3.53576168E-02
  -10.6400003       3.49612609E-02
  -10.6300001       3.45460996E-02
  -10.6199999       3.41132991E-02
  -10.6099997       3.36644650E-02
  -10.6000004       3.32016535E-02
  -10.5900002       3.27271894E-02
  -10.5799999       3.22434679E-02
  -10.5699997       3.17527093E-02
  -10.5600004       3.12567316E-02
  -10.5500002       3.07569578E-02
  -10.5400000       3.02543957E-02
  -10.5299997       2.97499038E-02
  -10.5200005       2.92444415E-02
  -10.5100002       2.87393052E-02
  -10.5000000       2.82363500E-02
  -10.4899998       2.77379826E-02
  -10.4799995       2.72470824E-02
  -10.4700003       2.67666485E-02
  -10.4600000       2.62996573E-02
  -10.4499998       2.58486513E-02
  -10.4399996       2.54156832E-02
  -10.4300003       2.50020903E-02
  -10.4200001       2.46087145E-02
  -10.4099998       2.42359787E-02
  -10.3999996       2.38840226E-02
  -10.3900003       2.35528536E-02
  -10.3800001       2.32424904E-02
  -10.3699999       2.29527745E-02
  -10.3599997       2.26834808E-02
  -10.3500004       2.24340688E-02
  -10.3400002       2.22038049E-02
  -10.3299999       2.19917614E-02
  -10.3199997       2.17968393E-02
  -10.3100004       2.16180515E-02
  -10.3000002       2.14545876E-02
  -10.2900000       2.13060249E-02
  -10.2799997       2.11722460E-02
  -10.2700005       2.10535116E-02
  -10.2600002       2.09502038E-02
  -10.2500000       2.08629388E-02
  -10.2399998       2.07922067E-02
  -10.2299995       2.07384638E-02
  -10.2200003       2.07020734E-02
  -10.2100000       2.06833482E-02
  -10.1999998       2.06824224E-02
  -10.1899996       2.06994507E-02
  -10.1800003       2.07342803E-02
  -10.1700001       2.07864828E-02
  -10.1599998       2.08551697E-02
  -10.1499996       2.09390298E-02
  -10.1400003       2.10363436E-02
  -10.1300001       2.11452357E-02
  -10.1199999       2.12640725E-02
  -10.1099997       2.13916823E-02
  -10.1000004       2.15279199E-02
  -10.0900002       2.16737278E-02
  -10.0799999       2.18311176E-02
  -10.0699997       2.20030025E-02
  -10.0600004       2.21928135E-02
  -10.0500002       2.24038288E-02
  -10.0400000       2.26389747E-02
  -10.0299997       2.29003113E-02
  -10.0200005       2.31891442E-02
  -10.0100002       2.35059410E-02
  -10.0000000       2.38508787E-02
  -9.98999977       2.42240168E-02
  -9.97999954       2.46258937E-02
  -9.97000027       2.50576306E-02
  -9.96000004       2.55210232E-02
  -9.94999981       2.60182843E-02
  -9.93999958       2.65518948E-02
  -9.93000031       2.71242093E-02
  -9.92000008       2.77370680E-02
  -9.90999985       2.83917133E-02
  -9.89999962       2.90888436E-02
  -9.89000034       2.98285037E-02
  -9.88000011       3.06103863E-02
  -9.86999989       3.14340815E-02
  -9.85999966       3.22990790E-02
  -9.85000038       3.32050696E-02
  -9.84000015       3.41515467E-02
  -9.82999992       3.51381190E-02
  -9.81999969       3.61643285E-02
  -9.81000042       3.72295491E-02
  -9.80000019       3.83330695E-02
  -9.78999996       3.94744575E-02
  -9.77999973       4.06534076E-02
  -9.77000046       4.18700166E-02
  -9.76000023       4.31248471E-02
  -9.75000000       4.44187075E-02
  -9.73999977       4.57528532E-02
  -9.72999954       4.71281372E-02
  -9.72000027       4.85453419E-02
  -9.71000004       5.00048064E-02
  -9.69999981       5.15064038E-02
  -9.68999958       5.30497357E-02
  -9.68000031       5.46339229E-02
  -9.67000008       5.62581681E-02
  -9.65999985       5.79214096E-02
  -9.64999962       5.96224517E-02
  -9.64000034       6.13598153E-02
  -9.63000011       6.31314069E-02
  -9.61999989       6.49344251E-02
  -9.60999966       6.67650700E-02
  -9.60000038       6.86188713E-02
  -9.59000015       7.04908520E-02
  -9.57999992       7.23754987E-02
  -9.56999969       7.42674321E-02
  -9.56000042       7.61618391E-02
  -9.55000019       7.80540630E-02
  -9.53999996       7.99398720E-02
  -9.52999973       8.18150938E-02
  -9.52000046       8.36752728E-02
  -9.51000023       8.55153799E-02
  -9.50000000       8.73299316E-02
  -9.48999977       8.91129151E-02
  -9.47999954       9.08582434E-02
  -9.47000027       9.25601125E-02
  -9.46000004       9.42136273E-02
  -9.44999981       9.58149731E-02
  -9.43999958       9.73615572E-02
  -9.43000031       9.88519788E-02
  -9.42000008      0.100285634    
  -9.40999985      0.101662509    
  -9.39999962      0.102983467    
  -9.39000034      0.104249761    
  -9.38000011      0.105463736    
  -9.36999989      0.106628850    
  -9.35999966      0.107750274    
  -9.35000038      0.108834691    
  -9.34000015      0.109890372    
  -9.32999992      0.110926442    
  -9.31999969      0.111952022    
  -9.31000042      0.112976290    
  -9.30000019      0.114007078    
  -9.28999996      0.115051329    
  -9.27999973      0.116115168    
  -9.27000046      0.117204405    
  -9.26000023      0.118325524    
  -9.25000000      0.119486056    
  -9.23999977      0.120694362    
  -9.22999954      0.121959835    
  -9.22000027      0.123292275    
  -9.21000004      0.124700524    
  -9.19999981      0.126192018    
  -9.18999958      0.127772555    
  -9.18000031      0.129445493    
  -9.17000008      0.131212503    
  -9.15999985      0.133074075    
  -9.14999962      0.135030076    
  -9.14000034      0.137080461    
  -9.13000011      0.139224604    
  -9.11999989      0.141462535    
  -9.10999966      0.143792868    
  -9.10000038      0.146213293    
  -9.09000015      0.148720339    
  -9.07999992      0.151308760    
  -9.06999969      0.153972387    
  -9.06000042      0.156704679    
  -9.05000019      0.159499034    
  -9.03999996      0.162349373    
  -9.02999973      0.165249527    
  -9.02000046      0.168193445    
  -9.01000023      0.171174273    
  -9.00000000      0.174184084    
  -8.98999977      0.177213103    
  -8.97999954      0.180250168    
  -8.97000027      0.183283120    
  -8.96000004      0.186299652    
  -8.94999981      0.189288378    
  -8.93999958      0.192239642    
  -8.93000031      0.195145205    
  -8.92000008      0.197999135    
  -8.90999985      0.200796336    
  -8.89999962      0.203532577    
  -8.89000034      0.206202582    
  -8.88000011      0.208801672    
  -8.86999989      0.211323634    
  -8.85999966      0.213762894    
  -8.85000038      0.216114074    
  -8.84000015      0.218372509    
  -8.82999992      0.220535144    
  -8.81999969      0.222599700    
  -8.81000042      0.224564239    
  -8.80000019      0.226428032    
  -8.78999996      0.228189081    
  -8.77999973      0.229845896    
  -8.77000046      0.231396988    
  -8.76000023      0.232841417    
  -8.75000000      0.234179586    
  -8.73999977      0.235413313    
  -8.72999954      0.236546308    
  -8.72000027      0.237584203    
  -8.71000004      0.238533720    
  -8.69999981      0.239402726    
  -8.68999958      0.240199268    
  -8.68000031      0.240931496    
  -8.67000008      0.241608620    
  -8.65999985      0.242239982    
  -8.64999962      0.242836252    
  -8.64000034      0.243409216    
  -8.63000011      0.243971244    
  -8.61999989      0.244535342    
  -8.60999966      0.245114207    
  -8.60000038      0.245719478    
  -8.59000015      0.246361628    
  -8.57999992      0.247050211    
  -8.56999969      0.247793540    
  -8.56000042      0.248599425    
  -8.55000019      0.249475777    
  -8.53999996      0.250430733    
  -8.52999973      0.251472503    
  -8.52000046      0.252607763    
  -8.51000023      0.253842980    
  -8.50000000      0.255181879    
  -8.48999977      0.256626487    
  -8.47999954      0.258176595    
  -8.47000027      0.259831160    
  -8.46000004      0.261588275    
  -8.44999981      0.263446510    
  -8.43999958      0.265404373    
  -8.43000031      0.267460316    
  -8.42000008      0.269613177    
  -8.40999985      0.271859258    
  -8.39999962      0.274193734    
  -8.39000034      0.276609987    
  -8.38000011      0.279099226    
  -8.36999989      0.281651348    
  -8.35999966      0.284257233    
  -8.35000038      0.286908567    
  -8.34000015      0.289598882    
  -8.32999992      0.292322844    
  -8.31999969      0.295076072    
  -8.31000042      0.297854334    
  -8.30000019      0.300651371    
  -8.28999996      0.303461254    
  -8.27999973      0.306275636    
  -8.27000046      0.309087038    
  -8.26000023      0.311888248    
  -8.25000000      0.314674824    
  -8.23999977      0.317444921    
  -8.22999954      0.320198566    
  -8.22000027      0.322937399    
  -8.21000004      0.325663567    
  -8.19999981      0.328378141    
  -8.18999958      0.331079781    
  -8.18000031      0.333766371    
  -8.17000008      0.336432904    
  -8.15999985      0.339077383    
  -8.14999962      0.341696709    
  -8.14000034      0.344292909    
  -8.13000011      0.346869290    
  -8.11999989      0.349431425    
  -8.10999966      0.351987779    
  -8.10000038      0.354544699    
  -8.09000015      0.357106775    
  -8.07999992      0.359679163    
  -8.06999969      0.362261951    
  -8.06000042      0.364857912    
  -8.05000019      0.367468268    
  -8.03999996      0.370098799    
  -8.02999973      0.372756273    
  -8.02000046      0.375450790    
  -8.01000023      0.378193706    
  -8.00000000      0.380996287    
  -7.98999977      0.383868903    
  -7.98000002      0.386819154    
  -7.96999979      0.389851898    
  -7.96000004      0.392971218    
  -7.94999981      0.396178722    
  -7.94000006      0.399477333    
  -7.92999983      0.402871072    
  -7.92000008      0.406364560    
  -7.90999985      0.409964591    
  -7.90000010      0.413678408    
  -7.88999987      0.417511404    
  -7.88000011      0.421468586    
  -7.86999989      0.425551653    
  -7.86000013      0.429761559    
  -7.84999990      0.434096575    
  -7.84000015      0.438556165    
  -7.82999992      0.443138242    
  -7.82000017      0.447843373    
  -7.80999994      0.452670604    
  -7.80000019      0.457620084    
  -7.78999996      0.462690562    
  -7.78000021      0.467880815    
  -7.76999998      0.473186821    
  -7.76000023      0.478602797    
  -7.75000000      0.484124184    
  -7.73999977      0.489744157    
  -7.73000002      0.495458394    
  -7.71999979      0.501261473    
  -7.71000004      0.507151544    
  -7.69999981      0.513126612    
  -7.69000006      0.519185305    
  -7.67999983      0.525326788    
  -7.67000008      0.531549215    
  -7.65999985      0.537849247    
  -7.65000010      0.544224501    
  -7.63999987      0.550670147    
  -7.63000011      0.557184935    
  -7.61999989      0.563766241    
  -7.61000013      0.570412755    
  -7.59999990      0.577126384    
  -7.59000015      0.583909810    
  -7.57999992      0.590765417    
  -7.57000017      0.597697258    
  -7.55999994      0.604709566    
  -7.55000019      0.611803353    
  -7.53999996      0.618983030    
  -7.53000021      0.626248598    
  -7.51999998      0.633601844    
  -7.51000023      0.641045272    
  -7.50000000      0.648580194    
  -7.48999977      0.656210840    
  -7.48000002      0.663940549    
  -7.46999979      0.671775937    
  -7.46000004      0.679722726    
  -7.44999981      0.687784076    
  -7.44000006      0.695967793    