  -16.0000000       0.00000000    
  -15.9899998       0.00000000    
  -15.9799995       0.00000000    
  -15.9700003       0.00000000    
  -15.9600000       0.00000000    
  -15.9499998       0.00000000    
  -15.9399996       0.00000000    
  -15.9300003       0.00000000    
  -15.9200001       0.00000000    
  -15.9099998       0.00000000    
  -15.8999996       0.00000000    
  -15.8900003       0.00000000    
  -15.8800001      -1.24298537E-37
  -15.8699999      -1.85709005E-36
  -15.8599997      -1.32297211E-35
  -15.8500004      -5.78301895E-35
  -15.8400002      -1.60093549E-34
  -15.8299999      -2.00976588E-34
  -15.8199997       6.30372942E-34
  -15.8100004       5.63445593E-33
  -15.8000002       2.70395380E-32
  -15.7900000       1.09350139E-31
  -15.7799997       4.03300733E-31
  -15.7700005       1.35558168E-30
  -15.7600002       4.08390849E-30
  -15.7500000       1.08849521E-29
  -15.7399998       2.54351038E-29
  -15.7299995       5.15707826E-29
  -15.7200003       8.89747676E-29
  -15.7100000       1.24733888E-28
  -15.6999998       1.22982327E-28
  -15.6899996       2.09794949E-29
  -15.6800003      -2.54470355E-28
  -15.6700001      -7.40021103E-28
  -15.6599998      -1.37137594E-27
  -15.6499996      -1.95816462E-27
  -15.6400003      -2.28994053E-27
  -15.6300001      -2.42569721E-27
  -15.6199999      -3.02578462E-27
  -15.6099997      -5.23116123E-27
  -15.6000004      -9.27888703E-27
  -15.5900002      -1.12553156E-26
  -15.5799999       1.19954871E-27
  -15.5699997       5.04789104E-26
  -15.5600004       1.60541650E-25
  -15.5500002       3.29824076E-25
  -15.5400000       4.83231884E-25
  -15.5299997       4.19725918E-25
  -15.5200005      -1.96746988E-25
  -15.5100002      -1.72377546E-24
  -15.5000000      -4.22347057E-24
  -15.4899998      -6.93206630E-24
  -15.4799995      -7.68780609E-24
  -15.4700003      -2.77017993E-24
  -15.4600000       1.21241847E-23
  -15.4499998       3.90224877E-23
  -15.4399996       7.27612230E-23
  -15.4300003       9.53030180E-23
  -15.4200001       7.28681357E-23
  -15.4099998      -3.81938272E-23
  -15.3999996      -2.70230374E-22
  -15.3900003      -6.04901117E-22
  -15.3800001      -9.22951305E-22
  -15.3699999      -9.67504554E-22
  -15.3599997      -3.64260802E-22
  -15.3500004       1.24890762E-21
  -15.3400002       3.94877688E-21
  -15.3299999       7.13922785E-21
  -15.3199997       9.19254862E-21
  -15.3100004       7.40030430E-21
  -15.3000002      -1.39217637E-21
  -15.2900000      -1.91585499E-20
  -15.2799997      -4.41044883E-20
  -15.2700005      -6.78277892E-20
  -15.2600002      -7.38265224E-20
  -15.2500000      -3.96984462E-20
  -15.2399998       5.46745899E-20
  -15.2299995       2.12221006E-19
  -15.2200003       3.99863063E-19
  -15.2100000       5.33707891E-19
  -15.1999998       4.81147181E-19
  -15.1899996       9.43436195E-20
  -15.1800003      -7.16108247E-19
  -15.1700001      -1.87494382E-18
  -15.1599998      -3.03676056E-18
  -15.1499996      -3.54352883E-18
  -15.1400003      -2.52438173E-18
  -15.1300001       7.97749371E-19
  -15.1199999       6.59186227E-18
  -15.1099997       1.38117225E-17
  -15.1000004       1.97571461E-17
  -15.0900002       2.01800620E-17
  -15.0799999       1.03121075E-17
  -15.0699997      -1.30148300E-17
  -15.0600004      -4.84382872E-17
  -15.0500002      -8.72552726E-17
  -15.0400000      -1.12288987E-16
  -15.0299997      -1.00271575E-16
  -15.0200005      -2.90987449E-17
  -15.0100002       1.10210329E-16
  -15.0000000       2.99500183E-16
  -14.9899998       4.82974481E-16
  -14.9799995       5.67829341E-16
  -14.9700003       4.43356606E-16
  -14.9600000       2.17219928E-17
  -14.9499998      -7.04678102E-16
  -14.9399996      -1.60578632E-15
  -14.9300003      -2.38348359E-15
  -14.9200001      -2.59970293E-15
  -14.9099998      -1.78727594E-15
  -14.8999996       3.56067319E-16
  -14.8900003       3.72773737E-15
  -14.8800001       7.61493970E-15
  -14.8699999       1.06371338E-14
  -14.8599997       1.09493747E-14
  -14.8500004       6.76906803E-15
  -14.8400002      -2.81654654E-15
  -14.8299999      -1.69545621E-14
  -14.8199997      -3.23762996E-14
  -14.8100004      -4.34077247E-14
  -14.8000002      -4.29972965E-14
  -14.7900000      -2.48784927E-14
  -14.7799997       1.34277626E-14
  -14.7700005       6.75712944E-14
  -14.7600002       1.24515036E-13
  -14.7500000       1.63225444E-13
  -14.7399998       1.58916703E-13
  -14.7299995       9.09187615E-14
  -14.7200003      -4.71690998E-14
  -14.7100000      -2.37929793E-13
  -14.6999998      -4.35212413E-13
  -14.6899996      -5.67922283E-13
  -14.6800003      -5.55124414E-13
  -14.6700001      -3.31853089E-13
  -14.6599998       1.19267267E-13
  -14.6499996       7.39906400E-13
  -14.6400003       1.38345780E-12
  -14.6300001       1.82933313E-12
  -14.6199999       1.83040822E-12
  -14.6099997       1.19023714E-12
  -14.6000004      -1.45525410E-13
  -14.5900002      -2.01047816E-12
  -14.5799999      -3.98480294E-12
  -14.5699997      -5.43828524E-12
  -14.5600004      -5.66358245E-12
  -14.5500002      -4.08801161E-12
  -14.5400000      -5.20534841E-13
  -14.5299997       4.63768130E-12
  -14.5200005       1.03042687E-11
  -14.5100002       1.48221695E-11
  -14.5000000       1.62956280E-11
  -14.4899998       1.31246793E-11
  -14.4799995       4.62927786E-12
  -14.4700003      -8.41003135E-12
  -14.4600000      -2.34998496E-11
  -14.4499998      -3.66464567E-11
  -14.4399996      -4.31147062E-11
  -14.4300003      -3.86662716E-11
  -14.4200001      -2.10363307E-11
  -14.4099998       8.74276779E-12
  -14.3999996       4.56283865E-11
  -14.3900003       8.08685202E-11
  -14.3800001       1.03521088E-10
  -14.3699999       1.03080565E-10
  -14.3599997       7.27266303E-11
  -14.3500004       1.23969021E-11
  -14.3400002      -6.92868402E-11
  -14.3299999      -1.55118557E-10
  -14.3199997      -2.21937302E-10
  -14.3100004      -2.45678616E-10
  -14.3000002      -2.07997244E-10
  -14.2900000      -1.02944119E-10
  -14.2799997       5.81970340E-11
  -14.2700005       2.45754028E-10
  -14.2600002       4.15374318E-10
  -14.2500000       5.16723220E-10
  -14.2399998       5.05865516E-10
  -14.2299995       3.58754304E-10
  -14.2200003       8.23087987E-11
  -14.2100000      -2.80447832E-10
  -14.1999998      -6.53916310E-10
  -14.1899996      -9.42990797E-10
  -14.1800003      -1.05412001E-09
  -14.1700001      -9.20356846E-10
  -14.1599998      -5.24482680E-10
  -14.1499996       8.63595168E-11
  -14.1400003       8.00067790E-10
  -14.1300001       1.45594070E-09
  -14.1199999       1.87688842E-09
  -14.1099997       1.91202520E-09
  -14.1000004       1.48043533E-09
  -14.0900002       6.04768291E-10
  -14.0799999      -5.75836989E-10
  -14.0699997      -1.82065485E-09
  -14.0600004      -2.83109736E-09
  -14.0500002      -3.31691741E-09
  -14.0400000      -3.07152681E-09
  -14.0299997      -2.03841144E-09
  -14.0200005      -3.50022400E-10
  -14.0100002       1.67579028E-09
  -14.0000000       3.58737262E-09
  -13.9899998       4.89362195E-09
  -13.9799995       5.18308729E-09
  -13.9700003       4.24085789E-09
  -13.9600000       2.13250950E-09
  -13.9499998      -7.72062692E-10
  -13.9399996      -3.84971699E-09
  -13.9300003      -6.34835784E-09
  -13.9200001      -7.56234542E-09
  -13.9099998      -7.02062630E-09
  -13.8999996      -4.64023309E-09
  -13.8900003      -7.99815714E-10
  -13.8800001       3.69700737E-09
  -13.8699999       7.77417153E-09
  -13.8599997       1.03268363E-08
  -13.8500004       1.05048885E-08
  -13.8400002       7.96609179E-09
  -13.8299999       3.02958791E-09
  -13.8199997      -3.32435945E-09
  -13.8100004      -9.62655999E-09
  -13.8000002      -1.42395704E-08
  -13.7900000      -1.57603974E-08
  -13.7799997      -1.34093696E-08
  -13.7700005      -7.30283078E-09
  -13.7600002       1.47538159E-09
  -13.7500000       1.10432463E-08
  -13.7399998       1.91121323E-08
  -13.7299995       2.35220821E-08
  -13.7200003       2.27961330E-08
  -13.7100000       1.65726703E-08
  -13.6999998       5.79312154E-09
  -13.6899996      -7.42343342E-09
  -13.6800003      -2.02127310E-08
  -13.6700001      -2.96159239E-08
  -13.6599998      -3.32968817E-08
  -13.6499996      -3.01452587E-08
  -13.6400003      -2.06016324E-08
  -13.6300001      -6.60274280E-09
  -13.6199999       8.85772078E-09
  -13.6099997       2.24573693E-08
  -13.6000004       3.13810276E-08
  -13.5900002       3.40411468E-08
  -13.5799999       3.04795655E-08
  -13.5699997       2.23190639E-08
  -13.5600004       1.22579378E-08
  -13.5500002       3.22537641E-09
  -13.5400000      -2.57089794E-09
  -13.5299997      -4.42177317E-09
  -13.5200005      -3.45967255E-09
  -13.5100002      -2.40835218E-09
  -13.5000000      -4.74091744E-09
  -13.4899998      -1.34266784E-08
  -13.4799995      -2.95979259E-08
  -13.4700003      -5.15436582E-08
  -13.4600000      -7.44069908E-08
  -13.4499998      -9.08200732E-08
  -13.4399996      -9.24791976E-08
  -13.4300003      -7.23928437E-08
  -13.4200001      -2.72996754E-08
  -13.4099998       4.03804457E-08
  -13.3999996       1.21698591E-07
  -13.3900003       2.01860033E-07
  -13.3800001       2.62559922E-07
  -13.3699999       2.85664129E-07
  -13.3599997       2.57547214E-07
  -13.3500004       1.73116931E-07
  -13.3400002       3.84938161E-08
  -13.3299999      -1.28497618E-07
  -13.3199997      -3.00451632E-07
  -13.3100004      -4.44964599E-07
  -13.3000002      -5.30903776E-07
  -13.2900000      -5.35113372E-07
  -13.2799997      -4.48056312E-07
  -13.2700005      -2.76994143E-07
  -13.2600002      -4.57877292E-08
  -13.2500000       2.08920909E-07
  -13.2399998       4.44501097E-07
  -13.2299995       6.20735250E-07
  -13.2200003       7.07988420E-07
  -13.2100000       6.93238462E-07
  -13.1999998       5.82490713E-07
  -13.1899996       3.98925067E-07
  -13.1800003       1.77093739E-07
  -13.1700001      -4.54205953E-08
  -13.1599998      -2.36861013E-07
  -13.1499996      -3.78358550E-07
  -13.1400003      -4.67285304E-07
  -13.1300001      -5.15870966E-07
  -13.1199999      -5.45295222E-07
  -13.1099997      -5.76732532E-07
  -13.1000004      -6.21779463E-07
  -13.0900002      -6.75133606E-07
  -13.0799999      -7.12005431E-07
  -13.0699997      -6.91743310E-07
  -13.0600004      -5.67554537E-07
  -13.0500002      -3.00550624E-07
  -13.0400000       1.25110034E-07
  -13.0299997       6.89940862E-07
  -13.0200005       1.33349670E-06
  -13.0100002       1.95800249E-06
  -13.0000000       2.44192029E-06
  -12.9899998       2.66177335E-06
  -12.9799995       2.51833148E-06
  -12.9700003       1.96177575E-06
  -12.9600000       1.01003718E-06
  -12.9499998      -2.44571851E-07
  -12.9399996      -1.64319408E-06
  -12.9300003      -2.98255259E-06
  -12.9200001      -4.04806588E-06
  -12.9099998      -4.65191533E-06
  -12.8999996      -4.66874053E-06
  -12.8900003      -4.06137542E-06
  -12.8800001      -2.89111154E-06
  -12.8699999      -1.30973081E-06
  -12.8599997       4.65640284E-07
  -12.8500004       2.18993750E-06
  -12.8400002       3.63250911E-06
  -12.8299999       4.61576929E-06
  -12.8199997       5.04232503E-06
  -12.8100004       4.90536331E-06
  -12.8000002       4.28088879E-06
  -12.7900000       3.30433386E-06
  -12.7799997       2.13784256E-06
  -12.7700005       9.36253059E-07
  -12.7600002      -1.80057469E-07
  -12.7500000      -1.13940769E-06
  -12.7399998      -1.91761569E-06
  -12.7299995      -2.52326481E-06
  -12.7200003      -2.97491260E-06
  -12.7100000      -3.27832572E-06
  -12.6999998      -3.41175087E-06
  -12.6899996      -3.32530885E-06
  -12.6800003      -2.95641030E-06
  -12.6700001      -2.25822441E-06
  -12.6599998      -1.23391135E-06
  -12.6499996       3.39975657E-08
  -12.6400003       1.36944709E-06
  -12.6300001       2.51216102E-06
  -12.6199999       3.15319699E-06
  -12.6099997       2.99329145E-06
  -12.6000004       1.81399105E-06
  -12.5900002      -4.53094941E-07
  -12.5799999      -3.67502366E-06
  -12.5699997      -7.49854735E-06
  -12.5600004      -1.13719198E-05
  -12.5500002      -1.46080893E-05
  -12.5400000      -1.64809953E-05
  -12.5299997      -1.63397344E-05
  -12.5200005      -1.37198267E-05
  -12.5100002      -8.43190264E-06
  -12.5000000      -6.11423161E-07
  -12.4899998       9.27975725E-06
  -12.4799995       2.04975477E-05
  -12.4700003       3.20966683E-05
  -12.4600000       4.30304754E-05
  -12.4499998       5.22501032E-05
  -12.4399996       5.87843642E-05
  -12.4300003       6.17894402E-05
  -12.4200001       6.05640707E-05
  -12.4099998       5.45372168E-05
  -12.3999996       4.32418710E-05
  -12.3900003       2.62915019E-05
  -12.3800001       3.37542633E-06
  -12.3699999      -2.57150969E-05
  -12.3599997      -6.10326133E-05
  -12.3500004      -1.02395577E-04
  -12.3400002      -1.49306317E-04
  -12.3299999      -2.00886017E-04
  -12.3199997      -2.55845749E-04
  -12.3100004      -3.12510354E-04
  -12.3000002      -3.68895679E-04
  -12.2900000      -4.22836369E-04
  -12.2799997      -4.72138636E-04
  -12.2700005      -5.14733722E-04
  -12.2600002      -5.48813376E-04
  -12.2500000      -5.72904886E-04
  -12.2399998      -5.85893285E-04
  -12.2299995      -5.86977636E-04
  -12.2200003      -5.75580576E-04
  -12.2100000      -5.51242905E-04
  -12.1999998      -5.13510488E-04
  -12.1899996      -4.61873511E-04
  -12.1800003      -3.95757379E-04
  -12.1700001      -3.14576580E-04
  -12.1599998      -2.17853958E-04
  -12.1499996      -1.05369174E-04
  -12.1400003       2.26719385E-05
  -12.1300001       1.65501522E-04
  -12.1199999       3.21711006E-04
  -12.1099997       4.89231548E-04
  -12.1000004       6.65411237E-04
  -12.0900002       8.47142073E-04
  -12.0799999       1.03105442E-03
  -12.0699997       1.21370261E-03
  -12.0600004       1.39174575E-03
  -12.0500002       1.56207790E-03
  -12.0400000       1.72189961E-03
  -12.0299997       1.86871469E-03
  -12.0200005       2.00028415E-03
  -12.0100002       2.11453228E-03
  -12.0000000       2.20947037E-03
  -11.9899998       2.28312635E-03
  -11.9799995       2.33351463E-03
  -11.9700003       2.35868641E-03
  -11.9600000       2.35678931E-03
  -11.9499998       2.32619140E-03
  -11.9399996       2.26559327E-03
  -11.9300003       2.17413739E-03
  -11.9200001       2.05145800E-03
  -11.9099998       1.89771724E-03
  -11.8999996       1.71353598E-03
  -11.8900003       1.49993401E-03
  -11.8800001       1.25821808E-03
  -11.8699999       9.89903347E-04
  -11.8599997       6.96625269E-04
  -11.8500004       3.80150042E-04
  -11.8400002       4.23826605E-05
  -11.8299999      -3.14552715E-04
  -11.8199997      -6.88215659E-04
  -11.8100004      -1.07577152E-03
  -11.8000002      -1.47392228E-03
  -11.7900000      -1.87890534E-03
  -11.7799997      -2.28654803E-03
  -11.7700005      -2.69238162E-03
  -11.7600002      -3.09180538E-03
  -11.7500000      -3.48027446E-03
  -11.7399998      -3.85347102E-03
  -11.7299995      -4.20745695E-03
  -11.7200003      -4.53876564E-03
  -11.7100000      -4.84443083E-03
  -11.6999998      -5.12196310E-03
  -11.6899996      -5.36926230E-03
  -11.6800003      -5.58452308E-03
  -11.6700001      -5.76610491E-03
  -11.6599998      -5.91243384E-03
  -11.6499996      -6.02191826E-03
  -11.6400003      -6.09289622E-03
  -11.6300001      -6.12359960E-03
  -11.6199999      -6.11217180E-03
  -11.6099997      -6.05666963E-03
  -11.6000004      -5.95510565E-03
  -11.5900002      -5.80548821E-03
  -11.5799999      -5.60589368E-03
  -11.5699997      -5.35453111E-03
  -11.5600004      -5.04986802E-03
  -11.5500002      -4.69073700E-03
  -11.5400000      -4.27649403E-03
  -11.5299997      -3.80712794E-03
  -11.5200005      -3.28341033E-03
  -11.5100002      -2.70693819E-03
  -11.5000000      -2.08016858E-03
  -11.4899998      -1.40635634E-03
  -11.4799995      -6.89453795E-04
  -11.4700003       6.60646183E-05
  -11.4600000       8.55373859E-04
  -11.4499998       1.67349121E-03
  -11.4399996       2.51543988E-03
  -11.4300003       3.37634329E-03
  -11.4200001       4.25151642E-03
  -11.4099998       5.13646659E-03
  -11.3999996       6.02691434E-03
  -11.3900003       6.91878935E-03
  -11.3800001       7.80825550E-03
  -11.3699999       8.69174581E-03
  -11.3599997       9.56606213E-03
  -11.3500004       1.04284482E-02
  -11.3400002       1.12766819E-02
  -11.3299999       1.21091260E-02
  -11.3199997       1.29247224E-02
  -11.3100004       1.37229133E-02
  -11.3000002       1.45035023E-02
  -11.2900000       1.52664976E-02
  -11.2799997       1.60118807E-02
  -11.2700005       1.67394709E-02
  -11.2600002       1.74487475E-02
  -11.2500000       1.81388017E-02
  -11.2399998       1.88083630E-02
  -11.2299995       1.94558371E-02
  -11.2200003       2.00794470E-02
  -11.2100000       2.06773560E-02
  -11.1999998       2.12477911E-02
  -11.1899996       2.17891391E-02
  -11.1800003       2.22999826E-02
  -11.1700001       2.27791704E-02
  -11.1599998       2.32257489E-02
  -11.1499996       2.36390084E-02
  -11.1400003       2.40184665E-02
  -11.1300001       2.43638810E-02
  -11.1199999       2.46753301E-02
  -11.1099997       2.49532461E-02
  -11.1000004       2.51984745E-02
  -11.0900002       2.54123379E-02
  -11.0799999       2.55966168E-02
  -11.0699997       2.57535167E-02
  -11.0600004       2.58855969E-02
  -11.0500002       2.59956438E-02
  -11.0400000       2.60865521E-02
  -11.0299997       2.61612069E-02
  -11.0200005       2.62223259E-02
  -11.0100002       2.62724478E-02
  -11.0000000       2.63138134E-02
  -10.9899998       2.63483915E-02
  -10.9799995       2.63778623E-02
  -10.9700003       2.64036227E-02
  -10.9600000       2.64267921E-02
  -10.9499998       2.64482424E-02
  -10.9399996       2.64685620E-02
  -10.9300003       2.64880359E-02
  -10.9200001       2.65066382E-02
  -10.9099998       2.65239961E-02
  -10.8999996       2.65393481E-02
  -10.8900003       2.65515223E-02
  -10.8800001       2.65588835E-02
  -10.8699999       2.65593678E-02
  -10.8599997       2.65504587E-02
  -10.8500004       2.65292916E-02
  -10.8400002       2.64926832E-02
  -10.8299999       2.64373701E-02
  -10.8199997       2.63601299E-02
  -10.8100004       2.62580123E-02
  -10.8000002       2.61285435E-02
  -10.7900000       2.59698890E-02
  -10.7799997       2.57809293E-02
  -10.7700005       2.55612452E-02
  -10.7600002       2.53109783E-02
  -10.7500000       2.50306707E-02
  -10.7399998       2.47209929E-02
  -10.7299995       2.43825261E-02
  -10.7200003       2.40155514E-02
  -10.7100000       2.36200541E-02
  -10.6999998       2.31957342E-02
  -10.6899996       2.27422491E-02
  -10.6800003       2.22594924E-02
  -10.6700001       2.17478573E-02
  -10.6599998       2.12085769E-02
  -10.6499996       2.06438974E-02
  -10.6400003       2.00570505E-02
  -10.6300001       1.94522012E-02
  -10.6199999       1.88341569E-02
  -10.6099997       1.82080306E-02
  -10.6000004       1.75789241E-02
  -10.5900002       1.69515312E-02
  -10.5799999       1.63300075E-02
  -10.5699997       1.57178007E-02
  -10.5600004       1.51177030E-02
  -10.5500002       1.45319840E-02
  -10.5400000       1.39625035E-02
  -10.5299997       1.34109147E-02
  -10.5200005       1.28787598E-02
  -10.5100002       1.23675577E-02
  -10.5000000       1.18787428E-02
  -10.4899998       1.14135528E-02
  -10.4799995       1.09729972E-02
  -10.4700003       1.05577428E-02
  -10.4600000       1.01680467E-02
  -10.4499998       9.80376452E-03
  -10.4399996       9.46443062E-03
  -10.4300003       9.14937910E-03
  -10.4200001       8.85796268E-03
  -10.4099998       8.58955365E-03
  -10.3999996       8.34381115E-03
  -10.3900003       8.12055916E-03
  -10.3800001       7.91989453E-03
  -10.3699999       7.74207618E-03
  -10.3599997       7.58733414E-03
  -10.3500004       7.45590078E-03
  -10.3400002       7.34772440E-03
  -10.3299999       7.26250652E-03
  -10.3199997       7.19961990E-03
  -10.3100004       7.15808896E-03
  -10.3000002       7.13674538E-03
  -10.2900000       7.13424571E-03
  -10.2799997       7.14917853E-03
  -10.2700005       7.18019204E-03
  -10.2600002       7.22599775E-03
  -10.2500000       7.28559121E-03
  -10.2399998       7.35800806E-03
  -10.2299995       7.44236074E-03
  -10.2200003       7.53784319E-03
  -10.2100000       7.64341746E-03
  -10.1999998       7.75781879E-03
  -10.1899996       7.87938386E-03
  -10.1800003       8.00607540E-03
  -10.1700001       8.13556649E-03
  -10.1599998       8.26536398E-03
  -10.1499996       8.39309394E-03
  -10.1400003       8.51699896E-03
  -10.1300001       8.63600336E-03
  -10.1199999       8.75039399E-03
  -10.1099997       8.86162743E-03
  -10.1000004       8.97259265E-03
  -10.0900002       9.08725802E-03
  -10.0799999       9.21031088E-03
  -10.0699997       9.34665650E-03
  -10.0600004       9.50086117E-03
  -10.0500002       9.67667624E-03
  -10.0400000       9.87666380E-03
  -10.0299997       1.01022348E-02
  -10.0200005       1.03535131E-02
  -10.0100002       1.06299138E-02
  -10.0000000       1.09303044E-02
  -9.98999977       1.12536140E-02
  -9.97999954       1.15990667E-02
  -9.97000027       1.19665265E-02
  -9.96000004       1.23565970E-02
  -9.94999981       1.27703911E-02
  -9.93999958       1.32096820E-02
  -9.93000031       1.36763593E-02
  -9.92000008       1.41726425E-02
  -9.90999985       1.47006381E-02
  -9.89999962       1.52624119E-02
  -9.89000034       1.58599354E-02
  -9.88000011       1.64950360E-02
  -9.86999989       1.71694662E-02
  -9.85999966       1.78846698E-02
  -9.85000038       1.86418630E-02
  -9.84000015       1.94415320E-02
  -9.82999992       2.02837773E-02
  -9.81999969       2.11677924E-02
  -9.81000042       2.20919140E-02
  -9.80000019       2.30538268E-02
  -9.78999996       2.40505598E-02
  -9.77999973       2.50785649E-02
  -9.77000046       2.61341427E-02
  -9.76000023       2.72136889E-02
  -9.75000000       2.83136871E-02
  -9.73999977       2.94311233E-02
  -9.72999954       3.05633545E-02
  -9.72000027       3.17081474E-02
  -9.71000004       3.28636803E-02
  -9.69999981       3.40280980E-02
  -9.68999958       3.51996645E-02
  -9.68000031       3.63762118E-02
  -9.67000008       3.75551730E-02
  -9.65999985       3.87335792E-02
  -9.64999962       3.99078764E-02
  -9.64000034       4.10742871E-02
  -9.63000011       4.22289632E-02
  -9.61999989       4.33683246E-02
  -9.60999966       4.44892384E-02
  -9.60000038       4.55892533E-02
  -9.59000015       4.66667749E-02
  -9.57999992       4.77208942E-02
  -9.56999969       4.87514809E-02
  -9.56000042       4.97587807E-02
  -9.55000019       5.07434756E-02
  -9.53999996       5.17064556E-02
  -9.52999973       5.26488721E-02
  -9.52000046       5.35720922E-02
  -9.51000023       5.44776581E-02
  -9.50000000       5.53674847E-02
  -9.48999977       5.62435165E-02
  -9.47999954       5.71077056E-02
  -9.47000027       5.79617284E-02
  -9.46000004       5.88066280E-02
  -9.44999981       5.96427545E-02
  -9.43999958       6.04696162E-02
  -9.43000031       6.12858571E-02
  -9.42000008       6.20896295E-02
  -9.40999985       6.28789365E-02
  -9.39999962       6.36519194E-02
  -9.39000034       6.44073784E-02
  -9.38000011       6.51447326E-02
  -9.36999989       6.58643469E-02
  -9.35999966       6.65673912E-02
  -9.35000038       6.72555864E-02
  -9.34000015       6.79307282E-02
  -9.32999992       6.85949028E-02
  -9.31999969       6.92498907E-02
  -9.31000042       6.98972270E-02
  -9.30000019       7.05379918E-02
  -9.28999996       7.11727515E-02
  -9.27999973       7.18014762E-02
  -9.27000046       7.24239573E-02
  -9.26000023       7.30394199E-02
  -9.25000000       7.36468285E-02
  -9.23999977       7.42452368E-02
  -9.22999954       7.48337656E-02
  -9.22000027       7.54122809E-02
  -9.21000004       7.59813562E-02
  -9.19999981       7.65423179E-02
  -9.18999958       7.70975724E-02
  -9.18000031       7.76501149E-02
  -9.17000008       7.82031864E-02
  -9.15999985       7.87601471E-02
  -9.14999962       7.93236047E-02
  -9.14000034       7.98957944E-02
  -9.13000011       8.04781616E-02
  -9.11999989       8.10717344E-02
  -9.10999966       8.16775486E-02
  -9.10000038       8.22966099E-02
  -9.09000015       8.29303563E-02
  -9.07999992       8.35808516E-02
  -9.06999969       8.42507556E-02
  -9.06000042       8.49425644E-02
  -9.05000019       8.56590569E-02
  -9.03999996       8.64026621E-02
  -9.02999973       8.71754512E-02
  -9.02000046       8.79792720E-02
  -9.01000023       8.88156816E-02
  -9.00000000       8.96862522E-02
  -8.98999977       9.05928016E-02
  -8.97999954       9.15369466E-02
  -8.97000027       9.25206840E-02
  -8.96000004       9.35449153E-02
  -8.94999981       9.46105942E-02
  -8.93999958       9.57169980E-02
  -8.93000031       9.68631431E-02
  -8.92000008       9.80463028E-02
  -8.90999985       9.92638171E-02
  -8.89999962      0.100511894    
  -8.89000034      0.101787068    
  -8.88000011      0.103085972    
  -8.86999989      0.104404926    
  -8.85999966      0.105740763    
  -8.85000038      0.107090123    
  -8.84000015      0.108449742    
  -8.82999992      0.109816402    
  -8.81999969      0.111187004    
  -8.81000042      0.112559080    
  -8.80000019      0.113930643    
  -8.78999996      0.115300819    
  -8.77999973      0.116669200    
  -8.77000046      0.118036211    
  -8.76000023      0.119402729    
  -8.75000000      0.120769434    
  -8.73999977      0.122137606    
  -8.72999954      0.123508446    
  -8.72000027      0.124883495    
  -8.71000004      0.126265466    
  -8.69999981      0.127657771    
  -8.68999958      0.129065081    
  -8.68000031      0.130493194    
  -8.67000008      0.131948814    
  -8.65999985      0.133438408    
  -8.64999962      0.134968266    
  -8.64000034      0.136544004    
  -8.63000011      0.138169974    
  -8.61999989      0.139849767    
  -8.60999966      0.141586632    
  -8.60000038      0.143383116    
  -8.59000015      0.145242602    
  -8.57999992      0.147169009    
  -8.56999969      0.149166092    
  -8.56000042      0.151238158    
  -8.55000019      0.153389230    
  -8.53999996      0.155622035    
  -8.52999973      0.157938704    
  -8.52000046      0.160339877    
  -8.51000023      0.162825420    
  -8.50000000      0.165393755    
  -8.48999977      0.168043941    
  -8.47999954      0.170773819    
  -8.47000027      0.173581779    
  -8.46000004      0.176465839    
  -8.44999981      0.179423064    
  -8.43999958      0.182450518    
  -8.43000031      0.185543239    
  -8.42000008      0.188696012    
  -8.40999985      0.191901743    
  -8.39999962      0.195153058    
  -8.39000034      0.198441416    
  -8.38000011      0.201758489    
  -8.36999989      0.205094650    
  -8.35999966      0.208442226    
  -8.35000038      0.211791098    
  -8.34000015      0.215132430    
  -8.32999992      0.218456909    
  -8.31999969      0.221754625    
  -8.31000042      0.225015417    
  -8.30000019      0.228229150    
  -8.28999996      0.231385559    
  -8.27999973      0.234473586    
  -8.27000046      0.237483203    
  -8.26000023      0.240403593    
  -8.25000000      0.243224844    
  -8.23999977      0.245937407    
  -8.22999954      0.248532966    
  -8.22000027      0.251004547    
  -8.21000004      0.253346056    
  -8.19999981      0.255553335    
  -8.18999958      0.257623702    
  -8.18000031      0.259555221    
  -8.17000008      0.261346996    
  -8.15999985      0.262998134    
  -8.14999962      0.264508545    
  -8.14000034      0.265877664    
  -8.13000011      0.267105699    
  -8.11999989      0.268193275    
  -8.10999966      0.269142568    
  -8.10000038      0.269956201    
  -8.09000015      0.270639181    
  -8.07999992      0.271196961    
  -8.06999969      0.271637201    
  -8.06000042      0.271967709    
  -8.05000019      0.272196949    
  -8.03999996      0.272334963    
  -8.02999973      0.272392601    
  -8.02000046      0.272381812    
  -8.01000023      0.272314698    
  -8.00000000      0.272206247    
  -7.98999977      0.272071421    
  -7.98000002      0.271926641    
  -7.96999979      0.271787405    
  -7.96000004      0.271668613    
  -7.94999981      0.271584809    
  -7.94000006      0.271547347    
  -7.92999983      0.271566868    
  -7.92000008      0.271651953    
  -7.90999985      0.271810293    
  -7.90000010      0.272047877    
  -7.88999987      0.272370905    
  -7.88000011      0.272784680    
  -7.86999989      0.273295283    
  -7.86000013      0.273907989    
  -7.84999990      0.274628103    
  -7.84000015      0.275460511    
  -7.82999992      0.276410460    
  -7.82000017      0.277482688    
  -7.80999994      0.278681695    
  -7.80000019      0.280011415    
  -7.78999996      0.281475157    
  -7.78000021      0.283075780    
  -7.76999998      0.284814328    
  -7.76000023      0.286690235    
  -7.75000000      0.288702786    
  -7.73999977      0.290849596    
  -7.73000002      0.293127596    
  -7.71999979      0.295534015    
  -7.71000004      0.298065424    
  -7.69999981      0.300718427    
  -7.69000006      0.303490400    
  -7.67999983      0.306377739    
  -7.67000008      0.309377462    
  -7.65999985      0.312485218    
  -7.65000010      0.315697372    
  -7.63999987      0.319009393    
  -7.63000011      0.322416455    
  -7.61999989      0.325915664    
  -7.61000013      0.329504430    
  -7.59999990      0.333180189    
  -7.59000015      0.336942047    
  -7.57999992      0.340789169    
  -7.57000017      0.344721437    
  -7.55999994      0.348737955    
  -7.55000019      0.352838248    
  -7.53999996      0.357022166    
  -7.53000021      0.361290872    
  -7.51999998      0.365643770    
  -7.51000023      0.370081782    
  -7.50000000      0.374607712    
  -7.48999977      0.379221916    
  -7.48000002      0.383924335    
  -7.46999979      0.388715565    
  -7.46000004      0.393594384    
  -7.44999981      0.398558050    
  -7.44000006      0.403605729    