  -16.0000000       0.00000000    
  -15.9899998       0.00000000    
  -15.9799995       0.00000000    
  -15.9700003       0.00000000    
  -15.9600000       0.00000000    
  -15.9499998       0.00000000    
  -15.9399996       0.00000000    
  -15.9300003       0.00000000    
  -15.9200001       0.00000000    
  -15.9099998       0.00000000    
  -15.8999996       0.00000000    
  -15.8900003       0.00000000    
  -15.8800001       2.80259693E-45
  -15.8699999       5.04467447E-44
  -15.8599997       6.15170026E-43
  -15.8500004       5.17639653E-42
  -15.8400002       3.37642865E-41
  -15.8299999       1.81371462E-40
  -15.8199997       8.31030245E-40
  -15.8100004       3.31717615E-39
  -15.8000002       1.16792440E-38
  -15.7900000       3.65004675E-38
  -15.7799997       1.01364359E-37
  -15.7700005       2.48889396E-37
  -15.7600002       5.32401715E-37
  -15.7500000       9.56686147E-37
  -15.7399998       1.29935488E-36
  -15.7299995       7.26523524E-37
  -15.7200003      -2.82752686E-36
  -15.7100000      -1.33243519E-35
  -15.6999998      -3.66783625E-35
  -15.6899996      -7.89547643E-35
  -15.6800003      -1.41145992E-34
  -15.6700001      -2.09785150E-34
  -15.6599998      -2.45513176E-34
  -15.6499996      -1.76641284E-34
  -15.6400003       9.04571429E-35
  -15.6300001       6.32631774E-34
  -15.6199999       1.44274336E-33
  -15.6099997       2.35695489E-33
  -15.6000004       3.02266838E-33
  -15.5900002       2.94940881E-33
  -15.5799999       1.62693726E-33
  -15.5699997      -1.40661105E-33
  -15.5600004      -6.71315714E-33
  -15.5500002      -1.52985476E-32
  -15.5400000      -2.85458606E-32
  -15.5299997      -4.62921019E-32
  -15.5200005      -6.12962411E-32
  -15.5100002      -5.00967069E-32
  -15.5000000       3.43878148E-32
  -15.4899998       2.54509597E-31
  -15.4799995       6.42722789E-31
  -15.4700003       1.10417579E-30
  -15.4600000       1.28470746E-30
  -15.4499998       4.90050429E-31
  -15.4399996      -2.17252929E-30
  -15.4300003      -7.21822820E-30
  -15.4200001      -1.36730102E-29
  -15.4099998      -1.76955602E-29
  -15.3999996      -1.18435671E-29
  -15.3900003       1.34194811E-29
  -15.3800001       6.42140252E-29
  -15.3699999       1.33142414E-28
  -15.3599997       1.87206975E-28
  -15.3500004       1.61382638E-28
  -15.3400002      -2.96522885E-29
  -15.3299999      -4.48580332E-28
  -15.3199997      -1.05755038E-27
  -15.3100004      -1.62464536E-27
  -15.3000002      -1.66849166E-27
  -15.2900000      -5.26861392E-28
  -15.2799997       2.36193256E-27
  -15.2700005       6.93557417E-27
  -15.2600002       1.18570293E-26
  -15.2500000       1.40639339E-26
  -15.2399998       9.04492661E-27
  -15.2299995      -7.59579143E-27
  -15.2200003      -3.70414568E-26
  -15.2100000      -7.31822256E-26
  -15.1999998      -9.92903106E-26
  -15.1899996      -8.83622082E-26
  -15.1800003      -1.04103277E-26
  -15.1700001       1.51411916E-25
  -15.1599998       3.77830625E-25
  -15.1499996       5.91668507E-25
  -15.1400003       6.51732277E-25
  -15.1300001       3.79973689E-25
  -15.1199999      -3.65328585E-25
  -15.1099997      -1.57419373E-24
  -15.1000004      -2.95928468E-24
  -15.0900002      -3.88429667E-24
  -15.0799999      -3.43208176E-24
  -15.0699997      -6.87504112E-25
  -15.0600004       4.75151946E-24
  -15.0500002       1.21382264E-23
  -15.0400000       1.90686582E-23
  -15.0299997       2.14755722E-23
  -15.0200005       1.45095123E-23
  -15.0100002      -5.49786037E-24
  -15.0000000      -3.82242110E-23
  -14.9899998      -7.65520152E-23
  -14.9799995      -1.05224957E-22
  -14.9700003      -1.02692865E-22
  -14.9600000      -4.74452566E-23
  -14.9499998       7.12450954E-23
  -14.9399996       2.40511169E-22
  -14.9300003       4.13947553E-22
  -14.9200001       5.11311972E-22
  -14.9099998       4.34362162E-22
  -14.8999996       1.01685692E-22
  -14.8900003      -5.01907134E-22
  -14.8800001      -1.27555905E-21
  -14.8699999      -1.97518613E-21
  -14.8599997      -2.23554749E-21
  -14.8500004      -1.66139509E-21
  -14.8400002       1.23986783E-23
  -14.8299999       2.72332940E-21
  -14.8199997       5.91321976E-21
  -14.8100004       8.48163616E-21
  -14.8000002       8.95078893E-21
  -14.7900000       5.88895364E-21
  -14.7799997      -1.44782749E-21
  -14.7700005      -1.24127603E-20
  -14.7600002      -2.44720140E-20
  -14.7500000      -3.32370056E-20
  -14.7399998      -3.32915446E-20
  -14.7299995      -1.98830567E-20
  -14.7200003       8.77915784E-21
  -14.7100000       4.92573712E-20
  -14.6999998       9.15945364E-20
  -14.6899996       1.20008294E-19
  -14.6800003       1.16262109E-19
  -14.6700001       6.56580233E-20
  -14.6599998      -3.54807233E-20
  -14.6499996      -1.73089883E-19
  -14.6400003      -3.12395951E-19
  -14.6300001      -4.01574836E-19
  -14.6199999      -3.83621372E-19
  -14.6099997      -2.15538956E-19
  -14.6000004       1.09241323E-19
  -14.5900002       5.42296818E-19
  -14.5799999       9.74132350E-19
  -14.5699997       1.24812507E-18
  -14.5600004       1.19766323E-18
  -14.5500002       7.02320129E-19
  -14.5400000      -2.49785617E-19
  -14.5299997      -1.51363867E-18
  -14.5200005      -2.77595010E-18
  -14.5100002      -3.59915549E-18
  -14.5000000      -3.52624117E-18
  -14.4899998      -2.23215226E-18
  -14.4799995       3.14229578E-19
  -14.4700003       3.73030125E-18
  -14.4600000       7.19888173E-18
  -14.4499998       9.58843033E-18
  -14.4399996       9.72217138E-18
  -14.4300003       6.75532102E-18
  -14.4200001       5.69045099E-19
  -14.4099998      -7.94592343E-18
  -14.3999996      -1.68468352E-17
  -14.3900003      -2.34288519E-17
  -14.3800001      -2.48559850E-17
  -14.3699999      -1.90310353E-17
  -14.3599997      -5.49276216E-18
  -14.3500004       1.39429779E-17
  -14.3400002       3.50799820E-17
  -14.3299999       5.19637309E-17
  -14.3199997       5.82340975E-17
  -14.3100004       4.89807423E-17
  -14.3000002       2.26511036E-17
  -14.2900000      -1.75744381E-17
  -14.2799997      -6.35078900E-17
  -14.2700005      -1.03144400E-16
  -14.2600002      -1.23313995E-16
  -14.2500000      -1.13333511E-16
  -14.2399998      -6.87779239E-17
  -14.2299995       5.75061587E-18
  -14.2200003       9.59228814E-17
  -14.2100000       1.79720579E-16
  -14.1999998       2.32190154E-16
  -14.1899996       2.32059790E-16
  -14.1800003       1.68627584E-16
  -14.1700001       4.69285998E-17
  -14.1599998      -1.10683536E-16
  -14.1499996      -2.67683667E-16
  -14.1400003      -3.81193070E-16
  -14.1300001      -4.13007071E-16
  -14.1199999      -3.41161022E-16
  -14.1099997      -1.68746910E-16
  -14.1000004       7.30365805E-17
  -14.0900002       3.29400340E-16
  -14.0799999       5.33894713E-16
  -14.0699997       6.25389359E-16
  -14.0600004       5.65899112E-16
  -14.0500002       3.54196991E-16
  -14.0400000       3.06833549E-17
  -14.0299997      -3.29060045E-16
  -14.0200005      -6.31608858E-16
  -14.0100002      -7.90232665E-16
  -14.0000000      -7.50330848E-16
  -13.9899998      -5.08411304E-16
  -13.9799995      -1.18260570E-16
  -13.9700003       3.19016907E-16
  -13.9600000       6.80008850E-16
  -13.9499998       8.53358907E-16
  -13.9399996       7.74315857E-16
  -13.9300003       4.49152720E-16
  -13.9200001      -3.90503960E-17
  -13.9099998      -5.47206207E-16
  -13.8999996      -9.09254082E-16
  -13.8900003      -9.84752246E-16
  -13.8800001      -7.05856590E-16
  -13.8699999      -1.08392318E-16
  -13.8599997       6.64285430E-16
  -13.8500004       1.38928417E-15
  -13.8400002       1.81985283E-15
  -13.8299999       1.75598252E-15
  -13.8199997       1.11126424E-15
  -13.8100004      -4.38097054E-17
  -13.8000002      -1.47754130E-15
  -13.7900000      -2.83787505E-15
  -13.7799997      -3.73253920E-15
  -13.7700005      -3.83097544E-15
  -13.7600002      -2.96257058E-15
  -13.7500000      -1.18400616E-15
  -13.7399998       1.20587687E-15
  -13.7299995       3.71324209E-15
  -13.7200003       5.75227317E-15
  -13.7100000       6.78235332E-15
  -13.6999998       6.44678343E-15
  -13.6899996       4.67723377E-15
  -13.6800003       1.73428535E-15
  -13.6700001      -1.83112091E-15
  -13.6599998      -5.29094387E-15
  -13.6499996      -7.90382028E-15
  -13.6400003      -9.09046855E-15
  -13.6300001      -8.57646524E-15
  -13.6199999      -6.46409890E-15
  -13.6099997      -3.21165586E-15
  -13.6000004       4.78165398E-16
  -13.5900002       3.83458888E-15
  -13.5799999       6.21490604E-15
  -13.5699997       7.26773242E-15
  -13.5600004       7.01678875E-15
  -13.5500002       5.83811191E-15
  -13.5400000       4.33204498E-15
  -13.5299997       3.12160525E-15
  -13.5200005       2.63275734E-15
  -13.5100002       2.92233651E-15
  -13.5000000       3.61190815E-15
  -13.4899998       3.96090733E-15
  -13.4799995       3.07520817E-15
  -13.4700003       2.06919045E-16
  -13.4600000      -4.93157574E-15
  -13.4499998      -1.19314315E-14
  -13.4399996      -1.96124109E-14
  -13.4300003      -2.61597130E-14
  -13.4200001      -2.94718372E-14
  -13.4099998      -2.76610942E-14
  -13.3999996      -1.95986500E-14
  -13.3900003      -5.36846136E-15
  -13.3800001       1.35010089E-14
  -13.3699999       3.41194697E-14
  -13.3599997       5.26569856E-14
  -13.3500004       6.50494808E-14
  -13.3400002       6.78555926E-14
  -13.3299999       5.90813138E-14
  -13.3199997       3.87780560E-14
  -13.3100004       9.25464048E-15
  -13.3000002      -2.51796298E-14
  -13.2900000      -5.89203233E-14
  -13.2799997      -8.60957898E-14
  -13.2700005      -1.01709128E-13
  -13.2600002      -1.02646902E-13
  -13.2500000      -8.83269085E-14
  -13.2399998      -6.08300641E-14
  -13.2299995      -2.44774260E-14
  -13.2200003       1.50583298E-14
  -13.2100000       5.19054167E-14
  -13.1999998       8.11412095E-14
  -13.1899996       9.96656574E-14
  -13.1800003       1.06594841E-13
  -13.1700001       1.03089785E-13
  -13.1599998       9.16818365E-14
  -13.1499996       7.52921488E-14
  -13.1400003       5.62313664E-14
  -13.1300001       3.54823592E-14
  -13.1199999       1.25022444E-14
  -13.1099997      -1.43571678E-14
  -13.1000004      -4.68869328E-14
  -13.0900002      -8.57646270E-14
  -13.0799999      -1.29371096E-13
  -13.0699997      -1.73077454E-13
  -13.0600004      -2.09322495E-13
  -13.0500002      -2.28626715E-13
  -13.0400000      -2.21452617E-13
  -13.0299997      -1.80577761E-13
  -13.0200005      -1.03458745E-13
  -13.0100002       6.01099091E-15
  -13.0000000       1.36883438E-13
  -12.9899998       2.72003855E-13
  -12.9799995       3.90342327E-13
  -12.9700003       4.70478637E-13
  -12.9600000       4.94608423E-13
  -12.9499998       4.52259541E-13
  -12.9399996       3.42904253E-13
  -12.9300003       1.76836898E-13
  -12.9200001      -2.59671553E-14
  -12.9099998      -2.38870311E-13
  -12.8999996      -4.32909947E-13
  -12.8900003      -5.81595698E-13
  -12.8800001      -6.65195817E-13
  -12.8699999      -6.73651998E-13
  -12.8599997      -6.07577519E-13
  -12.8500004      -4.77232132E-13
  -12.8400002      -2.99835623E-13
  -12.8299999      -9.59526377E-14
  -12.8199997       1.14136863E-13
  -12.8100004       3.13221562E-13
  -12.8000002       4.88514123E-13
  -12.7900000       6.31426985E-13
  -12.7799997       7.36090117E-13
  -12.7700005       7.97312954E-13
  -12.7600002       8.08871470E-13
  -12.7500000       7.62932577E-13
  -12.7399998       6.51098045E-13
  -12.7299995       4.67055864E-13
  -12.7200003       2.10287652E-13
  -12.7100000      -1.10159677E-13
  -12.6999998      -4.73030686E-13
  -12.6899996      -8.44438180E-13
  -12.6800003      -1.18032971E-12
  -12.6700001      -1.43187589E-12
  -12.6599998      -1.55308427E-12
  -12.6499996      -1.50931036E-12
  -12.6400003      -1.28494871E-12
  -12.6300001      -8.88596705E-13
  -12.6199999      -3.54356816E-13
  -12.6099997       2.61337908E-13
  -12.6000004       8.87079527E-13
  -12.5900002       1.44685457E-12
  -12.5799999       1.87158514E-12
  -12.5699997       2.10970065E-12
  -12.5600004       2.13475635E-12
  -12.5500002       1.94870682E-12
  -12.5400000       1.58030208E-12
  -12.5299997       1.07907682E-12
  -12.5200005       5.06281106E-13
  -12.5100002      -7.53403958E-14
  -12.5000000      -6.10866230E-13
  -12.4899998      -1.05987961E-12
  -12.4799995      -1.39947071E-12
  -12.4700003      -1.62341971E-12
  -12.4600000      -1.73831067E-12
  -12.4499998      -1.75800628E-12
  -12.4399996      -1.69822002E-12
  -12.4300003      -1.57277370E-12
  -12.4200001      -1.39259329E-12
  -12.4099998      -1.16767240E-12
  -12.3999996      -9.11357903E-13
  -12.3900003      -6.45558476E-13
  -12.3800001      -4.05098752E-13
  -12.3699999      -2.39447595E-13
  -12.3599997      -2.10576375E-13
  -12.3500004      -3.86529811E-13
  -12.3400002      -8.31299222E-13
  -12.3299999      -1.59261124E-12
  -12.3199997      -2.68985333E-12
  -12.3100004      -4.10464458E-12
  -12.3000002      -5.77625317E-12
  -12.2900000      -7.60328172E-12
  -12.2799997      -9.45198086E-12
  -12.2700005      -1.11701377E-11
  -12.2600002      -1.26044912E-11
  -12.2500000      -1.36189029E-11
  -12.2399998      -1.41101453E-11
  -12.2299995      -1.40186231E-11
  -12.2200003      -1.33323482E-11
  -12.2100000      -1.20836648E-11
  -12.1999998      -1.03395348E-11
  -12.1899996      -8.18767016E-12
  -12.1800003      -5.72124119E-12
  -12.1700001      -3.02524737E-12
  -12.1599998      -1.67139021E-13
  -12.1499996       2.80683549E-12
  -12.1400003       5.86931632E-12
  -12.1300001       9.00470584E-12
  -12.1199999       1.21994368E-11
  -12.1099997       1.54323845E-11
  -12.1000004       1.86680272E-11
  -12.0900002       2.18541817E-11
  -12.0799999       2.49250447E-11
  -12.0699997       2.78088507E-11
  -12.0600004       3.04382873E-11
  -12.0500002       3.27610994E-11
  -12.0400000       3.47482772E-11
  -12.0299997       3.63976314E-11
  -12.0200005       3.77318732E-11
  -12.0100002       3.87913972E-11
  -12.0000000       3.96232977E-11
  -11.9899998       4.02692150E-11
  -11.9799995       4.07544831E-11
  -11.9700003       4.10808366E-11
  -11.9600000       4.12243538E-11
  -11.9499998       4.11383254E-11
  -11.9399996       4.07602598E-11
  -11.9300003       4.00208165E-11
  -11.9200001       3.88528515E-11
  -11.9099998       3.71975541E-11
  -11.8999996       3.50076079E-11
  -11.8900003       3.22462924E-11
  -11.8800001       2.88840427E-11
  -11.8699999       2.48939029E-11
  -11.8599997       2.02481261E-11
  -11.8500004       1.49175602E-11
  -11.8400002       8.87506388E-12
  -11.8299999       2.10261105E-12
  -11.8199997      -5.39921450E-12
  -11.8100004      -1.36009069E-11
  -11.8000002      -2.24357512E-11
  -11.7900000      -3.17955211E-11
  -11.7799997      -4.15314380E-11
  -11.7700005      -5.14609085E-11
  -11.7600002      -6.13793599E-11
  -11.7500000      -7.10750764E-11
  -11.7399998      -8.03453276E-11
  -11.7299995      -8.90110832E-11
  -11.7200003      -9.69285138E-11
  -11.7100000      -1.03996159E-10
  -11.6999998      -1.10157126E-10
  -11.6899996      -1.15396803E-10
  -11.6800003      -1.19737151E-10
  -11.6700001      -1.23228039E-10
  -11.6599998      -1.25937649E-10
  -11.6499996      -1.27942393E-10
  -11.6400003      -1.29317126E-10
  -11.6300001      -1.30126465E-10
  -11.6199999      -1.30417066E-10
  -11.6099997      -1.30212535E-10
  -11.6000004      -1.29509750E-10
  -11.5900002      -1.28277611E-10
  -11.5799999      -1.26458247E-10
  -11.5699997      -1.23970209E-10
  -11.5600004      -1.20713564E-10
  -11.5500002      -1.16575041E-10
  -11.5400000      -1.11433751E-10
  -11.5299997      -1.05165189E-10
  -11.5200005      -9.76461828E-11
  -11.5100002      -8.87579524E-11
  -11.5000000      -7.83898502E-11
  -11.4899998      -6.64438227E-11
  -11.4799995      -5.28417587E-11
  -11.4700003      -3.75334971E-11
  -11.4600000      -2.05071758E-11
  -11.4499998      -1.79916303E-12
  -11.4399996       1.84982932E-11
  -11.4300003       4.02343055E-11
  -11.4200001       6.32023878E-11
  -11.4099998       8.71511266E-11
  -11.3999996       1.11800971E-10
  -11.3900003       1.36864575E-10
  -11.3800001       1.62069830E-10
  -11.3699999       1.87178453E-10
  -11.3599997       2.11999293E-10
  -11.3500004       2.36394349E-10
  -11.3400002       2.60275468E-10
  -11.3299999       2.83595702E-10
  -11.3199997       3.06336428E-10
  -11.3100004       3.28494731E-10
  -11.3000002       3.50074081E-10
  -11.2900000       3.71080555E-10
  -11.2799997       3.91524507E-10
  -11.2700005       4.11426782E-10
  -11.2600002       4.30825431E-10
  -11.2500000       4.49780324E-10
  -11.2399998       4.68374339E-10
  -11.2299995       4.86704899E-10
  -11.2200003       5.04871700E-10
  -11.2100000       5.22959509E-10
  -11.1999998       5.41020506E-10
  -11.1899996       5.59059410E-10
  -11.1800003       5.77024484E-10
  -11.1700001       5.94808369E-10
  -11.1599998       6.12253914E-10
  -11.1499996       6.29167995E-10
  -11.1400003       6.45335563E-10
  -11.1300001       6.60535682E-10
  -11.1199999       6.74553413E-10
  -11.1099997       6.87189139E-10
  -11.1000004       6.98267777E-10
  -11.0900002       7.07636783E-10
  -11.0799999       7.15180304E-10
  -11.0699997       7.20824234E-10
  -11.0600004       7.24550364E-10
  -11.0500002       7.26406602E-10
  -11.0400000       7.26516403E-10
  -11.0299997       7.25083715E-10
  -11.0200005       7.22387428E-10
  -11.0100002       7.18762661E-10
  -11.0000000       7.14575843E-10
  -10.9899998       7.10189296E-10
  -10.9799995       7.05931091E-10
  -10.9700003       7.02060909E-10
  -10.9600000       6.98752500E-10
  -10.9499998       6.96093461E-10
  -10.9399996       6.94084235E-10
  -10.9300003       6.92661484E-10
  -10.9200001       6.91718849E-10
  -10.9099998       6.91130875E-10
  -10.8999996       6.90769386E-10
  -10.8900003       6.90524526E-10
  -10.8800001       6.90291824E-10
  -10.8699999       6.89971580E-10
  -10.8599997       6.89476476E-10
  -10.8500004       6.88710144E-10
  -10.8400002       6.87577328E-10
  -10.8299999       6.85978885E-10
  -10.8199997       6.83831602E-10
  -10.8100004       6.81074142E-10
  -10.8000002       6.77672918E-10
  -10.7900000       6.73627876E-10
  -10.7799997       6.68969047E-10
  -10.7700005       6.63744504E-10
  -10.7600002       6.58013699E-10
  -10.7500000       6.51825927E-10
  -10.7399998       6.45211551E-10
  -10.7299995       6.38186837E-10
  -10.7200003       6.30744124E-10
  -10.7100000       6.22865370E-10
  -10.6999998       6.14533369E-10
  -10.6899996       6.05739681E-10
  -10.6800003       5.96491745E-10
  -10.6700001       5.86807991E-10
  -10.6599998       5.76728221E-10
  -10.6499996       5.66298064E-10
  -10.6400003       5.55568147E-10
  -10.6300001       5.44596090E-10
  -10.6199999       5.33446065E-10
  -10.6099997       5.22192123E-10
  -10.6000004       5.10925247E-10
  -10.5900002       4.99759789E-10
  -10.5799999       4.88824259E-10
  -10.5699997       4.78272089E-10
  -10.5600004       4.68255823E-10
  -10.5500002       4.58920624E-10
  -10.5400000       4.50376181E-10
  -10.5299997       4.42702403E-10
  -10.5200005       4.35921105E-10
  -10.5100002       4.30008834E-10
  -10.5000000       4.24890706E-10
  -10.4899998       4.20461083E-10
  -10.4799995       4.16589263E-10
  -10.4700003       4.13147960E-10
  -10.4600000       4.10000867E-10
  -10.4499998       4.07013812E-10
  -10.4399996       4.04063255E-10
  -10.4300003       4.01029515E-10
  -10.4200001       3.97804373E-10
  -10.4099998       3.94288380E-10
  -10.3999996       3.90412258E-10
  -10.3900003       3.86149446E-10
  -10.3800001       3.81529475E-10
  -10.3699999       3.76640164E-10
  -10.3599997       3.71657677E-10
  -10.3500004       3.66798092E-10
  -10.3400002       3.62333025E-10
  -10.3299999       3.58535784E-10
  -10.3199997       3.55654173E-10
  -10.3100004       3.53868435E-10
  -10.3000002       3.53297530E-10
  -10.2900000       3.53971241E-10
  -10.2799997       3.55845187E-10
  -10.2700005       3.58814783E-10
  -10.2600002       3.62763930E-10
  -10.2500000       3.67568614E-10
  -10.2399998       3.73153453E-10
  -10.2299995       3.79469151E-10
  -10.2200003       3.86498639E-10
  -10.2100000       3.94245858E-10
  -10.1999998       4.02700956E-10
  -10.1899996       4.11808421E-10
  -10.1800003       4.21467555E-10
  -10.1700001       4.31531089E-10
  -10.1599998       4.41803788E-10
  -10.1499996       4.52081206E-10
  -10.1400003       4.62177102E-10
  -10.1300001       4.71943318E-10
  -10.1199999       4.81305606E-10
  -10.1099997       4.90272600E-10
  -10.1000004       4.98918906E-10
  -10.0900002       5.07376752E-10
  -10.0799999       5.15819609E-10
  -10.0699997       5.24422283E-10
  -10.0600004       5.33363187E-10
  -10.0500002       5.42823397E-10
  -10.0400000       5.52952240E-10
  -10.0299997       5.63896652E-10
  -10.0200005       5.75799464E-10
  -10.0100002       5.88771920E-10
  -10.0000000       6.02929262E-10
  -9.98999977       6.18335161E-10
  -9.97999954       6.35015984E-10
  -9.97000027       6.52948084E-10
  -9.96000004       6.72040923E-10
  -9.94999981       6.92185198E-10
  -9.93999958       7.13225257E-10
  -9.93000031       7.35023487E-10
  -9.92000008       7.57475305E-10
  -9.90999985       7.80506826E-10
  -9.89999962       8.04121936E-10
  -9.89000034       8.28353053E-10
  -9.88000011       8.53329463E-10
  -9.86999989       8.79181783E-10
  -9.85999966       9.06071718E-10
  -9.85000038       9.34180733E-10
  -9.84000015       9.63682023E-10
  -9.82999992       9.94758720E-10
  -9.81999969       1.02759479E-09
  -9.81000042       1.06238218E-09
  -9.80000019       1.09928566E-09
  -9.78999996       1.13848098E-09
  -9.77999973       1.18012811E-09
  -9.77000046       1.22433597E-09
  -9.76000023       1.27115596E-09
  -9.75000000       1.32060918E-09
  -9.73999977       1.37264067E-09
  -9.72999954       1.42715040E-09
  -9.72000027       1.48400192E-09
  -9.71000004       1.54302371E-09
  -9.69999981       1.60403202E-09
  -9.68999958       1.66681668E-09
  -9.68000031       1.73115666E-09
  -9.67000008       1.79678539E-09
  -9.65999985       1.86340987E-09
  -9.64999962       1.93066341E-09
  -9.64000034       1.99815564E-09
  -9.63000011       2.06546580E-09
  -9.61999989       2.13215023E-09
  -9.60999966       2.19780349E-09
  -9.60000038       2.26205099E-09
  -9.59000015       2.32461406E-09
  -9.57999992       2.38524489E-09
  -9.56999969       2.44378251E-09
  -9.56000042       2.50013032E-09
  -9.55000019       2.55418153E-09
  -9.53999996       2.60582511E-09
  -9.52999973       2.65495093E-09
  -9.52000046       2.70139244E-09
  -9.51000023       2.74494805E-09
  -9.50000000       2.78539658E-09
  -9.48999977       2.82250445E-09
  -9.47999954       2.85603696E-09
  -9.47000027       2.88579738E-09
  -9.46000004       2.91159985E-09
  -9.44999981       2.93330338E-09
  -9.43999958       2.95078273E-09
  -9.43000031       2.96396818E-09
  -9.42000008       2.97282310E-09
  -9.40999985       2.97737213E-09
  -9.39999962       2.97773939E-09
  -9.39000034       2.97410496E-09
  -9.38000011       2.96679903E-09
  -9.36999989       2.95624436E-09
  -9.35999966       2.94297631E-09
  -9.35000038       2.92760749E-09
  -9.34000015       2.91080382E-09
  -9.32999992       2.89319946E-09
  -9.31999969       2.87549895E-09
  -9.31000042       2.85828961E-09
  -9.30000019       2.84217738E-09
  -9.28999996       2.82775381E-09
  -9.27999973       2.81558665E-09
  -9.27000046       2.80625967E-09
  -9.26000023       2.80042856E-09
  -9.25000000       2.79873058E-09
  -9.23999977       2.80181633E-09
  -9.22999954       2.81033641E-09
  -9.22000027       2.82483570E-09
  -9.21000004       2.84583446E-09
  -9.19999981       2.87364910E-09
  -9.18999958       2.90853541E-09
  -9.18000031       2.95068037E-09
  -9.17000008       3.00016323E-09
  -9.15999985       3.05701131E-09
  -9.14999962       3.12122084E-09
  -9.14000034       3.19276228E-09
  -9.13000011       3.27157124E-09
  -9.11999989       3.35753358E-09
  -9.10999966       3.45049567E-09
  -9.10000038       3.55018392E-09
  -9.09000015       3.65624242E-09
  -9.07999992       3.76820264E-09
  -9.06999969       3.88549193E-09
  -9.06000042       4.00749745E-09
  -9.05000019       4.13350110E-09
  -9.03999996       4.26285496E-09
  -9.02999973       4.39479209E-09
  -9.02000046       4.52854954E-09
  -9.01000023       4.66334615E-09
  -9.00000000       4.79835993E-09
  -8.98999977       4.93267027E-09
  -8.97999954       5.06536990E-09
  -8.97000027       5.19547694E-09
  -8.96000004       5.32197530E-09
  -8.94999981       5.44388001E-09
  -8.93999958       5.56027802E-09
  -8.93000031       5.67023672E-09
  -8.92000008       5.77294212E-09
  -8.90999985       5.86767879E-09
  -8.89999962       5.95377392E-09
  -8.89000034       6.03071237E-09
  -8.88000011       6.09792217E-09
  -8.86999989       6.15499163E-09
  -8.85999966       6.20149843E-09
  -8.85000038       6.23710150E-09
  -8.84000015       6.26143271E-09
  -8.82999992       6.27428021E-09
  -8.81999969       6.27545083E-09
  -8.81000042       6.26476915E-09
  -8.80000019       6.24226004E-09
  -8.78999996       6.20789864E-09
  -8.77999973       6.16189633E-09
  -8.77000046       6.10443962E-09
  -8.76000023       6.03589267E-09
  -8.75000000       5.95664273E-09
  -8.73999977       5.86728222E-09
  -8.72999954       5.76828763E-09
  -8.72000027       5.66035663E-09
  -8.71000004       5.54418245E-09
  -8.69999981       5.42041390E-09
  -8.68999958       5.28983302E-09
  -8.68000031       5.15314147E-09
  -8.67000008       5.01111996E-09
  -8.65999985       4.86447416E-09
  -8.64999962       4.71402961E-09
  -8.64000034       4.56051863E-09
  -8.63000011       4.40476278E-09
  -8.61999989       4.24757252E-09
  -8.60999966       4.08991729E-09
  -8.60000038       3.93273991E-09
  -8.59000015       3.77692455E-09
  -8.57999992       3.62350150E-09
  -8.56999969       3.47340046E-09
  -8.56000042       3.32762196E-09
  -8.55000019       3.18697424E-09
  -8.53999996       3.05225312E-09
  -8.52999973       2.92399926E-09
  -8.52000046       2.80279200E-09
  -8.51000023       2.68893996E-09
  -8.50000000       2.58271760E-09
  -8.48999977       2.48430543E-09
  -8.47999954       2.39381781E-09
  -8.47000027       2.31147301E-09
  -8.46000004       2.23746421E-09
  -8.44999981       2.17198859E-09
  -8.43999958       2.11526285E-09
  -8.43000031       2.06742534E-09
  -8.42000008       2.02862838E-09
  -8.40999985       1.99877892E-09
  -8.39999962       1.97767647E-09
  -8.39000034       1.96495620E-09
  -8.38000011       1.96015937E-09
  -8.36999989       1.96269356E-09
  -8.35999966       1.97198169E-09
  -8.35000038       1.98749017E-09
  -8.34000015       2.00867589E-09
  -8.32999992       2.03500394E-09
  -8.31999969       2.06594786E-09
  -8.31000042       2.10092588E-09
  -8.30000019       2.13938178E-09
  -8.28999996       2.18065854E-09
  -8.27999973       2.22410024E-09
  -8.27000046       2.26902985E-09
  -8.26000023       2.31495445E-09
  -8.25000000       2.36123388E-09
  -8.23999977       2.40773002E-09
  -8.22999954       2.45423082E-09
  -8.22000027       2.50063104E-09
  -8.21000004       2.54709898E-09
  -8.19999981       2.59370569E-09
  -8.18999958       2.64069633E-09
  -8.18000031       2.68800071E-09
  -8.17000008       2.73579404E-09
  -8.15999985       2.78412493E-09
  -8.14999962       2.83304158E-09
  -8.14000034       2.88279045E-09
  -8.13000011       2.93345970E-09
  -8.11999989       2.98544744E-09
  -8.10999966       3.03906234E-09
  -8.10000038       3.09460457E-09
  -8.09000015       3.15248738E-09
  -8.07999992       3.21311067E-09
  -8.06999969       3.27663296E-09
  -8.06000042       3.34338490E-09
  -8.05000019       3.41366846E-09
  -8.03999996       3.48780826E-09
  -8.02999973       3.56608942E-09
  -8.02000046       3.64889274E-09
  -8.01000023       3.73675046E-09
  -8.00000000       3.82992171E-09
  -7.98999977       3.92879151E-09
  -7.98000002       4.03376088E-09
  -7.96999979       4.14495860E-09
  -7.96000004       4.26246727E-09
  -7.94999981       4.38646053E-09
  -7.94000006       4.51693083E-09
  -7.92999983       4.65395900E-09
  -7.92000008       4.79751039E-09
  -7.90999985       4.94756724E-09
  -7.90000010       5.10394838E-09
  -7.88999987       5.26660315E-09
  -7.88000011       5.43528600E-09
  -7.86999989       5.60962876E-09
  -7.86000013       5.78907855E-09
  -7.84999990       5.97316507E-09
  -7.84000015       6.16133899E-09
  -7.82999992       6.35295727E-09
  -7.82000017       6.54747589E-09
  -7.80999994       6.74451206E-09
  -7.80000019       6.94357327E-09
  -7.78999996       7.14431225E-09
  -7.78000021       7.34630135E-09
  -7.76999998       7.54898544E-09
  -7.76000023       7.75205589E-09
  -7.75000000       7.95482791E-09
  -7.73999977       8.15712120E-09
  -7.73000002       8.35822522E-09
  -7.71999979       8.55786642E-09
  -7.71000004       8.75553940E-09
  -7.69999981       8.95113228E-09
  -7.69000006       9.14435194E-09
  -7.67999983       9.33483779E-09
  -7.67000008       9.52242285E-09
  -7.65999985       9.70688241E-09
  -7.65000010       9.88790028E-09
  -7.63999987       1.00651425E-08
  -7.63000011       1.02382787E-08
  -7.61999989       1.04070459E-08
  -7.61000013       1.05713323E-08
  -7.59999990       1.07308615E-08
  -7.59000015       1.08858869E-08
  -7.57999992       1.10363576E-08
  -7.57000017       1.11825997E-08
  -7.55999994       1.13248495E-08
  -7.55000019       1.14634950E-08
  -7.53999996       1.15987921E-08
  -7.53000021       1.17311139E-08
  -7.51999998       1.18608368E-08
  -7.51000023       1.19884964E-08
  -7.50000000       1.21146861E-08
  -7.48999977       1.22397248E-08
  -7.48000002       1.23641941E-08
  -7.46999979       1.24883925E-08
  -7.46000004       1.26130848E-08
  -7.44999981       1.27385711E-08
  -7.44000006       1.28654296E-08