  -16.0000000       0.00000000    
  -15.9899998       0.00000000    
  -15.9799995       0.00000000    
  -15.9700003       0.00000000    
  -15.9600000       0.00000000    
  -15.9499998       0.00000000    
  -15.9399996       0.00000000    
  -15.9300003       0.00000000    
  -15.9200001       0.00000000    
  -15.9099998       0.00000000    
  -15.8999996       0.00000000    
  -15.8900003       1.01884628E-39
  -15.8800001       3.00445005E-38
  -15.8699999       4.38633952E-37
  -15.8599997       4.29601357E-36
  -15.8500004       3.19233185E-35
  -15.8400002       1.91892542E-34
  -15.8299999       9.68703038E-34
  -15.8199997       4.20504892E-33
  -15.8100004       1.59457792E-32
  -15.8000002       5.33978594E-32
  -15.7900000       1.59071269E-31
  -15.7799997       4.23388709E-31
  -15.7700005       1.00807245E-30
  -15.7600002       2.14085714E-30
  -15.7500000       4.01673115E-30
  -15.7399998       6.50693638E-30
  -15.7299995       8.58681057E-30
  -15.7200003       7.51687975E-30
  -15.7100000      -1.88492908E-30
  -15.6999998      -2.70662761E-29
  -15.6899996      -7.53766489E-29
  -15.6800003      -1.48194989E-28
  -15.6700001      -2.31226186E-28
  -15.6599998      -2.83226198E-28
  -15.6499996      -2.29546270E-28
  -15.6400003       2.86966902E-29
  -15.6300001       5.77365679E-28
  -15.6199999       1.41727422E-27
  -15.6099997       2.36853349E-27
  -15.6000004       2.99296235E-27
  -15.5900002       2.61002604E-27
  -15.5799999       4.93923849E-28
  -15.5699997      -3.70799908E-27
  -15.5600004      -9.43364244E-27
  -15.5500002      -1.48513173E-26
  -15.5400000      -1.71699875E-26
  -15.5299997      -1.39850956E-26
  -15.5200005      -5.39004891E-27
  -15.5100002       4.61932641E-27
  -15.5000000       1.01228673E-26
  -15.4899998       1.11323065E-26
  -15.4799995       2.63988111E-26
  -15.4700003       1.02599964E-25
  -15.4600000       3.01678850E-25
  -15.4499998       6.44011400E-25
  -15.4399996       9.99094999E-25
  -15.4300003       9.59213248E-25
  -15.4200001      -1.96855037E-25
  -15.4099998      -3.27499036E-24
  -15.3999996      -8.50145852E-24
  -15.3900003      -1.44222469E-23
  -15.3800001      -1.67583717E-23
  -15.3699999      -8.16531621E-24
  -15.3599997       1.97107200E-23
  -15.3500004       7.06539294E-23
  -15.3400002       1.34908506E-22
  -15.3299999       1.79779911E-22
  -15.3199997       1.46537186E-22
  -15.3100004      -3.67742468E-23
  -15.3000002      -4.18076590E-22
  -15.2900000      -9.59404505E-22
  -15.2799997      -1.46750726E-21
  -15.2700005      -1.55692123E-21
  -15.2600002      -7.04245993E-22
  -15.2500000       1.54969400E-21
  -15.2399998       5.23430319E-21
  -15.2299995       9.49481851E-21
  -15.2200003       1.22503946E-20
  -15.2100000       1.02836015E-20
  -15.1999998       1.08952142E-22
  -15.1899996      -2.01869761E-20
  -15.1800003      -4.83457050E-20
  -15.1700001      -7.54187223E-20
  -15.1599998      -8.48541259E-20
  -15.1499996      -5.51008787E-20
  -15.1400003       3.27121821E-20
  -15.1300001       1.81976568E-19
  -15.1199999       3.65403132E-19
  -15.1099997       5.13663496E-19
  -15.1000004       5.17131605E-19
  -15.0900002       2.50470419E-19
  -15.0799999      -3.74418419E-19
  -15.0699997      -1.33199260E-18
  -15.0600004      -2.40411174E-18
  -15.0500002      -3.13707317E-18
  -15.0400000      -2.88475599E-18
  -15.0299997      -9.82967466E-19
  -15.0200005       2.93146068E-18
  -15.0100002       8.50558805E-18
  -15.0000000       1.42928935E-17
  -14.9899998       1.76288864E-17
  -14.9799995       1.50113396E-17
  -14.9700003       3.17493405E-18
  -14.9600000      -1.91502850E-17
  -14.9499998      -4.91490438E-17
  -14.9399996      -7.82694905E-17
  -14.9300003      -9.21237864E-17
  -14.9200001      -7.31012197E-17
  -14.9099998      -6.37618858E-18
  -14.8999996       1.11152123E-16
  -14.8900003       2.61170883E-16
  -14.8800001       3.97561187E-16
  -14.8699999       4.48559056E-16
  -14.8599997       3.32272549E-16
  -14.8500004      -1.26711381E-17
  -14.8400002      -5.85438362E-16
  -14.8299999      -1.28214223E-15
  -14.8199997      -1.87506477E-15
  -14.8100004      -2.03433766E-15
  -14.8000002      -1.40934138E-15
  -14.7900000       2.29093507E-16
  -14.7799997       2.81139531E-15
  -14.7700005       5.81405236E-15
  -14.7600002       8.20863017E-15
  -14.7500000       8.60021689E-15
  -14.7399998       5.60771217E-15
  -14.7299995      -1.53695589E-15
  -14.7200003      -1.23020135E-14
  -14.7100000      -2.43259968E-14
  -14.6999998      -3.33602469E-14
  -14.6899996      -3.39731701E-14
  -14.6800003      -2.11423032E-14
  -14.6700001       7.44699339E-15
  -14.6599998       4.89705830E-14
  -14.6499996       9.38380233E-14
  -14.6400003       1.25962364E-13
  -14.6300001       1.25806321E-13
  -14.6199999       7.63973303E-14
  -14.6099997      -2.86069183E-14
  -14.6000004      -1.77010275E-13
  -14.5900002      -3.33557617E-13
  -14.5799999      -4.42252138E-13
  -14.5699997      -4.37902861E-13
  -14.5600004      -2.66783449E-13
  -14.5500002       8.73434829E-14
  -14.5400000       5.79402791E-13
  -14.5299997       1.09154645E-12
  -14.5200005       1.44402589E-12
  -14.5100002       1.43423381E-12
  -14.5000000       9.01605559E-13
  -14.4899998      -1.94728944E-13
  -14.4799995      -1.70897985E-12
  -14.4700003      -3.28175226E-12
  -14.4600000      -4.37968585E-12
  -14.4499998      -4.41453818E-12
  -14.4399996      -2.93058178E-12
  -14.4300003       1.80107760E-13
  -14.4200001       4.50083026E-12
  -14.4099998       9.02993305E-12
  -14.3999996       1.23028350E-11
  -14.3900003       1.27219797E-11
  -14.3800001       9.05599207E-12
  -14.3699999       9.95933913E-13
  -14.3599997      -1.04037907E-11
  -14.3500004      -2.25922493E-11
  -14.3400002      -3.18493669E-11
  -14.3299999      -3.41199256E-11
  -14.3199997      -2.62424596E-11
  -14.3100004      -7.29035148E-12
  -14.3000002       2.03872284E-11
  -14.2900000       5.08667553E-11
  -14.2799997       7.54263804E-11
  -14.2700005       8.44731299E-11
  -14.2600002       7.03400602E-11
  -14.2500000       3.03021844E-11
  -14.2399998      -3.11002925E-11
  -14.2299995      -1.01378045E-10
  -14.2200003      -1.61728173E-10
  -14.2100000      -1.91107019E-10
  -14.1999998      -1.72110659E-10
  -14.1899996      -9.72866024E-11
  -14.1800003       2.59882168E-11
  -14.1700001       1.73950479E-10
  -14.1599998       3.09520465E-10
  -14.1499996       3.90174809E-10
  -14.1400003       3.79341447E-10
  -14.1300001       2.58644828E-10
  -14.1199999       3.74642400E-11
  -14.1099997      -2.43688014E-10
  -14.1000004      -5.18319165E-10
  -14.0900002      -7.07880921E-10
  -14.0799999      -7.42087947E-10
  -14.0699997      -5.80836601E-10
  -14.0600004      -2.31513947E-10
  -14.0500002       2.44301662E-10
  -14.0400000       7.38671901E-10
  -14.0299997       1.11993614E-09
  -14.0200005       1.26605637E-09
  -14.0100002       1.10067899E-09
  -14.0000000       6.21804275E-10
  -13.9899998      -8.64792890E-11
  -13.9799995      -8.65207239E-10
  -13.9700003      -1.51481350E-09
  -13.9600000      -1.84579074E-09
  -13.9499998      -1.73324965E-09
  -13.9399996      -1.16000409E-09
  -13.9300003      -2.34116754E-10
  -13.9200001       8.27470759E-10
  -13.9099998       1.74863601E-09
  -13.8999996       2.26658003E-09
  -13.8900003       2.20854957E-09
  -13.8800001       1.55068558E-09
  -13.8699999       4.39573905E-10
  -13.8599997      -8.34108504E-10
  -13.8500004      -1.90742844E-09
  -13.8400002      -2.44624276E-09
  -13.8299999      -2.24857266E-09
  -13.8199997      -1.31964339E-09
  -13.8100004       1.07155472E-10
  -13.8000002       1.61595937E-09
  -13.7900000       2.71490919E-09
  -13.7799997       2.97876102E-09
  -13.7700005       2.18935292E-09
  -13.7600002       4.31722796E-10
  -13.7500000      -1.88822535E-09
  -13.7399998      -4.11966905E-09
  -13.7299995      -5.52607204E-09
  -13.7200003      -5.49189272E-09
  -13.7100000      -3.72309006E-09
  -13.6999998      -3.83118454E-10
  -13.6899996       3.88246724E-09
  -13.6800003       8.05381539E-09
  -13.6700001       1.09634604E-08
  -13.6599998       1.15939045E-08
  -13.6499996       9.37334921E-09
  -13.6400003       4.38922454E-09
  -13.6300001      -2.54708299E-09
  -13.6199999      -1.00180895E-08
  -13.6099997      -1.62892473E-08
  -13.6000004      -1.97111572E-08
  -13.5900002      -1.91416394E-08
  -13.5799999      -1.42802010E-08
  -13.5699997      -5.82053739E-09
  -13.5600004       4.63440708E-09
  -13.5500002       1.48931942E-08
  -13.5400000       2.26693100E-08
  -13.5299997       2.61338489E-08
  -13.5200005       2.43892639E-08
  -13.5100002       1.77355162E-08
  -13.5000000       7.64431896E-09
  -13.4899998      -3.57207197E-09
  -13.4799995      -1.33307827E-08
  -13.4700003      -1.94504537E-08
  -13.4600000      -2.07499706E-08
  -13.4499998      -1.74031172E-08
  -13.4399996      -1.09306422E-08
  -13.4300003      -3.80087783E-09
  -13.4200001       1.28268540E-09
  -13.4099998       2.23210384E-09
  -13.3999996      -1.66953906E-09
  -13.3900003      -9.34122202E-09
  -13.3800001      -1.79738677E-08
  -13.3699999      -2.36450308E-08
  -13.3599997      -2.23782308E-08
  -13.3500004      -1.14074856E-08
  -13.3400002       9.68306324E-09
  -13.3299999       3.82863874E-08
  -13.3199997       6.88286406E-08
  -13.3100004       9.36555793E-08
  -13.3000002       1.04642346E-07
  -13.2900000       9.52141050E-08
  -13.2799997       6.23163743E-08
  -13.2700005       7.82663090E-09
  -13.2600002      -6.10226678E-08
  -13.2500000      -1.32444512E-07
  -13.2399998      -1.92080648E-07
  -13.2299995      -2.25836331E-07
  -13.2200003      -2.22995794E-07
  -13.2100000      -1.78927394E-07
  -13.1999998      -9.67237384E-08
  -13.1899996       1.26841506E-08
  -13.1800003       1.32081780E-07
  -13.1700001       2.40966244E-07
  -13.1599998       3.19411953E-07
  -13.1499996       3.52010431E-07
  -13.1400003       3.31034840E-07
  -13.1300001       2.58119059E-07
  -13.1199999       1.44054297E-07
  -13.1099997       6.71609168E-09
  -13.1000004      -1.32440235E-07
  -13.0900002      -2.52545533E-07
  -13.0799999      -3.37214630E-07
  -13.0699997      -3.77305071E-07
  -13.0600004      -3.71932117E-07
  -13.0500002      -3.27560826E-07
  -13.0400000      -2.55470269E-07
  -13.0299997      -1.68305036E-07
  -13.0200005      -7.66715544E-08
  -13.0100002       1.32557227E-08
  -13.0000000       1.00410439E-07
  -12.9899998       1.87545680E-07
  -12.9799995       2.78300888E-07
  -12.9700003       3.73465610E-07
  -12.9600000       4.67619969E-07
  -12.9499998       5.47367108E-07
  -12.9399996       5.92072126E-07
  -12.9300003       5.77420167E-07
  -12.9200001       4.81336599E-07
  -12.9099998       2.91058427E-07
  -12.8999996       9.61739843E-09
  -12.8900003      -3.40139820E-07
  -12.8800001      -7.15530007E-07
  -12.8699999      -1.05875108E-06
  -12.8599997      -1.30599562E-06
  -12.8500004      -1.39948122E-06
  -12.8400002      -1.30000956E-06
  -12.8299999      -9.97267193E-07
  -12.8199997      -5.15297586E-07
  -12.8100004       8.85442972E-08
  -12.8000002       7.31484363E-07
  -12.7900000       1.31886350E-06
  -12.7799997       1.76073695E-06
  -12.7700005       1.98814109E-06
  -12.7600002       1.96554856E-06
  -12.7500000       1.69680379E-06
  -12.7399998       1.22324514E-06
  -12.7299995       6.14500379E-07
  -12.7200003      -4.58476030E-08
  -12.7100000      -6.76342154E-07
  -12.6999998      -1.21171479E-06
  -12.6899996      -1.61172272E-06
  -12.6800003      -1.86293437E-06
  -12.6700001      -1.97350118E-06
  -12.6599998      -1.96282667E-06
  -12.6499996      -1.84946600E-06
  -12.6400003      -1.64110429E-06
  -12.6300001      -1.32998491E-06
  -12.6199999      -8.95685957E-07
  -12.6099997      -3.15068263E-07
  -12.6000004       4.22953150E-07
  -12.5900002       1.30187118E-06
  -12.5799999       2.26607813E-06
  -12.5699997       3.21770631E-06
  -12.5600004       4.02443766E-06
  -12.5500002       4.53836492E-06
  -12.5400000       4.62310027E-06
  -12.5299997       4.18392028E-06
  -12.5200005       3.19424316E-06
  -12.5100002       1.71184990E-06
  -12.5000000      -1.20176665E-07
  -12.4899998      -2.08983988E-06
  -12.4799995      -3.94832887E-06
  -12.4700003      -5.45262719E-06
  -12.4600000      -6.41071438E-06
  -12.4499998      -6.72032411E-06
  -12.4399996      -6.39302198E-06
  -12.4300003      -5.55794759E-06
  -12.4200001      -4.44357420E-06
  -12.4099998      -3.34023889E-06
  -12.3999996      -2.55025316E-06
  -12.3900003      -2.33503761E-06
  -12.3800001      -2.86944305E-06
  -12.3699999      -4.21198456E-06
  -12.3599997      -6.29642682E-06
  -12.3500004      -8.94575533E-06
  -12.3400002      -1.19049455E-05
  -12.3299999      -1.48851877E-05
  -12.3199997      -1.76101366E-05
  -12.3100004      -1.98546604E-05
  -12.3000002      -2.14687334E-05
  -12.2900000      -2.23826519E-05
  -12.2799997      -2.25942040E-05
  -12.2700005      -2.21425726E-05
  -12.2600002      -2.10766084E-05
  -12.2500000      -1.94263994E-05
  -12.2399998      -1.71859247E-05
  -12.2299995      -1.43118195E-05
  -12.2200003      -1.07392598E-05
  -12.2100000      -6.41148654E-06
  -12.1999998      -1.31597096E-06
  -12.1899996       4.48203082E-06
  -12.1800003       1.08177737E-05
  -12.1700001       1.74242923E-05
  -12.1599998       2.39518486E-05
  -12.1499996       3.00079337E-05
  -12.1400003       3.52113384E-05
  -12.1300001       3.92502261E-05
  -12.1199999       4.19324824E-05
  -12.1099997       4.32176457E-05
  -12.1000004       4.32228517E-05
  -12.0900002       4.22006051E-05
  -12.0799999       4.04920720E-05
  -12.0699997       3.84647137E-05
  -12.0600004       3.64468324E-05
  -12.0500002       3.46726338E-05
  -12.0400000       3.32488344E-05
  -12.0299997       3.21496191E-05
  -12.0200005       3.12403427E-05
  -12.0100002       3.03236357E-05
  -12.0000000       2.91969791E-05
  -11.9899998       2.77077779E-05
  -11.9799995       2.57930151E-05
  -11.9700003       2.34941526E-05
  -11.9600000       2.09440987E-05
  -11.9499998       1.83298234E-05
  -11.9399996       1.58400908E-05
  -11.9300003       1.36115141E-05
  -11.9200001       1.16864876E-05
  -11.9099998       9.99356598E-06
  -11.8999996       8.35549963E-06
  -11.8900003       6.52331119E-06
  -11.8800001       4.22848007E-06
  -11.8699999       1.24107328E-06
  -11.8599997      -2.57972351E-06
  -11.8500004      -7.25414338E-06
  -11.8400002      -1.26762552E-05
  -11.8299999      -1.86346260E-05
  -11.8199997      -2.48535307E-05
  -11.8100004      -3.10442156E-05
  -11.8000002      -3.69538466E-05
  -11.7900000      -4.24007630E-05
  -11.7799997      -4.72887441E-05
  -11.7700005      -5.15983993E-05
  -11.7600002      -5.53596692E-05
  -11.7500000      -5.86141723E-05
  -11.7399998      -6.13782540E-05
  -11.7299995      -6.36173718E-05
  -11.7200003      -6.52388262E-05
  -11.7100000      -6.61053928E-05
  -11.6999998      -6.60663645E-05
  -11.6899996      -6.49984795E-05
  -11.6800003      -6.28460621E-05
  -11.6700001      -5.96501850E-05
  -11.6599998      -5.55589504E-05
  -11.6499996      -5.08156118E-05
  -11.6400003      -4.57262031E-05
  -11.6300001      -4.06135623E-05
  -11.6199999      -3.57668760E-05
  -11.6099997      -3.13974051E-05
  -11.6000004      -2.76087758E-05
  -11.5900002      -2.43872946E-05
  -11.5799999      -2.16128847E-05
  -11.5699997      -1.90874453E-05
  -11.5600004      -1.65738657E-05
  -11.5500002      -1.38377718E-05
  -11.5400000      -1.06842144E-05
  -11.5299997      -6.98328040E-06
  -11.5200005      -2.68159465E-06
  -11.5100002       2.20075390E-06
  -11.5000000       7.58554961E-06
  -11.4899998       1.33601407E-05
  -11.4799995       1.94043951E-05
  -11.4700003       2.56161384E-05
  -11.4600000       3.19301798E-05
  -11.4499998       3.83275074E-05
  -11.4399996       4.48322644E-05
  -11.4300003       5.14960084E-05
  -11.4200001       5.83710316E-05
  -11.4099998       6.54768592E-05
  -11.3999996       7.27661318E-05
  -11.3900003       8.00977868E-05
  -11.3800001       8.72254896E-05
  -11.3699999       9.38069861E-05
  -11.3599997       9.94372385E-05
  -11.3500004       1.03702441E-04
  -11.3400002       1.06247062E-04
  -11.3299999       1.06841449E-04
  -11.3199997       1.05435975E-04
  -11.3100004       1.02188191E-04
  -11.3000002       9.74551076E-05
  -11.2900000       9.17488724E-05
  -11.2799997       8.56628831E-05
  -11.2700005       7.97822868E-05
  -11.2600002       7.45964644E-05
  -11.2500000       7.04317063E-05
  -11.2399998       6.74170005E-05
  -11.2299995       6.54887481E-05
  -11.2200003       6.44309330E-05
  -11.2100000       6.39387727E-05
  -11.1999998       6.36897894E-05
  -11.1899996       6.34047101E-05
  -11.1800003       6.28851340E-05
  -11.1700001       6.20218925E-05
  -11.1599998       6.07760849E-05
  -11.1499996       5.91425160E-05
  -11.1400003       5.71090095E-05
  -11.1300001       5.46254159E-05
  -11.1199999       5.15923057E-05
  -11.1099997       4.78729162E-05
  -11.1000004       4.33248570E-05
  -11.0900002       3.78425721E-05
  -11.0799999       3.13987330E-05
  -11.0699997       2.40733534E-05
  -11.0600004       1.60635318E-05
  -11.0500002       7.67167421E-06
  -11.0400000      -7.23938740E-07
  -11.0299997      -8.70901476E-06
  -11.0200005      -1.58747389E-05
  -11.0100002      -2.18532641E-05
  -11.0000000      -2.63431757E-05
  -10.9899998      -2.91239667E-05
  -10.9799995      -3.00625761E-05
  -10.9700003      -2.91153356E-05
  -10.9600000      -2.63291913E-05
  -10.9499998      -2.18430851E-05
  -10.9399996      -1.58880630E-05
  -10.9300003      -8.78263381E-06
  -10.9200001      -9.19121305E-07
  -10.9099998       7.26139069E-06
  -10.8999996       1.53052679E-05
  -10.8900003       2.27894288E-05
  -10.8800001       2.93641097E-05
  -10.8699999       3.47866262E-05
  -10.8599997       3.89386441E-05
  -10.8500004       4.18226555E-05
  -10.8400002       4.35384791E-05
  -10.8299999       4.42454329E-05
  -10.8199997       4.41194825E-05
  -10.8100004       4.33160822E-05
  -10.8000002       4.19474018E-05
  -10.7900000       4.00786666E-05
  -10.7799997       3.77427496E-05
  -10.7700005       3.49669826E-05
  -10.7600002       3.18026323E-05
  -10.7500000       2.83467270E-05
  -10.7399998       2.47485987E-05
  -10.7299995       2.11976403E-05
  -10.7200003       1.78945593E-05
  -10.7100000       1.50135102E-05
  -10.6999998       1.26650712E-05
  -10.6899996       1.08702789E-05
  -10.6800003       9.55314863E-06
  -10.6700001       8.55450162E-06
  -10.6599998       7.66457833E-06
  -10.6499996       6.66766073E-06
  -10.6400003       5.38884797E-06
  -10.6300001       3.73375360E-06
  -10.6199999       1.71327690E-06
  -10.6099997      -5.50486163E-07
  -10.6000004      -2.83716963E-06
  -10.5900002      -4.85661803E-06
  -10.5799999      -6.28756516E-06
  -10.5699997      -6.82005793E-06
  -10.5600004      -6.19603588E-06
  -10.5500002      -4.24340669E-06
  -10.5400000      -9.00198245E-07
  -10.5299997       3.77313017E-06
  -10.5200005       9.59455883E-06
  -10.5100002       1.62745018E-05
  -10.5000000       2.34421605E-05
  -10.4899998       3.06819202E-05
  -10.4799995       3.75756899E-05
  -10.4700003       4.37459130E-05
  -10.4600000       4.88931182E-05
  -10.4499998       5.28217388E-05
  -10.4399996       5.54499602E-05
  -10.4300003       5.68019605E-05
  -10.4200001       5.69841322E-05
  -10.4099998       5.61507804E-05
  -10.3999996       5.44668037E-05
  -10.3900003       5.20763788E-05
  -10.3800001       4.90851999E-05
  -10.3699999       4.55610716E-05
  -10.3599997       4.15538052E-05
  -10.3500004       3.71297174E-05
  -10.3400002       3.24126522E-05
  -10.3299999       2.76204701E-05
  -10.3199997       2.30850419E-05
  -10.3100004       1.92466632E-05
  -10.3000002       1.66181326E-05
  -10.2900000       1.57202485E-05
  -10.2799997       1.69977393E-05
  -10.2700005       2.07301873E-05
  -10.2600002       2.69569009E-05
  -10.2500000       3.54333970E-05
  -10.2399998       4.56333764E-05
  -10.2299995       5.68012911E-05
  -10.2200003       6.80498124E-05
  -10.2100000       7.84863223E-05
  -10.1999998       8.73438039E-05
  -10.1899996       9.40900209E-05
  -10.1800003       9.84914659E-05
  -10.1700001       1.00617661E-04
  -10.1599998       1.00786929E-04
  -10.1499996       9.94658694E-05
  -10.1400003       9.71490081E-05
  -10.1300001       9.42471088E-05
  -10.1199999       9.10118761E-05
  -10.1099997       8.75138867E-05
  -10.1000004       8.36758045E-05
  -10.0900002       7.93486470E-05
  -10.0799999       7.44068966E-05
  -10.0699997       6.88341679E-05
  -10.0600004       6.27744594E-05
  -10.0500002       5.65352930E-05
  -10.0400000       5.05428652E-05
  -10.0299997       4.52627246E-05
  -10.0200005       4.11094661E-05
  -10.0100002       3.83698280E-05
  -10.0000000       3.71589522E-05
  -9.98999977       3.74188603E-05
  -9.97999954       3.89549714E-05
  -9.97000027       4.14970382E-05
  -9.96000004       4.47641069E-05
  -9.94999981       4.85162818E-05
  -9.93999958       5.25803080E-05
  -9.93000031       5.68470350E-05
  -9.92000008       6.12469084E-05
  -9.90999985       6.57171331E-05
  -9.89999962       7.01742974E-05
  -9.89000034       7.45028010E-05
  -9.88000011       7.85648008E-05
  -9.86999989       8.22270085E-05
  -9.85999966       8.53985839E-05
  -9.85000038       8.80667794E-05
  -9.84000015       9.03229011E-05
  -9.82999992       9.23706466E-05
  -9.81999969       9.45163629E-05
  -9.81000042       9.71425907E-05
  -9.80000019       1.00669829E-04
  -9.78999996       1.05512234E-04
  -9.77999973       1.12031921E-04
  -9.77000046       1.20496719E-04
  -9.76000023       1.31044566E-04
  -9.75000000       1.43659650E-04
  -9.73999977       1.58163326E-04
  -9.72999954       1.74223693E-04
  -9.72000027       1.91385043E-04
  -9.71000004       2.09115562E-04
  -9.69999981       2.26866032E-04
  -9.68999958       2.44130686E-04
  -9.68000031       2.60498084E-04
  -9.67000008       2.75680941E-04
  -9.65999985       2.89519405E-04
  -9.64999962       3.01957101E-04
  -9.64000034       3.12997436E-04
  -9.63000011       3.22652661E-04
  -9.61999989       3.30898823E-04
  -9.60999966       3.37649224E-04
  -9.60000038       3.42753250E-04
  -9.59000015       3.46018205E-04
  -9.57999992       3.47247638E-04
  -9.56999969       3.46282759E-04
  -9.56000042       3.43035586E-04
  -9.55000019       3.37504054E-04
  -9.53999996       3.29767296E-04
  -9.52999973       3.19963641E-04
  -9.52000046       3.08261457E-04
  -9.51000023       2.94832076E-04
  -9.50000000       2.79832748E-04
  -9.48999977       2.63404014E-04
  -9.47999954       2.45677977E-04
  -9.47000027       2.26791206E-04
  -9.46000004       2.06893310E-04
  -9.44999981       1.86145407E-04
  -9.43999958       1.64706231E-04
  -9.43000031       1.42711273E-04
  -9.42000008       1.20253848E-04
  -9.40999985       9.73789211E-05
  -9.39999962       7.40991454E-05
  -9.39000034       5.04351119E-05
  -9.38000011       2.64731298E-05
  -9.36999989       2.42713941E-06
  -9.35999966      -2.13143558E-05
  -9.35000038      -4.41733791E-05
  -9.34000015      -6.54111354E-05
  -9.32999992      -8.41998408E-05
  -9.31999969      -9.97251336E-05
  -9.31000042      -1.11297435E-04
  -9.30000019      -1.18444405E-04
  -9.28999996      -1.20960794E-04
  -9.27999973      -1.18902943E-04
  -9.27000046      -1.12530062E-04
  -9.26000023      -1.02207407E-04
  -9.25000000      -8.83015891E-05
  -9.23999977      -7.10976965E-05
  -9.22999954      -5.07621444E-05
  -9.22000027      -2.73612804E-05
  -9.21000004      -9.27989845E-07
  -9.19999981       2.84489051E-05
  -9.18999958       6.05426394E-05
  -9.18000031       9.49465466E-05
  -9.17000008       1.31089429E-04
  -9.15999985       1.68306302E-04
  -9.14999962       2.05946053E-04
  -9.14000034       2.43481045E-04
  -9.13000011       2.80583365E-04
  -9.11999989       3.17139609E-04
  -9.10999966       3.53196723E-04
  -9.10000038       3.88854300E-04
  -9.09000015       4.24135040E-04
  -9.07999992       4.58875147E-04
  -9.06999969       4.92671097E-04
  -9.06000042       5.24900854E-04
  -9.05000019       5.54815750E-04
  -9.03999996       5.81675908E-04
  -9.02999973       6.04891044E-04
  -9.02000046       6.24120235E-04
  -9.01000023       6.39308244E-04
  -9.00000000       6.50648784E-04
  -8.98999977       6.58489997E-04
  -8.97999954       6.63217856E-04
  -8.97000027       6.65151398E-04
  -8.96000004       6.64483756E-04
  -8.94999981       6.61278667E-04
  -8.93999958       6.55516051E-04
  -8.93000031       6.47162553E-04
  -8.92000008       6.36237091E-04
  -8.90999985       6.22845371E-04
  -8.89999962       6.07174297E-04
  -8.89000034       5.89451694E-04
  -8.88000011       5.69889729E-04
  -8.86999989       5.48639568E-04
  -8.85999966       5.25774260E-04
  -8.85000038       5.01307892E-04
  -8.84000015       4.75243694E-04
  -8.82999992       4.47627914E-04
  -8.81999969       4.18591429E-04
  -8.81000042       3.88360466E-04
  -8.80000019       3.57232202E-04
  -8.78999996       3.25529225E-04
  -8.77999973       2.93549645E-04
  -8.77000046       2.61537032E-04
  -8.76000023       2.29683152E-04
  -8.75000000       1.98163209E-04
  -8.73999977       1.67189850E-04
  -8.72999954       1.37063893E-04
  -8.72000027       1.08199121E-04
  -8.71000004       8.11070640E-05
  -8.69999981       5.63427129E-05
  -8.68999958       3.44279470E-05
  -8.68000031       1.57767026E-05
  -8.67000008       6.44592092E-07
  -8.65999985      -1.08808026E-05
  -8.64999962      -1.88485592E-05
  -8.64000034      -2.33866285E-05
  -8.63000011      -2.46386899E-05
  -8.61999989      -2.27173405E-05
  -8.60999966      -1.76902868E-05
  -8.60000038      -9.59491081E-06
  -8.59000015       1.52567623E-06
  -8.57999992       1.55858743E-05
  -8.56999969       3.24385837E-05
  -8.56000042       5.18806846E-05
  -8.55000019       7.36827642E-05
  -8.53999996       9.76297524E-05
  -8.52999973       1.23552760E-04
  -8.52000046       1.51340690E-04
  -8.51000023       1.80922405E-04
  -8.50000000       2.12228028E-04
  -8.48999977       2.45141244E-04
  -8.47999954       2.79462751E-04
  -8.47000027       3.14896257E-04
  -8.46000004       3.51062801E-04
  -8.44999981       3.87539068E-04
  -8.43999958       4.23900492E-04
  -8.43000031       4.59760835E-04
  -8.42000008       4.94790147E-04
  -8.40999985       5.28712408E-04
  -8.39999962       5.61285997E-04
  -8.39000034       5.92279481E-04
  -8.38000011       6.21454965E-04
  -8.36999989       6.48565125E-04
  -8.35999966       6.73363276E-04
  -8.35000038       6.95621187E-04
  -8.34000015       7.15145026E-04
  -8.32999992       7.31781358E-04
  -8.31999969       7.45414291E-04
  -8.31000042       7.55954359E-04
  -8.30000019       7.63331540E-04
  -8.28999996       7.67495076E-04
  -8.27999973       7.68424070E-04
  -8.27000046       7.66142737E-04
  -8.26000023       7.60731229E-04
  -8.25000000       7.52323249E-04
  -8.23999977       7.41089229E-04
  -8.22999954       7.27208389E-04
  -8.22000027       7.10847438E-04
  -8.21000004       6.92162197E-04
  -8.19999981       6.71334448E-04
  -8.18999958       6.48640562E-04
  -8.18000031       6.24536013E-04
  -8.17000008       5.99723833E-04
  -8.15999985       5.75172307E-04
  -8.14999962       5.52056765E-04
  -8.14000034       5.31620986E-04
  -8.13000011       5.14982967E-04
  -8.11999989       5.02930081E-04
  -8.10999966       4.95760760E-04
  -8.10000038       4.93224536E-04
  -8.09000015       4.94584325E-04
  -8.07999992       4.98794019E-04
  -8.06999969       5.04751049E-04
  -8.06000042       5.11552789E-04
  -8.05000019       5.18695218E-04
  -8.03999996       5.26156975E-04
  -8.02999973       5.34354534E-04
  -8.02000046       5.43989707E-04
  -8.01000023       5.55832637E-04
  -8.00000000       5.70511562E-04
  -7.98999977       5.88365016E-04
  -7.98000002       6.09387469E-04
  -7.96999979       6.33273041E-04
  -7.96000004       6.59528770E-04
  -7.94999981       6.87610649E-04
  -7.94000006       7.17038696E-04
  -7.92999983       7.47459766E-04
  -7.92000008       7.78642250E-04
  -7.90999985       8.10427417E-04
  -7.90000010       8.42656184E-04
  -7.88999987       8.75107013E-04
  -7.88000011       9.07464128E-04
  -7.86999989       9.39326419E-04
  -7.86000013       9.70248540E-04
  -7.84999990       9.99790151E-04
  -7.84000015       1.02756207E-03
  -7.82999992       1.05325261E-03
  -7.82000017       1.07663090E-03
  -7.80999994       1.09753839E-03
  -7.80000019       1.11587602E-03
  -7.78999996       1.13159814E-03
  -7.78000021       1.14472129E-03
  -7.76999998       1.15533802E-03
  -7.76000023       1.16362853E-03
  -7.75000000       1.16986851E-03
  -7.73999977       1.17441243E-03
  -7.73000002       1.17766426E-03
  -7.71999979       1.18003716E-03
  -7.71000004       1.18191133E-03
  -7.69999981       1.18359993E-03
  -7.69000006       1.18532730E-03
  -7.67999983       1.18721882E-03
  -7.67000008       1.18930428E-03
  -7.65999985       1.19152712E-03
  -7.65000010       1.19375542E-03
  -7.63999987       1.19580259E-03
  -7.63000011       1.19744462E-03
  -7.61999989       1.19844975E-03
  -7.61000013       1.19860761E-03
  -7.59999990       1.19775673E-03
  -7.59000015       1.19580398E-03
  -7.57999992       1.19273248E-03
  -7.57000017       1.18859578E-03
  -7.55999994       1.18350470E-03
  -7.55000019       1.17761537E-03
  -7.53999996       1.17112719E-03
  -7.53000021       1.16429524E-03
  -7.51999998       1.15744711E-03
  -7.51000023       1.15099875E-03
  -7.50000000       1.14544865E-03
  -7.48999977       1.14133966E-03
  -7.48000002       1.13919040E-03
  -7.46999979       1.13941054E-03
  -7.46000004       1.14222500E-03
  -7.44999981       1.14763936E-03
  -7.44000006       1.15546864E-03