  -16.0000000       0.00000000    
  -15.9899998       0.00000000    
  -15.9799995       0.00000000    
  -15.9700003       0.00000000    
  -15.9600000       0.00000000    
  -15.9499998       0.00000000    
  -15.9399996       0.00000000    
  -15.9300003       0.00000000    
  -15.9200001       0.00000000    
  -15.9099998       0.00000000    
  -15.8999996       0.00000000    
  -15.8900003      -2.39902297E-42
  -15.8800001      -6.92563740E-41
  -15.8699999      -1.22792702E-39
  -15.8599997      -1.80793328E-38
  -15.8500004      -2.13666223E-37
  -15.8400002      -1.97756889E-36
  -15.8299999      -1.46145775E-35
  -15.8199997      -8.89524356E-35
  -15.8100004      -4.58816981E-34
  -15.8000002      -2.05256522E-33
  -15.7900000      -8.10965030E-33
  -15.7799997      -2.86961475E-32
  -15.7700005      -9.19149361E-32
  -15.7600002      -2.68623899E-31
  -15.7500000      -7.20403123E-31
  -15.7399998      -1.77948535E-30
  -15.7299995      -4.05598702E-30
  -15.7200003      -8.52917862E-30
  -15.7100000      -1.65039001E-29
  -15.6999998      -2.92058008E-29
  -15.6899996      -4.66985560E-29
  -15.6800003      -6.58515712E-29
  -15.6700001      -7.74542579E-29
  -15.6599998      -6.34379777E-29
  -15.6499996       3.49251898E-30
  -15.6400003       1.54182717E-28
  -15.6300001       4.07478676E-28
  -15.6199999       7.43537707E-28
  -15.6099997       1.07133041E-27
  -15.6000004       1.20576292E-27
  -15.5900002       8.79530220E-28
  -15.5799999      -1.83563814E-28
  -15.5699997      -2.12242044E-27
  -15.5600004      -4.74470291E-27
  -15.5500002      -7.35994590E-27
  -15.5400000      -8.75306964E-27
  -15.5299997      -7.40445723E-27
  -15.5200005      -1.98486764E-27
  -15.5100002       7.98213529E-27
  -15.5000000       2.15234766E-26
  -15.4899998       3.59315111E-26
  -15.4799995       4.68692740E-26
  -15.4700003       4.86663607E-26
  -15.4600000       3.44809376E-26
  -15.4499998      -3.60285178E-27
  -15.4399996      -7.33929007E-26
  -15.4300003      -1.77882181E-25
  -15.4200001      -3.04447061E-25
  -15.4099998      -4.08350273E-25
  -15.3999996      -3.98180500E-25
  -15.3900003      -1.40692467E-25
  -15.3800001       4.91309918E-25
  -15.3699999       1.51215633E-24
  -15.3599997       2.67295677E-24
  -15.3500004       3.33782116E-24
  -15.3400002       2.51499033E-24
  -15.3299999      -8.10512228E-25
  -15.3199997      -6.97336316E-24
  -15.3100004      -1.46925359E-23
  -15.3000002      -2.03518966E-23
  -15.2900000      -1.82196309E-23
  -15.2799997      -2.33833341E-24
  -15.2700005       2.96850883E-23
  -15.2600002       7.18693179E-23
  -15.2500000       1.06371241E-22
  -15.2399998       1.04774423E-22
  -15.2299995       3.73195232E-23
  -15.2200003      -1.09378013E-22
  -15.2100000      -3.10647013E-22
  -15.1999998      -4.88740402E-22
  -15.1899996      -5.19069213E-22
  -15.1800003      -2.69974001E-22
  -15.1700001       3.23427493E-22
  -15.1599998       1.17141063E-21
  -15.1499996       1.97091614E-21
  -15.1400003       2.23179569E-21
  -15.1300001       1.43159306E-21
  -15.1199999      -7.04579763E-22
  -15.1099997      -3.87912164E-21
  -15.1000004      -7.01188000E-21
  -15.0900002      -8.34252441E-21
  -15.0799999      -5.98889709E-21
  -15.0699997       1.06758735E-21
  -15.0600004       1.18631675E-20
  -15.0500002       2.27542022E-20
  -15.0400000       2.77995888E-20
  -15.0299997       2.06736200E-20
  -15.0200005      -2.03073931E-21
  -15.0100002      -3.71158493E-20
  -15.0000000      -7.25392678E-20
  -14.9899998      -8.87361556E-20
  -14.9799995      -6.49061549E-20
  -14.9700003       1.02359667E-20
  -14.9600000       1.26476394E-19
  -14.9499998       2.44660535E-19
  -14.9399996       3.00459812E-19
  -14.9300003       2.23856684E-19
  -14.9200001      -2.68771014E-20
  -14.9099998      -4.26189740E-19
  -14.8999996      -8.54585055E-19
  -14.8900003      -1.10485253E-18
  -14.8800001      -9.36313446E-19
  -14.8699999      -1.76360348E-19
  -14.8599997       1.15511440E-18
  -14.8500004       2.74662924E-18
  -14.8400002       3.98217279E-18
  -14.8299999       4.06512535E-18
  -14.8199997       2.29108702E-18
  -14.8100004      -1.58090376E-18
  -14.8000002      -6.97788554E-18
  -14.7900000      -1.23488354E-17
  -14.7799997      -1.53465711E-17
  -14.7700005      -1.34375979E-17
  -14.7600002      -4.87615899E-18
  -14.7500000       1.02005647E-17
  -14.7399998       2.89502163E-17
  -14.7299995       4.57209823E-17
  -14.7200003       5.30037914E-17
  -14.7100000       4.35017891E-17
  -14.6999998       1.29775903E-17
  -14.6899996      -3.68747389E-17
  -14.6800003      -9.65655081E-17
  -14.6700001      -1.48990316E-16
  -14.6599998      -1.72343464E-16
  -14.6499996      -1.45761122E-16
  -14.6400003      -5.67948230E-17
  -14.6300001       9.10670268E-17
  -14.6199999       2.73214845E-16
  -14.6099997       4.43537050E-16
  -14.6000004       5.40709729E-16
  -14.5900002       5.01714449E-16
  -14.5799999       2.81235770E-16
  -14.5699997      -1.26632286E-16
  -14.5600004      -6.70041337E-16
  -14.5500002      -1.23145123E-15
  -14.5400000      -1.63707011E-15
  -14.5299997      -1.68840676E-15
  -14.5200005      -1.21582103E-15
  -14.5100002      -1.46678604E-16
  -14.5000000       1.42780448E-15
  -14.4899998       3.21029892E-15
  -14.4799995       4.70574617E-15
  -14.4700003       5.30112648E-15
  -14.4600000       4.42163946E-15
  -14.4499998       1.74294107E-15
  -14.4399996      -2.59099268E-15
  -14.4300003      -7.81992929E-15
  -14.4200001      -1.25730699E-14
  -14.4099998      -1.50919231E-14
  -14.3999996      -1.36807341E-14
  -14.3900003      -7.31498670E-15
  -14.3800001       3.74845452E-15
  -14.3699999       1.75788390E-14
  -14.3599997       3.06207493E-14
  -14.3500004       3.83312597E-14
  -14.3400002       3.63891927E-14
  -14.3299999       2.22450994E-14
  -14.3199997      -3.42453239E-15
  -14.3100004      -3.59091486E-14
  -14.3000002      -6.67990918E-14
  -14.2900000      -8.57059107E-14
  -14.2799997      -8.31838938E-14
  -14.2700005      -5.41785516E-14
  -14.2600002      -9.37064079E-16
  -14.2500000       6.57970924E-14
  -14.2399998       1.28194981E-13
  -14.2299995       1.65552888E-13
  -14.2200003       1.60540038E-13
  -14.2100000       1.05789502E-13
  -14.1999998       8.58852784E-15
  -14.1899996      -1.08440668E-13
  -14.1800003      -2.11832722E-13
  -14.1700001      -2.66502451E-13
  -14.1599998      -2.47436728E-13
  -14.1499996      -1.50182181E-13
  -14.1400003       3.91435058E-15
  -14.1300001       1.70703973E-13
  -14.1199999       2.95061854E-13
  -14.1099997       3.28977866E-13
  -14.1000004       2.50466314E-13
  -14.0900002       7.63908929E-14
  -14.0799999      -1.36870102E-13
  -14.0699997      -3.07697037E-13
  -14.0600004      -3.56163720E-13
  -14.0500002      -2.36079575E-13
  -14.0400000       3.89667512E-14
  -14.0299997       3.86798476E-13
  -14.0200005       6.72255979E-13
  -14.0100002       7.46828380E-13
  -14.0000000       5.02908587E-13
  -13.9899998      -7.40848016E-14
  -13.9799995      -8.75205073E-13
  -13.9700003      -1.67478585E-12
  -13.9600000      -2.18012934E-12
  -13.9499998      -2.11571104E-12
  -13.9399996      -1.32011947E-12
  -13.9300003       1.74141002E-13
  -13.9200001       2.10704132E-12
  -13.9099998       4.02194467E-12
  -13.8999996       5.36124487E-12
  -13.8900003       5.60670607E-12
  -13.8800001       4.42877115E-12
  -13.8699999       1.80356782E-12
  -13.8599997      -1.93661211E-12
  -13.8500004      -6.13586265E-12
  -13.8400002      -9.92418994E-12
  -13.8299999      -1.23782807E-11
  -13.8199997      -1.26977751E-11
  -13.8100004      -1.03635451E-11
  -13.8000002      -5.25691296E-12
  -13.7900000       2.26647130E-12
  -13.7799997       1.13450620E-11
  -13.7700005       2.06221984E-11
  -13.7600002       2.83137125E-11
  -13.7500000       3.23649198E-11
  -13.7399998       3.07373745E-11
  -13.7299995       2.18482038E-11
  -13.7200003       5.13630501E-12
  -13.7100000      -1.83454120E-11
  -13.6999998      -4.54904552E-11
  -13.6899996      -7.10787748E-11
  -13.6800003      -8.83051132E-11
  -13.6700001      -8.99988833E-11
  -13.6599998      -7.04479391E-11
  -13.6499996      -2.75024014E-11
  -13.6400003       3.55812810E-11
  -13.6300001       1.09206547E-10
  -13.6199999       1.77999906E-10
  -13.6099997       2.23184526E-10
  -13.6000004       2.26624303E-10
  -13.5900002       1.75859882E-10
  -13.5799999       6.89784063E-11
  -13.5699997      -8.20971763E-11
  -13.5600004      -2.51213772E-10
  -13.5500002      -4.01300576E-10
  -13.5400000      -4.91346630E-10
  -13.5299997      -4.85980090E-10
  -13.5200005      -3.65649788E-10
  -13.5100002      -1.34836822E-10
  -13.5000000       1.74237957E-10
  -13.4899998       5.04232434E-10
  -13.4799995       7.82102716E-10
  -13.4700003       9.34108679E-10
  -13.4600000       9.03537467E-10
  -13.4499998       6.67123412E-10
  -13.4399996       2.45844484E-10
  -13.4300003      -2.93433194E-10
  -13.4200001      -8.47193371E-10
  -13.4099998      -1.29461297E-09
  -13.3999996      -1.52360391E-09
  -13.3900003      -1.45800916E-09
  -13.3800001      -1.07943365E-09
  -13.3699999      -4.37725689E-10
  -13.3599997       3.53725771E-10
  -13.3500004       1.13835874E-09
  -13.3400002       1.74904524E-09
  -13.3299999       2.04605399E-09
  -13.3199997       1.95141880E-09
  -13.3100004       1.47079793E-09
  -13.3000002       6.96271318E-10
  -13.2900000      -2.12091081E-10
  -13.2799997      -1.06268572E-09
  -13.2700005      -1.67853387E-09
  -13.2600002      -1.94153649E-09
  -13.2500000      -1.82273485E-09
  -13.2399998      -1.38942124E-09
  -13.2299995      -7.85716769E-10
  -13.2200003      -1.90535074E-10
  -13.2100000       2.36228537E-10
  -13.1999998       4.04034195E-10
  -13.1899996       3.23022858E-10
  -13.1800003       1.05060648E-10
  -13.1700001      -6.86014509E-11
  -13.1599998      -6.24109705E-12
  -13.1499996       4.24578650E-10
  -13.1400003       1.23714239E-09
  -13.1300001       2.29563479E-09
  -13.1199999       3.32818262E-09
  -13.1099997       3.98446343E-09
  -13.1000004       3.92629396E-09
  -13.0900002       2.92879210E-09
  -13.0799999       9.64510138E-10
  -13.0699997      -1.75460257E-09
  -13.0600004      -4.79271645E-09
  -13.0500002      -7.56386331E-09
  -13.0400000      -9.44926004E-09
  -13.0299997      -9.93200278E-09
  -13.0200005      -8.71825012E-09
  -13.0100002      -5.81746784E-09
  -13.0000000      -1.56448288E-09
  -12.9899998       3.42057671E-09
  -12.9799995       8.32589109E-09
  -12.9700003       1.22783153E-08
  -12.9600000       1.44907055E-08
  -12.9499998       1.44076910E-08
  -12.9399996       1.18334693E-08
  -12.9300003       7.02546288E-09
  -12.9200001       7.34503847E-10
  -12.9099998      -5.83240700E-09
  -12.8999996      -1.11516796E-08
  -12.8900003      -1.36410572E-08
  -12.8800001      -1.20281465E-08
  -12.8699999      -5.78352566E-09
  -12.8599997       4.47260673E-09
  -12.8500004       1.67189054E-08
  -12.8400002       2.75761654E-08
  -12.8299999       3.27539027E-08
  -12.8199997       2.79280474E-08
  -12.8100004       9.95637528E-09
  -12.8000002      -2.17978915E-08
  -12.7900000      -6.43748947E-08
  -12.7799997      -1.10743251E-07
  -12.7700005      -1.50265535E-07
  -12.7600002      -1.70256740E-07
  -12.7500000      -1.58525353E-07
  -12.7399998      -1.06489615E-07
  -12.7299995      -1.22087993E-08
  -12.7200003       1.17455528E-07
  -12.7100000       2.66270234E-07
  -12.6999998       4.10101563E-07
  -12.6899996       5.20435947E-07
  -12.6800003       5.69445717E-07
  -12.6700001       5.35638776E-07
  -12.6599998       4.08866725E-07
  -12.6499996       1.93489541E-07
  -12.6400003      -9.11611053E-08
  -12.6300001      -4.13280162E-07
  -12.6199999      -7.33591435E-07
  -12.6099997      -1.01174771E-06
  -12.6000004      -1.21263452E-06
  -12.5900002      -1.31108413E-06
  -12.5799999      -1.29392379E-06
  -12.5699997      -1.15903413E-06
  -12.5600004      -9.11975974E-07
  -12.5500002      -5.61516572E-07
  -12.5400000      -1.15800681E-07
  -12.5299997       4.19176672E-07
  -12.5200005       1.03775915E-06
  -12.5100002       1.72944226E-06
  -12.5000000       2.47140702E-06
  -12.4899998       3.22080405E-06
  -12.4799995       3.90925970E-06
  -12.4700003       4.44186162E-06
  -12.4600000       4.70200666E-06
  -12.4499998       4.56216731E-06
  -12.4399996       3.89912748E-06
  -12.4300003       2.61108289E-06
  -12.4200001       6.33335844E-07
  -12.4099998      -2.05046877E-06
  -12.3999996      -5.40368046E-06
  -12.3900003      -9.33920001E-06
  -12.3800001      -1.37282732E-05
  -12.3699999      -1.84131659E-05
  -12.3599997      -2.32207331E-05
  -12.3500004      -2.79739415E-05
  -12.3400002      -3.24993416E-05
  -12.3299999      -3.66298955E-05
  -12.3199997      -4.02040678E-05
  -12.3100004      -4.30632535E-05
  -12.3000002      -4.50500993E-05
  -12.2900000      -4.60101401E-05
  -12.2799997      -4.57979841E-05
  -12.2700005      -4.42880810E-05
  -12.2600002      -4.13885973E-05
  -12.2500000      -3.70559828E-05
  -12.2399998      -3.13073542E-05
  -12.2299995      -2.42282513E-05
  -12.2200003      -1.59742194E-05
  -12.2100000      -6.76575110E-06
  -12.1999998       3.12263614E-06
  -12.1899996       1.33777767E-05
  -12.1800003       2.36659616E-05
  -12.1700001       3.36522353E-05
  -12.1599998       4.30198634E-05
  -12.1499996       5.14891581E-05
  -12.1400003       5.88350667E-05
  -12.1300001       6.49027425E-05
  -12.1199999       6.96193310E-05
  -12.1099997       7.30003521E-05
  -12.1000004       7.51479747E-05
  -12.0900002       7.62397322E-05
  -12.0799999       7.65068617E-05
  -12.0699997       7.62036652E-05
  -12.0600004       7.55714645E-05
  -12.0500002       7.48024613E-05
  -12.0400000       7.40101386E-05
  -12.0299997       7.32118860E-05
  -12.0200005       7.23285120E-05
  -12.0100002       7.12011170E-05
  -12.0000000       6.96230563E-05
  -11.9899998       6.73806426E-05
  -11.9799995       6.42941159E-05
  -11.9700003       6.02504406E-05
  -11.9600000       5.52205966E-05
  -11.9499998       4.92580766E-05
  -11.9399996       4.24796999E-05
  -11.9300003       3.50339433E-05
  -11.9200001       2.70654655E-05
  -11.9099998       1.86852049E-05
  -11.8999996       9.95378377E-06
  -11.8900003       8.82728045E-07
  -11.8800001      -8.54733935E-06
  -11.8699999      -1.83565680E-05
  -11.8599997      -2.85325859E-05
  -11.8500004      -3.90034838E-05
  -11.8400002      -4.96250541E-05
  -11.8299999      -6.01863103E-05
  -11.8199997      -7.04321646E-05
  -11.8100004      -8.00976413E-05
  -11.8000002      -8.89445364E-05
  -11.7900000      -9.67910382E-05
  -11.7799997      -1.03527054E-04
  -11.7700005      -1.09111839E-04
  -11.7600002      -1.13556089E-04
  -11.7500000      -1.16894975E-04
  -11.7399998      -1.19161014E-04
  -11.7299995      -1.20365563E-04
  -11.7200003      -1.20494573E-04
  -11.7100000      -1.19519616E-04
  -11.6999998      -1.17420073E-04
  -11.6899996      -1.14208568E-04
  -11.6800003      -1.09950335E-04
  -11.6700001      -1.04769017E-04
  -11.6599998      -9.88353568E-05
  -11.6499996      -9.23408224E-05
  -11.6400003      -8.54629106E-05
  -11.6300001      -7.83317373E-05
  -11.6199999      -7.10073582E-05
  -11.6099997      -6.34744283E-05
  -11.6000004      -5.56548730E-05
  -11.5900002      -4.74348708E-05
  -11.5799999      -3.86973734E-05
  -11.5699997      -2.93509729E-05
  -11.5600004      -1.93476408E-05
  -11.5500002      -8.68646475E-06
  -11.5400000       2.59396734E-06
  -11.5299997       1.44275991E-05
  -11.5200005       2.67288633E-05
  -11.5100002       3.93900627E-05
  -11.5000000       5.22668088E-05
  -11.4899998       6.51564624E-05
  -11.4799995       7.77801979E-05
  -11.4700003       8.97810605E-05
  -11.4600000       1.00748191E-04
  -11.4499998       1.10270041E-04
  -11.4399996       1.18009812E-04
  -11.4300003       1.23787075E-04
  -11.4200001       1.27643129E-04
  -11.4099998       1.29868291E-04
  -11.3999996       1.30976114E-04
  -11.3900003       1.31621884E-04
  -11.3800001       1.32478424E-04
  -11.3699999       1.34094822E-04
  -11.3599997       1.36771094E-04
  -11.3500004       1.40480566E-04
  -11.3400002       1.44862133E-04
  -11.3299999       1.49286730E-04
  -11.3199997       1.52986191E-04
  -11.3100004       1.55214351E-04
  -11.3000002       1.55404268E-04
  -11.2900000       1.53285582E-04
  -11.2799997       1.48936844E-04
  -11.2700005       1.42764606E-04
  -11.2600002       1.35417868E-04
  -11.2500000       1.27661551E-04
  -11.2399998       1.20238750E-04
  -11.2299995       1.13750459E-04
  -11.2200003       1.08572138E-04
  -11.2100000       1.04815554E-04
  -11.1999998       1.02331716E-04
  -11.1899996       1.00745106E-04
  -11.1800003       9.95069931E-05
  -11.1700001       9.79592514E-05
  -11.1599998       9.54065836E-05
  -11.1499996       9.11971438E-05
  -11.1400003       8.48129275E-05
  -11.1300001       7.59650284E-05
  -11.1199999       6.46804183E-05
  -11.1099997       5.13603700E-05
  -11.1000004       3.67865250E-05
  -11.0900002       2.20570892E-05
  -11.0799999       8.44960323E-06
  -11.0699997      -2.77436311E-06
  -11.0600004      -1.05872268E-05
  -11.0500002      -1.43883108E-05
  -11.0400000      -1.41235105E-05
  -11.0299997      -1.02971344E-05
  -11.0200005      -3.86666352E-06
  -11.0100002       3.95871302E-06
  -11.0000000       1.19681918E-05
  -10.9899998       1.91865656E-05
  -10.9799995       2.50402754E-05
  -10.9700003       2.94137481E-05
  -10.9600000       3.25893561E-05
  -10.9499998       3.50970513E-05
  -10.9399996       3.75244235E-05
  -10.9300003       4.03456870E-05
  -10.9200001       4.38176612E-05
  -10.9099998       4.79642440E-05
  -10.8999996       5.26400036E-05
  -10.8900003       5.76355887E-05
  -10.8800001       6.27759946E-05
  -10.8699999       6.79691948E-05
  -10.8599997       7.31847249E-05
  -10.8500004       7.83732030E-05
  -10.8400002       8.33648446E-05
  -10.8299999       8.77970888E-05
  -10.8199997       9.11155585E-05
  -10.8100004       9.26657958E-05
  -10.8000002       9.18595106E-05
  -10.7900000       8.83655666E-05
  -10.7799997       8.22598304E-05
  -10.7700005       7.40748146E-05
  -10.7600002       6.47180350E-05
  -10.7500000       5.52714773E-05
  -10.7399998       4.67265963E-05
  -10.7299995       3.97351832E-05
  -10.7200003       3.44571163E-05
  -10.7100000       3.05573521E-05
  -10.6999998       2.73573969E-05
  -10.6899996       2.40934987E-05
  -10.6800003       2.01963339E-05
  -10.6700001       1.54960617E-05
  -10.6599998       1.02791209E-05
  -10.6499996       5.17300350E-06
  -10.6400003       8.94275729E-07
  -10.6300001      -2.05389460E-06
  -10.6199999      -3.62639616E-06
  -10.6099997      -4.32903971E-06
  -10.6000004      -5.11341568E-06
  -10.5900002      -7.09378628E-06
  -10.5799999      -1.11690151E-05
  -10.5699997      -1.76703743E-05
  -10.5600004      -2.61542373E-05
  -10.5500002      -3.54180629E-05
  -10.5400000      -4.37490016E-05
  -10.5299997      -4.93408334E-05
  -10.5200005      -5.07602599E-05
  -10.5100002      -4.73251130E-05
  -10.5000000      -3.92836082E-05
  -10.4899998      -2.77440304E-05
  -10.4799995      -1.43808220E-05
  -10.4700003      -1.00858597E-06
  -10.4600000       1.08480099E-05
  -10.4499998       2.02666924E-05
  -10.4399996       2.70446944E-05
  -10.4300003       3.16084515E-05
  -10.4200001       3.47691166E-05
  -10.4099998       3.74194024E-05
  -10.3999996       4.02746991E-05
  -10.3900003       4.37332346E-05
  -10.3800001       4.78782531E-05
  -10.3699999       5.25917421E-05
  -10.3599997       5.77112442E-05
  -10.3500004       6.31541334E-05
  -10.3400002       6.89564113E-05
  -10.3299999       7.52161650E-05
  -10.3199997       8.19775378E-05
  -10.3100004       8.91173622E-05
  -10.3000002       9.62989216E-05
  -10.2900000       1.03027160E-04
  -10.2799997       1.08794797E-04
  -10.2700005       1.13265975E-04
  -10.2600002       1.16418603E-04
  -10.2500000       1.18575168E-04
  -10.2399998       1.20290992E-04
  -10.2299995       1.22122859E-04
  -10.2200003       1.24355109E-04
  -10.2100000       1.26788131E-04
  -10.1999998       1.28684289E-04
  -10.1899996       1.28919433E-04
  -10.1800003       1.26319515E-04
  -10.1700001       1.20088291E-04
  -10.1599998       1.10191948E-04
  -10.1499996       9.75624498E-05
  -10.1400003       8.40299690E-05
  -10.1300001       7.19732852E-05
  -10.1199999       6.37689081E-05
  -10.1099997       6.11872674E-05
  -10.1000004       6.49112626E-05
  -10.0900002       7.43222845E-05
  -10.0799999       8.76241465E-05
  -10.0699997       1.02275626E-04
  -10.0600004       1.15611685E-04
  -10.0500002       1.25476901E-04
  -10.0400000       1.30695436E-04
  -10.0299997       1.31252149E-04
  -10.0200005       1.28150728E-04
  -10.0100002       1.23011021E-04
  -10.0000000       1.17542440E-04
  -9.98999977       1.13059803E-04
  -9.97999954       1.10182606E-04
  -9.97000027       1.08793472E-04
  -9.96000004       1.08242544E-04
  -9.94999981       1.07706794E-04
  -9.93999958       1.06570391E-04
  -9.93000031       1.04692954E-04
  -9.92000008       1.02480750E-04
  -9.90999985       1.00748359E-04
  -9.89999962       1.00430363E-04
  -9.89000034       1.02252277E-04
  -9.88000011       1.06480329E-04
  -9.86999989       1.12834336E-04
  -9.85999966       1.20589844E-04
  -9.85000038       1.28824904E-04
  -9.84000015       1.36717383E-04
  -9.82999992       1.43784404E-04
  -9.81999969       1.49977452E-04
  -9.81000042       1.55604241E-04
  -9.80000019       1.61113509E-04
  -9.78999996       1.66832528E-04
  -9.77999973       1.72766726E-04
  -9.77000046       1.78550603E-04
  -9.76000023       1.83584169E-04
  -9.75000000       1.87316356E-04
  -9.73999977       1.89576473E-04
  -9.72999954       1.90825172E-04
  -9.72000027       1.92212043E-04
  -9.71000004       1.95386514E-04
  -9.69999981       2.02091163E-04
  -9.68999958       2.13647349E-04
  -9.68000031       2.30493199E-04
  -9.67000008       2.51931371E-04
  -9.65999985       2.76189239E-04
  -9.64999962       3.00798682E-04
  -9.64000034       3.23201006E-04
  -9.63000011       3.41401581E-04
  -9.61999989       3.54472693E-04
  -9.60999966       3.62743740E-04
  -9.60000038       3.67610686E-04
  -9.59000015       3.71018279E-04
  -9.57999992       3.74777243E-04
  -9.56999969       3.79938603E-04
  -9.56000042       3.86430882E-04
  -9.55000019       3.93085909E-04
  -9.53999996       3.98049015E-04
  -9.52999973       3.99436802E-04
  -9.52000046       3.96017189E-04
  -9.51000023       3.87671869E-04
  -9.50000000       3.75470845E-04
  -9.48999977       3.61318380E-04
  -9.47999954       3.47282476E-04
  -9.47000027       3.34836484E-04
  -9.46000004       3.24286055E-04
  -9.44999981       3.14597215E-04
  -9.43999958       3.03716894E-04
  -9.43000031       2.89296702E-04
  -9.42000008       2.69591634E-04
  -9.40999985       2.44221825E-04
  -9.39999962       2.14522326E-04
  -9.39000034       1.83330776E-04
  -9.38000011       1.54253357E-04
  -9.36999989       1.30629633E-04
  -9.35999966       1.14533002E-04
  -9.35000038       1.06144311E-04
  -9.34000015       1.03721140E-04
  -9.32999992       1.04190112E-04
  -9.31999969       1.04178529E-04
  -9.31000042       1.01147481E-04
  -9.30000019       9.42493352E-05
  -9.28999996       8.46167022E-05
  -9.27999973       7.49863757E-05
  -9.27000046       6.87825013E-05
  -9.26000023       6.89743465E-05
  -9.25000000       7.70987244E-05
  -9.23999977       9.27788278E-05
  -9.22999954       1.13901158E-04
  -9.22000027       1.37374533E-04
  -9.21000004       1.60197640E-04
  -9.19999981       1.80449802E-04
  -9.18999958       1.97854883E-04
  -9.18000031       2.13724241E-04
  -9.17000008       2.30312115E-04
  -9.15999985       2.49833829E-04
  -9.14999962       2.73517857E-04
  -9.14000034       3.01049004E-04
  -9.13000011       3.30617826E-04
  -9.11999989       3.59556667E-04
  -9.10999966       3.85329069E-04
  -9.10000038       4.06494335E-04
  -9.09000015       4.23279183E-04
  -9.07999992       4.37525159E-04
  -9.06999969       4.52016538E-04
  -9.06000042       4.69422550E-04
  -9.05000019       4.91246057E-04
  -9.03999996       5.17171284E-04
  -9.02999973       5.45072486E-04
  -9.02000046       5.71695273E-04
  -9.01000023       5.93780773E-04
  -9.00000000       6.09221752E-04
  -8.98999977       6.17825135E-04
  -8.97999954       6.21381041E-04
  -8.97000027       6.22995489E-04
  -8.96000004       6.25907094E-04
  -8.94999981       6.32210751E-04
  -8.93999958       6.41953782E-04
  -8.93000031       6.52951887E-04
  -8.92000008       6.61413476E-04
  -8.90999985       6.63177751E-04
  -8.89999962       6.55145093E-04
  -8.89000034       6.36399316E-04
  -8.88000011       6.08626811E-04
  -8.86999989       5.75677725E-04
  -8.85999966       5.42417460E-04
  -8.85000038       5.13261999E-04
  -8.84000015       4.90904611E-04
  -8.82999992       4.75662411E-04
  -8.81999969       4.65653604E-04
  -8.81000042       4.57715214E-04
  -8.80000019       4.48710984E-04
  -8.78999996       4.36748203E-04
  -8.77999973       4.21865407E-04
  -8.77000046       4.05953004E-04
  -8.76000023       3.91958136E-04
  -8.75000000       3.82683938E-04
  -8.73999977       3.79639503E-04
  -8.72999954       3.82374536E-04
  -8.72000027       3.88546265E-04
  -8.71000004       3.94695060E-04
  -8.69999981       3.97443509E-04
  -8.68999958       3.94678442E-04
  -8.68000031       3.86281812E-04
  -8.67000008       3.74150462E-04
  -8.65999985       3.61500133E-04
  -8.64999962       3.51716910E-04
  -8.64000034       3.47174908E-04
  -8.63000011       3.48456058E-04
  -8.61999989       3.54243355E-04
  -8.60999966       3.61917540E-04
  -8.60000038       3.68628273E-04
  -8.59000015       3.72434646E-04
  -8.57999992       3.73096729E-04
  -8.56999969       3.72232433E-04
  -8.56000042       3.72786162E-04
  -8.55000019       3.78019584E-04
  -8.53999996       3.90394998E-04
  -8.52999973       4.10766865E-04
  -8.52000046       4.38167481E-04
  -8.51000023       4.70255240E-04
  -8.50000000       5.04244410E-04
  -8.48999977       5.37962420E-04
  -8.47999954       5.70634438E-04
  -8.47000027       6.03103836E-04
  -8.46000004       6.37404504E-04
  -8.44999981       6.75848394E-04
  -8.43999958       7.19966192E-04
  -8.43000031       7.69694627E-04
  -8.42000008       8.23118549E-04
  -8.40999985       8.76869308E-04
  -8.39999962       9.27052402E-04
  -8.39000034       9.70379915E-04
  -8.38000011       1.00512337E-03
  -8.36999989       1.03155698E-03
  -8.35999966       1.05175027E-03
  -8.35000038       1.06878963E-03
  -8.34000015       1.08570256E-03
  -8.32999992       1.10445428E-03
  -8.31999969       1.12534373E-03
  -8.31000042       1.14698126E-03
  -8.30000019       1.16682099E-03
  -8.28999996       1.18204427E-03
  -8.27999973       1.19047018E-03
  -8.27000046       1.19119708E-03
  -8.26000023       1.18477154E-03
  -8.25000000       1.17287529E-03
  -8.23999977       1.15767180E-03
  -8.22999954       1.14107027E-03
  -8.22000027       1.12416688E-03
  -8.21000004       1.10704370E-03
  -8.19999981       1.08896859E-03
  -8.18999958       1.06888474E-03
  -8.18000031       1.04599353E-03
  -8.17000008       1.02020719E-03
  -8.15999985       9.92320827E-04
  -8.14999962       9.63845872E-04
  -8.14000034       9.36593860E-04
  -8.13000011       9.12164745E-04
  -8.11999989       8.91526637E-04
  -8.10999966       8.74826277E-04
  -8.10000038       8.61482113E-04
  -8.09000015       8.50509969E-04
  -8.07999992       8.40953435E-04
  -8.06999969       8.32268794E-04
  -8.06000042       8.24535266E-04
  -8.05000019       8.18436674E-04
  -8.03999996       8.15032050E-04
  -8.02999973       8.15407722E-04
  -8.02000046       8.20324756E-04
  -8.01000023       8.29969998E-04
  -8.00000000       8.43876973E-04
  -7.98999977       8.61026580E-04
  -7.98000002       8.80081498E-04
  -7.96999979       8.99677689E-04
  -7.96000004       9.18700418E-04
  -7.94999981       9.36475873E-04
  -7.94000006       9.52850271E-04
  -7.92999983       9.68150911E-04
  -7.92000008       9.83060105E-04
  -7.90999985       9.98431235E-04
  -7.90000010       1.01509073E-03
  -7.88999987       1.03366398E-03
  -7.88000011       1.05445925E-03
  -7.86999989       1.07742997E-03
  -7.86000013       1.10221829E-03
  -7.84999990       1.12827448E-03
  -7.84000015       1.15502474E-03
  -7.82999992       1.18203624E-03
  -7.82000017       1.20914029E-03
  -7.80999994       1.23646366E-03
  -7.80000019       1.26435352E-03
  -7.78999996       1.29321881E-03
  -7.78000021       1.32332416E-03
  -7.76999998       1.35462091E-03
  -7.76000023       1.38666353E-03
  -7.75000000       1.41865946E-03
  -7.73999977       1.44964491E-03
  -7.73000002       1.47873373E-03
  -7.71999979       1.50535058E-03
  -7.71000004       1.52937148E-03
  -7.69999981       1.55110715E-03
  -7.69000006       1.57112989E-03
  -7.67999983       1.59000466E-03
  -7.67000008       1.60801155E-03
  -7.65999985       1.62498234E-03
  -7.65000010       1.64031470E-03
  -7.63999987       1.65318372E-03
  -7.63000011       1.66289008E-03
  -7.61999989       1.66922749E-03
  -7.61000013       1.67273462E-03
  -7.59999990       1.67472160E-03
  -7.59000015       1.67704758E-03
  -7.57999992       1.68168894E-03
  -7.57000017       1.69022719E-03
  -7.55999994       1.70342089E-03
  -7.55000019       1.72099960E-03
  -7.53999996       1.74175296E-03
  -7.53000021       1.76389108E-03
  -7.51999998       1.78557099E-03
  -7.51000023       1.80541479E-03
  -7.50000000       1.82286429E-03
  -7.48999977       1.83825777E-03
  -7.48000002       1.85261306E-03
  -7.46999979       1.86720211E-03
  -7.46000004       1.88306521E-03
  -7.44999981       1.90062891E-03
  -7.44000006       1.91956223E-03