  -16.0000000       0.00000000    
  -15.9899998       0.00000000    
  -15.9799995       0.00000000    
  -15.9700003       0.00000000    
  -15.9600000       0.00000000    
  -15.9499998       0.00000000    
  -15.9399996       0.00000000    
  -15.9300003       0.00000000    
  -15.9200001       0.00000000    
  -15.9099998       0.00000000    
  -15.8999996       0.00000000    
  -15.8900003       0.00000000    
  -15.8800001       0.00000000    
  -15.8699999       0.00000000    
  -15.8599997      -0.00000000    
  -15.8500004       1.40129846E-45
  -15.8400002      -2.24207754E-44
  -15.8299999      -3.34910333E-43
  -15.8199997      -2.95113457E-42
  -15.8100004      -1.94023785E-41
  -15.8000002      -1.03759145E-40
  -15.7900000      -4.71668655E-40
  -15.7799997      -1.86957458E-39
  -15.7700005      -6.56319295E-39
  -15.7600002      -2.05962778E-38
  -15.7500000      -5.80400168E-38
  -15.7399998      -1.46872547E-37
  -15.7299995      -3.31901913E-37
  -15.7200003      -6.59945749E-37
  -15.7100000      -1.11489593E-36
  -15.6999998      -1.45136190E-36
  -15.6899996      -8.78627859E-37
  -15.6800003       2.37920749E-36
  -15.6700001       1.14084726E-35
  -15.6599998       3.01883193E-35
  -15.6499996       6.13285536E-35
  -15.6400003       1.00674169E-34
  -15.6300001       1.28324540E-34
  -15.6199999       9.84291355E-35
  -15.6099997      -6.45388126E-35
  -15.6000004      -4.48518043E-34
  -15.5900002      -1.09693156E-33
  -15.5799999      -1.89985785E-33
  -15.5699997      -2.44825976E-33
  -15.5600004      -1.92079303E-33
  -15.5500002       8.52886079E-34
  -15.5400000       6.94886726E-33
  -15.5299997       1.63477425E-32
  -15.5200005       2.64038424E-32
  -15.5100002       3.02815338E-32
  -15.5000000       1.65640746E-32
  -15.4899998      -2.80508452E-32
  -15.4799995      -1.10913335E-31
  -15.4700003      -2.19694064E-31
  -15.4600000      -3.05690339E-31
  -15.4499998      -2.73362152E-31
  -15.4399996       7.37290261E-33
  -15.4300003       6.45674362E-31
  -15.4200001       1.61804992E-30
  -15.4099998       2.61473108E-30
  -15.3999996       2.91042489E-30
  -15.3900003       1.39192675E-30
  -15.3800001      -3.07921892E-30
  -15.3699999      -1.08286103E-29
  -15.3599997      -2.01109758E-29
  -15.3500004      -2.58830630E-29
  -15.3400002      -1.95849592E-29
  -15.3299999       8.68806859E-30
  -15.3199997       6.44180594E-29
  -15.3100004       1.39400495E-28
  -15.3000002       2.01823266E-28
  -15.2900000       1.92264310E-28
  -15.2799997       3.52373680E-29
  -15.2700005      -3.24737307E-28
  -15.2600002      -8.61476938E-28
  -15.2500000      -1.39605895E-27
  -15.2399998      -1.55646012E-27
  -15.2299995      -8.28727366E-28
  -15.2200003       1.24009994E-27
  -15.2100000       4.67017905E-27
  -15.1999998       8.58919226E-27
  -15.1899996       1.09063887E-26
  -15.1800003       8.47070674E-27
  -15.1700001      -1.91711439E-27
  -15.1599998      -2.14748184E-26
  -15.1499996      -4.67352724E-26
  -15.1400003      -6.72696946E-26
  -15.1300001      -6.56823832E-26
  -15.1199999      -2.19696252E-26
  -15.1099997       7.65103496E-26
  -15.1000004       2.20578772E-25
  -15.0900002       3.65152348E-25
  -15.0799999       4.24389220E-25
  -15.0699997       2.86953282E-25
  -15.0600004      -1.40491234E-25
  -15.0500002      -8.63335488E-25
  -15.0400000      -1.72134380E-24
  -15.0299997      -2.34170244E-24
  -15.0200005      -2.17461913E-24
  -15.0100002      -6.57622850E-25
  -15.0000000       2.48149076E-24
  -14.9899998       6.84276251E-24
  -14.9799995       1.10423827E-23
  -14.9700003       1.26950778E-23
  -14.9600000       8.92246176E-24
  -14.9499998      -2.49196111E-24
  -14.9399996      -2.14371436E-23
  -14.9300003      -4.38023979E-23
  -14.9200001      -6.06667042E-23
  -14.9099998      -5.93826217E-23
  -14.8999996      -2.73333835E-23
  -14.8900003       4.16861492E-23
  -14.8800001       1.39876247E-22
  -14.8699999       2.39597151E-22
  -14.8599997       2.93365304E-22
  -14.8500004       2.43555213E-22
  -14.8400002       4.34495026E-23
  -14.8299999      -3.13176694E-22
  -14.8199997      -7.62649367E-22
  -14.8100004      -1.15626349E-21
  -14.8000002      -1.27550816E-21
  -14.7900000      -8.89317810E-22
  -14.7799997       1.47507018E-22
  -14.7700005       1.77515201E-21
  -14.7600002       3.63097675E-21
  -14.7500000       5.03001462E-21
  -14.7399998       5.07830291E-21
  -14.7299995       2.94513376E-21
  -14.7200003      -1.73575996E-21
  -14.7100000      -8.43986354E-21
  -14.6999998      -1.54725006E-20
  -14.6899996      -2.00385020E-20
  -14.6800003      -1.88210343E-20
  -14.6700001      -9.09648581E-21
  -14.6599998       9.80209349E-21
  -14.6499996       3.51057197E-20
  -14.6400003       5.99344699E-20
  -14.6300001       7.39683838E-20
  -14.6199999       6.58708026E-20
  -14.6099997       2.73516252E-20
  -14.6000004      -4.19674995E-20
  -14.5900002      -1.30455688E-19
  -14.5799999      -2.13155668E-19
  -14.5699997      -2.55099140E-19
  -14.5600004      -2.20132251E-19
  -14.5500002      -8.43585026E-20
  -14.5400000       1.48912259E-19
  -14.5299997       4.37809793E-19
  -14.5200005       7.00123758E-19
  -14.5100002       8.26029694E-19
  -14.5000000       7.06852458E-19
  -14.4899998       2.75970588E-19
  -14.4799995      -4.48257497E-19
  -14.4700003      -1.33265807E-18
  -14.4600000      -2.12897161E-18
  -14.4499998      -2.51541199E-18
  -14.4399996      -2.18188573E-18
  -14.4300003      -9.45489360E-19
  -14.4200001       1.13330971E-18
  -14.4099998       3.67510184E-18
  -14.3999996       5.98907343E-18
  -14.3900003       7.19256786E-18
  -14.3800001       6.44270630E-18
  -14.3699999       3.24072469E-18
  -14.3599997      -2.26992526E-18
  -14.3500004      -9.11660569E-18
  -14.3400002      -1.55250568E-17
  -14.3299999      -1.92271003E-17
  -14.3199997      -1.80409448E-17
  -14.3100004      -1.06217121E-17
  -14.3000002       2.81142726E-18
  -14.2900000       2.00206709E-17
  -14.2799997       3.68058944E-17
  -14.2700005       4.77168070E-17
  -14.2600002       4.73954407E-17
  -14.2500000       3.23093769E-17
  -14.2399998       2.43683810E-18
  -14.2299995      -3.76502373E-17
  -14.2200003      -7.88279235E-17
  -14.2100000      -1.08900558E-16
  -14.1999998      -1.15465070E-16
  -14.1899996      -8.96533222E-17
  -14.1800003      -2.98307832E-17
  -14.1700001       5.59030694E-17
  -14.1599998       1.49501593E-16
  -14.1499996       2.25709664E-16
  -14.1400003       2.57682563E-16
  -14.1300001       2.24514368E-16
  -14.1199999       1.18887387E-16
  -14.1099997      -4.74147537E-17
  -14.1000004      -2.42280249E-16
  -14.0900002      -4.17695160E-16
  -14.0799999      -5.19819673E-16
  -14.0699997      -5.03037991E-16
  -14.0600004      -3.44768509E-16
  -14.0500002      -5.69097217E-17
  -14.0400000       3.10088359E-16
  -14.0299997       6.73222157E-16
  -14.0200005       9.33332264E-16
  -14.0100002       9.99304907E-16
  -14.0000000       8.14753739E-16
  -13.9899998       3.80139599E-16
  -13.9799995      -2.36706507E-16
  -13.9700003      -9.06696042E-16
  -13.9600000      -1.46347589E-15
  -13.9499998      -1.74175226E-15
  -13.9399996      -1.62180625E-15
  -13.9300003      -1.06900365E-15
  -13.9200001      -1.56686444E-16
  -13.9099998       9.36398417E-16
  -13.8999996       1.95733178E-15
  -13.8900003       2.63474702E-15
  -13.8800001       2.74756863E-15
  -13.8699999       2.19009855E-15
  -13.8599997       1.01546047E-15
  -13.8500004      -5.57196219E-16
  -13.8400002      -2.17847281E-15
  -13.8299999      -3.44352181E-15
  -13.8199997      -3.99087874E-15
  -13.8100004      -3.60199151E-15
  -13.8000002      -2.27505786E-15
  -13.7900000      -2.50415021E-16
  -13.7799997       2.02498684E-15
  -13.7700005       3.99172027E-15
  -13.7600002       5.11237408E-15
  -13.7500000       5.01528716E-15
  -13.7399998       3.61038900E-15
  -13.7299995       1.14324206E-15
  -13.7200003      -1.83400505E-15
  -13.7100000      -4.57628439E-15
  -13.6999998      -6.32314034E-15
  -13.6899996      -6.50006392E-15
  -13.6800003      -4.89279773E-15
  -13.6700001      -1.74529021E-15
  -13.6599998       2.25329738E-15
  -13.6499996       6.10163783E-15
  -13.6400003       8.71772239E-15
  -13.6300001       9.21880167E-15
  -13.6199999       7.18141214E-15
  -13.6099997       2.81070541E-15
  -13.6000004      -3.03588340E-15
  -13.5900002      -8.99360102E-15
  -13.5799999      -1.34854582E-14
  -13.5699997      -1.51078033E-14
  -13.5600004      -1.30165391E-14
  -13.5500002      -7.21414065E-15
  -13.5400000       1.34768818E-15
  -13.5299997       1.08965139E-14
  -13.5200005       1.91911408E-14
  -13.5100002       2.40311887E-14
  -13.5000000       2.38111532E-14
  -13.4899998       1.79828618E-14
  -13.4799995       7.29999760E-15
  -13.4700003      -6.23849125E-15
  -13.4600000      -1.97605333E-14
  -13.4499998      -3.01439883E-14
  -13.4399996      -3.47560861E-14
  -13.4300003      -3.21327742E-14
  -13.4200001      -2.24214093E-14
  -13.4099998      -7.45539257E-15
  -13.3999996       9.58760151E-15
  -13.3900003       2.48889620E-14
  -13.3800001       3.49015487E-14
  -13.3699999       3.72521838E-14
  -13.3599997       3.13999145E-14
  -13.3500004       1.88605269E-14
  -13.3400002       2.90590746E-15
  -13.3299999      -1.22223458E-14
  -13.3199997      -2.24138674E-14
  -13.3100004      -2.48354685E-14
  -13.3000002      -1.88165930E-14
  -13.2900000      -6.21061540E-15
  -13.2799997       8.91632535E-15
  -13.2700005       2.12511537E-14
  -13.2600002       2.56593486E-14
  -13.2500000       1.87314408E-14
  -13.2399998       4.31311493E-17
  -13.2299995      -2.72469272E-14
  -13.2200003      -5.67046715E-14
  -13.2100000      -7.98660183E-14
  -13.1999998      -8.82112715E-14
  -13.1899996      -7.54466205E-14
  -13.1800003      -3.95427472E-14
  -13.1700001       1.60210268E-14
  -13.1599998       8.22216373E-14
  -13.1499996       1.45824623E-13
  -13.1400003       1.91921958E-13
  -13.1300001       2.07199451E-13
  -13.1199999       1.83230289E-13
  -13.1099997       1.19014526E-13
  -13.1000004       2.20872210E-14
  -13.0900002      -9.22034462E-14
  -13.0799999      -2.03250665E-13
  -13.0699997      -2.89147260E-13
  -13.0600004      -3.31255043E-13
  -13.0500002      -3.18390090E-13
  -13.0400000      -2.49645113E-13
  -13.0299997      -1.35122247E-13
  -13.0200005       5.71081175E-15
  -13.0100002       1.47791461E-13
  -13.0000000       2.65598741E-13
  -12.9899998       3.38535948E-13
  -12.9799995       3.55326093E-13
  -12.9700003       3.16364665E-13
  -12.9600000       2.33416043E-13
  -12.9499998       1.26651700E-13
  -12.9399996       1.96767177E-14
  -12.9300003      -6.62918681E-14
  -12.9200001      -1.17668624E-13
  -12.9099998      -1.31820024E-13
  -12.8999996      -1.17537165E-13
  -12.8900003      -9.24130835E-14
  -12.8800001      -7.76567057E-14
  -12.8699999      -9.15678530E-14
  -12.8599997      -1.43325388E-13
  -12.8500004      -2.28778015E-13
  -12.8400002      -3.29539293E-13
  -12.8299999      -4.15943267E-13
  -12.8199997      -4.53479566E-13
  -12.8100004      -4.11411438E-13
  -12.8000002      -2.71621647E-13
  -12.7900000      -3.55045854E-14
  -12.7799997       2.72984977E-13
  -12.7700005       6.09247082E-13
  -12.7600002       9.14939890E-13
  -12.7500000       1.12872266E-12
  -12.7399998       1.19871702E-12
  -12.7299995       1.09402765E-12
  -12.7200003       8.12720008E-13
  -12.7100000       3.84314271E-13
  -12.6999998      -1.34009950E-13
  -12.6899996      -6.66938726E-13
  -12.6800003      -1.13443239E-12
  -12.6700001      -1.46627328E-12
  -12.6599998      -1.61470685E-12
  -12.6499996      -1.56252409E-12
  -12.6400003      -1.32493018E-12
  -12.6300001      -9.44928489E-13
  -12.6199999      -4.83411813E-13
  -12.6099997      -6.31897040E-15
  -12.6000004       4.28153444E-13
  -12.5900002       7.79386863E-13
  -12.5799999       1.02910833E-12
  -12.5699997       1.18025967E-12
  -12.5600004       1.25063859E-12
  -12.5500002       1.26329513E-12
  -12.5400000       1.23649593E-12
  -12.5299997       1.17618534E-12
  -12.5200005       1.07321541E-12
  -12.5100002       9.06367266E-13
  -12.5000000       6.50605980E-13
  -12.4899998       2.88499341E-13
  -12.4799995      -1.78300042E-13
  -12.4700003      -7.20927929E-13
  -12.4600000      -1.28138841E-12
  -12.4499998      -1.77836890E-12
  -12.4399996      -2.12050603E-12
  -12.4300003      -2.22492771E-12
  -12.4200001      -2.03739369E-12
  -12.4099998      -1.54960528E-12
  -12.3999996      -8.09497380E-13
  -12.3900003       7.84569688E-14
  -12.3800001       9.63932168E-13
  -12.3699999       1.67111182E-12
  -12.3599997       2.02528380E-12
  -12.3500004       1.88076442E-12
  -12.3400002       1.14477492E-12
  -12.3299999      -2.07372056E-13
  -12.3199997      -2.12869891E-12
  -12.3100004      -4.50913525E-12
  -12.3000002      -7.19421571E-12
  -12.2900000      -1.00097743E-11
  -12.2799997      -1.27873328E-11
  -12.2700005      -1.53849000E-11
  -12.2600002      -1.76990037E-11
  -12.2500000      -1.96660535E-11
  -12.2399998      -2.12536707E-11
  -12.2299995      -2.24450528E-11
  -12.2200003      -2.32210032E-11
  -12.2100000      -2.35451138E-11
  -12.1999998      -2.33564765E-11
  -12.1899996      -2.25726035E-11
  -12.1800003      -2.11026075E-11
  -12.1700001      -1.88679454E-11
  -12.1599998      -1.58259621E-11
  -12.1499996      -1.19903453E-11
  -12.1400003      -7.44296725E-12
  -12.1300001      -2.33334142E-12
  -12.1199999       3.13562414E-12
  -12.1099997       8.73361453E-12
  -12.1000004       1.42360793E-11
  -12.0900002       1.94581105E-11
  -12.0799999       2.42821995E-11
  -12.0699997       2.86740909E-11
  -12.0600004       3.26832381E-11
  -12.0500002       3.64276595E-11
  -12.0400000       4.00660373E-11
  -12.0299997       4.37624936E-11
  -12.0200005       4.76511677E-11
  -12.0100002       5.18071523E-11
  -12.0000000       5.62292643E-11
  -11.9899998       6.08373282E-11
  -11.9799995       6.54835214E-11
  -11.9700003       6.99747135E-11
  -11.9600000       7.41004688E-11
  -11.9499998       7.76606765E-11
  -11.9399996       8.04872419E-11
  -11.9300003       8.24565277E-11
  -11.9200001       8.34904992E-11
  -11.9099998       8.35486402E-11
  -11.8999996       8.26134439E-11
  -11.8900003       8.06741757E-11
  -11.8800001       7.77133982E-11
  -11.8699999       7.36998379E-11
  -11.8599997       6.85891344E-11
  -11.8500004       6.23321672E-11
  -11.8400002       5.48885555E-11
  -11.8299999       4.62419547E-11
  -11.8199997       3.64133168E-11
  -11.8100004       2.54691285E-11
  -11.8000002       1.35223586E-11
  -11.7900000       7.26387700E-13
  -11.7799997      -1.27368359E-11
  -11.7700005      -2.66718002E-11
  -11.7600002      -4.08846360E-11
  -11.7500000      -5.51957056E-11
  -11.7399998      -6.94476074E-11
  -11.7299995      -8.35083183E-11
  -11.7200003      -9.72694633E-11
  -11.7100000      -1.10641815E-10
  -11.6999998      -1.23549629E-10
  -11.6899996      -1.35925202E-10
  -11.6800003      -1.47705681E-10
  -11.6700001      -1.58831420E-10
  -11.6599998      -1.69246381E-10
  -11.6499996      -1.78898965E-10
  -11.6400003      -1.87742724E-10
  -11.6300001      -1.95735442E-10
  -11.6199999      -2.02836928E-10
  -11.6099997      -2.09005133E-10
  -11.6000004      -2.14192275E-10
  -11.5900002      -2.18341137E-10
  -11.5799999      -2.21383425E-10
  -11.5699997      -2.23240218E-10
  -11.5600004      -2.23825194E-10
  -11.5500002      -2.23049412E-10
  -11.5400000      -2.20827023E-10
  -11.5299997      -2.17080215E-10
  -11.5200005      -2.11742679E-10
  -11.5100002      -2.04759973E-10
  -11.5000000      -1.96087868E-10
  -11.4899998      -1.85687507E-10
  -11.4799995      -1.73520309E-10
  -11.4700003      -1.59543045E-10
  -11.4600000      -1.43704590E-10
  -11.4499998      -1.25946031E-10
  -11.4399996      -1.06204115E-10
  -11.4300003      -8.44185416E-11
  -11.4200001      -6.05413844E-11
  -11.4099998      -3.45475107E-11
  -11.3999996      -6.44449685E-12
  -11.3900003       2.37200121E-11
  -11.3800001       5.58555979E-11
  -11.3699999       8.98296021E-11
  -11.3599997       1.25473035E-10
  -11.3500004       1.62589761E-10
  -11.3400002       2.00967548E-10
  -11.3299999       2.40389597E-10
  -11.3199997       2.80645063E-10
  -11.3100004       3.21536159E-10
  -11.3000002       3.62883779E-10
  -11.2900000       4.04528994E-10
  -11.2799997       4.46333442E-10
  -11.2700005       4.88178886E-10
  -11.2600002       5.29966904E-10
  -11.2500000       5.71620362E-10
  -11.2399998       6.13085971E-10
  -11.2299995       6.54337751E-10
  -11.2200003       6.95380253E-10
  -11.2100000       7.36251393E-10
  -11.1999998       7.77020837E-10
  -11.1899996       8.17787171E-10
  -11.1800003       8.58670801E-10
  -11.1700001       8.99804897E-10
  -11.1599998       9.41324574E-10
  -11.1499996       9.83358062E-10
  -11.1400003       1.02601938E-09
  -11.1300001       1.06940234E-09
  -11.1199999       1.11357967E-09
  -11.1099997       1.15860355E-09
  -11.1000004       1.20450572E-09
  -11.0900002       1.25129840E-09
  -11.0799999       1.29897726E-09
  -11.0699997       1.34751810E-09
  -11.0600004       1.39687895E-09
  -11.0500002       1.44700052E-09
  -11.0400000       1.49781287E-09
  -11.0299997       1.54924373E-09
  -11.0200005       1.60123659E-09
  -11.0100002       1.65376501E-09
  -11.0000000       1.70685388E-09
  -10.9899998       1.76059523E-09
  -10.9799995       1.81515869E-09
  -10.9700003       1.87079130E-09
  -10.9600000       1.92780814E-09
  -10.9499998       1.98656980E-09
  -10.9399996       2.04746131E-09
  -10.9300003       2.11085394E-09
  -10.9200001       2.17708118E-09
  -10.9099998       2.24641772E-09
  -10.8999996       2.31906738E-09
  -10.8900003       2.39516074E-09
  -10.8800001       2.47476328E-09
  -10.8699999       2.55789034E-09
  -10.8599997       2.64451638E-09
  -10.8500004       2.73459677E-09
  -10.8400002       2.82805734E-09
  -10.8299999       2.92480173E-09
  -10.8199997       3.02469716E-09
  -10.8100004       3.12755644E-09
  -10.8000002       3.23313376E-09
  -10.7900000       3.34110850E-09
  -10.7799997       3.45109274E-09
  -10.7700005       3.56263818E-09
  -10.7600002       3.67525987E-09
  -10.7500000       3.78846732E-09
  -10.7399998       3.90179000E-09
  -10.7299995       4.01480449E-09
  -10.7200003       4.12715906E-09
  -10.7100000       4.23858415E-09
  -10.6999998       4.34888392E-09
  -10.6899996       4.45792869E-09
  -10.6800003       4.56564564E-09
  -10.6700001       4.67198502E-09
  -10.6599998       4.77691531E-09
  -10.6499996       4.88040142E-09
  -10.6400003       4.98239938E-09
  -10.6300001       5.08285636E-09
  -10.6199999       5.18172216E-09
  -10.6099997       5.27894262E-09
  -10.6000004       5.37449463E-09
  -10.5900002       5.46837953E-09
  -10.5799999       5.56063551E-09
  -10.5699997       5.65134384E-09
  -10.5600004       5.74062753E-09
  -10.5500002       5.82865489E-09
  -10.5400000       5.91562621E-09
  -10.5299997       6.00176886E-09
  -10.5200005       6.08733242E-09
  -10.5100002       6.17256024E-09
  -10.5000000       6.25769037E-09
  -10.4899998       6.34293329E-09
  -10.4799995       6.42846487E-09
  -10.4700003       6.51440635E-09
  -10.4600000       6.60081945E-09
  -10.4499998       6.68770772E-09
  -10.4399996       6.77499967E-09
  -10.4300003       6.86256607E-09
  -10.4200001       6.95022839E-09
  -10.4099998       7.03776548E-09
  -10.3999996       7.12493620E-09
  -10.3900003       7.21147941E-09
  -10.3800001       7.29713312E-09
  -10.3699999       7.38164951E-09
  -10.3599997       7.46479234E-09
  -10.3500004       7.54636531E-09
  -10.3400002       7.62620722E-09
  -10.3299999       7.70419462E-09
  -10.3199997       7.78027154E-09
  -10.3100004       7.85443444E-09
  -10.3000002       7.92675436E-09
  -10.2900000       7.99735744E-09
  -10.2799997       8.06642575E-09
  -10.2700005       8.13418932E-09
  -10.2600002       8.20090662E-09
  -10.2500000       8.26685032E-09
  -10.2399998       8.33228775E-09
  -10.2299995       8.39749337E-09
  -10.2200003       8.46273718E-09
  -10.2100000       8.52828119E-09
  -10.1999998       8.59439897E-09
  -10.1899996       8.66137739E-09
  -10.1800003       8.72952821E-09
  -10.1700001       8.79916673E-09
  -10.1599998       8.87061624E-09
  -10.1499996       8.94418140E-09
  -10.1400003       9.02013220E-09
  -10.1300001       9.09868803E-09
  -10.1199999       9.18001053E-09
  -10.1099997       9.26420718E-09
  -10.1000004       9.35131084E-09
  -10.0900002       9.44132506E-09
  -10.0799999       9.53422674E-09
  -10.0699997       9.62999192E-09
  -10.0600004       9.72859837E-09
  -10.0500002       9.83006299E-09
  -10.0400000       9.93442484E-09
  -10.0299997       1.00417523E-08
  -10.0200005       1.01521644E-08
  -10.0100002       1.02657802E-08
  -10.0000000       1.03827675E-08
  -9.98999977       1.05032667E-08
  -9.97999954       1.06274447E-08
  -9.97000027       1.07554090E-08
  -9.96000004       1.08872324E-08
  -9.94999981       1.10229070E-08
  -9.93999958       1.11623617E-08
  -9.93000031       1.13054375E-08
  -9.92000008       1.14519043E-08
  -9.90999985       1.16014975E-08
  -9.89999962       1.17539782E-08
  -9.89000034       1.19091546E-08
  -9.88000011       1.20669279E-08
  -9.86999989       1.22273383E-08
  -9.85999966       1.23905837E-08
  -9.85000038       1.25570239E-08
  -9.84000015       1.27271527E-08
  -9.82999992       1.29015980E-08
  -9.81999969       1.30810660E-08
  -9.81000042       1.32663391E-08
  -9.80000019       1.34582434E-08
  -9.78999996       1.36576039E-08
  -9.77999973       1.38652760E-08
  -9.77000046       1.40820919E-08
  -9.76000023       1.43088466E-08
  -9.75000000       1.45462549E-08
  -9.73999977       1.47949422E-08
  -9.72999954       1.50553827E-08
  -9.72000027       1.53278776E-08
  -9.71000004       1.56125619E-08
  -9.69999981       1.59093876E-08
  -9.68999958       1.62181415E-08
  -9.68000031       1.65385163E-08
  -9.67000008       1.68701053E-08
  -9.65999985       1.72124626E-08
  -9.64999962       1.75650960E-08
  -9.64000034       1.79275350E-08
  -9.63000011       1.82992519E-08
  -9.61999989       1.86796711E-08
  -9.60999966       1.90681444E-08
  -9.60000038       1.94638687E-08
  -9.59000015       1.98659080E-08
  -9.57999992       2.02731734E-08
  -9.56999969       2.06844160E-08
  -9.56000042       2.10982449E-08
  -9.55000019       2.15131752E-08
  -9.53999996       2.19276259E-08
  -9.52999973       2.23400338E-08
  -9.52000046       2.27487789E-08
  -9.51000023       2.31523440E-08
  -9.50000000       2.35492479E-08
  -9.48999977       2.39381137E-08
  -9.47999954       2.43176821E-08
  -9.47000027       2.46868304E-08
  -9.46000004       2.50445300E-08
  -9.44999981       2.53899515E-08
  -9.43999958       2.57223824E-08
  -9.43000031       2.60412936E-08
  -9.42000008       2.63463082E-08
  -9.40999985       2.66372826E-08
  -9.39999962       2.69142806E-08
  -9.39000034       2.71775988E-08
  -9.38000011       2.74278413E-08
  -9.36999989       2.76659087E-08
  -9.35999966       2.78930035E-08
  -9.35000038       2.81106267E-08
  -9.34000015       2.83206667E-08
  -9.32999992       2.85253261E-08
  -9.31999969       2.87271114E-08
  -9.31000042       2.89288131E-08
  -9.30000019       2.91334672E-08
  -9.28999996       2.93443936E-08
  -9.27999973       2.95650011E-08
  -9.27000046       2.97988745E-08
  -9.26000023       3.00496090E-08
  -9.25000000       3.03207841E-08
  -9.23999977       3.06159187E-08
  -9.22999954       3.09384056E-08
  -9.22000027       3.12915382E-08
  -9.21000004       3.16783861E-08
  -9.19999981       3.21018661E-08
  -9.18999958       3.25646923E-08
  -9.18000031       3.30693339E-08
  -9.17000008       3.36180506E-08
  -9.15999985       3.42128068E-08
  -9.14999962       3.48552156E-08
  -9.14000034       3.55464671E-08
  -9.13000011       3.62873465E-08
  -9.11999989       3.70781343E-08
  -9.10999966       3.79186531E-08
  -9.10000038       3.88082135E-08
  -9.09000015       3.97456503E-08
  -9.07999992       4.07293115E-08
  -9.06999969       4.17571506E-08
  -9.06000042       4.28266915E-08
  -9.05000019       4.39350174E-08
  -9.03999996       4.50789166E-08
  -9.02999973       4.62548044E-08
  -9.02000046       4.74587480E-08
  -9.01000023       4.86864522E-08
  -9.00000000       4.99334156E-08
  -8.98999977       5.11948031E-08
  -8.97999954       5.24655981E-08
  -8.97000027       5.37405214E-08
  -8.96000004       5.50141799E-08
  -8.94999981       5.62811096E-08
  -8.93999958       5.75357788E-08
  -8.93000031       5.87726596E-08
  -8.92000008       5.99863341E-08
  -8.90999985       6.11714981E-08
  -8.89999962       6.23231529E-08
  -8.89000034       6.34365023E-08
  -8.88000011       6.45071623E-08
  -8.86999989       6.55311112E-08
  -8.85999966       6.65046613E-08
  -8.85000038       6.74245086E-08
  -8.84000015       6.82877115E-08
  -8.82999992       6.90916906E-08
  -8.81999969       6.98342930E-08
  -8.81000042       7.05136571E-08
  -8.80000019       7.11283690E-08
  -8.78999996       7.16774124E-08
  -8.77999973       7.21601552E-08
  -8.77000046       7.25764480E-08
  -8.76000023       7.29264684E-08
  -8.75000000       7.32108063E-08
  -8.73999977       7.34304066E-08
  -8.72999954       7.35865342E-08
  -8.72000027       7.36808872E-08
  -8.71000004       7.37153982E-08
  -8.69999981       7.36924690E-08
  -8.68999958       7.36148422E-08
  -8.68000031       7.34856656E-08
  -8.67000008       7.33084633E-08
  -8.65999985       7.30871221E-08
  -8.64999962       7.28257490E-08
  -8.64000034       7.25285929E-08
  -8.63000011       7.21999669E-08
  -8.61999989       7.18442905E-08
  -8.60999966       7.14658057E-08
  -8.60000038       7.10686905E-08
  -8.59000015       7.06570020E-08
  -8.57999992       7.02346199E-08
  -8.56999969       6.98054023E-08
  -8.56000042       6.93729092E-08
  -8.55000019       6.89406505E-08
  -8.53999996       6.85119588E-08
  -8.52999973       6.80899248E-08
  -8.52000046       6.76774832E-08
  -8.51000023       6.72774476E-08
  -8.50000000       6.68922908E-08
  -8.48999977       6.65244073E-08
  -8.47999954       6.61758790E-08
  -8.47000027       6.58485533E-08
  -8.46000004       6.55439720E-08
  -8.44999981       6.52633645E-08
  -8.43999958       6.50076117E-08
  -8.43000031       6.47773462E-08
  -8.42000008       6.45728591E-08
  -8.40999985       6.43940155E-08
  -8.39999962       6.42406448E-08
  -8.39000034       6.41124558E-08
  -8.38000011       6.40089297E-08
  -8.36999989       6.39294839E-08
  -8.35999966       6.38734150E-08
  -8.35000038       6.38398348E-08
  -8.34000015       6.38277484E-08
  -8.32999992       6.38359410E-08
  -8.31999969       6.38630695E-08
  -8.31000042       6.39077200E-08
  -8.30000019       6.39685069E-08
  -8.28999996       6.40442011E-08
  -8.27999973       6.41337436E-08
  -8.27000046       6.42363318E-08
  -8.26000023       6.43512621E-08
  -8.25000000       6.44780798E-08
  -8.23999977       6.46165645E-08
  -8.22999954       6.47664820E-08
  -8.22000027       6.49278320E-08
  -8.21000004       6.51006289E-08
  -8.19999981       6.52852421E-08
  -8.18999958       6.54824035E-08
  -8.18000031       6.56930297E-08
  -8.17000008       6.59186199E-08
  -8.15999985       6.61609931E-08
  -8.14999962       6.64224018E-08
  -8.14000034       6.67051907E-08
  -8.13000011       6.70119178E-08
  -8.11999989       6.73451765E-08
  -8.10999966       6.77075676E-08
  -8.10000038       6.81018477E-08
  -8.09000015       6.85307100E-08
  -8.07999992       6.89970392E-08
  -8.06999969       6.95037414E-08
  -8.06000042       7.00538010E-08
  -8.05000019       7.06503087E-08
  -8.03999996       7.12960144E-08
  -8.02999973       7.19935684E-08
  -8.02000046       7.27456353E-08
  -8.01000023       7.35542400E-08
  -8.00000000       7.44212798E-08
  -7.98999977       7.53485594E-08
  -7.98000002       7.63375283E-08
  -7.96999979       7.73895721E-08
  -7.96000004       7.85058560E-08
  -7.94999981       7.96873110E-08
  -7.94000006       8.09344414E-08
  -7.92999983       8.22474249E-08
  -7.92000008       8.36258707E-08
  -7.90999985       8.50689545E-08
  -7.90000010       8.65753620E-08
  -7.88999987       8.81435085E-08
  -7.88000011       8.97716532E-08
  -7.86999989       9.14577427E-08
  -7.86000013       9.31997164E-08
  -7.84999990       9.49952721E-08
  -7.84000015       9.68420721E-08
  -7.82999992       9.87376580E-08
  -7.82000017       1.00679188E-07
  -7.80999994       1.02663677E-07
  -7.80000019       1.04688041E-07
  -7.78999996       1.06748999E-07
  -7.78000021       1.08843345E-07
  -7.76999998       1.10967733E-07
  -7.76000023       1.13119270E-07
  -7.75000000       1.15294945E-07
  -7.73999977       1.17491965E-07
  -7.73000002       1.19707835E-07
  -7.71999979       1.21940005E-07
  -7.71000004       1.24186371E-07
  -7.69999981       1.26444760E-07
  -7.69000006       1.28713509E-07
  -7.67999983       1.30990898E-07
  -7.67000008       1.33275719E-07
  -7.65999985       1.35567021E-07
  -7.65000010       1.37864177E-07
  -7.63999987       1.40166435E-07
  -7.63000011       1.42473368E-07
  -7.61999989       1.44784565E-07
  -7.61000013       1.47099840E-07
  -7.59999990       1.49419208E-07
  -7.59000015       1.51742526E-07
  -7.57999992       1.54070037E-07
  -7.57000017       1.56402109E-07
  -7.55999994       1.58739127E-07
  -7.55000019       1.61081644E-07
  -7.53999996       1.63430187E-07
  -7.53000021       1.65785536E-07
  -7.51999998       1.68148631E-07
  -7.51000023       1.70520465E-07
  -7.50000000       1.72902219E-07
  -7.48999977       1.75295327E-07
  -7.48000002       1.77701750E-07
  -7.46999979       1.80123322E-07
  -7.46000004       1.82562133E-07
  -7.44999981       1.85020170E-07
  -7.44000006       1.87499481E-07