  -16.0000000       0.00000000    
  -15.9899998       0.00000000    
  -15.9799995       0.00000000    
  -15.9700003       0.00000000    
  -15.9600000       0.00000000    
  -15.9499998       0.00000000    
  -15.9399996       0.00000000    
  -15.9300003       0.00000000    
  -15.9200001       0.00000000    
  -15.9099998       0.00000000    
  -15.8999996       0.00000000    
  -15.8900003       1.36309907E-40
  -15.8800001       6.91695636E-39
  -15.8699999       1.20537452E-37
  -15.8599997       1.22221700E-36
  -15.8500004       8.60860417E-36
  -15.8400002       4.57000578E-35
  -15.8299999       1.89766608E-34
  -15.8199997       6.17319675E-34
  -15.8100004       1.47995841E-33
  -15.8000002       1.81905639E-33
  -15.7900000      -4.92642042E-33
  -15.7799997      -4.47608265E-32
  -15.7700005      -1.97926730E-31
  -15.7600002      -6.72179314E-31
  -15.7500000      -1.93117453E-30
  -15.7399998      -4.87180568E-30
  -15.7299995      -1.09775908E-29
  -15.7200003      -2.22469359E-29
  -15.7100000      -4.05202841E-29
  -15.6999998      -6.57004158E-29
  -15.6899996      -9.24820244E-29
  -15.6800003      -1.05885438E-28
  -15.6700001      -7.73820416E-29
  -15.6599998       3.44069160E-29
  -15.6499996       2.72494772E-28
  -15.6400003       6.54167720E-28
  -15.6300001       1.12722629E-27
  -15.6199999       1.52197818E-27
  -15.6099997       1.52881783E-27
  -15.6000004       7.45738563E-28
  -15.5900002      -1.16406981E-27
  -15.5799999      -4.20432048E-27
  -15.5699997      -7.74752775E-27
  -15.5600004      -1.03822885E-26
  -15.5500002      -1.01279109E-26
  -15.5400000      -5.15063463E-27
  -15.5299997       5.15387789E-27
  -15.5200005       1.92249054E-26
  -15.5100002       3.32972272E-26
  -15.5000000       4.27408783E-26
  -15.4899998       4.42712160E-26
  -15.4799995       3.71156529E-26
  -15.4700003       2.05280374E-26
  -15.4600000      -1.32475214E-26
  -15.4499998      -8.62456697E-26
  -15.4399996      -2.30669979E-25
  -15.4300003      -4.58046908E-25
  -15.4200001      -6.95263298E-25
  -15.4099998      -7.10450054E-25
  -15.3999996      -9.77753587E-26
  -15.3900003       1.57216369E-24
  -15.3800001       4.34926469E-24
  -15.3699999       7.29207559E-24
  -15.3599997       7.94899004E-24
  -15.3500004       2.53674218E-24
  -15.3400002      -1.24508686E-23
  -15.3299999      -3.68331179E-23
  -15.3199997      -6.22642927E-23
  -15.3100004      -6.91714326E-23
  -15.3000002      -2.92579517E-23
  -15.2900000       8.21333323E-23
  -15.2799997       2.62609296E-22
  -15.2700005       4.54377066E-22
  -15.2600002       5.27230453E-22
  -15.2500000       2.97373122E-22
  -15.2399998      -3.95140225E-22
  -15.2299995      -1.54756052E-21
  -15.2200003      -2.83257903E-21
  -15.2100000      -3.50462814E-21
  -15.1999998      -2.50362813E-21
  -15.1899996       1.13065613E-21
  -15.1800003       7.52794053E-21
  -15.1700001       1.51404845E-20
  -15.1599998       2.02316148E-20
  -15.1499996       1.73222687E-20
  -15.1400003       1.12982895E-21
  -15.1300001      -2.99688408E-20
  -15.1199999      -6.98501682E-20
  -15.1099997      -1.01948692E-19
  -15.1000004      -1.00721757E-19
  -15.0900002      -3.96844907E-20
  -15.0799999       9.36682071E-20
  -15.0699997       2.79605788E-19
  -15.0600004       4.52774731E-19
  -15.0500002       5.05125544E-19
  -15.0400000       3.15526597E-19
  -15.0299997      -1.91416470E-19
  -15.0200005      -9.69680464E-19
  -15.0100002      -1.78988298E-18
  -15.0000000      -2.23529865E-18
  -14.9899998      -1.79826501E-18
  -14.9799995      -9.28365675E-20
  -14.9700003       2.85343893E-18
  -14.9600000       6.33344071E-18
  -14.9499998       8.87994269E-18
  -14.9399996       8.53496950E-18
  -14.9300003       3.55318658E-18
  -14.9200001      -6.55198348E-18
  -14.9099998      -1.99475531E-17
  -14.8999996      -3.19450072E-17
  -14.8900003      -3.55898958E-17
  -14.8800001      -2.37668329E-17
  -14.8699999       7.32588456E-18
  -14.8599997       5.42557161E-17
  -14.8500004       1.03681101E-16
  -14.8400002       1.32980771E-16
  -14.8299999       1.15802030E-16
  -14.8199997       3.26516246E-17
  -14.8100004      -1.15730906E-16
  -14.8000002      -2.97089342E-16
  -14.7900000      -4.45020523E-16
  -14.7799997      -4.71030893E-16
  -14.7700005      -2.93635697E-16
  -14.7600002       1.19897659E-16
  -14.7500000       7.11788997E-16
  -14.7399998       1.31124342E-15
  -14.7299995       1.65163050E-15
  -14.7200003       1.44012690E-15
  -14.7100000       4.75309944E-16
  -14.6999998      -1.21571611E-15
  -14.6899996      -3.27197435E-15
  -14.6800003      -4.98749305E-15
  -14.6700001      -5.44569256E-15
  -14.6599998      -3.81143777E-15
  -14.6499996       2.69936060E-16
  -14.6400003       6.28755606E-15
  -14.6300001       1.26652186E-14
  -14.6199999       1.69181330E-14
  -14.6099997       1.62642811E-14
  -14.6000004       8.64132510E-15
  -14.5900002      -6.11183442E-15
  -14.5799999      -2.53243793E-14
  -14.5699997      -4.33069786E-14
  -14.5600004      -5.23094311E-14
  -14.5500002      -4.47269988E-14
  -14.5400000      -1.61970572E-14
  -14.5299997       3.12797477E-14
  -14.5200005       8.74264311E-14
  -14.5100002       1.34238446E-13
  -14.5000000       1.49778735E-13
  -14.4899998       1.15041860E-13
  -14.4799995       2.24358851E-14
  -14.4700003      -1.16753233E-13
  -14.4600000      -2.69176960E-13
  -14.4499998      -3.83372777E-13
  -14.4399996      -4.02050626E-13
  -14.4300003      -2.81201576E-13
  -14.4200001      -1.13928989E-14
  -14.4099998       3.65893649E-13
  -14.3999996       7.54717198E-13
  -14.3900003       1.01979547E-12
  -14.3800001       1.02131552E-12
  -14.3699999       6.63601281E-13
  -14.3599997      -5.52405039E-14
  -14.3500004      -1.01024581E-12
  -14.3400002      -1.95050898E-12
  -14.3299999      -2.54499004E-12
  -14.3199997      -2.47164051E-12
  -14.3100004      -1.53236571E-12
  -14.3000002       2.38274976E-13
  -14.2900000       2.51057031E-12
  -14.2799997       4.67936974E-12
  -14.2700005       5.98437749E-12
  -14.2600002       5.72003382E-12
  -14.2500000       3.48989566E-12
  -14.2399998      -5.68024631E-13
  -14.2299995      -5.66963664E-12
  -14.2200003      -1.04571655E-11
  -14.2100000      -1.32830630E-11
  -14.1999998      -1.26695408E-11
  -14.1899996      -7.83919631E-12
  -14.1800003       8.39625732E-13
  -14.1700001       1.16621383E-11
  -14.1599998       2.17803137E-11
  -14.1499996       2.78164540E-11
  -14.1400003       2.68047407E-11
  -14.1300001       1.72386081E-11
  -14.1199999      -8.71088751E-14
  -14.1099997      -2.17594328E-11
  -14.1000004      -4.21824173E-11
  -14.0900002      -5.48030683E-11
  -14.0799999      -5.39226580E-11
  -14.0699997      -3.66558173E-11
  -14.0600004      -4.45464629E-12
  -14.0500002       3.63737374E-11
  -14.0400000       7.55352378E-11
  -14.0299997       1.01025729E-10
  -14.0200005       1.02405799E-10
  -14.0100002       7.42673978E-11
  -14.0000000       1.88672133E-11
  -13.9899998      -5.30427126E-11
  -13.9799995      -1.23784136E-10
  -13.9700003      -1.72694983E-10
  -13.9600000      -1.81686166E-10
  -13.9499998      -1.41022874E-10
  -13.9399996      -5.36317310E-11
  -13.9300003       6.36124972E-11
  -13.9200001       1.82505427E-10
  -13.9099998       2.69889583E-10
  -13.8999996       2.96480118E-10
  -13.8900003       2.45890697E-10
  -13.8800001       1.21213387E-10
  -13.8699999      -5.31547618E-11
  -13.8599997      -2.35639480E-10
  -13.8500004      -3.77165632E-10
  -13.8400002      -4.34245917E-10
  -13.8299999      -3.82051307E-10
  -13.8199997      -2.23593519E-10
  -13.8100004       8.16028235E-12
  -13.8000002       2.56677318E-10
  -13.7900000       4.55805976E-10
  -13.7799997       5.47928203E-10
  -13.7700005       5.01334196E-10
  -13.7600002       3.21514204E-10
  -13.7500000       5.23580242E-11
  -13.7399998      -2.34082448E-10
  -13.7299995      -4.57229227E-10
  -13.7200003      -5.51851509E-10
  -13.7100000      -4.89156049E-10
  -13.6999998      -2.88211177E-10
  -13.6899996      -1.31320293E-11
  -13.6800003       2.44525289E-10
  -13.6700001       3.94056177E-10
  -13.6599998       3.76587428E-10
  -13.6499996       1.88921254E-10
  -13.6400003      -1.08490113E-10
  -13.6300001      -4.04166728E-10
  -13.6199999      -5.67518310E-10
  -13.6099997      -4.92339558E-10
  -13.6000004      -1.39330547E-10
  -13.5900002       4.36446934E-10
  -13.5799999       1.08459242E-09
  -13.5699997       1.58968072E-09
  -13.5600004       1.72858494E-09
  -13.5500002       1.34148015E-09
  -13.5400000       3.96840727E-10
  -13.5299997      -9.70546976E-10
  -13.5200005      -2.46478837E-09
  -13.5100002      -3.68322572E-09
  -13.5000000      -4.21230251E-09
  -13.4899998      -3.74409126E-09
  -13.4799995      -2.18344809E-09
  -13.4700003       2.86100255E-10
  -13.4600000       3.20273674E-09
  -13.4499998       5.90306959E-09
  -13.4399996       7.66559616E-09
  -13.4300003       7.89152388E-09
  -13.4200001       6.27949914E-09
  -13.4099998       2.94642555E-09
  -13.3999996      -1.54496860E-09
  -13.3900003      -6.27123420E-09
  -13.3800001      -1.01375672E-08
  -13.3699999      -1.21343078E-08
  -13.3599997      -1.16009131E-08
  -13.3500004      -8.42901215E-09
  -13.3400002      -3.14438164E-09
  -13.3299999       3.16671134E-09
  -13.3199997       9.08365205E-09
  -13.3100004       1.31858613E-08
  -13.3000002       1.44173811E-08
  -13.2900000       1.23873489E-08
  -13.2799997       7.51952367E-09
  -13.2700005       9.96034699E-10
  -13.2600002      -5.50893731E-09
  -13.2500000      -1.02527205E-08
  -13.2399998      -1.19033077E-08
  -13.2299995      -9.94655736E-09
  -13.2200003      -4.90050533E-09
  -13.2100000       1.74310300E-09
  -13.1999998       7.86219623E-09
  -13.1899996       1.12662963E-08
  -13.1800003       1.03420499E-08
  -13.1700001       4.60930361E-09
  -13.1599998      -4.97964114E-09
  -13.1499996      -1.61114802E-08
  -13.1400003      -2.55781423E-08
  -13.1300001      -3.00546503E-08
  -13.1199999      -2.70118825E-08
  -13.1099997      -1.55313895E-08
  -13.1000004       3.20769367E-09
  -13.0900002       2.59345860E-08
  -13.0799999       4.78357656E-08
  -13.0699997       6.35583532E-08
  -13.0600004       6.84543977E-08
  -13.0500002       5.97731571E-08
  -13.0400000       3.75001576E-08
  -13.0299997       4.61204674E-09
  -13.0200005      -3.33523715E-08
  -13.0100002      -6.93393218E-08
  -13.0000000      -9.62255271E-08
  -12.9899998      -1.08336714E-07
  -12.9799995      -1.02687899E-07
  -12.9700003      -7.96528354E-08
  -12.9600000      -4.29049933E-08
  -12.9499998       1.35553513E-09
  -12.9399996       4.57039668E-08
  -12.9300003       8.30130702E-08
  -12.9200001       1.07839867E-07
  -12.9099998       1.17362212E-07
  -12.8999996       1.11669976E-07
  -12.8900003       9.33776008E-08
  -12.8800001       6.66962805E-08
  -12.8699999       3.62339065E-08
  -12.8599997       5.85247273E-09
  -12.8500004      -2.21101040E-08
  -12.8400002      -4.70491734E-08
  -12.8299999      -6.96849298E-08
  -12.8199997      -9.11596558E-08
  -12.8100004      -1.11911241E-07
  -12.8000002      -1.30675545E-07
  -12.7900000      -1.43969828E-07
  -12.7799997      -1.46311763E-07
  -12.7700005      -1.31259867E-07
  -12.7600002      -9.31420985E-08
  -12.7500000      -2.91332878E-08
  -12.7399998       5.88175872E-08
  -12.7299995       1.62761523E-07
  -12.7200003       2.68704412E-07
  -12.7100000       3.58015853E-07
  -12.6999998       4.10259275E-07
  -12.6899996       4.07063482E-07
  -12.6800003       3.36338900E-07
  -12.6700001       1.95946939E-07
  -12.6599998      -4.07382128E-09
  -12.6499996      -2.41428495E-07
  -12.6400003      -4.83928659E-07
  -12.6300001      -6.94077244E-07
  -12.6199999      -8.35128617E-07
  -12.6099997      -8.77470029E-07
  -12.6000004      -8.04010028E-07
  -12.5900002      -6.13394775E-07
  -12.5799999      -3.20322101E-07
  -12.5699997       4.71422936E-08
  -12.5600004       4.52612909E-07
  -12.5500002       8.57590862E-07
  -12.5400000       1.22731080E-06
  -12.5299997       1.53480062E-06
  -12.5200005       1.76219714E-06
  -12.5100002       1.89911441E-06
  -12.5000000       1.93871324E-06
  -12.4899998       1.87281341E-06
  -12.4799995       1.68775023E-06
  -12.4700003       1.36254016E-06
  -12.4600000       8.70334418E-07
  -12.4499998       1.83174691E-07
  -12.4399996      -7.20937976E-07
  -12.4300003      -1.85051294E-06
  -12.4200001      -3.19475748E-06
  -12.4099998      -4.72147485E-06
  -12.3999996      -6.37976154E-06
  -12.3900003      -8.10737311E-06
  -12.3800001      -9.84125018E-06
  -12.3699999      -1.15286057E-05
  -12.3599997      -1.31355109E-05
  -12.3500004      -1.46502198E-05
  -12.3400002      -1.60796517E-05
  -12.3299999      -1.74390862E-05
  -12.3199997      -1.87370333E-05
  -12.3100004      -1.99588194E-05
  -12.3000002      -2.10531671E-05
  -12.2900000      -2.19258654E-05
  -12.2799997      -2.24432970E-05
  -12.2700005      -2.24464311E-05
  -12.2600002      -2.17734541E-05
  -12.2500000      -2.02869560E-05
  -12.2399998      -1.79001727E-05
  -12.2299995      -1.45966433E-05
  -12.2200003      -1.04388082E-05
  -12.2100000      -5.56337272E-06
  -12.1999998      -1.64078941E-07
  -12.1899996       5.53443897E-06
  -12.1800003       1.13062979E-05
  -12.1700001       1.69510949E-05
  -12.1599998       2.23122461E-05
  -12.1499996       2.72836114E-05
  -12.1400003       3.18038146E-05
  -12.1300001       3.58410398E-05
  -12.1199999       3.93731862E-05
  -12.1099997       4.23694073E-05
  -12.1000004       4.47787024E-05
  -12.0900002       4.65290505E-05
  -12.0799999       4.75378765E-05
  -12.0699997       4.77314898E-05
  -12.0600004       4.70684790E-05
  -12.0500002       4.55610680E-05
  -12.0400000       4.32882334E-05
  -12.0299997       4.03967424E-05
  -12.0200005       3.70884045E-05
  -12.0100002       3.35955592E-05
  -12.0000000       3.01490581E-05
  -11.9899998       2.69450538E-05
  -11.9799995       2.41169619E-05
  -11.9700003       2.17177640E-05
  -11.9600000       1.97158824E-05
  -11.9499998       1.80047609E-05
  -11.9399996       1.64239264E-05
  -11.9300003       1.47871451E-05
  -11.9200001       1.29123473E-05
  -11.9099998       1.06482130E-05
  -11.8999996       7.89321984E-06
  -11.8900003       4.60489628E-06
  -11.8800001       7.98713359E-07
  -11.8699999      -3.46189086E-06
  -11.8599997      -8.08162258E-06
  -11.8500004      -1.29520304E-05
  -11.8400002      -1.79691087E-05
  -11.8299999      -2.30465976E-05
  -11.8199997      -2.81228040E-05
  -11.8100004      -3.31598931E-05
  -11.8000002      -3.81363461E-05
  -11.7900000      -4.30341752E-05
  -11.7799997      -4.78240800E-05
  -11.7700005      -5.24518655E-05
  -11.7600002      -5.68295582E-05
  -11.7500000      -6.08339906E-05
  -11.7399998      -6.43139429E-05
  -11.7299995      -6.71056550E-05
  -11.7200003      -6.90539746E-05
  -11.7100000      -7.00360251E-05
  -11.6999998      -6.99819138E-05
  -11.6899996      -6.88889413E-05
  -11.6800003      -6.68253415E-05
  -11.6700001      -6.39221762E-05
  -11.6599998      -6.03545595E-05
  -11.6499996      -5.63147987E-05
  -11.6400003      -5.19827227E-05
  -11.6300001      -4.74985645E-05
  -11.6199999      -4.29437059E-05
  -11.6099997      -3.83331135E-05
  -11.6000004      -3.36210069E-05
  -11.5900002      -2.87186067E-05
  -11.5799999      -2.35205134E-05
  -11.5699997      -1.79344206E-05
  -11.5600004      -1.19082533E-05
  -11.5500002      -5.44934892E-06
  -11.5400000       1.36802953E-06
  -11.5299997       8.40816028E-06
  -11.5200005       1.54909212E-05
  -11.5100002       2.24168107E-05
  -11.5000000       2.89946693E-05
  -11.4899998       3.50668306E-05
  -11.4799995       4.05270875E-05
  -11.4700003       4.53288631E-05
  -11.4600000       4.94834967E-05
  -11.4499998       5.30505713E-05
  -11.4399996       5.61238448E-05
  -11.4300003       5.88168332E-05
  -11.4200001       6.12510412E-05
  -11.4099998       6.35485994E-05
  -11.3999996       6.58285062E-05
  -11.3900003       6.82046229E-05
  -11.3800001       7.07821091E-05
  -11.3699999       7.36500879E-05
  -11.3599997       7.68694954E-05
  -11.3500004       8.04573356E-05
  -11.3400002       8.43708331E-05
  -11.3299999       8.84959809E-05
  -11.3199997       9.26453286E-05
  -11.3100004       9.65675354E-05
  -11.3000002       9.99695549E-05
  -11.2900000       1.02548322E-04
  -11.2799997       1.04026905E-04
  -11.2700005       1.04188752E-04
  -11.2600002       1.02903665E-04
  -11.2500000       1.00141682E-04
  -11.2399998       9.59734680E-05
  -11.2299995       9.05587949E-05
  -11.2200003       8.41267174E-05
  -11.2100000       7.69520047E-05
  -11.1999998       6.93313632E-05
  -11.1899996       6.15618119E-05
  -11.1800003       5.39217253E-05
  -11.1700001       4.66538186E-05
  -11.1599998       3.99496348E-05
  -11.1499996       3.39357357E-05
  -11.1400003       2.86637223E-05
  -11.1300001       2.41073012E-05
  -11.1199999       2.01696766E-05
  -11.1099997       1.67034505E-05
  -11.1000004       1.35420323E-05
  -11.0900002       1.05380559E-05
  -11.0799999       7.60142666E-06
  -11.0699997       4.72767761E-06
  -11.0600004       2.00868908E-06
  -11.0500002      -3.78970753E-07
  -11.0400000      -2.20751735E-06
  -11.0299997      -3.24681741E-06
  -11.0200005      -3.31814545E-06
  -11.0100002      -2.34001391E-06
  -11.0000000      -3.54656606E-07
  -10.9899998       2.47172125E-06
  -10.9799995       5.87596742E-06
  -10.9700003       9.54643201E-06
  -10.9600000       1.31823572E-05
  -10.9499998       1.65507790E-05
  -10.9399996       1.95287921E-05
  -10.9300003       2.21218797E-05
  -10.9200001       2.44552612E-05
  -10.9099998       2.67401610E-05
  -10.8999996       2.92225814E-05
  -10.8900003       3.21249827E-05
  -10.8800001       3.55925222E-05
  -10.8699999       3.96543473E-05
  -10.8599997       4.42078272E-05
  -10.8500004       4.90290695E-05
  -10.8400002       5.38088134E-05
  -10.8299999       5.82079920E-05
  -10.8199997       6.19227285E-05
  -10.8100004       6.47463457E-05
  -10.8000002       6.66143678E-05
  -10.7900000       6.76208510E-05
  -10.7799997       6.79993536E-05
  -10.7700005       6.80684752E-05
  -10.7600002       6.81514066E-05
  -10.7500000       6.84854022E-05
  -10.7399998       6.91433306E-05
  -10.7299995       6.99882803E-05
  -10.7200003       7.06771534E-05
  -10.7100000       7.07184299E-05
  -10.6999998       6.95757262E-05
  -10.6899996       6.67961867E-05
  -10.6800003       6.21342406E-05
  -10.6700001       5.56396808E-05
  -10.6599998       4.76859932E-05
  -10.6499996       3.89281122E-05
  -10.6400003       3.01964756E-05
  -10.6300001       2.23495226E-05
  -10.6199999       1.61185890E-05
  -10.6099997       1.19801553E-05
  -10.6000004       1.00843590E-05
  -10.5900002       1.02534777E-05
  -10.5799999       1.20469285E-05
  -10.5699997       1.48731260E-05
  -10.5600004       1.81187097E-05
  -10.5500002       2.12640352E-05
  -10.5400000       2.39605179E-05
  -10.5299997       2.60583220E-05
  -10.5200005       2.75861366E-05
  -10.5100002       2.86975555E-05
  -10.5000000       2.96035269E-05
  -10.4899998       3.05098911E-05
  -10.4799995       3.15738289E-05
  -10.4700003       3.28837268E-05
  -10.4600000       3.44594337E-05
  -10.4499998       3.62660794E-05
  -10.4399996       3.82331200E-05
  -10.4300003       4.02736878E-05
  -10.4200001       4.23029705E-05
  -10.4099998       4.42562778E-05
  -10.3999996       4.61077507E-05
  -10.3900003       4.78870934E-05
  -10.3800001       4.96885295E-05
  -10.3699999       5.16626787E-05
  -10.3599997       5.39849207E-05
  -10.3500004       5.67985080E-05
  -10.3400002       6.01412794E-05
  -10.3299999       6.38746642E-05
  -10.3199997       6.76387353E-05
  -10.3100004       7.08584994E-05
  -10.3000002       7.28142550E-05
  -10.2900000       7.27743973E-05
  -10.2799997       7.01681638E-05
  -10.2700005       6.47594643E-05
  -10.2600002       5.67749339E-05
  -10.2500000       4.69458246E-05
  -10.2399998       3.64390144E-05
  -10.2299995       2.66811276E-05
  -10.2200003       1.91069976E-05
  -10.2100000       1.48867775E-05
  -10.1999998       1.46945104E-05
  -10.1899996       1.85735717E-05
  -10.1800003       2.59325188E-05
  -10.1700001       3.56722958E-05
  -10.1599998       4.64144105E-05
  -10.1499996       5.67745192E-05
  -10.1400003       6.56174088E-05
  -10.1300001       7.22364421E-05
  -10.1199999       7.64230863E-05
  -10.1099997       7.84213844E-05
  -10.1000004       7.87921235E-05
  -10.0900002       7.82313655E-05
  -10.0799999       7.73938955E-05
  -10.0699997       7.67655147E-05
  -10.0600004       7.66073645E-05
  -10.0500002       7.69733815E-05
  -10.0400000       7.77796595E-05
  -10.0299997       7.88936086E-05
  -10.0200005       8.02092691E-05
  -10.0100002       8.16854808E-05
  -10.0000000       8.33392915E-05
  -9.98999977       8.52044541E-05
  -9.97999954       8.72770397E-05
  -9.97000027       8.94724217E-05
  -9.96000004       9.16143836E-05
  -9.94999981       9.34634518E-05
  -9.93999958       9.47769367E-05
  -9.93000031       9.53832714E-05
  -9.92000008       9.52448027E-05
  -9.90999985       9.44884305E-05
  -9.89999962       9.33923802E-05
  -9.89000034       9.23311309E-05
  -9.88000011       9.16934514E-05
  -9.86999989       9.17987709E-05
  -9.85999966       9.28356967E-05
  -9.85000038       9.48431916E-05
  -9.84000015       9.77392192E-05
  -9.82999992       1.01389072E-04
  -9.81999969       1.05693180E-04
  -9.81000042       1.10665424E-04
  -9.80000019       1.16477786E-04
  -9.78999996       1.23452977E-04
  -9.77999973       1.32005080E-04
  -9.77000046       1.42540186E-04
  -9.76000023       1.55344023E-04
  -9.75000000       1.70488711E-04
  -9.73999977       1.87785816E-04
  -9.72999954       2.06802084E-04
  -9.72000027       2.26935517E-04
  -9.71000004       2.47534277E-04
  -9.69999981       2.68025848E-04
  -9.68999958       2.88019597E-04
  -9.68000031       3.07353941E-04
  -9.67000008       3.26071866E-04
  -9.65999985       3.44330707E-04
  -9.64999962       3.62270075E-04
  -9.64000034       3.79876496E-04
  -9.63000011       3.96884949E-04
  -9.61999989       4.12750320E-04
  -9.60999966       4.26701095E-04
  -9.60000038       4.37867217E-04
  -9.59000015       4.45448793E-04
  -9.57999992       4.48884035E-04
  -9.56999969       4.47967643E-04
  -9.56000042       4.42887685E-04
  -9.55000019       4.34166403E-04
  -9.53999996       4.22519486E-04
  -9.52999973       4.08668129E-04
  -9.52000046       3.93154391E-04
  -9.51000023       3.76207900E-04
  -9.50000000       3.57702869E-04
  -9.48999977       3.37217003E-04
  -9.47999954       3.14180623E-04
  -9.47000027       2.88077252E-04
  -9.46000004       2.58646702E-04
  -9.44999981       2.26037664E-04
  -9.43999958       1.90869163E-04
  -9.43000031       1.54186448E-04
  -9.42000008       1.17317541E-04
  -9.40999985       8.16672109E-05
  -9.39999962       4.84933844E-05
  -9.39000034       1.87199585E-05
  -9.38000011      -7.17238254E-06
  -9.36999989      -2.91566776E-05
  -9.35999966      -4.75733577E-05
  -9.35000038      -6.29728966E-05
  -9.34000015      -7.59285176E-05
  -9.32999992      -8.68641873E-05
  -9.31999969      -9.59387035E-05
  -9.31000042      -1.03004830E-04
  -9.30000019      -1.07646170E-04
  -9.28999996      -1.09273693E-04
  -9.27999973      -1.07248772E-04
  -9.27000046      -1.00998295E-04
  -9.26000023      -9.00963787E-05
  -9.25000000      -7.42978737E-05
  -9.23999977      -5.35305480E-05
  -9.22999954      -2.78629268E-05
  -9.22000027       2.52872860E-06
  -9.21000004       3.73748517E-05
  -9.19999981       7.63004573E-05
  -9.18999958       1.18796124E-04
  -9.18000031       1.64190773E-04
  -9.17000008       2.11651481E-04
  -9.15999985       2.60227884E-04
  -9.14999962       3.08943505E-04
  -9.14000034       3.56916804E-04
  -9.13000011       4.03479935E-04
  -9.11999989       4.48256527E-04
  -9.10999966       4.91169048E-04
  -9.10000038       5.32365870E-04
  -9.09000015       5.72084798E-04
  -9.07999992       6.10493822E-04
  -9.06999969       6.47557026E-04
  -9.06000042       6.82973536E-04
  -9.05000019       7.16209761E-04
  -9.03999996       7.46615813E-04
  -9.02999973       7.73586682E-04
  -9.02000046       7.96710839E-04
  -9.01000023       8.15851556E-04
  -9.00000000       8.31130892E-04
  -8.98999977       8.42820038E-04
  -8.97999954       8.51179357E-04
  -8.97000027       8.56308674E-04
  -8.96000004       8.58074869E-04
  -8.94999981       8.56148079E-04
  -8.93999958       8.50146462E-04
  -8.93000031       8.39836313E-04
  -8.92000008       8.25312862E-04
  -8.90999985       8.07079952E-04
  -8.89999962       7.85981829E-04
  -8.89000034       7.62992247E-04
  -8.88000011       7.38917850E-04
  -8.86999989       7.14116206E-04
  -8.85999966       6.88333239E-04
  -8.85000038       6.60736579E-04
  -8.84000015       6.30152179E-04
  -8.82999992       5.95450052E-04
  -8.81999969       5.55959705E-04
  -8.81000042       5.11782710E-04
  -8.80000019       4.63893812E-04
  -8.78999996       4.13989852E-04
  -8.77999973       3.64123669E-04
  -8.77000046       3.16241174E-04
  -8.76000023       2.71765399E-04
  -8.75000000       2.31363490E-04
  -8.73999977       1.94965585E-04
  -8.72999954       1.62015102E-04
  -8.72000027       1.31854948E-04
  -8.71000004       1.04099912E-04
  -8.69999981       7.88543257E-05
  -8.68999958       5.66964882E-05
  -8.68000031       3.84375235E-05
  -8.67000008       2.47510434E-05
  -8.65999985       1.58255589E-05
  -8.64999962       1.11901063E-05
  -8.64000034       9.79628476E-06
  -8.63000011       1.03548346E-05
  -8.61999989       1.18140788E-05
  -8.60999966       1.38140776E-05
  -8.60000038       1.69413761E-05
  -8.59000015       2.26722259E-05
  -8.57999992       3.29995637E-05
  -8.56999969       4.98481604E-05
  -8.56000042       7.44660429E-05
  -8.55000019       1.06995249E-04
  -8.53999996       1.46366016E-04
  -8.52999973       1.90552804E-04
  -8.52000046       2.37112385E-04
  -8.51000023       2.83813424E-04
  -8.50000000       3.29154223E-04
  -8.48999977       3.72592214E-04
  -8.47999954       4.14422044E-04
  -8.47000027       4.55363159E-04
  -8.46000004       4.96022112E-04
  -8.44999981       5.36436390E-04
  -8.43999958       5.75877319E-04
  -8.43000031       6.12985634E-04
  -8.42000008       6.46189088E-04
  -8.40999985       6.74247975E-04
  -8.39999962       6.96713105E-04
  -8.39000034       7.14121736E-04
  -8.38000011       7.27843726E-04
  -8.36999989       7.39627809E-04
  -8.35999966       7.51002692E-04
  -8.35000038       7.62753538E-04
  -8.34000015       7.74669461E-04
  -8.32999992       7.85653829E-04
  -8.31999969       7.94170250E-04
  -8.31000042       7.98856548E-04
  -8.30000019       7.99088564E-04
  -8.28999996       7.95280968E-04
  -8.27999973       7.88807520E-04
  -8.27000046       7.81562121E-04
  -8.26000023       7.75316672E-04
  -8.25000000       7.71101564E-04
  -8.23999977       7.68844038E-04
  -8.22999954       7.67392456E-04
  -8.22000027       7.64938595E-04
  -8.21000004       7.59686169E-04
  -8.19999981       7.50539009E-04
  -8.18999958       7.37554859E-04
  -8.18000031       7.22016615E-04
  -8.17000008       7.06073479E-04
  -8.15999985       6.92090194E-04
  -8.14999962       6.81922655E-04
  -8.14000034       6.76378375E-04
  -8.13000011       6.75046467E-04
  -8.11999989       6.76558644E-04
  -8.10999966       6.79184159E-04
  -8.10000038       6.81540812E-04
  -8.09000015       6.83172315E-04
  -8.07999992       6.84777391E-04
  -8.06999969       6.88008731E-04
  -8.06000042       6.94908493E-04
  -8.05000019       7.07178318E-04
  -8.03999996       7.25542137E-04
  -8.02999973       7.49430445E-04
  -8.02000046       7.77099049E-04
  -8.01000023       8.06153635E-04
  -8.00000000       8.34295875E-04
  -7.98999977       8.60044500E-04
  -7.98000002       8.83183035E-04
  -7.96999979       9.04780754E-04
  -7.96000004       9.26779292E-04
  -7.94999981       9.51293798E-04
  -7.94000006       9.79855657E-04
  -7.92999983       1.01286580E-03
  -7.92000008       1.04942988E-03
  -7.90999985       1.08763389E-03
  -7.90000010       1.12515339E-03
  -7.88999987       1.15998951E-03
  -7.88000011       1.19106984E-03
  -7.86999989       1.21851766E-03
  -7.86000013       1.24349562E-03
  -7.84999990       1.26768369E-03
  -7.84000015       1.29257911E-03
  -7.82999992       1.31886231E-03
  -7.82000017       1.34605507E-03
  -7.80999994       1.37259276E-03
  -7.80000019       1.39629573E-03
  -7.78999996       1.41508062E-03
  -7.78000021       1.42767199E-03
  -7.76999998       1.43407390E-03
  -7.76000023       1.43563142E-03
  -7.75000000       1.43465307E-03
  -7.73999977       1.43371453E-03
  -7.73000002       1.43486622E-03
  -7.71999979       1.43899932E-03
  -7.71000004       1.44558982E-03
  -7.69999981       1.45289849E-03
  -7.69000006       1.45856815E-03
  -7.67999983       1.46042742E-03
  -7.67000008       1.45723764E-03
  -7.65999985       1.44914351E-03
  -7.65000010       1.43768510E-03
  -7.63999987       1.42535893E-03
  -7.63000011       1.41488784E-03
  -7.61999989       1.40841713E-03
  -7.61000013       1.40691258E-03
  -7.59999990       1.40992936E-03
  -7.59000015       1.41583337E-03
  -7.57999992       1.42238324E-03
  -7.57000017       1.42747210E-03
  -7.55999994       1.42978982E-03
  -7.55000019       1.42919749E-03
  -7.53999996       1.42669457E-03
  -7.53000021       1.42402144E-03
  -7.51999998       1.42303528E-03
  -7.51000023       1.42508512E-03
  -7.50000000       1.43060030E-03
  -7.48999977       1.43901852E-03
  -7.48000002       1.44907250E-03
  -7.46999979       1.45931833E-03
  -7.46000004       1.46872248E-03
  -7.44999981       1.47709332E-03
  -7.44000006       1.48522411E-03