  -16.0000000       0.00000000    
  -15.9899998       0.00000000    
  -15.9799995       0.00000000    
  -15.9700003       0.00000000    
  -15.9600000       0.00000000    
  -15.9499998       0.00000000    
  -15.9399996       0.00000000    
  -15.9300003       0.00000000    
  -15.9200001       0.00000000    
  -15.9099998       0.00000000    
  -15.8999996       0.00000000    
  -15.8900003       0.00000000    
  -15.8800001      -5.50277295E-40
  -15.8699999       1.33192368E-38
  -15.8599997       4.40460842E-37
  -15.8500004       5.57878541E-36
  -15.8400002       4.51464734E-35
  -15.8299999       2.71105777E-34
  -15.8199997       1.29818070E-33
  -15.8100004       5.16475961E-33
  -15.8000002       1.74969395E-32
  -15.7900000       5.11533411E-32
  -15.7799997       1.29461178E-31
  -15.7700005       2.80672786E-31
  -15.7600002       5.01789574E-31
  -15.7500000       6.50148199E-31
  -15.7399998       2.07239372E-31
  -15.7299995      -2.11467898E-30
  -15.7200003      -8.82543103E-30
  -15.7100000      -2.37756699E-29
  -15.6999998      -5.10785570E-29
  -15.6899996      -9.15102845E-29
  -15.6800003      -1.35116480E-28
  -15.6700001      -1.50159835E-28
  -15.6599998      -7.22149160E-29
  -15.6499996       1.96620054E-28
  -15.6400003       7.61368015E-28
  -15.6300001       1.66032841E-27
  -15.6199999       2.73196052E-27
  -15.6099997       3.44145616E-27
  -15.6000004       2.74673124E-27
  -15.5900002      -8.29994243E-28
  -15.5799999      -8.67849070E-27
  -15.5699997      -2.08817044E-26
  -15.5600004      -3.42773961E-26
  -15.5500002      -4.03610359E-26
  -15.5400000      -2.45975428E-26
  -15.5299997       3.01318920E-26
  -15.5200005       1.32784346E-25
  -15.5100002       2.64818757E-25
  -15.5000000       3.56975928E-25
  -15.4899998       2.77566232E-25
  -15.4799995      -1.40224550E-25
  -15.4700003      -1.00049779E-24
  -15.4600000      -2.16453710E-24
  -15.4499998      -3.03556556E-24
  -15.4399996      -2.45314935E-24
  -15.4300003       1.05845757E-24
  -15.4200001       8.43045789E-24
  -15.4099998       1.85189294E-23
  -15.3999996       2.63515514E-23
  -15.3900003       2.23636529E-23
  -15.3800001      -5.48278208E-24
  -15.3699999      -6.48822317E-23
  -15.3599997      -1.47537184E-22
  -15.3500004      -2.16320554E-22
  -15.3400002      -2.00107733E-22
  -15.3299999      -9.24413714E-24
  -15.3199997       4.16858260E-22
  -15.3100004       1.03049367E-21
  -15.3000002       1.58989435E-21
  -15.2900000       1.62385450E-21
  -15.2799997       5.26526663E-22
  -15.2700005      -2.15001306E-21
  -15.2600002      -6.21129680E-21
  -15.2500000      -1.02924646E-20
  -15.2399998      -1.16126820E-20
  -15.2299995      -6.45970261E-21
  -15.2200003       8.21843036E-21
  -15.2100000       3.21312364E-20
  -15.1999998       5.86358157E-20
  -15.1899996       7.30792099E-20
  -15.1800003       5.48090908E-20
  -15.1700001      -1.51386217E-20
  -15.1599998      -1.40532945E-19
  -15.1499996      -2.94040762E-19
  -15.1400003      -4.06768755E-19
  -15.1300001      -3.74353123E-19
  -15.1199999      -8.97943458E-20
  -15.1099997       4.94619265E-19
  -15.1000004       1.28953280E-18
  -15.0900002       2.00815568E-18
  -15.0799999       2.17261759E-18
  -15.0699997       1.23594887E-18
  -15.0600004      -1.16050173E-18
  -15.0500002      -4.83677981E-18
  -15.0400000      -8.75838106E-18
  -15.0299997      -1.09570553E-17
  -15.0200005      -8.90763257E-18
  -15.0100002      -4.87875003E-19
  -15.0000000       1.45789690E-17
  -14.9899998       3.32312730E-17
  -14.9799995       4.82874491E-17
  -14.9700003       4.92857436E-17
  -14.9600000       2.56231007E-17
  -14.9499998      -2.80715752E-17
  -14.9399996      -1.05593437E-16
  -14.9300003      -1.84441199E-16
  -14.9200001      -2.26179370E-16
  -14.9099998      -1.85007772E-16
  -14.8999996      -2.55511806E-17
  -14.8900003       2.53048764E-16
  -14.8800001       5.94568636E-16
  -14.8699999       8.76560939E-16
  -14.8599997       9.27277461E-16
  -14.8500004       5.76405232E-16
  -14.8400002      -2.64103523E-16
  -14.8299999      -1.50918253E-15
  -14.8199997      -2.83619919E-15
  -14.8100004      -3.69195065E-15
  -14.8000002      -3.40884789E-15
  -14.7900000      -1.43937198E-15
  -14.7799997       2.33059570E-15
  -14.7700005       7.28596227E-15
  -14.7600002       1.19448552E-14
  -14.7500000       1.41254221E-14
  -14.7399998       1.15069223E-14
  -14.7299995       2.55052102E-15
  -14.7200003      -1.24278749E-14
  -14.7100000      -3.04115897E-14
  -14.6999998      -4.55375077E-14
  -14.6899996      -5.00651292E-14
  -14.6800003      -3.66124266E-14
  -14.6700001      -1.35844921E-15
  -14.6599998       5.26303312E-14
  -14.6499996       1.13244300E-13
  -14.6400003       1.59773277E-13
  -14.6300001       1.66990526E-13
  -14.6199999       1.12943787E-13
  -14.6099997      -1.09236876E-14
  -14.6000004      -1.90233639E-13
  -14.5900002      -3.82689242E-13
  -14.5799999      -5.21585921E-13
  -14.5699997      -5.30188306E-13
  -14.5600004      -3.46188681E-13
  -14.5500002       4.86904591E-14
  -14.5400000       6.02890188E-13
  -14.5299997       1.18419760E-12
  -14.5200005       1.59408012E-12
  -14.5100002       1.61213111E-12
  -14.5000000       1.06650268E-12
  -14.4899998      -8.48650983E-14
  -14.4799995      -1.68718544E-12
  -14.4700003      -3.36534251E-12
  -14.4600000      -4.56894288E-12
  -14.4499998      -4.69587433E-12
  -14.4399996      -3.28042758E-12
  -14.4300003      -2.04419638E-13
  -14.4200001       4.13307886E-12
  -14.4099998       8.76032753E-12
  -14.3999996       1.22510856E-11
  -14.3900003       1.30370671E-11
  -14.3800001       9.87688143E-12
  -14.3699999       2.37852966E-12
  -14.3599997      -8.57942536E-12
  -14.3500004      -2.06999660E-11
  -14.3400002      -3.05307307E-11
  -14.3299999      -3.41854427E-11
  -14.3199997      -2.84372578E-11
  -14.3100004      -1.19509767E-11
  -14.3000002       1.36946669E-11
  -14.2900000       4.35820269E-11
  -14.2799997       6.99406366E-11
  -14.2700005       8.36641173E-11
  -14.2600002       7.66904734E-11
  -14.2500000       4.47623535E-11
  -14.2399998      -1.01695943E-11
  -14.2299995      -7.87328050E-11
  -14.2200003      -1.44806403E-10
  -14.2100000      -1.88397450E-10
  -14.1999998      -1.90454041E-10
  -14.1899996      -1.38700898E-10
  -14.1800003      -3.30384088E-11
  -14.1700001       1.11194602E-10
  -14.1599998       2.63594424E-10
  -14.1499996       3.83507198E-10
  -14.1400003       4.28990898E-10
  -14.1300001       3.68354347E-10
  -14.1199999       1.91587954E-10
  -14.1099997      -8.15987347E-11
  -14.1000004      -4.00199596E-10
  -14.0900002      -6.88718194E-10
  -14.0799999      -8.62332039E-10
  -14.0699997      -8.48021098E-10
  -14.0600004      -6.07079886E-10
  -14.0500002      -1.53066490E-10
  -14.0400000       4.40720682E-10
  -14.0299997       1.04844766E-09
  -14.0200005       1.51462964E-09
  -14.0100002       1.68956060E-09
  -14.0000000       1.47010637E-09
  -13.9899998       8.35844172E-10
  -13.9799995      -1.30067179E-10
  -13.9700003      -1.24367283E-09
  -13.9600000      -2.25014762E-09
  -13.9499998      -2.87759994E-09
  -13.9399996      -2.90449886E-09
  -13.9300003      -2.22508745E-09
  -13.9200001      -8.95133190E-10
  -13.9099998       8.57192539E-10
  -13.8999996       2.66354094E-09
  -13.8900003       4.08871870E-09
  -13.8800001       4.73185624E-09
  -13.8699999       4.33283587E-09
  -13.8599997       2.85679413E-09
  -13.8500004       5.31651945E-10
  -13.8400002      -2.17729035E-09
  -13.8299999      -4.65699213E-09
  -13.8199997      -6.28498542E-09
  -13.8100004      -6.58594246E-09
  -13.8000002      -5.36758549E-09
  -13.7900000      -2.79792833E-09
  -13.7799997       6.02867756E-10
  -13.7700005       4.06302325E-09
  -13.7600002       6.73513334E-09
  -13.7500000       7.90874832E-09
  -13.7399998       7.20670723E-09
  -13.7299995       4.71133266E-09
  -13.7200003       9.79811676E-10
  -13.7100000      -3.06609405E-09
  -13.6999998      -6.35848041E-09
  -13.6899996      -7.96128496E-09
  -13.6800003      -7.33818606E-09
  -13.6700001      -4.53644544E-09
  -13.6599998      -2.28069813E-10
  -13.6499996       4.41754278E-09
  -13.6400003       8.01213851E-09
  -13.6300001       9.31804500E-09
  -13.6199999       7.61722152E-09
  -13.6099997       2.97897396E-09
  -13.6000004      -3.65801500E-09
  -13.5900002      -1.06328040E-08
  -13.5799999      -1.59250835E-08
  -13.5699997      -1.76614190E-08
  -13.5600004      -1.46462957E-08
  -13.5500002      -6.78014578E-09
  -13.5400000       4.75877249E-09
  -13.5299997       1.76431101E-08
  -13.5200005       2.88373663E-08
  -13.5100002       3.52722971E-08
  -13.5000000       3.46060141E-08
  -13.4899998       2.58884203E-08
  -13.4799995       9.95282878E-09
  -13.4700003      -1.05890239E-08
  -13.4600000      -3.17831486E-08
  -13.4499998      -4.91302892E-08
  -13.4399996      -5.85769371E-08
  -13.4300003      -5.74727572E-08
  -13.4200001      -4.52584707E-08
  -13.4099998      -2.37000801E-08
  -13.3999996       3.41229867E-09
  -13.3900003       3.10524833E-08
  -13.3800001       5.40580487E-08
  -13.3699999       6.82788155E-08
  -13.3599997       7.14855801E-08
  -13.3500004       6.38019060E-08
  -13.3400002       4.75385740E-08
  -13.3299999       2.64680775E-08
  -13.3199997       4.73287942E-09
  -13.3100004      -1.43065106E-08
  -13.3000002      -2.89443118E-08
  -13.2900000      -3.94468529E-08
  -13.2799997      -4.76868429E-08
  -13.2700005      -5.61667761E-08
  -13.2600002      -6.67025617E-08
  -13.2500000      -7.91765231E-08
  -13.2399998      -9.08008317E-08
  -13.2299995      -9.62353823E-08
  -13.2200003      -8.86906193E-08
  -13.2100000      -6.18639646E-08
  -13.1999998      -1.22798136E-08
  -13.1899996       5.85924838E-08
  -13.1800003       1.43113212E-07
  -13.1700001       2.27674278E-07
  -13.1599998       2.94558845E-07
  -13.1499996       3.25279274E-07
  -13.1400003       3.04794270E-07
  -13.1300001       2.25688879E-07
  -13.1199999       9.12806684E-08
  -13.1099997      -8.32564169E-08
  -13.1000004      -2.72285888E-07
  -13.0900002      -4.43609309E-07
  -13.0799999      -5.64265918E-07
  -13.0699997      -6.07116476E-07
  -13.0600004      -5.56813575E-07
  -13.0500002      -4.13791582E-07
  -13.0400000      -1.95263183E-07
  -13.0299997       6.71746321E-08
  -13.0200005       3.32973286E-07
  -13.0100002       5.60055128E-07
  -13.0000000       7.12680844E-07
  -12.9899998       7.68077200E-07
  -12.9799995       7.20372611E-07
  -12.9700003       5.80992150E-07
  -12.9600000       3.75456040E-07
  -12.9499998       1.37375736E-07
  -12.9399996      -9.88991715E-08
  -12.9300003      -3.05204566E-07
  -12.9200001      -4.64385295E-07
  -12.9099998      -5.71879980E-07
  -12.8999996      -6.33752393E-07
  -12.8900003      -6.61801607E-07
  -12.8800001      -6.67183542E-07
  -12.8699999      -6.54445728E-07
  -12.8599997      -6.17868750E-07
  -12.8500004      -5.41481086E-07
  -12.8400002      -4.03190541E-07
  -12.8299999      -1.82351371E-07
  -12.8199997       1.30964040E-07
  -12.8100004       5.27416262E-07
  -12.8000002       9.73139322E-07
  -12.7900000       1.40982661E-06
  -12.7799997       1.76114781E-06
  -12.7700005       1.94501945E-06
  -12.7600002       1.88977208E-06
  -12.7500000       1.55109024E-06
  -12.7399998       9.26030452E-07
  -12.7299995       6.06874337E-08
  -12.7200003      -9.50871936E-07
  -12.7100000      -1.97709937E-06
  -12.6999998      -2.86762702E-06
  -12.6899996      -3.47704008E-06
  -12.6800003      -3.68944393E-06
  -12.6700001      -3.43918305E-06
  -12.6599998      -2.72366287E-06
  -12.6499996      -1.60576030E-06
  -12.6400003      -2.05362099E-07
  -12.6300001       1.31823629E-06
  -12.6199999       2.78955144E-06
  -12.6099997       4.04125058E-06
  -12.6000004       4.93511652E-06
  -12.5900002       5.37620781E-06
  -12.5799999       5.31854630E-06
  -12.5699997       4.76275909E-06
  -12.5600004       3.74794149E-06
  -12.5500002       2.34114782E-06
  -12.5400000       6.28065607E-07
  -12.5299997      -1.29247974E-06
  -12.5200005      -3.30922398E-06
  -12.5100002      -5.29544741E-06
  -12.5000000      -7.10504628E-06
  -12.4899998      -8.57154646E-06
  -12.4799995      -9.51363290E-06
  -12.4700003      -9.74947488E-06
  -12.4600000      -9.11968345E-06
  -12.4499998      -7.51607195E-06
  -12.4399996      -4.91091532E-06
  -12.4300003      -1.38004646E-06
  -12.4200001       2.88673527E-06
  -12.4099998       7.59272280E-06
  -12.3999996       1.23603058E-05
  -12.3900003       1.67735743E-05
  -12.3800001       2.04312018E-05
  -12.3699999       2.30007481E-05
  -12.3599997       2.42644019E-05
  -12.3500004       2.41475282E-05
  -12.3400002       2.27245109E-05
  -12.3299999       2.02009014E-05
  -12.3199997       1.68757142E-05
  -12.3100004       1.30917397E-05
  -12.3000002       9.18400201E-06
  -12.2900000       5.43638544E-06
  -12.2799997       2.05415608E-06
  -12.2700005      -8.44102601E-07
  -12.2600002      -3.21636912E-06
  -12.2500000      -5.07452296E-06
  -12.2399998      -6.45750151E-06
  -12.2299995      -7.40909218E-06
  -12.2200003      -7.96721997E-06
  -12.2100000      -8.16773900E-06
  -12.1999998      -8.06090702E-06
  -12.1899996      -7.73443026E-06
  -12.1800003      -7.33413754E-06
  -12.1700001      -7.07297932E-06
  -12.1599998      -7.22136474E-06
  -12.1499996      -8.07626384E-06
  -12.1400003      -9.91214256E-06
  -12.1300001      -1.29221980E-05
  -12.1199999      -1.71619322E-05
  -12.1099997      -2.25084623E-05
  -12.1000004      -2.86465765E-05
  -12.0900002      -3.50881419E-05
  -12.0799999      -4.12243826E-05
  -12.0699997      -4.64041368E-05
  -12.0600004      -5.00247734E-05
  -12.0500002      -5.16198597E-05
  -12.0400000      -5.09273377E-05
  -12.0299997      -4.79257396E-05
  -12.0200005      -4.28321364E-05
  -12.0100002      -3.60628983E-05
  -12.0000000      -2.81658486E-05
  -11.9899998      -1.97373793E-05
  -11.9799995      -1.13408887E-05
  -11.9700003      -3.44130308E-06
  -11.9600000       3.63358981E-06
  -11.9499998       9.70093424E-06
  -11.9399996       1.47025930E-05
  -11.9300003       1.86659181E-05
  -11.9200001       2.16582030E-05
  -11.9099998       2.37477689E-05
  -11.8999996       2.49820805E-05
  -11.8900003       2.53877988E-05
  -11.8800001       2.49914483E-05
  -11.8699999       2.38532302E-05
  -11.8599997       2.21026257E-05
  -11.8500004       1.99632195E-05
  -11.8400002       1.77565416E-05
  -11.8299999       1.58793955E-05
  -11.8199997       1.47559340E-05
  -11.8100004       1.47721466E-05
  -11.8000002       1.62053930E-05
  -11.7900000       1.91641320E-05
  -11.7799997       2.35513962E-05
  -11.7700005       2.90617099E-05
  -11.7600002       3.52141760E-05
  -11.7500000       4.14172027E-05
  -11.7399998       4.70536834E-05
  -11.7299995       5.15709798E-05
  -11.7200003       5.45590301E-05
  -11.7100000       5.58022548E-05
  -11.6999998       5.52960882E-05
  -11.6899996       5.32264603E-05
  -11.6800003       4.99177258E-05
  -11.6700001       4.57608367E-05
  -11.6599998       4.11373112E-05
  -11.6499996       3.63542931E-05
  -11.6400003       3.16034384E-05
  -11.6300001       2.69500506E-05
  -11.6199999       2.23522256E-05
  -11.6099997       1.77027032E-05
  -11.6000004       1.28814108E-05
  -11.5900002       7.80465689E-06
  -11.5799999       2.45848787E-06
  -11.5699997      -3.09180859E-06
  -11.5600004      -8.71741486E-06
  -11.5500002      -1.42615845E-05
  -11.5400000      -1.95844495E-05
  -11.5299997      -2.46034433E-05
  -11.5200005      -2.93169560E-05
  -11.5100002      -3.38030040E-05
  -11.5000000      -3.81912978E-05
  -11.4899998      -4.26143961E-05
  -11.4799995      -4.71498897E-05
  -11.4700003      -5.17685839E-05
  -11.4600000      -5.63033354E-05
  -11.4499998      -6.04486922E-05
  -11.4399996      -6.37947451E-05
  -11.4300003      -6.58901263E-05
  -11.4200001      -6.63224637E-05
  -11.4099998      -6.47997949E-05
  -11.3999996      -6.12163349E-05
  -11.3900003      -5.56890918E-05
  -11.3800001      -4.85585188E-05
  -11.3699999      -4.03537888E-05
  -11.3599997      -3.17307204E-05
  -11.3500004      -2.33951650E-05
  -11.3400002      -1.60259606E-05
  -11.3299999      -1.02099757E-05
  -11.3199997      -6.39692689E-06
  -11.3100004      -4.87609032E-06
  -11.3000002      -5.77176615E-06
  -11.2900000      -9.05099387E-06
  -11.2799997      -1.45364211E-05
  -11.2700005      -2.19188096E-05
  -11.2600002      -3.07673981E-05
  -11.2500000      -4.05399151E-05
  -11.2399998      -5.05970675E-05
  -11.2299995      -6.02270011E-05
  -11.2200003      -6.86836283E-05
  -11.2100000      -7.52393098E-05
  -11.1999998      -7.92477658E-05
  -11.1899996      -8.02095965E-05
  -11.1800003      -7.78297472E-05
  -11.1700001      -7.20573589E-05
  -11.1599998      -6.31004659E-05
  -11.1499996      -5.14127787E-05
  -11.1400003      -3.76550670E-05
  -11.1300001      -2.26378252E-05
  -11.1199999      -7.25469909E-06
  -11.1099997       7.58373835E-06
  -11.1000004       2.10088037E-05
  -11.0900002       3.22411506E-05
  -11.0799999       4.06273430E-05
  -11.0699997       4.56682719E-05
  -11.0600004       4.70435225E-05
  -11.0500002       4.46339873E-05
  -11.0400000       3.85422500E-05
  -11.0299997       2.91066444E-05
  -11.0200005       1.69021696E-05
  -11.0100002       2.72090597E-06
  -11.0000000      -1.24733015E-05
  -10.9899998      -2.76162937E-05
  -10.9799995      -4.16358635E-05
  -10.9700003      -5.35530235E-05
  -10.9600000      -6.25769826E-05
  -10.9499998      -6.81775346E-05
  -10.9399996      -7.01219178E-05
  -10.9300003      -6.84695915E-05
  -10.9200001      -6.35270844E-05
  -10.9099998      -5.57730964E-05
  -10.8999996      -4.57704446E-05
  -10.8900003      -3.40835104E-05
  -10.8800001      -2.12178838E-05
  -10.8699999      -7.59258319E-06
  -10.8599997       6.45289265E-06
  -10.8500004       2.06236236E-05
  -10.8400002       3.46200759E-05
  -10.8299999       4.80915296E-05
  -10.8199997       6.06084250E-05
  -10.8100004       7.16646682E-05
  -10.8000002       8.07133620E-05
  -10.7900000       8.72312157E-05
  -10.7799997       9.07991634E-05
  -10.7700005       9.11827665E-05
  -10.7600002       8.83944813E-05
  -10.7500000       8.27236872E-05
  -10.7399998       7.47256636E-05
  -10.7299995       6.51689552E-05
  -10.7200003       5.49479300E-05
  -10.7100000       4.49742292E-05
  -10.6999998       3.60642407E-05
  -10.6899996       2.88406736E-05
  -10.6800003       2.36641590E-05
  -10.6700001       2.06050609E-05
  -10.6599998       1.94598997E-05
  -10.6499996       1.98085218E-05
  -10.6400003       2.11023726E-05
  -10.6300001       2.27686105E-05
  -10.6199999       2.43128670E-05
  -10.6099997       2.54034658E-05
  -10.6000004       2.59234421E-05
  -10.5900002       2.59820426E-05
  -10.5799999       2.58844175E-05
  -10.5699997       2.60654433E-05
  -10.5600004       2.70003693E-05
  -10.5500002       2.91086035E-05
  -10.5400000       3.26692207E-05
  -10.5299997       3.77642937E-05
  -10.5200005       4.42611672E-05
  -10.5100002       5.18371453E-05
  -10.5000000       6.00412932E-05
  -10.4899998       6.83797043E-05
  -10.4799995       7.64042197E-05
  -10.4700003       8.37838597E-05
  -10.4600000       9.03394684E-05
  -10.4499998       9.60314792E-05
  -10.4399996       1.00900987E-04
  -10.4300003       1.04977211E-04
  -10.4200001       1.08175162E-04
  -10.4099998       1.10212633E-04
  -10.3999996       1.10575034E-04
  -10.3900003       1.08546868E-04
  -10.3800001       1.03314291E-04
  -10.3699999       9.41241378E-05
  -10.3599997       8.04689771E-05
  -10.3500004       6.22564694E-05
  -10.3400002       3.99207529E-05
  -10.3299999       1.44431033E-05
  -10.3199997      -1.27319290E-05
  -10.3100004      -3.98749689E-05
  -10.3000002      -6.52123272E-05
  -10.2900000      -8.71798475E-05
  -10.2799997      -1.04637693E-04
  -10.2700005      -1.17001371E-04
  -10.2600002      -1.24264305E-04
  -10.2500000      -1.26912579E-04
  -10.2399998      -1.25757317E-04
  -10.2299995      -1.21728284E-04
  -10.2200003      -1.15678748E-04
  -10.2100000      -1.08245367E-04
  -10.1999998      -9.97898242E-05
  -10.1899996      -9.04269109E-05
  -10.1800003      -8.01209317E-05
  -10.1700001      -6.88174478E-05
  -10.1599998      -5.65708360E-05
  -10.1499996      -4.36331356E-05
  -10.1400003      -3.04822515E-05
  -10.1300001      -1.77846323E-05
  -10.1199999      -6.30347995E-06
  -10.1099997       3.22465871E-06
  -10.1000004       1.02174490E-05
  -10.0900002       1.43527977E-05
  -10.0799999       1.56344449E-05
  -10.0699997       1.44072665E-05
  -10.0600004       1.13214237E-05
  -10.0500002       7.25161362E-06
  -10.0400000       3.18272441E-06
  -10.0299997       7.62038184E-08
  -10.0200005      -1.26683142E-06
  -10.0100002      -3.28387159E-07
  -10.0000000       3.03428510E-06
  -9.98999977       8.54288737E-06
  -9.97999954       1.55091348E-05
  -9.97000027       2.29066482E-05
  -9.96000004       2.94980691E-05
  -9.94999981       3.40020342E-05
  -9.93999958       3.52764073E-05
  -9.93000031       3.24893990E-05
  -9.92000008       2.52517784E-05
  -9.90999985       1.36887320E-05
  -9.89999962      -1.55862938E-06
  -9.89000034      -1.94004460E-05
  -9.88000011      -3.84206105E-05
  -9.86999989      -5.70333796E-05
  -9.85999966      -7.36493530E-05
  -9.85000038      -8.68276911E-05
  -9.84000015      -9.53963099E-05
  -9.82999992      -9.85294610E-05
  -9.81999969      -9.57794182E-05
  -9.81000042      -8.70657313E-05
  -9.80000019      -7.26309227E-05
  -9.78999996      -5.29743666E-05
  -9.77999973      -2.87777675E-05
  -9.77000046      -8.35275273E-07
  -9.76000023       3.00012161E-05
  -9.75000000       6.28554917E-05
  -9.73999977       9.68386885E-05
  -9.72999954       1.31045133E-04
  -9.72000027       1.64544981E-04
  -9.71000004       1.96387584E-04
  -9.69999981       2.25629381E-04
  -9.68999958       2.51392135E-04
  -9.68000031       2.72949866E-04
  -9.67000008       2.89827381E-04
  -9.65999985       3.01887514E-04
  -9.64999962       3.09379131E-04
  -9.64000034       3.12922115E-04
  -9.63000011       3.13418423E-04
  -9.61999989       3.11896991E-04
  -9.60999966       3.09316936E-04
  -9.60000038       3.06369708E-04
  -9.59000015       3.03324574E-04
  -9.57999992       2.99955544E-04
  -9.56999969       2.95571197E-04
  -9.56000042       2.89144809E-04
  -9.55000019       2.79519096E-04
  -9.53999996       2.65641371E-04
  -9.52999973       2.46777956E-04
  -9.52000046       2.22663104E-04
  -9.51000023       1.93552900E-04
  -9.50000000       1.60179756E-04
  -9.48999977       1.23624399E-04
  -9.47999954       8.51407822E-05
  -9.47000027       4.59759249E-05
  -9.46000004       7.22307050E-06
  -9.44999981      -3.02670142E-05
  -9.43999958      -6.59094294E-05
  -9.43000031      -9.93536669E-05
  -9.42000008      -1.30419488E-04
  -9.40999985      -1.59025789E-04
  -9.39999962      -1.85134588E-04
  -9.39000034      -2.08721060E-04
  -9.38000011      -2.29767218E-04
  -9.36999989      -2.48269585E-04
  -9.35999966      -2.64243106E-04
  -9.35000038      -2.77709711E-04
  -9.34000015      -2.88664625E-04
  -9.32999992      -2.97029124E-04
  -9.31999969      -3.02603206E-04
  -9.31000042      -3.05040274E-04
  -9.30000019      -3.03861394E-04
  -9.28999996      -2.98516767E-04
  -9.27999973      -2.88488081E-04
  -9.27000046      -2.73411162E-04
  -9.26000023      -2.53186910E-04
  -9.25000000      -2.28049379E-04
  -9.23999977      -1.98567461E-04
  -9.22999954      -1.65573496E-04
  -9.22000027      -1.30032742E-04
  -9.21000004      -9.28856389E-05
  -9.19999981      -5.49027645E-05
  -9.18999958      -1.65907331E-05
  -9.18000031       2.18276236E-05
  -9.17000008       6.03580884E-05
  -9.15999985       9.91264606E-05
  -9.14999962       1.38253177E-04
  -9.14000034       1.77753609E-04
  -9.13000011       2.17493434E-04
  -9.11999989       2.57208012E-04
  -9.10999966       2.96571379E-04
  -9.10000038       3.35279619E-04
  -9.09000015       3.73106886E-04
  -9.07999992       4.09903267E-04
  -9.06999969       4.45525075E-04
  -9.06000042       4.79716749E-04
  -9.05000019       5.11987600E-04
  -9.03999996       5.41535497E-04
  -9.02999973       5.67261246E-04
  -9.02000046       5.87890798E-04
  -9.01000023       6.02185144E-04
  -9.00000000       6.09188341E-04
  -8.98999977       6.08441012E-04
  -8.97999954       6.00098108E-04
  -8.97000027       5.84907364E-04
  -8.96000004       5.64052316E-04
  -8.94999981       5.38902299E-04
  -8.93999958       5.10740152E-04
  -8.93000031       4.80547926E-04
  -8.92000008       4.48906387E-04
  -8.90999985       4.16030001E-04
  -8.89999962       3.81911726E-04
  -8.89000034       3.46517540E-04
  -8.88000011       3.09955329E-04
  -8.86999989       2.72556383E-04
  -8.85999966       2.34840409E-04
  -8.85000038       1.97379282E-04
  -8.84000015       1.60614261E-04
  -8.82999992       1.24697544E-04
  -8.81999969       8.94246550E-05
  -8.81000042       5.42925554E-05
  -8.80000019       1.86741254E-05
  -8.78999996      -1.79399030E-05
  -8.77999973      -5.57073145E-05
  -8.77000046      -9.42824627E-05
  -8.76000023      -1.32795962E-04
  -8.75000000      -1.69975247E-04
  -8.73999977      -2.04371347E-04
  -8.72999954      -2.34627994E-04
  -8.72000027      -2.59718538E-04
  -8.71000004      -2.79090833E-04
  -8.69999981      -2.92691635E-04
  -8.68999958      -3.00878368E-04
  -8.68000031      -3.04257817E-04
  -8.67000008      -3.03508365E-04
  -8.65999985      -2.99235544E-04
  -8.64999962      -2.91895500E-04
  -8.64000034      -2.81793880E-04
  -8.63000011      -2.69142474E-04
  -8.61999989      -2.54142884E-04
  -8.60999966      -2.37062821E-04
  -8.60000038      -2.18281028E-04
  -8.59000015      -1.98288777E-04
  -8.57999992      -1.77653594E-04
  -8.56999969      -1.56959708E-04
  -8.56000042      -1.36742747E-04
  -8.55000019      -1.17436080E-04
  -8.53999996      -9.93376161E-05
  -8.52999973      -8.26032774E-05
  -8.52000046      -6.72635651E-05
  -8.51000023      -5.32601553E-05
  -8.50000000      -4.04928687E-05
  -8.48999977      -2.88669398E-05
  -8.47999954      -1.83294069E-05
  -8.47000027      -8.88332852E-06
  -8.46000004      -5.73593127E-07
  -8.44999981       6.55339090E-06
  -8.43999958       1.25040451E-05
  -8.43000031       1.73853314E-05
  -8.42000008       2.14220418E-05
  -8.40999985       2.49260429E-05
  -8.39999962       2.82150831E-05
  -8.39000034       3.14984718E-05
  -8.38000011       3.47655514E-05
  -8.36999989       3.77206379E-05
  -8.35999966       3.98002667E-05
  -8.35000038       4.02867408E-05
  -8.34000015       3.84979066E-05
  -8.32999992       3.40038459E-05
  -8.31999969       2.68021740E-05
  -8.31000042       1.73888602E-05
  -8.30000019       6.69005976E-06
  -8.28999996      -4.13676071E-06
  -8.27999973      -1.39789154E-05
  -8.27000046      -2.20366146E-05
  -8.26000023      -2.79981978E-05
  -8.25000000      -3.20627514E-05
  -8.23999977      -3.48013018E-05
  -8.22999954      -3.69032168E-05
  -8.22000027      -3.88957196E-05
  -8.21000004      -4.09343120E-05
  -8.19999981      -4.27378836E-05
  -8.18999958      -4.36899645E-05
  -8.18000031      -4.30663276E-05
  -8.17000008      -4.03027116E-05
  -8.15999985      -3.51991803E-05
  -8.14999962      -2.79823198E-05
  -8.14000034      -1.91988911E-05
  -8.13000011      -9.48091474E-06
  -8.11999989       7.27513452E-07
  -8.10999966       1.13738461E-05
  -8.10000038       2.28458230E-05
  -8.09000015       3.58393954E-05
  -8.07999992       5.10892532E-05
  -8.06999969       6.90602610E-05
  -8.06000042       8.97200516E-05
  -8.05000019       1.12486508E-04
  -8.03999996       1.36381597E-04
  -8.02999973       1.60347583E-04
  -8.02000046       1.83616445E-04
  -8.01000023       2.05999924E-04
  -8.00000000       2.27989993E-04
  -7.98999977       2.50623736E-04
  -7.98000002       2.75148632E-04
  -7.96999979       3.02594970E-04
  -7.96000004       3.33397125E-04
  -7.94999981       3.67188157E-04
  -7.94000006       4.02834965E-04
  -7.92999983       4.38698073E-04
  -7.92000008       4.73027729E-04
  -7.90999985       5.04364318E-04
  -7.90000010       5.31818776E-04
  -7.88999987       5.55153529E-04
  -7.88000011       5.74657985E-04
  -7.86999989       5.90882264E-04
  -7.86000013       6.04332366E-04
  -7.84999990       6.15237339E-04
  -7.84000015       6.23458240E-04
  -7.82999992       6.28556823E-04
  -7.82000017       6.29983086E-04
  -7.80999994       6.27303612E-04
  -7.80000019       6.20391045E-04
  -7.78999996       6.09515293E-04
  -7.78000021       5.95322461E-04
  -7.76999998       5.78720355E-04
  -7.76000023       5.60720160E-04
  -7.75000000       5.42279682E-04
  -7.73999977       5.24181291E-04
  -7.73000002       5.06957469E-04
  -7.71999979       4.90853214E-04
  -7.71000004       4.75818146E-04
  -7.69999981       4.61523014E-04
  -7.69000006       4.47408704E-04
  -7.67999983       4.32781206E-04
  -7.67000008       4.16955474E-04
  -7.65999985       3.99433571E-04
  -7.65000010       3.80070385E-04
  -7.63999987       3.59171507E-04
  -7.63000011       3.37470090E-04
  -7.61999989       3.15963407E-04
  -7.61000013       2.95638893E-04
  -7.59999990       2.77170475E-04
  -7.59000015       2.60690373E-04
  -7.57999992       2.45732284E-04
  -7.57000017       2.31390630E-04
  -7.55999994       2.16663713E-04
  -7.55000019       2.00872528E-04
  -7.53999996       1.84007469E-04
  -7.53000021       1.66859943E-04
  -7.51999998       1.50869397E-04
  -7.51000023       1.37708586E-04
  -7.50000000       1.28737564E-04
  -7.48999977       1.24515136E-04
  -7.48000002       1.24551720E-04
  -7.46999979       1.27415682E-04
  -7.46000004       1.31178836E-04
  -7.44999981       1.34060858E-04
  -7.44000006       1.35054521E-04