  -16.0000000       0.00000000    
  -15.9899998       0.00000000    
  -15.9799995       0.00000000    
  -15.9700003       0.00000000    
  -15.9600000       0.00000000    
  -15.9499998       0.00000000    
  -15.9399996       0.00000000    
  -15.9300003       0.00000000    
  -15.9200001       0.00000000    
  -15.9099998       0.00000000    
  -15.8999996       0.00000000    
  -15.8900003       0.00000000    
  -15.8800001       0.00000000    
  -15.8699999      -0.00000000    
  -15.8599997      -8.40779079E-45
  -15.8500004      -1.19110369E-43
  -15.8400002      -1.01173749E-42
  -15.8299999      -6.07462884E-42
  -15.8199997      -2.69413643E-41
  -15.8100004      -8.65455945E-41
  -15.8000002      -1.65782016E-40
  -15.7900000       1.33245267E-40
  -15.7799997       2.89029159E-39
  -15.7700005       1.57391770E-38
  -15.7600002       6.12912422E-38
  -15.7500000       1.96322587E-37
  -15.7399998       5.44272126E-37
  -15.7299995       1.33875948E-36
  -15.7200003       2.95992028E-36
  -15.7100000       5.91298124E-36
  -15.6999998       1.06424060E-35
  -15.6899996       1.69911050E-35
  -15.6800003       2.30186016E-35
  -15.6700001       2.28629978E-35
  -15.6599998       3.58195600E-36
  -15.6499996      -5.81596952E-35
  -15.6400003      -1.96581846E-34
  -15.6300001      -4.48077324E-34
  -15.6199999      -8.23401467E-34
  -15.6099997      -1.25103042E-33
  -15.6000004      -1.49262362E-33
  -15.5900002      -1.06048205E-33
  -15.5799999       7.83816786E-34
  -15.5699997       4.81581081E-33
  -15.5600004       1.12692344E-32
  -15.5500002       1.88350768E-32
  -15.5400000       2.34611466E-32
  -15.5299997       1.76557929E-32
  -15.5200005      -8.44941739E-33
  -15.5100002      -6.27584973E-32
  -15.5000000      -1.42657524E-31
  -15.4899998      -2.23335228E-31
  -15.4799995      -2.47708516E-31
  -15.4700003      -1.27200714E-31
  -15.4600000       2.34169806E-31
  -15.4499998       8.81621986E-31
  -15.4399996       1.71737129E-30
  -15.4300003       2.39691367E-30
  -15.4200001       2.26915586E-30
  -15.4099998       4.49064374E-31
  -15.3999996      -3.87427779E-30
  -15.3900003      -1.08253212E-29
  -15.3800001      -1.89705318E-29
  -15.3699999      -2.44456242E-29
  -15.3599997      -2.06303675E-29
  -15.3500004       8.03781032E-31
  -15.3400002       4.65795907E-29
  -15.3299999       1.15763075E-28
  -15.3199997       1.91718550E-28
  -15.3100004       2.34932036E-28
  -15.3000002       1.82242036E-28
  -15.2900000      -3.99039053E-29
  -15.2799997      -4.81116463E-28
  -15.2700005      -1.11041715E-27
  -15.2600002      -1.74900593E-27
  -15.2500000      -2.02350661E-27
  -15.2399998      -1.39051429E-27
  -15.2299995       7.08968179E-28
  -15.2200003       4.52820604E-27
  -15.2100000       9.55634189E-27
  -15.1999998       1.40670570E-26
  -15.1899996       1.49545594E-26
  -15.1800003       8.23093077E-27
  -15.1700001      -9.48739900E-27
  -15.1599998      -3.84635235E-26
  -15.1499996      -7.28268191E-26
  -15.1400003      -9.83642434E-26
  -15.1300001      -9.30991577E-26
  -15.1199999      -3.27569653E-26
  -15.1099997       9.77760921E-26
  -15.1000004       2.88352056E-25
  -15.0900002       4.87888924E-25
  -15.0799999       5.98086531E-25
  -15.0699997       4.87535860E-25
  -15.0600004       3.48189152E-26
  -15.0500002      -7.99736832E-25
  -15.0400000      -1.88955044E-24
  -15.0299997      -2.87918315E-24
  -15.0200005      -3.19262619E-24
  -15.0100002      -2.16055887E-24
  -15.0000000       7.11815178E-25
  -14.9899998       5.37104349E-24
  -14.9799995       1.08484049E-23
  -14.9700003       1.50866224E-23
  -14.9600000       1.51788277E-23
  -14.9499998       8.18254967E-24
  -14.9399996      -7.50143296E-24
  -14.9300003      -3.04741480E-23
  -14.9200001      -5.50149513E-23
  -14.9099998      -7.09250136E-23
  -14.8999996      -6.53469150E-23
  -14.8900003      -2.69472676E-23
  -14.8800001       4.80081309E-23
  -14.8699999       1.49304826E-22
  -14.8599997       2.48854894E-22
  -14.8500004       3.02375989E-22
  -14.8400002       2.59173473E-22
  -14.8299999       8.03517878E-23
  -14.8199997      -2.37733495E-22
  -14.8100004      -6.42005448E-22
  -14.8000002      -1.01345670E-21
  -14.7900000      -1.18070379E-21
  -14.7799997      -9.62684651E-22
  -14.7700005      -2.37917546E-22
  -14.7600002       9.74671298E-22
  -14.7500000       2.45064757E-21
  -14.7399998       3.74505578E-21
  -14.7299995       4.25823613E-21
  -14.7200003       3.39532883E-21
  -14.7100000       8.00968317E-22
  -14.6999998      -3.38783169E-21
  -14.6899996      -8.36086779E-21
  -14.6800003      -1.26288637E-20
  -14.6700001      -1.42733731E-20
  -14.6599998      -1.14705087E-20
  -14.6499996      -3.21007712E-21
  -14.6400003       9.97511964E-21
  -14.6300001       2.55361948E-20
  -14.6199999       3.89712284E-20
  -14.6099997       4.46203744E-20
  -14.6000004       3.71994431E-20
  -14.5900002       1.38142183E-20
  -14.5799999      -2.40731546E-20
  -14.5699997      -6.94352855E-20
  -14.5600004      -1.09933648E-19
  -14.5500002      -1.30086921E-19
  -14.5400000      -1.15303627E-19
  -14.5299997      -5.70782475E-20
  -14.5200005       4.19884989E-20
  -14.5100002       1.65071388E-19
  -14.5000000       2.81572332E-19
  -14.4899998       3.52173645E-19
  -14.4799995       3.38361771E-19
  -14.4700003       2.14814372E-19
  -14.4600000      -1.83591186E-20
  -14.4499998      -3.27378105E-19
  -14.4399996      -6.44311193E-19
  -14.4300003      -8.76797594E-19
  -14.4200001      -9.28035850E-19
  -14.4099998      -7.24043650E-19
  -14.3999996      -2.42236792E-19
  -14.3900003       4.66602399E-19
  -14.3800001       1.27107820E-18
  -14.3699999       1.97273891E-18
  -14.3599997       2.34226944E-18
  -14.3500004       2.17436935E-18
  -14.3400002       1.35132009E-18
  -14.3299999      -9.96409100E-20
  -14.3199997      -1.97218346E-18
  -14.3100004      -3.88517428E-18
  -14.3000002      -5.33468588E-18
  -14.2900000      -5.79297000E-18
  -14.2799997      -4.84148730E-18
  -14.2700005      -2.31293761E-18
  -14.2600002       1.59197257E-18
  -14.2500000       6.25029169E-18
  -14.2399998       1.06574165E-17
  -14.2299995       1.35792575E-17
  -14.2200003       1.38092096E-17
  -14.2100000       1.04938449E-17
  -14.1999998       3.46179553E-18
  -14.1899996      -6.53034444E-18
  -14.1800003      -1.77255789E-17
  -14.1700001      -2.75400008E-17
  -14.1599998      -3.30084273E-17
  -14.1499996      -3.14640348E-17
  -14.1400003      -2.13356284E-17
  -14.1300001      -2.87910387E-18
  -14.1199999       2.13770436E-17
  -14.1099997       4.66775439E-17
  -14.1000004       6.67048107E-17
  -14.0900002       7.48508192E-17
  -14.0799999       6.59113857E-17
  -14.0699997       3.78467192E-17
  -14.0600004      -6.86226844E-18
  -14.0500002      -6.07434855E-17
  -14.0400000      -1.12102706E-16
  -14.0299997      -1.47127532E-16
  -14.0200005      -1.53066477E-16
  -14.0100002      -1.21859970E-16
  -14.0000000      -5.33250121E-17
  -13.9899998       4.30780708E-17
  -13.9799995       1.48696554E-16
  -13.9700003       2.38693726E-16
  -13.9600000       2.87323528E-16
  -13.9499998       2.74489497E-16
  -13.9399996       1.92054239E-16
  -13.9300003       4.81450549E-17
  -13.9200001      -1.32071998E-16
  -13.9099998      -3.09980495E-16
  -13.8999996      -4.41247758E-16
  -13.8900003      -4.86317137E-16
  -13.8800001      -4.21300768E-16
  -13.8699999      -2.46430578E-16
  -13.8599997       1.05401711E-17
  -13.8500004       2.97611538E-16
  -13.8400002       5.48553836E-16
  -13.8299999       6.97930426E-16
  -13.8199997       6.97825764E-16
  -13.8100004       5.32092280E-16
  -13.8000002       2.24090401E-16
  -13.7900000      -1.64880019E-16
  -13.7799997      -5.47103928E-16
  -13.7700005      -8.28028545E-16
  -13.7600002      -9.29670435E-16
  -13.7500000      -8.12153719E-16
  -13.7399998      -4.87585887E-16
  -13.7299995      -2.18879071E-17
  -13.7200003       4.77115395E-16
  -13.7100000       8.83622177E-16
  -13.6999998       1.08479891E-15
  -13.6899996       1.01141737E-15
  -13.6800003       6.60223748E-16
  -13.6700001       1.01405990E-16
  -13.6599998      -5.32309227E-16
  -13.6499996      -1.07403354E-15
  -13.6400003      -1.36313107E-15
  -13.6300001      -1.28855925E-15
  -13.6199999      -8.24304777E-16
  -13.6099997      -4.68834258E-17
  -13.6000004       8.71732852E-16
  -13.5900002       1.69695851E-15
  -13.5799999       2.18499793E-15
  -13.5699997       2.14578560E-15
  -13.5600004       1.50060569E-15
  -13.5500002       3.18948615E-16
  -13.5400000      -1.17768433E-15
  -13.5299997      -2.65053211E-15
  -13.5200005      -3.71347164E-15
  -13.5100002      -4.02514885E-15
  -13.5000000      -3.38300237E-15
  -13.4899998      -1.79538586E-15
  -13.4799995       4.89783673E-16
  -13.4700003       3.01343639E-15
  -13.4600000       5.19165213E-15
  -13.4499998       6.44592581E-15
  -13.4399996       6.35002771E-15
  -13.4300003       4.75787851E-15
  -13.4200001       1.87678848E-15
  -13.4099998      -1.74046541E-15
  -13.3999996      -5.29358958E-15
  -13.3900003      -7.90924130E-15
  -13.3800001      -8.85652906E-15
  -13.3699999      -7.75223696E-15
  -13.3599997      -4.70039335E-15
  -13.3500004      -3.20708750E-16
  -13.3400002       4.35599610E-15
  -13.3299999       8.11475097E-15
  -13.3199997       9.86089669E-15
  -13.3100004       8.93062666E-15
  -13.3000002       5.32504034E-15
  -13.2900000      -2.05246380E-16
  -13.2799997      -6.26758599E-15
  -13.2700005      -1.11237237E-14
  -13.2600002      -1.31212612E-14
  -13.2500000      -1.11631810E-14
  -13.2399998      -5.09532288E-15
  -13.2299995       4.10243510E-15
  -13.2200003       1.43992501E-14
  -13.2100000       2.30872907E-14
  -13.1999998       2.73898285E-14
  -13.1899996       2.51790064E-14
  -13.1800003       1.56342512E-14
  -13.1700001      -3.34074744E-16
  -13.1599998      -2.00345027E-14
  -13.1499996      -3.93803066E-14
  -13.1400003      -5.36729305E-14
  -13.1300001      -5.86422322E-14
  -13.1199999      -5.15226662E-14
  -13.1099997      -3.19102858E-14
  -13.1000004      -2.16953577E-15
  -13.0900002       3.27580980E-14
  -13.0799999       6.61647047E-14
  -13.0699997       9.08813023E-14
  -13.0600004       1.00823091E-13
  -13.0500002       9.24390908E-14
  -13.0400000       6.57205139E-14
  -13.0299997       2.44959692E-14
  -13.0200005      -2.41152499E-14
  -13.0100002      -7.10318577E-14
  -13.0000000      -1.07073347E-13
  -12.9899998      -1.24961849E-13
  -12.9799995      -1.21006300E-13
  -12.9700003      -9.60540444E-14
  -12.9600000      -5.54394516E-14
  -12.9499998      -7.88214725E-15
  -12.9399996       3.64635995E-14
  -12.9300003       6.83865535E-14
  -12.9200001       8.18701050E-14
  -12.9099998       7.56566237E-14
  -12.8999996       5.36959495E-14
  -12.8900003       2.42949971E-14
  -12.8800001      -1.90531528E-15
  -12.8699999      -1.46973921E-14
  -12.8599997      -7.17485357E-15
  -12.8500004       2.20180692E-14
  -12.8400002       6.76743140E-14
  -12.8299999       1.18610254E-13
  -12.8199997       1.59842910E-13
  -12.8100004       1.75960131E-13
  -12.8000002       1.54961398E-13
  -12.7900000       9.16745114E-14
  -12.7799997      -1.01103733E-14
  -12.7700005      -1.37406769E-13
  -12.7600002      -2.69907387E-13
  -12.7500000      -3.83689852E-13
  -12.7399998      -4.56027035E-13
  -12.7299995      -4.70264073E-13
  -12.7200003      -4.19646468E-13
  -12.7100000      -3.09159301E-13
  -12.6999998      -1.54846351E-13
  -12.6899996       1.93602340E-14
  -12.6800003       1.86686062E-13
  -12.6700001       3.23345327E-13
  -12.6599998       4.13817770E-13
  -12.6499996       4.54288029E-13
  -12.6400003       4.53317613E-13
  -12.6300001       4.29428601E-13
  -12.6199999       4.05988150E-13
  -12.6099997       4.04463084E-13
  -12.6000004       4.37579037E-13
  -12.5900002       5.04060335E-13
  -12.5799999       5.86385161E-13
  -12.5699997       6.52392040E-13
  -12.5600004       6.60735410E-13
  -12.5500002       5.69296617E-13
  -12.5400000       3.44897884E-13
  -12.5299997      -2.77473035E-14
  -12.5200005      -5.39889368E-13
  -12.5100002      -1.15693479E-12
  -12.5000000      -1.82161599E-12
  -12.4899998      -2.46168255E-12
  -12.4799995      -3.00060736E-12
  -12.4700003      -3.36903942E-12
  -12.4600000      -3.51448406E-12
  -12.4499998      -3.40700450E-12
  -12.4399996      -3.03960828E-12
  -12.4300003      -2.42322612E-12
  -12.4200001      -1.57751546E-12
  -12.4099998      -5.19803710E-13
  -12.3999996       7.44877088E-13
  -12.3900003       2.22983676E-12
  -12.3800001       3.96679434E-12
  -12.3699999       5.99924060E-12
  -12.3599997       8.36999740E-12
  -12.3500004       1.11053562E-11
  -12.3400002       1.41991818E-11
  -12.3299999       1.76007594E-11
  -12.3199997       2.12093832E-11
  -12.3100004       2.48776208E-11
  -12.3000002       2.84231198E-11
  -12.2900000       3.16471467E-11
  -12.2799997       3.43563580E-11
  -12.2700005       3.63835247E-11
  -12.2600002       3.76031879E-11
  -12.2500000       3.79391171E-11
  -12.2399998       3.73623597E-11
  -12.2299995       3.58808608E-11
  -12.2200003       3.35232848E-11
  -12.2100000       3.03214363E-11
  -12.1999998       2.62956601E-11
  -12.1899996       2.14470663E-11
  -12.1800003       1.57588647E-11
  -12.1700001       9.20670918E-12
  -12.1599998       1.77589876E-12
  -12.1499996      -6.51872653E-12
  -12.1400003      -1.56149919E-11
  -12.1300001      -2.53925440E-11
  -12.1199999      -3.56721597E-11
  -12.1099997      -4.62263353E-11
  -12.1000004      -5.67998669E-11
  -12.0900002      -6.71364492E-11
  -12.0799999      -7.70063319E-11
  -12.0699997      -8.62290170E-11
  -12.0600004      -9.46865641E-11
  -12.0500002      -1.02324357E-10
  -12.0400000      -1.09139434E-10
  -12.0299997      -1.15158549E-10
  -12.0200005      -1.20411195E-10
  -12.0100002      -1.24903060E-10
  -12.0000000      -1.28596273E-10
  -11.9899998      -1.31400293E-10
  -11.9799995      -1.33176400E-10
  -11.9700003      -1.33754063E-10
  -11.9600000      -1.32956784E-10
  -11.9499998      -1.30631062E-10
  -11.9399996      -1.26673116E-10
  -11.9300003      -1.21047034E-10
  -11.9200001      -1.13790789E-10
  -11.9099998      -1.05009036E-10
  -11.8999996      -9.48535278E-11
  -11.8900003      -8.34962655E-11
  -11.8800001      -7.11001466E-11
  -11.8699999      -5.77942139E-11
  -11.8599997      -4.36578169E-11
  -11.8500004      -2.87181876E-11
  -11.8400002      -1.29605458E-11
  -11.8299999       3.65035042E-12
  -11.8199997       2.11427334E-11
  -11.8100004       3.95097462E-11
  -11.8000002       5.86874785E-11
  -11.7900000       7.85434009E-11
  -11.7799997       9.88782528E-11
  -11.7700005       1.19440735E-10
  -11.7600002       1.39952522E-10
  -11.7500000       1.60138069E-10
  -11.7399998       1.79753490E-10
  -11.7299995       1.98608643E-10
  -11.7200003       2.16577728E-10
  -11.7100000       2.33597197E-10
  -11.6999998       2.49651383E-10
  -11.6899996       2.64749722E-10
  -11.6800003       2.78900375E-10
  -11.6700001       2.92086438E-10
  -11.6599998       3.04249403E-10
  -11.6499996       3.15283410E-10
  -11.6400003       3.25040606E-10
  -11.6300001       3.33346684E-10
  -11.6199999       3.40021150E-10
  -11.6099997       3.44898943E-10
  -11.6000004       3.47847723E-10
  -11.5900002       3.48776341E-10
  -11.5799999       3.47634532E-10
  -11.5699997       3.44402701E-10
  -11.5600004       3.39075573E-10
  -11.5500002       3.31643685E-10
  -11.5400000       3.22077420E-10
  -11.5299997       3.10317660E-10
  -11.5200005       2.96274699E-10
  -11.5100002       2.79837598E-10
  -11.5000000       2.60889532E-10
  -11.4899998       2.39327919E-10
  -11.4799995       2.15083687E-10
  -11.4700003       1.88135313E-10
  -11.4600000       1.58515187E-10
  -11.4499998       1.26305216E-10
  -11.4399996       9.16243886E-11
  -11.4300003       5.46081930E-11
  -11.4200001       1.53851723E-11
  -11.4099998      -2.59454784E-11
  -11.3999996      -6.93317001E-11
  -11.3900003      -1.14778242E-10
  -11.3800001      -1.62348412E-10
  -11.3699999      -2.12156612E-10
  -11.3599997      -2.64355066E-10
  -11.3500004      -3.19116816E-10
  -11.3400002      -3.76619486E-10
  -11.3299999      -4.37030023E-10
  -11.3199997      -5.00494923E-10
  -11.3100004      -5.67135061E-10
  -11.3000002      -6.37043585E-10
  -11.2900000      -7.10287218E-10
  -11.2799997      -7.86908150E-10
  -11.2700005      -8.66923366E-10
  -11.2600002      -9.50324375E-10
  -11.2500000      -1.03707243E-09
  -11.2399998      -1.12709475E-09
  -11.2299995      -1.22027999E-09
  -11.2200003      -1.31647382E-09
  -11.2100000      -1.41548329E-09
  -11.1999998      -1.51707980E-09
  -11.1899996      -1.62101121E-09
  -11.1800003      -1.72701420E-09
  -11.1700001      -1.83482984E-09
  -11.1599998      -1.94422101E-09
  -11.1499996      -2.05498640E-09
  -11.1400003      -2.16696772E-09
  -11.1300001      -2.28006014E-09
  -11.1199999      -2.39420928E-09
  -11.1099997      -2.50940624E-09
  -11.1000004      -2.62567923E-09
  -11.0900002      -2.74308221E-09
  -11.0799999      -2.86167756E-09
  -11.0699997      -2.98152236E-09
  -11.0600004      -3.10265502E-09
  -11.0500002      -3.22508886E-09
  -11.0400000      -3.34879902E-09
  -11.0299997      -3.47372464E-09
  -11.0200005      -3.59977115E-09
  -11.0100002      -3.72681264E-09
  -11.0000000      -3.85470367E-09
  -10.9899998      -3.98328526E-09
  -10.9799995      -4.11238954E-09
  -10.9700003      -4.24185220E-09
  -10.9600000      -4.37150227E-09
  -10.9499998      -4.50116922E-09
  -10.9399996      -4.63067007E-09
  -10.9300003      -4.75979878E-09
  -10.9200001      -4.88833063E-09
  -10.9099998      -5.01599873E-09
  -10.8999996      -5.14250953E-09
  -10.8900003      -5.26753041E-09
  -10.8800001      -5.39071232E-09
  -10.8699999      -5.51168844E-09
  -10.8599997      -5.63009905E-09
  -10.8500004      -5.74560666E-09
  -10.8400002      -5.85789728E-09
  -10.8299999      -5.96670358E-09
  -10.8199997      -6.07179595E-09
  -10.8100004      -6.17298745E-09
  -10.8000002      -6.27012753E-09
  -10.7900000      -6.36308961E-09
  -10.7799997      -6.45176623E-09
  -10.7700005      -6.53607479E-09
  -10.7600002      -6.61593402E-09
  -10.7500000      -6.69128486E-09
  -10.7399998      -6.76208334E-09
  -10.7299995      -6.82831613E-09
  -10.7200003      -6.88999968E-09
  -10.7100000      -6.94718683E-09
  -10.6999998      -6.99997305E-09
  -10.6899996      -7.04848446E-09
  -10.6800003      -7.09287518E-09
  -10.6700001      -7.13332771E-09
  -10.6599998      -7.17003745E-09
  -10.6499996      -7.20321269E-09
  -10.6400003      -7.23306970E-09
  -10.6300001      -7.25983051E-09
  -10.6199999      -7.28371896E-09
  -10.6099997      -7.30496863E-09
  -10.6000004      -7.32380512E-09
  -10.5900002      -7.34046157E-09
  -10.5799999      -7.35515515E-09
  -10.5699997      -7.36808881E-09
  -10.5600004      -7.37945038E-09
  -10.5500002      -7.38939798E-09
  -10.5400000      -7.39806261E-09
  -10.5299997      -7.40553885E-09
  -10.5200005      -7.41190043E-09
  -10.5100002      -7.41718731E-09
  -10.5000000      -7.42141104E-09
  -10.4899998      -7.42456141E-09
  -10.4799995      -7.42659356E-09
  -10.4700003      -7.42745820E-09
  -10.4600000      -7.42708561E-09
  -10.4499998      -7.42540651E-09
  -10.4399996      -7.42236450E-09
  -10.4300003      -7.41793915E-09
  -10.4200001      -7.41215844E-09
  -10.4099998      -7.40511297E-09
  -10.3999996      -7.39695905E-09
  -10.3900003      -7.38791828E-09
  -10.3800001      -7.37826600E-09
  -10.3699999      -7.36830241E-09
  -10.3599997      -7.35834282E-09
  -10.3500004      -7.34867278E-09
  -10.3400002      -7.33954097E-09
  -10.3299999      -7.33113925E-09
  -10.3199997      -7.32359728E-09
  -10.3100004      -7.31699767E-09
  -10.3000002      -7.31137195E-09
  -10.2900000      -7.30673833E-09
  -10.2799997      -7.30311056E-09
  -10.2700005      -7.30050820E-09
  -10.2600002      -7.29896277E-09
  -10.2500000      -7.29855421E-09
  -10.2399998      -7.29936289E-09
  -10.2299995      -7.30149052E-09
  -10.2200003      -7.30504768E-09
  -10.2100000      -7.31014005E-09
  -10.1999998      -7.31685645E-09
  -10.1899996      -7.32528171E-09
  -10.1800003      -7.33549754E-09
  -10.1700001      -7.34757011E-09
  -10.1599998      -7.36158201E-09
  -10.1499996      -7.37763584E-09
  -10.1400003      -7.39586170E-09
  -10.1300001      -7.41642658E-09
  -10.1199999      -7.43954764E-09
  -10.1099997      -7.46548778E-09
  -10.1000004      -7.49456586E-09
  -10.0900002      -7.52713625E-09
  -10.0799999      -7.56357554E-09
  -10.0699997      -7.60428343E-09
  -10.0600004      -7.64964714E-09
  -10.0500002      -7.70002551E-09
  -10.0400000      -7.75575515E-09
  -10.0299997      -7.81711851E-09
  -10.0200005      -7.88434296E-09
  -10.0100002      -7.95761590E-09
  -10.0000000      -8.03705902E-09
  -9.98999977      -8.12277268E-09
  -9.97999954      -8.21480395E-09
  -9.97000027      -8.31317060E-09
  -9.96000004      -8.41787084E-09
  -9.94999981      -8.52886828E-09
  -9.93999958      -8.64612382E-09
  -9.93000031      -8.76957440E-09
  -9.92000008      -8.89915963E-09
  -9.90999985      -9.03483244E-09
  -9.89999962      -9.17656084E-09
  -9.89000034      -9.32435551E-09
  -9.88000011      -9.47826617E-09
  -9.86999989      -9.63839764E-09
  -9.85999966      -9.80490356E-09
  -9.85000038      -9.97796779E-09
  -9.84000015      -1.01578133E-08
  -9.82999992      -1.03446753E-08
  -9.81999969      -1.05387823E-08
  -9.81000042      -1.07403322E-08
  -9.80000019      -1.09494884E-08
  -9.78999996      -1.11663727E-08
  -9.77999973      -1.13910508E-08
  -9.77000046      -1.16235412E-08
  -9.76000023      -1.18638059E-08
  -9.75000000      -1.21117720E-08
  -9.73999977      -1.23673312E-08
  -9.72999954      -1.26303670E-08
  -9.72000027      -1.29007347E-08
  -9.71000004      -1.31783100E-08
  -9.69999981      -1.34629792E-08
  -9.68999958      -1.37546428E-08
  -9.68000031      -1.40532039E-08
  -9.67000008      -1.43585703E-08
  -9.65999985      -1.46706114E-08
  -9.64999962      -1.49891672E-08
  -9.64000034      -1.53139865E-08
  -9.63000011      -1.56447371E-08
  -9.61999989      -1.59809694E-08
  -9.60999966      -1.63221756E-08
  -9.60000038      -1.66677552E-08
  -9.59000015      -1.70170686E-08
  -9.57999992      -1.73694907E-08
  -9.56999969      -1.77243802E-08
  -9.56000042      -1.80811810E-08
  -9.55000019      -1.84393674E-08
  -9.53999996      -1.87984508E-08
  -9.52999973      -1.91579872E-08
  -9.52000046      -1.95175343E-08
  -9.51000023      -1.98766514E-08
  -9.50000000      -2.02348769E-08
  -9.48999977      -2.05917345E-08
  -9.47999954      -2.09467537E-08
  -9.47000027      -2.12995026E-08
  -9.46000004      -2.16495994E-08
  -9.44999981      -2.19967564E-08
  -9.43999958      -2.23407888E-08
  -9.43000031      -2.26816468E-08
  -9.42000008      -2.30194175E-08
  -9.40999985      -2.33543123E-08
  -9.39999962      -2.36866722E-08
  -9.39000034      -2.40169644E-08
  -9.38000011      -2.43457787E-08
  -9.36999989      -2.46738097E-08
  -9.35999966      -2.50018779E-08
  -9.35000038      -2.53309125E-08
  -9.34000015      -2.56619543E-08
  -9.32999992      -2.59960977E-08
  -9.31999969      -2.63345701E-08
  -9.31000042      -2.66785936E-08
  -9.30000019      -2.70294205E-08
  -9.28999996      -2.73883103E-08
  -9.27999973      -2.77564940E-08
  -9.27000046      -2.81351333E-08
  -9.26000023      -2.85253705E-08
  -9.25000000      -2.89282784E-08
  -9.23999977      -2.93448998E-08
  -9.22999954      -2.97762188E-08
  -9.22000027      -3.02231378E-08
  -9.21000004      -3.06865147E-08
  -9.19999981      -3.11671364E-08
  -9.18999958      -3.16656497E-08
  -9.18000031      -3.21825908E-08
  -9.17000008      -3.27182761E-08
  -9.15999985      -3.32728582E-08
  -9.14999962      -3.38462698E-08
  -9.14000034      -3.44381625E-08
  -9.13000011      -3.50480249E-08
  -9.11999989      -3.56751215E-08
  -9.10999966      -3.63185677E-08
  -9.10000038      -3.69772835E-08
  -9.09000015      -3.76501319E-08
  -9.07999992      -3.83358163E-08
  -9.06999969      -3.90329724E-08
  -9.06000042      -3.97401614E-08
  -9.05000019      -4.04558094E-08
  -9.03999996      -4.11782359E-08
  -9.02999973      -4.19056754E-08
  -9.02000046      -4.26362590E-08
  -9.01000023      -4.33680469E-08
  -9.00000000      -4.40990426E-08
  -8.98999977      -4.48272175E-08
  -8.97999954      -4.55505749E-08
  -8.97000027      -4.62671537E-08
  -8.96000004      -4.69750319E-08
  -8.94999981      -4.76723407E-08
  -8.93999958      -4.83572826E-08
  -8.93000031      -4.90280989E-08
  -8.92000008      -4.96832051E-08
  -8.90999985      -5.03211055E-08
  -8.89999962      -5.09405247E-08
  -8.89000034      -5.15403649E-08
  -8.88000011      -5.21197911E-08
  -8.86999989      -5.26781641E-08
  -8.85999966      -5.32150501E-08
  -8.85000038      -5.37302434E-08
  -8.84000015      -5.42237046E-08
  -8.82999992      -5.46954517E-08
  -8.81999969      -5.51457013E-08
  -8.81000042      -5.55747057E-08
  -8.80000019      -5.59828628E-08
  -8.78999996      -5.63706841E-08
  -8.77999973      -5.67388447E-08
  -8.77000046      -5.70881404E-08
  -8.76000023      -5.74195447E-08
  -8.75000000      -5.77340877E-08
  -8.73999977      -5.80329207E-08
  -8.72999954      -5.83172088E-08
  -8.72000027      -5.85881317E-08
  -8.71000004      -5.88468723E-08
  -8.69999981      -5.90945639E-08
  -8.68999958      -5.93324359E-08
  -8.68000031      -5.95617529E-08
  -8.67000008      -5.97838721E-08
  -8.65999985      -6.00002679E-08
  -8.64999962      -6.02125141E-08
  -8.64000034      -6.04221881E-08
  -8.63000011      -6.06308888E-08
  -8.61999989      -6.08401791E-08
  -8.60999966      -6.10514945E-08
  -8.60000038      -6.12661779E-08
  -8.59000015      -6.14853164E-08
  -8.57999992      -6.17100113E-08
  -8.56999969      -6.19411580E-08
  -8.56000042      -6.21796801E-08
  -8.55000019      -6.24263450E-08
  -8.53999996      -6.26819627E-08
  -8.52999973      -6.29473647E-08
  -8.52000046      -6.32231547E-08
  -8.51000023      -6.35100577E-08
  -8.50000000      -6.38085567E-08
  -8.48999977      -6.41190425E-08
  -8.47999954      -6.44419131E-08
  -8.47000027      -6.47772254E-08
  -8.46000004      -6.51251284E-08
  -8.44999981      -6.54854873E-08
  -8.43999958      -6.58581527E-08
  -8.43000031      -6.62428477E-08
  -8.42000008      -6.66391458E-08
  -8.40999985      -6.70465568E-08
  -8.39999962      -6.74644340E-08
  -8.39000034      -6.78922021E-08
  -8.38000011      -6.83291290E-08
  -8.36999989      -6.87744830E-08
  -8.35999966      -6.92275890E-08
  -8.35000038      -6.96878075E-08
  -8.34000015      -7.01545417E-08
  -8.32999992      -7.06272658E-08
  -8.31999969      -7.11054611E-08
  -8.31000042      -7.15886941E-08
  -8.30000019      -7.20765598E-08
  -8.28999996      -7.25686178E-08
  -8.27999973      -7.30646548E-08
  -8.27000046      -7.35643226E-08
  -8.26000023      -7.40674864E-08
  -8.25000000      -7.45741104E-08
  -8.23999977      -7.50842659E-08
  -8.22999954      -7.55983010E-08
  -8.22000027      -7.61166703E-08
  -8.21000004      -7.66399566E-08
  -8.19999981      -7.71690338E-08
  -8.18999958      -7.77048470E-08
  -8.18000031      -7.82484832E-08
  -8.17000008      -7.88011718E-08
  -8.15999985      -7.93641490E-08
  -8.14999962      -7.99388502E-08
  -8.14000034      -8.05267177E-08
  -8.13000011      -8.11293432E-08
  -8.11999989      -8.17483539E-08
  -8.10999966      -8.23854549E-08
  -8.10000038      -8.30425222E-08
  -8.09000015      -8.37213605E-08
  -8.07999992      -8.44238670E-08
  -8.06999969      -8.51517825E-08
  -8.06000042      -8.59068621E-08
  -8.05000019      -8.66906475E-08
  -8.03999996      -8.75045671E-08
  -8.02999973      -8.83499069E-08
  -8.02000046      -8.92278251E-08
  -8.01000023      -9.01392312E-08
  -8.00000000      -9.10850844E-08
  -7.98999977      -9.20661520E-08
  -7.98000002      -9.30831234E-08
  -7.96999979      -9.41363894E-08
  -7.96000004      -9.52262340E-08
  -7.94999981      -9.63526219E-08
  -7.94000006      -9.75152830E-08
  -7.92999983      -9.87137199E-08
  -7.92000008      -9.99471155E-08
  -7.90999985      -1.01214667E-07
  -7.90000010      -1.02515230E-07
  -7.88999987      -1.03847725E-07
  -7.88000011      -1.05211058E-07
  -7.86999989      -1.06604098E-07
  -7.86000013      -1.08025695E-07
  -7.84999990      -1.09474641E-07
  -7.84000015      -1.10949891E-07
  -7.82999992      -1.12450074E-07
  -7.82000017      -1.13973968E-07
  -7.80999994      -1.15520315E-07
  -7.80000019      -1.17087886E-07
  -7.78999996      -1.18675473E-07
  -7.78000021      -1.20281925E-07
  -7.76999998      -1.21906396E-07
  -7.76000023      -1.23548134E-07
  -7.75000000      -1.25206412E-07
  -7.73999977      -1.26880877E-07
  -7.73000002      -1.28571116E-07
  -7.71999979      -1.30276959E-07
  -7.71000004      -1.31998391E-07
  -7.69999981      -1.33735298E-07
  -7.69000006      -1.35487838E-07
  -7.67999983      -1.37256151E-07
  -7.67000008      -1.39040679E-07
  -7.65999985      -1.40841578E-07
  -7.65000010      -1.42659388E-07
  -7.63999987      -1.44494393E-07
  -7.63000011      -1.46347034E-07
  -7.61999989      -1.48217737E-07
  -7.61000013      -1.50106914E-07
  -7.59999990      -1.52015133E-07
  -7.59000015      -1.53942750E-07
  -7.57999992      -1.55890149E-07
  -7.57000017      -1.57857940E-07
  -7.55999994      -1.59846493E-07
  -7.55000019      -1.61856406E-07
  -7.53999996      -1.63888402E-07
  -7.53000021      -1.65943149E-07
  -7.51999998      -1.68021359E-07
  -7.51000023      -1.70123883E-07
  -7.50000000      -1.72251447E-07
  -7.48999977      -1.74404661E-07
  -7.48000002      -1.76584123E-07
  -7.46999979      -1.78790245E-07
  -7.46000004      -1.81023253E-07
  -7.44999981      -1.83283333E-07
  -7.44000006      -1.85570656E-07