  -16.0000000       0.00000000    
  -15.9899998       0.00000000    
  -15.9799995       0.00000000    
  -15.9700003       0.00000000    
  -15.9600000       0.00000000    
  -15.9499998       0.00000000    
  -15.9399996       0.00000000    
  -15.9300003       0.00000000    
  -15.9200001       0.00000000    
  -15.9099998       0.00000000    
  -15.8999996       0.00000000    
  -15.8900003       0.00000000    
  -15.8800001       0.00000000    
  -15.8699999      -0.00000000    
  -15.8599997      -1.96181785E-44
  -15.8500004      -2.57838917E-43
  -15.8400002      -2.35698402E-42
  -15.8299999      -1.65843673E-41
  -15.8199997      -9.53527553E-41
  -15.8100004      -4.65308162E-40
  -15.8000002      -1.97643199E-39
  -15.7900000      -7.43536953E-39
  -15.7799997      -2.50773907E-38
  -15.7700005      -7.64677754E-38
  -15.7600002      -2.11965630E-37
  -15.7500000      -5.35638423E-37
  -15.7399998      -1.23402827E-36
  -15.7299995      -2.58306902E-36
  -15.7200003      -4.86939495E-36
  -15.7100000      -8.11130921E-36
  -15.6999998      -1.14325191E-35
  -15.6899996      -1.20034059E-35
  -15.6800003      -3.73627263E-36
  -15.6700001       2.34940999E-35
  -15.6599998       8.24819016E-35
  -15.6499996       1.82830778E-34
  -15.6400003       3.18585693E-34
  -15.6300001       4.50015053E-34
  -15.6199999       4.86213851E-34
  -15.6099997       2.83799211E-34
  -15.6000004      -3.16077000E-34
  -15.5900002      -1.39329307E-33
  -15.5799999      -2.80130534E-33
  -15.5699997      -4.02006395E-33
  -15.5600004      -4.12579819E-33
  -15.5500002      -2.03361074E-33
  -15.5400000       2.87735285E-33
  -15.5299997       9.83808618E-33
  -15.5200005       1.58846932E-32
  -15.5100002       1.59609137E-32
  -15.5000000       4.82580361E-33
  -15.4899998      -1.88510150E-32
  -15.4799995      -4.72140039E-32
  -15.4700003      -5.98264500E-32
  -15.4600000      -2.69553932E-32
  -15.4499998       7.59574709E-32
  -15.4399996       2.42296634E-31
  -15.4300003       4.05042957E-31
  -15.4200001       4.23466527E-31
  -15.4099998       1.11885786E-31
  -15.3999996      -6.69037641E-31
  -15.3900003      -1.86374140E-30
  -15.3800001      -3.06644346E-30
  -15.3699999      -3.45938809E-30
  -15.3599997      -1.96897072E-30
  -15.3500004       2.27473485E-30
  -15.3400002       9.21471338E-30
  -15.3299999       1.71152053E-29
  -15.3199997       2.22097940E-29
  -15.3100004       1.92479184E-29
  -15.3000002       3.26306135E-30
  -15.2900000      -2.75816731E-29
  -15.2799997      -6.88728979E-29
  -15.2700005      -1.07934085E-28
  -15.2600002      -1.24458179E-28
  -15.2500000      -9.48042626E-29
  -15.2399998       1.56734316E-31
  -15.2299995       1.65064631E-28
  -15.2200003       3.80210421E-28
  -15.2100000       5.94024539E-28
  -15.1999998       7.19701965E-28
  -15.1899996       6.38229928E-28
  -15.1800003       2.12996826E-28
  -15.1700001      -6.73576039E-28
  -15.1599998      -2.04713854E-27
  -15.1499996      -3.72396350E-27
  -15.1400003      -5.16649659E-27
  -15.1300001      -5.37966814E-27
  -15.1199999      -2.97844527E-27
  -15.1099997       3.40475525E-27
  -15.1000004       1.42504009E-26
  -15.0900002       2.78884116E-26
  -15.0799999       3.92604856E-26
  -15.0699997       3.95546691E-26
  -15.0600004       1.78406779E-26
  -15.0500002      -3.43595855E-26
  -15.0400000      -1.15622320E-25
  -15.0299997      -2.06220258E-25
  -15.0200005      -2.63041848E-25
  -15.0100002      -2.23863687E-25
  -15.0000000      -2.66015052E-26
  -14.9899998       3.54978409E-25
  -14.9799995       8.66044733E-25
  -14.9700003       1.33415233E-24
  -14.9600000       1.46912239E-24
  -14.9499998       9.28360701E-25
  -14.9399996      -5.37612750E-25
  -14.9300003      -2.87784169E-24
  -14.9200001      -5.53797434E-24
  -14.9099998      -7.37425202E-24
  -14.8999996      -6.81601381E-24
  -14.8900003      -2.37034558E-24
  -14.8800001       6.55173752E-24
  -14.8699999       1.86901233E-23
  -14.8599997       3.02743390E-23
  -14.8500004       3.51759893E-23
  -14.8400002       2.63453005E-23
  -14.8299999      -1.33405066E-24
  -14.8199997      -4.72564980E-23
  -14.8100004      -1.01628723E-22
  -14.8000002      -1.44217607E-22
  -14.7900000      -1.47307922E-22
  -14.7799997      -8.40691528E-23
  -14.7700005       5.83213829E-23
  -14.7600002       2.64092809E-22
  -14.7500000       4.78761981E-22
  -14.7399998       6.10798212E-22
  -14.7299995       5.51170576E-22
  -14.7200003       2.12162083E-22
  -14.7100000      -4.21139793E-22
  -14.6999998      -1.24264773E-21
  -14.6899996      -2.00364086E-21
  -14.6800003      -2.34178022E-21
  -14.6700001      -1.87545291E-21
  -14.6599998      -3.57290225E-22
  -14.6499996       2.14816765E-21
  -14.6400003       5.12622486E-21
  -14.6300001       7.59230633E-21
  -14.6199999       8.25938792E-21
  -14.6099997       5.91646588E-21
  -14.6000004      -3.47114197E-23
  -14.5900002      -9.02887995E-21
  -14.5799999      -1.89917744E-20
  -14.5699997      -2.64391271E-20
  -14.5600004      -2.71904542E-20
  -14.5500002      -1.76982384E-20
  -14.5400000       3.25390942E-21
  -14.5299997       3.29890808E-20
  -14.5200005       6.41877486E-20
  -14.5100002       8.56067892E-20
  -14.5000000       8.46344643E-20
  -14.4899998       5.14938608E-20
  -14.4799995      -1.58078109E-20
  -14.4700003      -1.07352967E-19
  -14.4600000      -1.99917069E-19
  -14.4499998      -2.59959188E-19
  -14.4399996      -2.51680248E-19
  -14.4300003      -1.49211246E-19
  -14.4200001       4.99092573E-20
  -14.4099998       3.14392843E-19
  -14.3999996       5.76980346E-19
  -14.3900003       7.44271369E-19
  -14.3800001       7.19667502E-19
  -14.3699999       4.36169183E-19
  -14.3599997      -1.08928907E-19
  -14.3500004      -8.28965255E-19
  -14.3400002      -1.54470634E-18
  -14.3299999      -2.01194251E-18
  -14.3199997      -1.98121627E-18
  -14.3100004      -1.28040352E-18
  -14.3000002       1.00132553E-19
  -14.2900000       1.94775578E-18
  -14.2799997       3.82173490E-18
  -14.2700005       5.12115789E-18
  -14.2600002       5.22809290E-18
  -14.2500000       3.70299892E-18
  -14.2399998       4.84985040E-19
  -14.2299995      -3.96675083E-18
  -14.2200003      -8.65416044E-18
  -14.2100000      -1.21876998E-17
  -14.1999998      -1.31026608E-17
  -14.1899996      -1.02942545E-17
  -14.1800003      -3.46911112E-18
  -14.1700001       6.52340274E-18
  -14.1599998       1.76172249E-17
  -14.1499996       2.68079360E-17
  -14.1400003       3.07951070E-17
  -14.1300001       2.68918667E-17
  -14.1199999       1.39974428E-17
  -14.1099997      -6.64362434E-18
  -14.1000004      -3.11785681E-17
  -14.0900002      -5.35854417E-17
  -14.0799999      -6.68619751E-17
  -14.0699997      -6.48015608E-17
  -14.0600004      -4.39815340E-17
  -14.0500002      -5.43755199E-18
  -14.0400000       4.45346696E-17
  -14.0299997       9.48858417E-17
  -14.0200005       1.31785978E-16
  -14.0100002       1.41838089E-16
  -14.0000000       1.15903859E-16
  -13.9899998       5.26011861E-17
  -13.9799995      -3.95754042E-17
  -13.9700003      -1.42398123E-16
  -13.9600000      -2.30753374E-16
  -13.9499998      -2.77973370E-16
  -13.9399996      -2.62700810E-16
  -13.9300003      -1.75722821E-16
  -13.9200001      -2.49097600E-17
  -13.9099998       1.63452120E-16
  -13.8999996       3.47993428E-16
  -13.8900003       4.80255505E-16
  -13.8800001       5.16082775E-16
  -13.8699999       4.28002678E-16
  -13.8599997       2.15478061E-16
  -13.8500004      -9.00704065E-17
  -13.8400002      -4.27730568E-16
  -13.8299999      -7.17709492E-16
  -13.8199997      -8.78698692E-16
  -13.8100004      -8.48572165E-16
  -13.8000002      -6.03543533E-16
  -13.7900000      -1.70511451E-16
  -13.7799997       3.71739070E-16
  -13.7700005       9.04571048E-16
  -13.7600002       1.29370444E-15
  -13.7500000       1.42116554E-15
  -13.7399998       1.21783591E-15
  -13.7299995       6.88205429E-16
  -13.7200003      -8.02607856E-17
  -13.7100000      -9.27823479E-16
  -13.6999998      -1.65332689E-15
  -13.6899996      -2.06002309E-15
  -13.6800003      -2.00650628E-15
  -13.6700001      -1.45018902E-15
  -13.6599998      -4.70963554E-16
  -13.6499996       7.33760396E-16
  -13.6400003       1.88513387E-15
  -13.6300001       2.68468342E-15
  -13.6199999       2.88901360E-15
  -13.6099997       2.37948856E-15
  -13.6000004       1.20801224E-15
  -13.5900002      -3.96078985E-16
  -13.5799999      -2.06463222E-15
  -13.5699997      -3.37026299E-15
  -13.5600004      -3.93100622E-15
  -13.5500002      -3.51561173E-15
  -13.5400000      -2.12189610E-15
  -13.5299997      -4.38293187E-18
  -13.5200005       2.36206784E-15
  -13.5100002       4.38067144E-15
  -13.5000000       5.47470513E-15
  -13.4899998       5.24101170E-15
  -13.4799995       3.57622901E-15
  -13.4700003       7.39651934E-16
  -13.4600000      -2.67099325E-15
  -13.4499998      -5.83460392E-15
  -13.4399996      -7.89312311E-15
  -13.4300003      -8.16922789E-15
  -13.4200001      -6.36263833E-15
  -13.4099998      -2.67207745E-15
  -13.3999996       2.19676089E-15
  -13.3900003       7.15199808E-15
  -13.3800001       1.09485014E-14
  -13.3699999       1.24860195E-14
  -13.3599997       1.11039870E-14
  -13.3500004       6.79800776E-15
  -13.3400002       2.94902541E-16
  -13.3299999      -7.04768978E-15
  -13.3199997      -1.35106770E-14
  -13.3100004      -1.74022614E-14
  -13.3000002      -1.74815386E-14
  -13.2900000      -1.33149268E-14
  -13.2799997      -5.46983596E-15
  -13.2700005       4.51950141E-15
  -13.2600002       1.44290995E-14
  -13.2500000       2.18216490E-14
  -13.2399998       2.46250926E-14
  -13.2299995       2.16809857E-14
  -13.2200003       1.31243334E-14
  -13.2100000       4.84257577E-16
  -13.1999998      -1.35479405E-14
  -13.1899996      -2.56601093E-14
  -13.1800003      -3.26686513E-14
  -13.1700001      -3.23132600E-14
  -13.1599998      -2.39068459E-14
  -13.1499996      -8.66666747E-15
  -13.1400003       1.03866653E-14
  -13.1300001       2.89813001E-14
  -13.1199999       4.25080740E-14
  -13.1099997       4.71094958E-14
  -13.1000004       4.06957793E-14
  -13.0900002       2.36331289E-14
  -13.0799999      -1.09557645E-15
  -13.0699997      -2.83487104E-14
  -13.0600004      -5.18511930E-14
  -13.0500002      -6.55934454E-14
  -13.0400000      -6.53004533E-14
  -13.0299997      -4.96220225E-14
  -13.0200005      -2.07306452E-14
  -13.0100002       1.58716525E-14
  -13.0000000       5.23619336E-14
  -12.9899998       8.02491889E-14
  -12.9799995       9.23289562E-14
  -12.9700003       8.44942877E-14
  -12.9600000       5.69551120E-14
  -12.9499998       1.45240299E-14
  -12.9399996      -3.41746047E-14
  -12.9300003      -7.84650529E-14
  -12.9200001      -1.07999228E-13
  -12.9099998      -1.15225117E-13
  -12.8999996      -9.73535217E-14
  -12.8900003      -5.73100053E-14
  -12.8800001      -3.36926201E-15
  -12.8699999       5.25309946E-14
  -12.8599997       9.74744916E-14
  -12.8500004       1.20658637E-13
  -12.8400002       1.16160377E-13
  -12.8299999       8.46693727E-14
  -12.8199997       3.36849926E-14
  -12.8100004      -2.39807530E-14
  -12.8000002      -7.31446086E-14
  -12.7900000      -1.00010440E-13
  -12.7799997      -9.58654881E-14
  -12.7700005      -5.97853947E-14
  -12.7600002       4.09126893E-16
  -12.7500000       6.93273631E-14
  -12.7399998       1.27202936E-13
  -12.7299995       1.54490610E-13
  -12.7200003       1.36858366E-13
  -12.7100000       6.93937434E-14
  -12.6999998      -4.10551753E-14
  -12.6899996      -1.76114237E-13
  -12.6800003      -3.08838404E-13
  -12.6700001      -4.08895709E-13
  -12.6599998      -4.48931555E-13
  -12.6499996      -4.10724596E-13
  -12.6400003      -2.89719339E-13
  -12.6300001      -9.68297911E-14
  -12.6199999       1.43004071E-13
  -12.6099997       3.95284689E-13
  -12.6000004       6.22513326E-13
  -12.5900002       7.91374778E-13
  -12.5799999       8.78906160E-13
  -12.5699997       8.76210508E-13
  -12.5600004       7.88843329E-13
  -12.5500002       6.33803123E-13
  -12.5400000       4.33909066E-13
  -12.5299997       2.11041362E-13
  -12.5200005      -1.99347747E-14
  -12.5100002      -2.54834240E-13
  -12.5000000      -5.00223994E-13
  -12.4899998      -7.69593644E-13
  -12.4799995      -1.07632371E-12
  -12.4700003      -1.42506081E-12
  -12.4600000      -1.80366410E-12
  -12.4499998      -2.17794641E-12
  -12.4399996      -2.49097531E-12
  -12.4300003      -2.66775491E-12
  -12.4200001      -2.62487991E-12
  -12.4099998      -2.28362945E-12
  -12.3999996      -1.58400365E-12
  -12.3900003      -4.96845729E-13
  -12.3800001       9.68539268E-13
  -12.3699999       2.76309336E-12
  -12.3599997       4.80346925E-12
  -12.3500004       6.98339086E-12
  -12.3400002       9.18869061E-12
  -12.3299999       1.13129922E-11
  -12.3199997       1.32709130E-11
  -12.3100004       1.50060485E-11
  -12.3000002       1.64922295E-11
  -12.2900000       1.77280256E-11
  -12.2799997       1.87258334E-11
  -12.2700005       1.94982225E-11
  -12.2600002       2.00447315E-11
  -12.2500000       2.03423250E-11
  -12.2399998       2.03418480E-11
  -12.2299995       1.99714360E-11
  -12.2200003       1.91463286E-11
  -12.2100000       1.77832072E-11
  -12.1999998       1.58156700E-11
  -12.1899996       1.32077170E-11
  -12.1800003       9.96204074E-12
  -12.1700001       6.12135386E-12
  -12.1599998       1.76205133E-12
  -12.1499996      -3.01806215E-12
  -12.1400003      -8.11569215E-12
  -12.1300001      -1.34376251E-11
  -12.1199999      -1.89127273E-11
  -12.1099997      -2.44972410E-11
  -12.1000004      -3.01721183E-11
  -12.0900002      -3.59328053E-11
  -12.0799999      -4.17736713E-11
  -12.0699997      -4.76707562E-11
  -12.0600004      -5.35670605E-11
  -12.0500002      -5.93639790E-11
  -12.0400000      -6.49218734E-11
  -12.0299997      -7.00700331E-11
  -12.0200005      -7.46246884E-11
  -12.0100002      -7.84118673E-11
  -12.0000000      -8.12898429E-11
  -11.9899998      -8.31671051E-11
  -11.9799995      -8.40110204E-11
  -11.9700003      -8.38457914E-11
  -11.9600000      -8.27394125E-11
  -11.9499998      -8.07825820E-11
  -11.9399996      -7.80639303E-11
  -11.9300003      -7.46469345E-11
  -11.9200001      -7.05537087E-11
  -11.9099998      -6.57592869E-11
  -11.8999996      -6.01970349E-11
  -11.8900003      -5.37747936E-11
  -11.8800001      -4.63970806E-11
  -11.8699999      -3.79887753E-11
  -11.8599997      -2.85151451E-11
  -11.8500004      -1.79930775E-11
  -11.8400002      -6.49232014E-12
  -11.8299999       5.87389859E-12
  -11.8199997       1.89656468E-11
  -11.8100004       3.26363103E-11
  -11.8000002       4.67506416E-11
  -11.7900000       6.11970821E-11
  -11.7799997       7.58906687E-11
  -11.7700005       9.07670675E-11
  -11.7600002       1.05769393E-10
  -11.7500000       1.20831220E-10
  -11.7399998       1.35860698E-10
  -11.7299995       1.50729887E-10
  -11.7200003       1.65271977E-10
  -11.7100000       1.79287321E-10
  -11.6999998       1.92557081E-10
  -11.6899996       2.04861045E-10
  -11.6800003       2.15995860E-10
  -11.6700001       2.25789665E-10
  -11.6599998       2.34110231E-10
  -11.6499996       2.40865189E-10
  -11.6400003       2.45994836E-10
  -11.6300001       2.49460230E-10
  -11.6199999       2.51229093E-10
  -11.6099997       2.51263899E-10
  -11.6000004       2.49512910E-10
  -11.5900002       2.45908793E-10
  -11.5799999       2.40371945E-10
  -11.5699997       2.32818542E-10
  -11.5600004       2.23172134E-10
  -11.5500002       2.11374113E-10
  -11.5400000       1.97392255E-10
  -11.5299997       1.81225659E-10
  -11.5200005       1.62905744E-10
  -11.5100002       1.42493503E-10
  -11.5000000       1.20071883E-10
  -11.4899998       9.57401242E-11
  -11.4799995       6.96061472E-11
  -11.4700003       4.17799025E-11
  -11.4600000       1.23690736E-11
  -11.4499998      -1.85236167E-11
  -11.4399996      -5.08018558E-11
  -11.4300003      -8.43747502E-11
  -11.4200001      -1.19156698E-10
  -11.4099998      -1.55065030E-10
  -11.3999996      -1.92017444E-10
  -11.3900003      -2.29929797E-10
  -11.3800001      -2.68713468E-10
  -11.3699999      -3.08272463E-10
  -11.3599997      -3.48502699E-10
  -11.3500004      -3.89291321E-10
  -11.3400002      -4.30518177E-10
  -11.3299999      -4.72058337E-10
  -11.3199997      -5.13786458E-10
  -11.3100004      -5.55580526E-10
  -11.3000002      -5.97326077E-10
  -11.2900000      -6.38918252E-10
  -11.2799997      -6.80261625E-10
  -11.2700005      -7.21268045E-10
  -11.2600002      -7.61853580E-10
  -11.2500000      -8.01932021E-10
  -11.2399998      -8.41410386E-10
  -11.2299995      -8.80187090E-10
  -11.2200003      -9.18150389E-10
  -11.2100000      -9.55179824E-10
  -11.1999998      -9.91152049E-10
  -11.1899996      -1.02594810E-09
  -11.1800003      -1.05945952E-09
  -11.1700001      -1.09159615E-09
  -11.1599998      -1.12229237E-09
  -11.1499996      -1.15150500E-09
  -11.1400003      -1.17921728E-09
  -11.1300001      -1.20543575E-09
  -11.1199999      -1.23018062E-09
  -11.1099997      -1.25348210E-09
  -11.1000004      -1.27537536E-09
  -11.0900002      -1.29589273E-09
  -11.0799999      -1.31506372E-09
  -11.0699997      -1.33290667E-09
  -11.0600004      -1.34944333E-09
  -11.0500002      -1.36469092E-09
  -11.0400000      -1.37867995E-09
  -11.0299997      -1.39146017E-09
  -11.0200005      -1.40310730E-09
  -11.0100002      -1.41373457E-09
  -11.0000000      -1.42349210E-09
  -10.9899998      -1.43256551E-09
  -10.9799995      -1.44116297E-09
  -10.9700003      -1.44950274E-09
  -10.9600000      -1.45778978E-09
  -10.9499998      -1.46619850E-09
  -10.9399996      -1.47485069E-09
  -10.9300003      -1.48380008E-09
  -10.9200001      -1.49302570E-09
  -10.9099998      -1.50244006E-09
  -10.8999996      -1.51189261E-09
  -10.8900003      -1.52119606E-09
  -10.8800001      -1.53013557E-09
  -10.8699999      -1.53849689E-09
  -10.8599997      -1.54607882E-09
  -10.8500004      -1.55270430E-09
  -10.8400002      -1.55821944E-09
  -10.8299999      -1.56249891E-09
  -10.8199997      -1.56544155E-09
  -10.8100004      -1.56696001E-09
  -10.8000002      -1.56697400E-09
  -10.7900000      -1.56542734E-09
  -10.7799997      -1.56227886E-09
  -10.7700005      -1.55750557E-09
  -10.7600002      -1.55112057E-09
  -10.7500000      -1.54317259E-09
  -10.7399998      -1.53374302E-09
  -10.7299995      -1.52295510E-09
  -10.7200003      -1.51095314E-09
  -10.7100000      -1.49790236E-09
  -10.6999998      -1.48396351E-09
  -10.6899996      -1.46928314E-09
  -10.6800003      -1.45397738E-09
  -10.6700001      -1.43812262E-09
  -10.6599998      -1.42175127E-09
  -10.6499996      -1.40484646E-09
  -10.6400003      -1.38736633E-09
  -10.6300001      -1.36925526E-09
  -10.6199999      -1.35045330E-09
  -10.6099997      -1.33093014E-09
  -10.6000004      -1.31069544E-09
  -10.5900002      -1.28980449E-09
  -10.5799999      -1.26834265E-09
  -10.5699997      -1.24643029E-09
  -10.5600004      -1.22418364E-09
  -10.5500002      -1.20170585E-09
  -10.5400000      -1.17905208E-09
  -10.5299997      -1.15623011E-09
  -10.5200005      -1.13321352E-09
  -10.5100002      -1.10992882E-09
  -10.5000000      -1.08630727E-09
  -10.4899998      -1.06232878E-09
  -10.4799995      -1.03802711E-09
  -10.4700003      -1.01350894E-09
  -10.4600000      -9.88979010E-10
  -10.4499998      -9.64701541E-10
  -10.4399996      -9.40985845E-10
  -10.4300003      -9.18125964E-10
  -10.4200001      -8.96395902E-10
  -10.4099998      -8.75988504E-10
  -10.3999996      -8.57022509E-10
  -10.3900003      -8.39546654E-10
  -10.3800001      -8.23531965E-10
  -10.3699999      -8.08946243E-10
  -10.3599997      -7.95734423E-10
  -10.3500004      -7.83874465E-10
  -10.3400002      -7.73381081E-10
  -10.3299999      -7.64302510E-10
  -10.3199997      -7.56712581E-10
  -10.3100004      -7.50690621E-10
  -10.3000002      -7.46319728E-10
  -10.2900000      -7.43646755E-10
  -10.2799997      -7.42690021E-10
  -10.2700005      -7.43421824E-10
  -10.2600002      -7.45797812E-10
  -10.2500000      -7.49753426E-10
  -10.2399998      -7.55205343E-10
  -10.2299995      -7.62074681E-10
  -10.2200003      -7.70284836E-10
  -10.2100000      -7.79755593E-10
  -10.1999998      -7.90415788E-10
  -10.1899996      -8.02191702E-10
  -10.1800003      -8.15004897E-10
  -10.1700001      -8.28783875E-10
  -10.1599998      -8.43460801E-10
  -10.1499996      -8.58976945E-10
  -10.1400003      -8.75288897E-10
  -10.1300001      -8.92361574E-10
  -10.1199999      -9.10176934E-10
  -10.1099997      -9.28742028E-10
  -10.1000004      -9.48076173E-10
  -10.0900002      -9.68238045E-10
  -10.0799999      -9.89310078E-10
  -10.0699997      -1.01142705E-09
  -10.0600004      -1.03477105E-09
  -10.0500002      -1.05957909E-09
  -10.0400000      -1.08611653E-09
  -10.0299997      -1.11469178E-09
  -10.0200005      -1.14560728E-09
  -10.0100002      -1.17917287E-09
  -10.0000000      -1.21562060E-09
  -9.98999977      -1.25513411E-09
  -9.97999954      -1.29782496E-09
  -9.97000027      -1.34373290E-09
  -9.96000004      -1.39281287E-09
  -9.94999981      -1.44499746E-09
  -9.93999958      -1.50019863E-09
  -9.93000031      -1.55832858E-09
  -9.92000008      -1.61933611E-09
  -9.90999985      -1.68319791E-09
  -9.89999962      -1.74990988E-09
  -9.89000034      -1.81949478E-09
  -9.88000011      -1.89196081E-09
  -9.86999989      -1.96729966E-09
  -9.85999966      -2.04544359E-09
  -9.85000038      -2.12628604E-09
  -9.84000015      -2.20966645E-09
  -9.82999992      -2.29541319E-09
  -9.81999969      -2.38331666E-09
  -9.81000042      -2.47319742E-09
  -9.80000019      -2.56491539E-09
  -9.78999996      -2.65837552E-09
  -9.77999973      -2.75354761E-09
  -9.77000046      -2.85044610E-09
  -9.76000023      -2.94915758E-09
  -9.75000000      -3.04977821E-09
  -9.73999977      -3.15246518E-09
  -9.72999954      -3.25739857E-09
  -9.72000027      -3.36477024E-09
  -9.71000004      -3.47477136E-09
  -9.69999981      -3.58759622E-09
  -9.68999958      -3.70340714E-09
  -9.68000031      -3.82230336E-09
  -9.67000008      -3.94431821E-09
  -9.65999985      -4.06939682E-09
  -9.64999962      -4.19739088E-09
  -9.64000034      -4.32804814E-09
  -9.63000011      -4.46103998E-09
  -9.61999989      -4.59599825E-09
  -9.60999966      -4.73253081E-09
  -9.60000038      -4.87021579E-09
  -9.59000015      -5.00866992E-09
  -9.57999992      -5.14749221E-09
  -9.56999969      -5.28627186E-09
  -9.56000042      -5.42457901E-09
  -9.55000019      -5.56196111E-09
  -9.53999996      -5.69792125E-09
  -9.52999973      -5.83192872E-09
  -9.52000046      -5.96345728E-09
  -9.51000023      -6.09198514E-09
  -9.50000000      -6.21704244E-09
  -9.48999977      -6.33825925E-09
  -9.47999954      -6.45531983E-09
  -9.47000027      -6.56799770E-09
  -9.46000004      -6.67613698E-09
  -9.44999981      -6.77961109E-09
  -9.43999958      -6.87829438E-09
  -9.43000031      -6.97210067E-09
  -9.42000008      -7.06092829E-09
  -9.40999985      -7.14469506E-09
  -9.39999962      -7.22335969E-09
  -9.39000034      -7.29695149E-09
  -9.38000011      -7.36561345E-09
  -9.36999989      -7.42958184E-09
  -9.35999966      -7.48920570E-09
  -9.35000038      -7.54500107E-09
  -9.34000015      -7.59757324E-09
  -9.32999992      -7.64765140E-09
  -9.31999969      -7.69602071E-09
  -9.31000042      -7.74357023E-09
  -9.30000019      -7.79125564E-09
  -9.28999996      -7.84003262E-09
  -9.27999973      -7.89088972E-09
  -9.27000046      -7.94481547E-09
  -9.26000023      -8.00276290E-09
  -9.25000000      -8.06562550E-09
  -9.23999977      -8.13423462E-09
  -9.22999954      -8.20934698E-09
  -9.22000027      -8.29166957E-09
  -9.21000004      -8.38178771E-09
  -9.19999981      -8.48026538E-09
  -9.18999958      -8.58754756E-09
  -9.18000031      -8.70405525E-09
  -9.17000008      -8.83007889E-09
  -9.15999985      -8.96582719E-09
  -9.14999962      -9.11144227E-09
  -9.14000034      -9.26690635E-09
  -9.13000011      -9.43218392E-09
  -9.11999989      -9.60711599E-09
  -9.10999966      -9.79146986E-09
  -9.10000038      -9.98501903E-09
  -9.09000015      -1.01874260E-08
  -9.07999992      -1.03983275E-08
  -9.06999969      -1.06173523E-08
  -9.06000042      -1.08440368E-08
  -9.05000019      -1.10777734E-08
  -9.03999996      -1.13179315E-08
  -9.02999973      -1.15637047E-08
  -9.02000046      -1.18141958E-08
  -9.01000023      -1.20683881E-08
  -9.00000000      -1.23251231E-08
  -8.98999977      -1.25832171E-08
  -8.97999954      -1.28413937E-08
  -8.97000027      -1.30983713E-08
  -8.96000004      -1.33529010E-08
  -8.94999981      -1.36037759E-08
  -8.93999958      -1.38498937E-08
  -8.93000031      -1.40902827E-08
  -8.92000008      -1.43240877E-08
  -8.90999985      -1.45505581E-08
  -8.89999962      -1.47690953E-08
  -8.89000034      -1.49791131E-08
  -8.88000011      -1.51801380E-08
  -8.86999989      -1.53716968E-08
  -8.85999966      -1.55532547E-08
  -8.85000038      -1.57244191E-08
  -8.84000015      -1.58847087E-08
  -8.82999992      -1.60336615E-08
  -8.81999969      -1.61709917E-08
  -8.81000042      -1.62963154E-08
  -8.80000019      -1.64093361E-08
  -8.78999996      -1.65098406E-08
  -8.77999973      -1.65975322E-08
  -8.77000046      -1.66721961E-08
  -8.76000023      -1.67336260E-08
  -8.75000000      -1.67817014E-08
  -8.73999977      -1.68163581E-08
  -8.72999954      -1.68377028E-08
  -8.72000027      -1.68460943E-08
  -8.71000004      -1.68420282E-08
  -8.69999981      -1.68262133E-08
  -8.68999958      -1.67994241E-08
  -8.68000031      -1.67625611E-08
  -8.67000008      -1.67164718E-08
  -8.65999985      -1.66620762E-08
  -8.64999962      -1.66001453E-08
  -8.64000034      -1.65315992E-08
  -8.63000011      -1.64573226E-08
  -8.61999989      -1.63783120E-08
  -8.60999966      -1.62957363E-08
  -8.60000038      -1.62109117E-08
  -8.59000015      -1.61252469E-08
  -8.57999992      -1.60400653E-08
  -8.56999969      -1.59567186E-08
  -8.56000042      -1.58763758E-08
  -8.55000019      -1.58000670E-08
  -8.53999996      -1.57285704E-08
  -8.52999973      -1.56626143E-08
  -8.52000046      -1.56028879E-08
  -8.51000023      -1.55499418E-08
  -8.50000000      -1.55045186E-08
  -8.48999977      -1.54672026E-08
  -8.47999954      -1.54386459E-08
  -8.47000027      -1.54192108E-08
  -8.46000004      -1.54091353E-08
  -8.44999981      -1.54084070E-08
  -8.43999958      -1.54166848E-08
  -8.43000031      -1.54334412E-08
  -8.42000008      -1.54580402E-08
  -8.40999985      -1.54898849E-08
  -8.39999962      -1.55284248E-08
  -8.39000034      -1.55731872E-08
  -8.38000011      -1.56239004E-08
  -8.36999989      -1.56800635E-08
  -8.35999966      -1.57413282E-08
  -8.35000038      -1.58071138E-08
  -8.34000015      -1.58766333E-08
  -8.32999992      -1.59489311E-08
  -8.31999969      -1.60230105E-08
  -8.31000042      -1.60977542E-08
  -8.30000019      -1.61723790E-08
  -8.28999996      -1.62462310E-08
  -8.27999973      -1.63187437E-08
  -8.27000046      -1.63896878E-08
  -8.26000023      -1.64588183E-08
  -8.25000000      -1.65259451E-08
  -8.23999977      -1.65908478E-08
  -8.22999954      -1.66532637E-08
  -8.22000027      -1.67128960E-08
  -8.21000004      -1.67695511E-08
  -8.19999981      -1.68230354E-08
  -8.18999958      -1.68734200E-08
  -8.18000031      -1.69209429E-08
  -8.17000008      -1.69659629E-08
  -8.15999985      -1.70091052E-08
  -8.14999962      -1.70507715E-08
  -8.14000034      -1.70915460E-08
  -8.13000011      -1.71318657E-08
  -8.11999989      -1.71722991E-08
  -8.10999966      -1.72132602E-08
  -8.10000038      -1.72553634E-08
  -8.09000015      -1.72993424E-08
  -8.07999992      -1.73461032E-08
  -8.06999969      -1.73965518E-08
  -8.06000042      -1.74517805E-08
  -8.05000019      -1.75127663E-08
  -8.03999996      -1.75803230E-08
  -8.02999973      -1.76551183E-08
  -8.02000046      -1.77375483E-08
  -8.01000023      -1.78279524E-08
  -8.00000000      -1.79263751E-08
  -7.98999977      -1.80331110E-08
  -7.98000002      -1.81484587E-08
  -7.96999979      -1.82730311E-08
  -7.96000004      -1.84072260E-08
  -7.94999981      -1.85517344E-08
  -7.94000006      -1.87072065E-08
  -7.92999983      -1.88742302E-08
  -7.92000008      -1.90533438E-08
  -7.90999985      -1.92449878E-08
  -7.90000010      -1.94494341E-08
  -7.88999987      -1.96670360E-08
  -7.88000011      -1.98982004E-08
  -7.86999989      -2.01431369E-08
  -7.86000013      -2.04021902E-08
  -7.84999990      -2.06755910E-08
  -7.84000015      -2.09633377E-08
  -7.82999992      -2.12652029E-08
  -7.82000017      -2.15810250E-08
  -7.80999994      -2.19104948E-08
  -7.80000019      -2.22529479E-08
  -7.78999996      -2.26081429E-08
  -7.78000021      -2.29755042E-08
  -7.76999998      -2.33547741E-08
  -7.76000023      -2.37455886E-08
  -7.75000000      -2.41476954E-08
  -7.73999977      -2.45608121E-08
  -7.73000002      -2.49846241E-08
  -7.71999979      -2.54187391E-08
  -7.71000004      -2.58626915E-08
  -7.69999981      -2.63158828E-08
  -7.69000006      -2.67780180E-08
  -7.67999983      -2.72484026E-08
  -7.67000008      -2.77268040E-08
  -7.65999985      -2.82126607E-08
  -7.65000010      -2.87057098E-08
  -7.63999987      -2.92055020E-08
  -7.63000011      -2.97115594E-08
  -7.61999989      -3.02234646E-08
  -7.61000013      -3.07407362E-08
  -7.59999990      -3.12630988E-08
  -7.59000015      -3.17902149E-08
  -7.57999992      -3.23221698E-08
  -7.57000017      -3.28587966E-08
  -7.55999994      -3.34000489E-08
  -7.55000019      -3.39462183E-08
  -7.53999996      -3.44970523E-08
  -7.53000021      -3.50527145E-08
  -7.51999998      -3.56131906E-08
  -7.51000023      -3.61784736E-08
  -7.50000000      -3.67485882E-08
  -7.48999977      -3.73236553E-08
  -7.48000002      -3.79041332E-08
  -7.46999979      -3.84904162E-08
  -7.46000004      -3.90832362E-08
  -7.44999981      -3.96828952E-08
  -7.44000006      -4.02901605E-08