  -16.0000000       0.00000000    
  -15.9899998       0.00000000    
  -15.9799995       0.00000000    
  -15.9700003       0.00000000    
  -15.9600000       0.00000000    
  -15.9499998       0.00000000    
  -15.9399996       0.00000000    
  -15.9300003       0.00000000    
  -15.9200001       0.00000000    
  -15.9099998       0.00000000    
  -15.8999996       0.00000000    
  -15.8900003       0.00000000    
  -15.8800001       0.00000000    
  -15.8699999       0.00000000    
  -15.8599997       2.80259693E-45
  -15.8500004       4.48415509E-44
  -15.8400002       4.93257059E-43
  -15.8299999       3.91522791E-42
  -15.8199997       2.47973776E-41
  -15.8100004       1.31420776E-40
  -15.8000002       6.00663784E-40
  -15.7900000       2.41416961E-39
  -15.7799997       8.64674861E-39
  -15.7700005       2.78562384E-38
  -15.7600002       8.12412650E-38
  -15.7500000       2.15395493E-37
  -15.7399998       5.20277098E-37
  -15.7299995       1.14484703E-36
  -15.7200003       2.28835295E-36
  -15.7100000       4.12502987E-36
  -15.6999998       6.60521927E-36
  -15.6899996       9.09156202E-36
  -15.6800003       9.86965046E-36
  -15.6700001       5.74211664E-36
  -15.6599998      -7.85141045E-36
  -15.6499996      -3.55607704E-35
  -15.6400003      -7.91350603E-35
  -15.6300001      -1.32681939E-34
  -15.6199999      -1.77207071E-34
  -15.6099997      -1.76819066E-34
  -15.6000004      -8.00411323E-35
  -15.5900002       1.70244252E-34
  -15.5799999       6.15824088E-34
  -15.5699997       1.25053966E-33
  -15.5600004       1.97678146E-33
  -15.5500002       2.55283229E-33
  -15.5400000       2.53674822E-33
  -15.5299997       1.24715157E-33
  -15.5200005      -2.20426166E-33
  -15.5100002      -8.69900717E-33
  -15.5000000      -1.85555369E-32
  -15.4899998      -3.04798985E-32
  -15.4799995      -4.00414283E-32
  -15.4700003      -3.81156541E-32
  -15.4600000      -1.04434687E-32
  -15.4499998       5.97100878E-32
  -15.4399996       1.83312572E-31
  -15.4300003       3.49923885E-31
  -15.4200001       5.05812586E-31
  -15.4099998       5.33213547E-31
  -15.3999996       2.47444617E-31
  -15.3900003      -5.61774487E-31
  -15.3800001      -2.01561960E-30
  -15.3699999      -3.94461862E-30
  -15.3599997      -5.63439156E-30
  -15.3500004      -5.63810763E-30
  -15.3400002      -1.88106161E-30
  -15.3299999       7.64749541E-30
  -15.3199997       2.33892832E-29
  -15.3100004       4.20030184E-29
  -15.3000002       5.42053946E-29
  -15.2900000       4.43097980E-29
  -15.2799997      -6.20879264E-30
  -15.2700005      -1.09049331E-28
  -15.2600002      -2.53327845E-28
  -15.2500000      -3.88139619E-28
  -15.2399998      -4.13885523E-28
  -15.2299995      -1.97833474E-28
  -15.2200003       3.71281882E-28
  -15.2100000       1.28660344E-27
  -15.1999998       2.30730278E-27
  -15.1899996       2.88240684E-27
  -15.1800003       2.20437030E-27
  -15.1700001      -5.17041364E-28
  -15.1599998      -5.52966727E-27
  -15.1499996      -1.18677367E-26
  -15.1400003      -1.68317541E-26
  -15.1300001      -1.60900415E-26
  -15.1199999      -4.89754740E-27
  -15.1099997       1.93412686E-26
  -15.1000004       5.35837899E-26
  -15.0900002       8.60876079E-26
  -15.0799999       9.60118479E-26
  -15.0699997       5.81611183E-26
  -15.0600004      -4.57149856E-26
  -15.0500002      -2.10433823E-25
  -15.0400000      -3.91251047E-25
  -15.0299997      -4.97823641E-25
  -15.0200005      -4.09716087E-25
  -15.0100002      -2.12733461E-26
  -15.0000000       6.87205676E-25
  -14.9899998       1.57233379E-24
  -14.9799995       2.28337485E-24
  -14.9700003       2.29982359E-24
  -14.9600000       1.08991143E-24
  -14.9499998      -1.60939063E-24
  -14.9399996      -5.45619077E-24
  -14.9300003      -9.25275703E-24
  -14.9200001      -1.09733376E-23
  -14.9099998      -8.24793677E-24
  -14.8999996       6.41834538E-25
  -14.8900003       1.54296665E-23
  -14.8800001       3.26595798E-23
  -14.8699999       4.53117665E-23
  -14.8599997       4.39897050E-23
  -14.8500004       2.00715560E-23
  -14.8400002      -2.95070266E-23
  -14.8299999      -9.71942773E-23
  -14.8199997      -1.61814241E-22
  -14.8100004      -1.90342355E-22
  -14.8000002      -1.46503398E-22
  -14.7900000      -6.13451372E-24
  -14.7799997       2.24033720E-22
  -14.7700005       4.91105521E-22
  -14.7600002       6.93502086E-22
  -14.7500000       6.99694682E-22
  -14.7399998       3.91530070E-22
  -14.7299995      -2.74069085E-22
  -14.7200003      -1.20312198E-21
  -14.7100000      -2.13038670E-21
  -14.6999998      -2.64346971E-21
  -14.6899996      -2.28572036E-21
  -14.6800003      -7.33868793E-22
  -14.6700001       1.98895397E-21
  -14.6599998       5.34002964E-21
  -14.6499996       8.21967759E-21
  -14.6400003       9.15482062E-21
  -14.6300001       6.73546314E-21
  -14.6199999       2.43138543E-22
  -14.6099997      -9.70091411E-21
  -14.6000004      -2.07313110E-20
  -14.5900002      -2.88639311E-20
  -14.5799999      -2.93506009E-20
  -14.5699997      -1.82526126E-20
  -14.5600004       5.57784810E-21
  -14.5500002       3.87274072E-20
  -14.5400000       7.24731515E-20
  -14.5299997       9.38149024E-20
  -14.5200005       8.86656385E-20
  -14.5100002       4.68835276E-20
  -14.5000000      -3.20346210E-20
  -14.4899998      -1.34537463E-19
  -14.4799995      -2.32132755E-19
  -14.4700003      -2.85847693E-19
  -14.4600000      -2.56540787E-19
  -14.4499998      -1.19538442E-19
  -14.4399996       1.20176095E-19
  -14.4300003       4.17690589E-19
  -14.4200001       6.88564167E-19
  -14.4099998       8.23907769E-19
  -14.3999996       7.20257541E-19
  -14.3900003       3.18976483E-19
  -14.3800001      -3.55495034E-19
  -14.3699999      -1.17270915E-18
  -14.3599997      -1.90239092E-18
  -14.3500004      -2.25806514E-18
  -14.3400002      -1.97614007E-18
  -14.3299999      -9.15312054E-19
  -14.3199997       8.51135194E-19
  -14.3100004       2.98440065E-18
  -14.3000002       4.90207166E-18
  -14.2900000       5.88982954E-18
  -14.2799997       5.29494523E-18
  -14.2700005       2.76340012E-18
  -14.2600002      -1.54424467E-18
  -14.2500000      -6.83638844E-18
  -14.2399998      -1.17428049E-17
  -14.2299995      -1.45712034E-17
  -14.2200003      -1.37473265E-17
  -14.2100000      -8.35249759E-18
  -14.1999998       1.38406455E-18
  -14.1899996       1.38076396E-17
  -14.1800003       2.59249951E-17
  -14.1700001       3.39333310E-17
  -14.1599998       3.41519085E-17
  -14.1499996       2.41812786E-17
  -14.1400003       3.99743551E-18
  -14.1300001      -2.33702793E-17
  -14.1199999      -5.18945356E-17
  -14.1099997      -7.35169276E-17
  -14.1000004      -7.99767119E-17
  -14.0900002      -6.51818257E-17
  -14.0799999      -2.75615803E-17
  -14.0699997       2.82930511E-17
  -14.0600004       9.13576517E-17
  -14.0500002       1.45687351E-16
  -14.0400000       1.73714043E-16
  -14.0299997       1.60814578E-16
  -14.0200005       1.00151852E-16
  -14.0100002      -3.51724434E-18
  -14.0000000      -1.32378756E-16
  -13.9899998      -2.57393566E-16
  -13.9799995      -3.43661860E-16
  -13.9700003      -3.58627132E-16
  -13.9600000      -2.81486465E-16
  -13.9499998      -1.11486040E-16
  -13.9399996       1.27409319E-16
  -13.9300003       3.87522020E-16
  -13.9200001       6.05074068E-16
  -13.9099998       7.13732037E-16
  -13.8999996       6.61665451E-16
  -13.8900003       4.28257873E-16
  -13.8800001       3.59316042E-17
  -13.8699999      -4.47040431E-16
  -13.8599997      -9.15255840E-16
  -13.8500004      -1.24635964E-15
  -13.8400002      -1.32953161E-15
  -13.8299999      -1.09633581E-15
  -13.8199997      -5.46250330E-16
  -13.8100004       2.40793467E-16
  -13.8000002       1.11049217E-15
  -13.7900000       1.86056610E-15
  -13.7799997       2.28410756E-15
  -13.7700005       2.22147795E-15
  -13.7600002       1.60867269E-15
  -13.7500000       5.08991839E-16
  -13.7399998      -8.82896693E-16
  -13.7299995      -2.26993353E-15
  -13.7200003      -3.31227978E-15
  -13.7100000      -3.70677118E-15
  -13.6999998      -3.26858029E-15
  -13.6899996      -1.99424950E-15
  -13.6800003      -8.71159556E-17
  -13.6700001       2.06669496E-15
  -13.6599998       3.97224486E-15
  -13.6499996       5.13718664E-15
  -13.6400003       5.19659668E-15
  -13.6300001       4.02048932E-15
  -13.6199999       1.77387059E-15
  -13.6099997      -1.09217413E-15
  -13.6000004      -3.92442096E-15
  -13.5900002      -6.01345323E-15
  -13.5799999      -6.77067147E-15
  -13.5699997      -5.89347610E-15
  -13.5600004      -3.47376153E-15
  -13.5500002      -1.45792006E-17
  -13.5400000       3.65990739E-15
  -13.5299997       6.58949959E-15
  -13.5200005       7.91976737E-15
  -13.5100002       7.14274763E-15
  -13.5000000       4.27229273E-15
  -13.4899998      -1.00251537E-16
  -13.4799995      -4.89895523E-15
  -13.4700003      -8.79765943E-15
  -13.4600000      -1.05503569E-14
  -13.4499998      -9.34142154E-15
  -13.4399996      -5.06526677E-15
  -13.4300003       1.54721643E-15
  -13.4200001       9.00790401E-15
  -13.4099998       1.53615049E-14
  -13.3999996       1.86376200E-14
  -13.3900003       1.73682717E-14
  -13.3800001       1.10461355E-14
  -13.3699999       3.98889864E-16
  -13.3599997      -1.26131447E-14
  -13.3500004      -2.51102036E-14
  -13.3400002      -3.38776147E-14
  -13.3299999      -3.61104172E-14
  -13.3199997      -3.01546677E-14
  -13.3100004      -1.60644559E-14
  -13.3000002       4.18129386E-15
  -13.2900000       2.68930115E-14
  -13.2799997       4.73127566E-14
  -13.2700005       6.05792272E-14
  -13.2600002       6.28232614E-14
  -13.2500000       5.21520354E-14
  -13.2399998       2.92836298E-14
  -13.2299995      -2.34699404E-15
  -13.2200003      -3.70823198E-14
  -13.2100000      -6.80759499E-14
  -13.1999998      -8.86754117E-14
  -13.1899996      -9.38687536E-14
  -13.1800003      -8.14739647E-14
  -13.1700001      -5.27868730E-14
  -13.1599998      -1.25072987E-14
  -13.1499996       3.20816778E-14
  -13.1400003       7.25378281E-14
  -13.1300001       1.00997376E-13
  -13.1199999       1.11848817E-13
  -13.1099997       1.02963292E-13
  -13.1000004       7.61864327E-14
  -13.0900002       3.69577314E-14
  -13.0799999      -6.87832512E-15
  -13.0699997      -4.68120619E-14
  -13.0600004      -7.55621219E-14
  -13.0500002      -8.86762994E-14
  -13.0400000      -8.54502965E-14
  -13.0299997      -6.89298878E-14
  -13.0200005      -4.49821793E-14
  -13.0100002      -2.06540192E-14
  -13.0000000      -2.22462933E-15
  -12.9899998       6.54566902E-15
  -12.9799995       5.49752504E-15
  -12.9700003      -1.83634075E-15
  -12.9600000      -9.20984429E-15
  -12.9499998      -9.51203346E-15
  -12.9399996       2.95979549E-15
  -12.9300003       3.03940189E-14
  -12.9200001       7.01222188E-14
  -12.9099998       1.14488022E-13
  -12.8999996       1.52097288E-13
  -12.8900003       1.70278261E-13
  -12.8800001       1.58251423E-13
  -12.8699999       1.10279841E-13
  -12.8599997       2.80035648E-14
  -12.8500004      -7.87129829E-14
  -12.8400002      -1.92789754E-13
  -12.8299999      -2.92752232E-13
  -12.8199997      -3.56881706E-13
  -12.8100004      -3.67858603E-13
  -12.8000002      -3.16882019E-13
  -12.7900000      -2.06296501E-13
  -12.7799997      -5.00338398E-14
  -12.7700005       1.28361297E-13
  -12.7600002       2.99821854E-13
  -12.7500000       4.35169750E-13
  -12.7399998       5.10722324E-13
  -12.7299995       5.12890403E-13
  -12.7200003       4.40756183E-13
  -12.7100000       3.06058239E-13
  -12.6999998       1.30595201E-13
  -12.6899996      -5.83506157E-14
  -12.6800003      -2.33509636E-13
  -12.6700001      -3.72771556E-13
  -12.6599998      -4.62810346E-13
  -12.6499996      -5.00405219E-13
  -12.6400003      -4.91258401E-13
  -12.6300001      -4.46754965E-13
  -12.6199999      -3.79644395E-13
  -12.6099997      -2.99904849E-13
  -12.6000004      -2.12003660E-13
  -12.5900002      -1.14385728E-13
  -12.5799999      -1.40005091E-15
  -12.5699997       1.32837846E-13
  -12.5600004       2.89757747E-13
  -12.5500002       4.62270142E-13
  -12.5400000       6.32730359E-13
  -12.5299997       7.73910504E-13
  -12.5200005       8.53206557E-13
  -12.5100002       8.39456326E-13
  -12.5000000       7.10959286E-13
  -12.4899998       4.62805141E-13
  -12.4799995       1.11605698E-13
  -12.4700003      -3.03859206E-13
  -12.4600000      -7.26691548E-13
  -12.4499998      -1.09018903E-12
  -12.4399996      -1.32895409E-12
  -12.4300003      -1.39059532E-12
  -12.4200001      -1.24555195E-12
  -12.4099998      -8.92883694E-13
  -12.3999996      -3.60684898E-13
  -12.3900003       2.99092999E-13
  -12.3800001       1.02037627E-12
  -12.3699999       1.73525181E-12
  -12.3599997       2.38620712E-12
  -12.3500004       2.93576144E-12
  -12.3400002       3.37151401E-12
  -12.3299999       3.70569114E-12
  -12.3199997       3.96948143E-12
  -12.3100004       4.20358713E-12
  -12.3000002       4.44719305E-12
  -12.2900000       4.72784182E-12
  -12.2799997       5.05441132E-12
  -12.2700005       5.41446445E-12
  -12.2600002       5.77634772E-12
  -12.2500000       6.09516517E-12
  -12.2399998       6.32102443E-12
  -12.2299995       6.40741930E-12
  -12.2200003       6.31783948E-12
  -12.2100000       6.02926042E-12
  -12.1999998       5.53197418E-12
  -12.1899996       4.82641357E-12
  -12.1800003       3.91824333E-12
  -12.1700001       2.81347406E-12
  -12.1599998       1.51532519E-12
  -12.1499996       2.39475052E-14
  -12.1400003      -1.66071519E-12
  -12.1300001      -3.53359919E-12
  -12.1199999      -5.57836546E-12
  -12.1099997      -7.76234719E-12
  -12.1000004      -1.00345079E-11
  -12.0900002      -1.23276970E-11
  -12.0799999      -1.45654166E-11
  -12.0699997      -1.66722018E-11
  -12.0600004      -1.85855550E-11
  -12.0500002      -2.02668143E-11
  -12.0400000      -2.17081856E-11
  -12.0299997      -2.29339030E-11
  -12.0200005      -2.39945615E-11
  -12.0100002      -2.49551959E-11
  -12.0000000      -2.58792068E-11
  -11.9899998      -2.68110707E-11
  -11.9799995      -2.77615656E-11
  -11.9700003      -2.86987639E-11
  -11.9600000      -2.95467262E-11
  -11.9499998      -3.01929454E-11
  -11.9399996      -3.05027982E-11
  -11.9300003      -3.03389536E-11
  -11.9200001      -2.95816566E-11
  -11.9099998      -2.81460983E-11
  -11.8999996      -2.59937037E-11
  -11.8900003      -2.31353773E-11
  -11.8800001      -1.96267048E-11
  -11.8699999      -1.55563062E-11
  -11.8599997      -1.10303554E-11
  -11.8500004      -6.15688316E-12
  -11.8400002      -1.03314633E-12
  -11.8299999       4.26151302E-12
  -11.8199997       9.66638401E-12
  -11.8100004       1.51343608E-11
  -11.8000002       2.06232705E-11
  -11.7900000       2.60869434E-11
  -11.7799997       3.14688935E-11
  -11.7700005       3.67011907E-11
  -11.7600002       4.17095490E-11
  -11.7500000       4.64237607E-11
  -11.7399998       5.07910970E-11
  -11.7299995       5.47891593E-11
  -11.7200003       5.84341256E-11
  -11.7100000       6.17813092E-11
  -11.6999998       6.49163709E-11
  -11.6899996       6.79378359E-11
  -11.6800003       7.09335646E-11
  -11.6700001       7.39560635E-11
  -11.6599998       7.70017383E-11
  -11.6499996       7.99989450E-11
  -11.6400003       8.28083296E-11
  -11.6300001       8.52363111E-11
  -11.6199999       8.70596165E-11
  -11.6099997       8.80566314E-11
  -11.6000004       8.80391732E-11
  -11.5900002       8.68797603E-11
  -11.5799999       8.45269965E-11
  -11.5699997       8.10092896E-11
  -11.5600004       7.64247346E-11
  -11.5500002       7.09205403E-11
  -11.5400000       6.46661891E-11
  -11.5299997       5.78274963E-11
  -11.5200005       5.05435034E-11
  -11.5100002       4.29124479E-11
  -11.5000000       3.49865588E-11
  -11.4899998       2.67759096E-11
  -11.4799995       1.82577287E-11
  -11.4700003       9.38915785E-12
  -11.4600000       1.20114476E-13
  -11.4499998      -9.59683201E-12
  -11.4399996      -1.97999742E-11
  -11.4300003      -3.05149690E-11
  -11.4200001      -4.17545824E-11
  -11.4099998      -5.35189427E-11
  -11.3999996      -6.57966528E-11
  -11.3900003      -7.85649115E-11
  -11.3800001      -9.17890416E-11
  -11.3699999      -1.05421512E-10
  -11.3599997      -1.19400989E-10
  -11.3500004      -1.33651701E-10
  -11.3400002      -1.48084447E-10
  -11.3299999      -1.62598685E-10
  -11.3199997      -1.77086359E-10
  -11.3100004      -1.91437824E-10
  -11.3000002      -2.05549452E-10
  -11.2900000      -2.19332968E-10
  -11.2799997      -2.32725866E-10
  -11.2700005      -2.45701043E-10
  -11.2600002      -2.58275040E-10
  -11.2500000      -2.70510947E-10
  -11.2399998      -2.82515566E-10
  -11.2299995      -2.94429814E-10
  -11.2200003      -3.06409953E-10
  -11.2100000      -3.18606225E-10
  -11.1999998      -3.31136202E-10
  -11.1899996      -3.44061363E-10
  -11.1800003      -3.57369911E-10
  -11.1700001      -3.70970032E-10
  -11.1599998      -3.84695026E-10
  -11.1499996      -3.98321182E-10
  -11.1400003      -4.11595841E-10
  -11.1300001      -4.24271202E-10
  -11.1199999      -4.36138681E-10
  -11.1099997      -4.47057585E-10
  -11.1000004      -4.56976318E-10
  -11.0900002      -4.65936290E-10
  -11.0799999      -4.74064843E-10
  -11.0699997      -4.81556184E-10
  -11.0600004      -4.88639351E-10
  -11.0500002      -4.95545716E-10
  -11.0400000      -5.02477671E-10
  -11.0299997      -5.09581044E-10
  -11.0200005      -5.16934828E-10
  -11.0100002      -5.24543797E-10
  -11.0000000      -5.32353384E-10
  -10.9899998      -5.40266332E-10
  -10.9799995      -5.48168233E-10
  -10.9700003      -5.55953894E-10
  -10.9600000      -5.63542935E-10
  -10.9499998      -5.70894998E-10
  -10.9399996      -5.78007475E-10
  -10.9300003      -5.84913395E-10
  -10.9200001      -5.91662719E-10
  -10.9099998      -5.98311567E-10
  -10.8999996      -6.04912342E-10
  -10.8900003      -6.11503070E-10
  -10.8800001      -6.18107621E-10
  -10.8699999      -6.24731156E-10
  -10.8599997      -6.31372232E-10
  -10.8500004      -6.38018915E-10
  -10.8400002      -6.44646281E-10
  -10.8299999      -6.51211862E-10
  -10.8199997      -6.57654708E-10
  -10.8100004      -6.63886279E-10
  -10.8000002      -6.69790667E-10
  -10.7900000      -6.75235312E-10
  -10.7799997      -6.80079937E-10
  -10.7700005      -6.84187207E-10
  -10.7600002      -6.87437940E-10
  -10.7500000      -6.89747037E-10
  -10.7399998      -6.91053437E-10
  -10.7299995      -6.91324165E-10
  -10.7200003      -6.90543456E-10
  -10.7100000      -6.88706536E-10
  -10.6999998      -6.85809576E-10
  -10.6899996      -6.81854850E-10
  -10.6800003      -6.76857237E-10
  -10.6700001      -6.70856259E-10
  -10.6599998      -6.63929245E-10
  -10.6499996      -6.56194210E-10
  -10.6400003      -6.47808529E-10
  -10.6300001      -6.38956887E-10
  -10.6199999      -6.29826635E-10
  -10.6099997      -6.20592577E-10
  -10.6000004      -6.11392270E-10
  -10.5900002      -6.02319639E-10
  -10.5799999      -5.93425031E-10
  -10.5699997      -5.84734483E-10
  -10.5600004      -5.76254267E-10
  -10.5500002      -5.67988878E-10
  -10.5400000      -5.59955693E-10
  -10.5299997      -5.52173474E-10
  -10.5200005      -5.44659262E-10
  -10.5100002      -5.37413558E-10
  -10.5000000      -5.30417821E-10
  -10.4899998      -5.23632027E-10
  -10.4799995      -5.16991450E-10
  -10.4700003      -5.10434250E-10
  -10.4600000      -5.03913244E-10
  -10.4499998      -4.97400843E-10
  -10.4399996      -4.90907870E-10
  -10.4300003      -4.84463913E-10
  -10.4200001      -4.78111883E-10
  -10.4099998      -4.71881811E-10
  -10.3999996      -4.65781635E-10
  -10.3900003      -4.59786487E-10
  -10.3800001      -4.53842131E-10
  -10.3699999      -4.47877874E-10
  -10.3599997      -4.41801012E-10
  -10.3500004      -4.35537412E-10
  -10.3400002      -4.29004249E-10
  -10.3299999      -4.22126084E-10
  -10.3199997      -4.14829643E-10
  -10.3100004      -4.07025524E-10
  -10.3000002      -3.98625494E-10
  -10.2900000      -3.89555194E-10
  -10.2799997      -3.79766357E-10
  -10.2700005      -3.69272224E-10
  -10.2600002      -3.58161445E-10
  -10.2500000      -3.46595891E-10
  -10.2399998      -3.34793249E-10
  -10.2299995      -3.22986998E-10
  -10.2200003      -3.11374870E-10
  -10.2100000      -3.00072606E-10
  -10.1999998      -2.89078927E-10
  -10.1899996      -2.78276402E-10
  -10.1800003      -2.67458777E-10
  -10.1700001      -2.56383387E-10
  -10.1599998      -2.44838649E-10
  -10.1499996      -2.32694655E-10
  -10.1400003      -2.19953125E-10
  -10.1300001      -2.06740500E-10
  -10.1199999      -1.93292993E-10
  -10.1099997      -1.79912543E-10
  -10.1000004      -1.66895248E-10
  -10.0900002      -1.54491392E-10
  -10.0799999      -1.42873088E-10
  -10.0699997      -1.32123729E-10
  -10.0600004      -1.22252819E-10
  -10.0500002      -1.13220058E-10
  -10.0400000      -1.04964953E-10
  -10.0299997      -9.74290856E-11
  -10.0200005      -9.05707037E-11
  -10.0100002      -8.43654382E-11
  -10.0000000      -7.88041438E-11
  -9.98999977      -7.39008230E-11
  -9.97999954      -6.96973243E-11
  -9.97000027      -6.62856575E-11
  -9.96000004      -6.38242792E-11
  -9.94999981      -6.25563906E-11
  -9.93999958      -6.28161204E-11
  -9.93000031      -6.49968551E-11
  -9.92000008      -6.95062272E-11
  -9.90999985      -7.67085631E-11
  -9.89999962      -8.68420197E-11
  -9.89000034      -9.99677424E-11
  -9.88000011      -1.15928066E-10
  -9.86999989      -1.34353445E-10
  -9.85999966      -1.54701682E-10
  -9.85000038      -1.76327536E-10
  -9.84000015      -1.98586952E-10
  -9.82999992      -2.20935797E-10
  -9.81999969      -2.43021020E-10
  -9.81000042      -2.64738037E-10
  -9.80000019      -2.86240948E-10
  -9.78999996      -3.07917136E-10
  -9.77999973      -3.30312611E-10
  -9.77000046      -3.54037105E-10
  -9.76000023      -3.79655751E-10
  -9.75000000      -4.07602424E-10
  -9.73999977      -4.38104525E-10
  -9.72999954      -4.71169437E-10
  -9.72000027      -5.06600872E-10
  -9.71000004      -5.44049694E-10
  -9.69999981      -5.83090021E-10
  -9.68999958      -6.23296748E-10
  -9.68000031      -6.64304944E-10
  -9.67000008      -7.05834835E-10
  -9.65999985      -7.47700624E-10
  -9.64999962      -7.89770915E-10
  -9.64000034      -8.31939129E-10
  -9.63000011      -8.74084471E-10
  -9.61999989      -9.16056064E-10
  -9.60999966      -9.57681823E-10
  -9.60000038      -9.98802818E-10
  -9.59000015      -1.03931674E-09
  -9.57999992      -1.07921594E-09
  -9.56999969      -1.11860787E-09
  -9.56000042      -1.15769239E-09
  -9.55000019      -1.19672960E-09
  -9.53999996      -1.23595767E-09
  -9.52999973      -1.27553434E-09
  -9.52000046      -1.31546751E-09
  -9.51000023      -1.35560174E-09
  -9.50000000      -1.39562284E-09
  -9.48999977      -1.43511358E-09
  -9.47999954      -1.47362844E-09
  -9.47000027      -1.51077539E-09
  -9.46000004      -1.54629098E-09
  -9.44999981      -1.58007807E-09
  -9.43999958      -1.61222247E-09
  -9.43000031      -1.64297398E-09
  -9.42000008      -1.67269720E-09
  -9.40999985      -1.70181302E-09
  -9.39999962      -1.73073555E-09
  -9.39000034      -1.75981807E-09
  -9.38000011      -1.78930826E-09
  -9.36999989      -1.81932069E-09
  -9.35999966      -1.84982207E-09
  -9.35000038      -1.88065408E-09
  -9.34000015      -1.91154403E-09
  -9.32999992      -1.94215444E-09
  -9.31999969      -1.97212002E-09
  -9.31000042      -2.00109529E-09
  -9.30000019      -2.02879136E-09
  -9.28999996      -2.05498618E-09
  -9.27999973      -2.07951834E-09
  -9.27000046      -2.10226281E-09
  -9.26000023      -2.12307905E-09
  -9.25000000      -2.14178453E-09
  -9.23999977      -2.15811768E-09
  -9.22999954      -2.17173035E-09
  -9.22000027      -2.18221929E-09
  -9.21000004      -2.18916396E-09
  -9.19999981      -2.19218710E-09
  -9.18999958      -2.19101981E-09
  -9.18000031      -2.18553753E-09
  -9.17000008      -2.17578755E-09
  -9.15999985      -2.16197860E-09
  -9.14999962      -2.14447016E-09
  -9.14000034      -2.12372320E-09
  -9.13000011      -2.10027373E-09
  -9.11999989      -2.07468975E-09
  -9.10999966      -2.04753059E-09
  -9.10000038      -2.01932848E-09
  -9.09000015      -1.99055439E-09
  -9.07999992      -1.96158112E-09
  -9.06999969      -1.93267891E-09
  -9.06000042      -1.90400629E-09
  -9.05000019      -1.87562210E-09
  -9.03999996      -1.84751192E-09
  -9.02999973      -1.81965476E-09
  -9.02000046      -1.79205850E-09
  -9.01000023      -1.76483561E-09
  -9.00000000      -1.73819958E-09
  -8.98999977      -1.71247694E-09
  -8.97999954      -1.68806968E-09
  -8.97000027      -1.66540337E-09
  -8.96000004      -1.64488601E-09
  -8.94999981      -1.62687797E-09
  -8.93999958      -1.61171643E-09
  -8.93000031      -1.59973856E-09
  -8.92000008      -1.59134161E-09
  -8.90999985      -1.58703839E-09
  -8.89999962      -1.58745617E-09
  -8.89000034      -1.59332147E-09
  -8.88000011      -1.60538149E-09
  -8.86999989      -1.62430136E-09
  -8.85999966      -1.65055836E-09
  -8.85000038      -1.68439751E-09
  -8.84000015      -1.72581205E-09
  -8.82999992      -1.77459070E-09
  -8.81999969      -1.83042270E-09
  -8.81000042      -1.89300575E-09
  -8.80000019      -1.96214400E-09
  -8.78999996      -2.03780859E-09
  -8.77999973      -2.12012341E-09
  -8.77000046      -2.20932139E-09
  -8.76000023      -2.30567032E-09
  -8.75000000      -2.40939979E-09
  -8.73999977      -2.52065369E-09
  -8.72999954      -2.63949063E-09
  -8.72000027      -2.76589174E-09
  -8.71000004      -2.89980506E-09
  -8.69999981      -3.04114867E-09
  -8.68999958      -3.18980531E-09
  -8.68000031      -3.34558159E-09
  -8.67000008      -3.50816576E-09
  -8.65999985      -3.67709063E-09
  -8.64999962      -3.85175536E-09
  -8.64000034      -4.03148670E-09
  -8.63000011      -4.21566204E-09
  -8.61999989      -4.40384129E-09
  -8.60999966      -4.59588501E-09
  -8.60000038      -4.79199214E-09
  -8.59000015      -4.99266628E-09
  -8.57999992      -5.19858201E-09
  -8.56999969      -5.41041034E-09
  -8.56000042      -5.62862601E-09
  -8.55000019      -5.85336224E-09
  -8.53999996      -6.08436146E-09
  -8.52999973      -6.32100994E-09
  -8.52000046      -6.56246391E-09
  -8.51000023      -6.80781209E-09
  -8.50000000      -7.05621428E-09
  -8.48999977      -7.30700878E-09
  -8.47999954      -7.55971641E-09
  -8.47000027      -7.81398679E-09
  -8.46000004      -8.06949085E-09
  -8.44999981      -8.32583158E-09
  -8.43999958      -8.58248406E-09
  -8.43000031      -8.83876705E-09
  -8.42000008      -9.09393627E-09
  -8.40999985      -9.34724653E-09
  -8.39999962      -9.59804147E-09
  -8.39000034      -9.84579351E-09
  -8.38000011      -1.00901110E-08
  -8.36999989      -1.03306901E-08
  -8.35999966      -1.05672315E-08
  -8.35000038      -1.07993587E-08
  -8.34000015      -1.10266090E-08
  -8.32999992      -1.12484315E-08
  -8.31999969      -1.14642686E-08
  -8.31000042      -1.16736008E-08
  -8.30000019      -1.18760406E-08
  -8.28999996      -1.20713244E-08
  -8.27999973      -1.22592905E-08
  -8.27000046      -1.24397692E-08
  -8.26000023      -1.26124808E-08
  -8.25000000      -1.27769271E-08
  -8.23999977      -1.29323530E-08
  -8.22999954      -1.30777504E-08
  -8.22000027      -1.32119382E-08
  -8.21000004      -1.33337332E-08
  -8.19999981      -1.34420537E-08
  -8.18999958      -1.35360398E-08
  -8.18000031      -1.36151588E-08
  -8.17000008      -1.36791396E-08
  -8.15999985      -1.37279157E-08
  -8.14999962      -1.37615546E-08
  -8.14000034      -1.37800900E-08
  -8.13000011      -1.37835183E-08
  -8.11999989      -1.37717073E-08
  -8.10999966      -1.37444971E-08
  -8.10000038      -1.37017446E-08
  -8.09000015      -1.36433753E-08
  -8.07999992      -1.35695215E-08
  -8.06999969      -1.34804710E-08
  -8.06000042      -1.33766695E-08
  -8.05000019      -1.32586493E-08
  -8.03999996      -1.31269093E-08
  -8.02999973      -1.29819062E-08
  -8.02000046      -1.28239810E-08
  -8.01000023      -1.26533921E-08
  -8.00000000      -1.24704105E-08
  -7.98999977      -1.22754811E-08
  -7.98000002      -1.20693189E-08
  -7.96999979      -1.18529710E-08
  -7.96000004      -1.16278462E-08
  -7.94999981      -1.13956080E-08
  -7.94000006      -1.11580363E-08
  -7.92999983      -1.09167919E-08
  -7.92000008      -1.06732925E-08
  -7.90999985      -1.04285682E-08
  -7.90000010      -1.01832853E-08
  -7.88999987      -9.93786653E-09
  -7.88000011      -9.69262448E-09
  -7.86999989      -9.44795886E-09
  -7.86000013      -9.20450471E-09
  -7.84999990      -8.96320085E-09
  -7.84000015      -8.72518857E-09
  -7.82999992      -8.49172022E-09
  -7.82000017      -8.26386692E-09
  -7.80999994      -8.04252309E-09
  -7.80000019      -7.82816212E-09
  -7.78999996      -7.62094121E-09
  -7.78000021      -7.42087902E-09
  -7.76999998      -7.22799420E-09
  -7.76000023      -7.04252434E-09
  -7.75000000      -6.86504231E-09
  -7.73999977      -6.69649092E-09
  -7.73000002      -6.53797461E-09
  -7.71999979      -6.39063025E-09
  -7.71000004      -6.25531937E-09
  -7.69999981      -6.13254558E-09
  -7.69000006      -6.02243944E-09
  -7.67999983      -5.92475580E-09
  -7.67000008      -5.83908744E-09
  -7.65999985      -5.76507109E-09
  -7.65000010      -5.70254199E-09
  -7.63999987      -5.65155034E-09
  -7.63000011      -5.61238034E-09
  -7.61999989      -5.58537572E-09
  -7.61000013      -5.57074342E-09
  -7.59999990      -5.56849900E-09
  -7.59000015      -5.57843993E-09
  -7.57999992      -5.60015856E-09
  -7.57000017      -5.63329339E-09
  -7.55999994      -5.67767433E-09
  -7.55000019      -5.73345149E-09
  -7.53999996      -5.80105519E-09
  -7.53000021      -5.88112092E-09
  -7.51999998      -5.97429306E-09
  -7.51000023      -6.08098949E-09
  -7.50000000      -6.20120888E-09
  -7.48999977      -6.33456088E-09
  -7.48000002      -6.48025678E-09
  -7.46999979      -6.63735378E-09
  -7.46000004      -6.80501833E-09
  -7.44999981      -6.98261227E-09
  -7.44000006      -7.16985138E-09