  -16.0000000       0.00000000    
  -15.9899998       0.00000000    
  -15.9799995       0.00000000    
  -15.9700003       0.00000000    
  -15.9600000       0.00000000    
  -15.9499998       0.00000000    
  -15.9399996       0.00000000    
  -15.9300003       0.00000000    
  -15.9200001       0.00000000    
  -15.9099998       0.00000000    
  -15.8999996       0.00000000    
  -15.8900003      -0.00000000    
  -15.8800001      -0.00000000    
  -15.8699999      -0.00000000    
  -15.8599997      -8.40779079E-45
  -15.8500004      -1.19110369E-43
  -15.8400002      -1.18689980E-42
  -15.8299999      -9.35506855E-42
  -15.8199997      -6.07224664E-41
  -15.8100004      -3.34342807E-40
  -15.8000002      -1.59683705E-39
  -15.7900000      -6.73121565E-39
  -15.7799997      -2.53889526E-38
  -15.7700005      -8.66277778E-38
  -15.7600002      -2.69724372E-37
  -15.7500000      -7.71696185E-37
  -15.7399998      -2.03981094E-36
  -15.7299995      -5.00176218E-36
  -15.7200003      -1.14096313E-35
  -15.7100000      -2.42501328E-35
  -15.6999998      -4.80319447E-35
  -15.6899996      -8.85262328E-35
  -15.6800003      -1.51251616E-34
  -15.6700001      -2.37816214E-34
  -15.6599998      -3.39461784E-34
  -15.6499996      -4.28222582E-34
  -15.6400003      -4.48338413E-34
  -15.6300001      -3.13810087E-34
  -15.6199999       7.88742590E-35
  -15.6099997       8.13224808E-34
  -15.6000004       1.88617730E-33
  -15.5900002       3.12231871E-33
  -15.5799999       4.10118665E-33
  -15.5699997       4.15371104E-33
  -15.5600004       2.49417053E-33
  -15.5500002      -1.46864363E-33
  -15.5400000      -7.66816842E-33
  -15.5299997      -1.49060765E-32
  -15.5200005      -2.06293660E-32
  -15.5100002      -2.12746081E-32
  -15.5000000      -1.33971047E-32
  -15.4899998       4.50164929E-33
  -15.4799995       3.00058304E-32
  -15.4700003       5.56972087E-32
  -15.4600000       7.01305043E-32
  -15.4499998       6.16103861E-32
  -15.4399996       2.43175721E-32
  -15.4300003      -3.53755415E-32
  -15.4200001      -9.60871417E-32
  -15.4099998      -1.26089766E-31
  -15.3999996      -9.74822125E-32
  -15.3900003      -7.30622269E-33
  -15.3800001       1.03296296E-31
  -15.3699999       1.46329933E-31
  -15.3599997       1.58249355E-32
  -15.3500004      -3.44728577E-31
  -15.3400002      -8.49296173E-31
  -15.3299999      -1.19260362E-30
  -15.3199997      -8.60042542E-31
  -15.3100004       6.97570039E-31
  -15.3000002       3.68360696E-30
  -15.2900000       7.43214033E-30
  -15.2799997       9.96860662E-30
  -15.2700005       8.05609574E-30
  -15.2600002      -1.80235088E-30
  -15.2500000      -2.11307331E-29
  -15.2399998      -4.63365203E-29
  -15.2299995      -6.59524237E-29
  -15.2200003      -6.06056209E-29
  -15.2100000      -8.48589485E-30
  -15.1999998       1.02022299E-28
  -15.1899996       2.54251906E-28
  -15.1800003       3.86878159E-28
  -15.1700001       3.92140618E-28
  -15.1599998       1.43780541E-28
  -15.1499996      -4.36239599E-28
  -15.1400003      -1.28094294E-27
  -15.1300001      -2.08826465E-27
  -15.1199999      -2.30316839E-27
  -15.1099997      -1.24815793E-27
  -15.1000004       1.55152743E-27
  -15.0900002       5.88740414E-27
  -15.0799999       1.04043689E-26
  -15.0699997       1.24614562E-26
  -15.0600004       8.67561336E-27
  -15.0500002      -3.62310409E-27
  -15.0400000      -2.41733759E-26
  -15.0299997      -4.75352944E-26
  -15.0200005      -6.21462895E-26
  -15.0100002      -5.22718279E-26
  -15.0000000      -3.95061195E-27
  -14.9899998       8.54807088E-26
  -14.9799995       1.97099362E-25
  -14.9700003       2.84698865E-25
  -14.9600000       2.80346498E-25
  -14.9499998       1.16312758E-25
  -14.9399996      -2.37042471E-25
  -14.9300003      -7.27027719E-25
  -14.9200001      -1.18786813E-24
  -14.9099998      -1.34967070E-24
  -14.8999996      -9.09768137E-25
  -14.8900003       3.29066252E-25
  -14.8800001       2.28163679E-24
  -14.8699999       4.43169790E-24
  -14.8599997       5.80789927E-24
  -14.8500004       5.17811809E-24
  -14.8400002       1.50376038E-24
  -14.8299999      -5.41036741E-24
  -14.8199997      -1.42738811E-23
  -14.8100004      -2.20009583E-23
  -14.8000002      -2.40905751E-23
  -14.7900000      -1.59312274E-23
  -14.7799997       5.04627774E-24
  -14.7700005       3.68982210E-23
  -14.7600002       7.13700005E-23
  -14.7500000       9.40108449E-23
  -14.7399998       8.72463122E-23
  -14.7299995       3.66591267E-23
  -14.7200003      -6.06127398E-23
  -14.7100000      -1.88022056E-22
  -14.6999998      -3.06154645E-22
  -14.6899996      -3.57599357E-22
  -14.6800003      -2.82429900E-22
  -14.6700001      -4.30741752E-23
  -14.6599998       3.47420628E-22
  -14.6499996       8.04247959E-22
  -14.6400003       1.16957109E-21
  -14.6300001       1.24168150E-21
  -14.6199999       8.37374563E-22
  -14.6099997      -1.22337849E-22
  -14.6000004      -1.52761387E-21
  -14.5900002      -3.03183384E-21
  -14.5799999      -4.07746808E-21
  -14.5699997      -4.01988815E-21
  -14.5600004      -2.34448391E-21
  -14.5500002       1.06730826E-21
  -14.5400000       5.70696502E-21
  -14.5299997       1.03499779E-20
  -14.5200005       1.32071130E-20
  -14.5100002       1.23620818E-20
  -14.5000000       6.45035038E-21
  -14.4899998      -4.57849962E-21
  -14.4799995      -1.88704519E-20
  -14.4700003      -3.25446296E-20
  -14.4600000      -4.02786584E-20
  -14.4499998      -3.66732657E-20
  -14.4399996      -1.82054843E-20
  -14.4300003       1.47129452E-20
  -14.4200001       5.62837341E-20
  -14.4099998       9.52414336E-20
  -14.3999996       1.16705349E-19
  -14.3900003       1.06040360E-19
  -14.3800001       5.41156743E-20
  -14.3699999      -3.73740686E-20
  -14.3599997      -1.52369267E-19
  -14.3500004      -2.60575903E-19
  -14.3400002      -3.22551687E-19
  -14.3299999      -2.99776613E-19
  -14.3199997      -1.68037347E-19
  -14.3100004       6.92554900E-20
  -14.3000002       3.72330899E-19
  -14.2900000       6.65397061E-19
  -14.2799997       8.49032088E-19
  -14.2700005       8.24568841E-19
  -14.2600002       5.26457860E-19
  -14.2500000      -4.53352426E-20
  -14.2399998      -8.03384281E-19
  -14.2299995      -1.57172723E-18
  -14.2200003      -2.11262363E-18
  -14.2100000      -2.18137847E-18
  -14.1999998      -1.60061041E-18
  -14.1899996      -3.36631619E-19
  -14.1800003       1.44522691E-18
  -14.1700001       3.36978534E-18
  -14.1599998       4.90214280E-18
  -14.1499996       5.46123087E-18
  -14.1400003       4.58058874E-18
  -14.1300001       2.08126087E-18
  -14.1199999      -1.79159897E-18
  -14.1099997      -6.31919749E-18
  -14.1000004      -1.03851219E-17
  -14.0900002      -1.26883906E-17
  -14.0799999      -1.20678198E-17
  -14.0699997      -7.87271960E-18
  -14.0600004      -2.84965530E-19
  -14.0500002       9.51214939E-18
  -14.0400000       1.94049111E-17
  -14.0299997       2.66991899E-17
  -14.0200005       2.87190954E-17
  -14.0100002       2.35466755E-17
  -14.0000000       1.07309959E-17
  -13.9899998      -8.23580557E-18
  -13.9799995      -2.98587452E-17
  -13.9700003      -4.91055837E-17
  -13.9600000      -6.03876589E-17
  -13.9499998      -5.89040939E-17
  -13.9399996      -4.20685498E-17
  -13.9300003      -1.06587814E-17
  -13.9200001       3.06684359E-17
  -13.9099998       7.37566446E-17
  -13.8999996       1.08298238E-16
  -13.8900003       1.23989675E-16
  -13.8800001       1.13093285E-16
  -13.8699999       7.28318567E-17
  -13.8599997       6.98702672E-18
  -13.8500004      -7.38304886E-17
  -13.8400002      -1.53523557E-16
  -13.8299999      -2.13392375E-16
  -13.8199997      -2.36097173E-16
  -13.8100004      -2.09908052E-16
  -13.8000002      -1.32272255E-16
  -13.7900000      -1.17664465E-17
  -13.7799997       1.32227905E-16
  -13.7700005       2.72330225E-16
  -13.7600002       3.78091605E-16
  -13.7500000       4.22169929E-16
  -13.7399998       3.86498222E-16
  -13.7299995       2.67097679E-16
  -13.7200003       7.63857951E-17
  -13.7100000      -1.57685374E-16
  -13.6999998      -3.95671007E-16
  -13.6899996      -5.93188767E-16
  -13.6800003      -7.08775941E-16
  -13.6700001      -7.11565592E-16
  -13.6599998      -5.87360862E-16
  -13.6499996      -3.42049109E-16
  -13.6400003      -1.86379943E-18
  -13.6300001       3.89389172E-16
  -13.6199999       7.75540084E-16
  -13.6099997       1.09485287E-15
  -13.6000004       1.28757521E-15
  -13.5900002       1.30361992E-15
  -13.5799999       1.10999835E-15
  -13.5699997       6.97743920E-16
  -13.5600004       8.79153694E-17
  -13.5500002      -6.64166157E-16
  -13.5400000      -1.46784923E-15
  -13.5299997      -2.20112607E-15
  -13.5200005      -2.72148510E-15
  -13.5100002      -2.88472952E-15
  -13.5000000      -2.57121573E-15
  -13.4899998      -1.71662926E-15
  -13.4799995      -3.41886611E-16
  -13.4700003       1.42528635E-15
  -13.4600000       3.34520585E-15
  -13.4499998       5.08425640E-15
  -13.4399996       6.25915970E-15
  -13.4300003       6.50486448E-15
  -13.4200001       5.55679787E-15
  -13.4099998       3.33204614E-15
  -13.3999996      -9.72020434E-18
  -13.3900003      -4.04467719E-15
  -13.3800001      -8.11674234E-15
  -13.3699999      -1.14274663E-14
  -13.3599997      -1.31757262E-14
  -13.3500004      -1.27255850E-14
  -13.3400002      -9.76995923E-15
  -13.3299999      -4.45275776E-15
  -13.3199997       2.58482671E-15
  -13.3100004       1.02565254E-14
  -13.3000002       1.71855260E-14
  -13.2900000       2.19426206E-14
  -13.2799997       2.33279481E-14
  -13.2700005       2.06412832E-14
  -13.2600002       1.38816367E-14
  -13.2500000       3.82578609E-15
  -13.2399998      -8.04343673E-15
  -13.2299995      -1.97584360E-14
  -13.2200003      -2.92044187E-14
  -13.2100000      -3.45122287E-14
  -13.1999998      -3.44291720E-14
  -13.1899996      -2.85905841E-14
  -13.1800003      -1.76317870E-14
  -13.1700001      -3.11155520E-15
  -13.1599998       1.27427975E-14
  -13.1499996       2.74205944E-14
  -13.1400003       3.85669720E-14
  -13.1300001       4.43884397E-14
  -13.1199999       4.39452789E-14
  -13.1099997       3.72774084E-14
  -13.1000004       2.53480793E-14
  -13.0900002       9.83017141E-15
  -13.0799999      -7.20749483E-15
  -13.0699997      -2.36390887E-14
  -13.0600004      -3.75736362E-14
  -13.0500002      -4.75482047E-14
  -13.0400000      -5.26041680E-14
  -13.0299997      -5.22638946E-14
  -13.0200005      -4.64529301E-14
  -13.0100002      -3.54241884E-14
  -13.0000000      -1.97316782E-14
  -12.9899998      -2.74177021E-16
  -12.9799995       2.16080714E-14
  -12.9700003       4.40360977E-14
  -12.9600000       6.45687456E-14
  -12.9499998       8.03254287E-14
  -12.9399996       8.82987870E-14
  -12.9300003       8.58499402E-14
  -12.9200001       7.13165827E-14
  -12.9099998       4.46090342E-14
  -12.8999996       7.63676858E-15
  -12.8900003      -3.55867069E-14
  -12.8800001      -7.92642861E-14
  -12.8699999      -1.16580370E-13
  -12.8599997      -1.40823293E-13
  -12.8500004      -1.46676074E-13
  -12.8400002      -1.31414112E-13
  -12.8299999      -9.57300713E-14
  -12.8199997      -4.39528852E-14
  -12.8100004       1.64623903E-14
  -12.8000002       7.61434373E-14
  -12.7900000       1.25512380E-13
  -12.7799997       1.56665940E-13
  -12.7700005       1.65016560E-13
  -12.7600002       1.50303137E-13
  -12.7500000       1.16692639E-13
  -12.7399998       7.18862768E-14
  -12.7299995       2.53757163E-14
  -12.7200003      -1.37864150E-14
  -12.7100000      -3.91871357E-14
  -12.6999998      -4.86749448E-14
  -12.6899996      -4.49527365E-14
  -12.6800003      -3.49143864E-14
  -12.6700001      -2.78018507E-14
  -12.6599998      -3.25715542E-14
  -12.6499996      -5.51016684E-14
  -12.6400003      -9.59743759E-14
  -12.6300001      -1.49485865E-13
  -12.6199999      -2.04274531E-13
  -12.6099997      -2.45567130E-13
  -12.6000004      -2.58611085E-13
  -12.5900002      -2.32496693E-13
  -12.5799999      -1.63389606E-13
  -12.5699997      -5.62508787E-14
  -12.5600004       7.55702196E-14
  -12.5500002       2.12971689E-13
  -12.5400000       3.35478607E-13
  -12.5299997       4.26358195E-13
  -12.5200005       4.77160249E-13
  -12.5100002       4.90384805E-13
  -12.5000000       4.79341556E-13
  -12.4899998       4.64910283E-13
  -12.4799995       4.69696059E-13
  -12.4700003       5.10793610E-13
  -12.4600000       5.92849608E-13
  -12.4499998       7.03184472E-13
  -12.4399996       8.10351677E-13
  -12.4300003       8.66753555E-13
  -12.4200001       8.14975800E-13
  -12.4099998       5.96568639E-13
  -12.3999996       1.61359519E-13
  -12.3900003      -5.24785022E-13
  -12.3800001      -1.47547165E-12
  -12.3699999      -2.68345524E-12
  -12.3599997      -4.12426777E-12
  -12.3500004      -5.76254279E-12
  -12.3400002      -7.55898642E-12
  -12.3299999      -9.47583852E-12
  -12.3199997      -1.14790261E-11
  -12.3100004      -1.35361757E-11
  -12.3000002      -1.56110246E-11
  -12.2900000      -1.76557709E-11
  -12.2799997      -1.96039695E-11
  -12.2700005      -2.13666272E-11
  -12.2600002      -2.28334834E-11
  -12.2500000      -2.38803768E-11
  -12.2399998      -2.43820224E-11
  -12.2299995      -2.42278628E-11
  -12.2200003      -2.33377380E-11
  -12.2100000      -2.16737548E-11
  -12.1999998      -1.92456554E-11
  -12.1899996      -1.61078893E-11
  -12.1800003      -1.23490497E-11
  -12.1700001      -8.07568162E-12
  -12.1599998      -3.39432735E-12
  -12.1499996       1.60425341E-12
  -12.1400003       6.85488818E-12
  -12.1300001       1.23197789E-11
  -12.1199999       1.79822979E-11
  -12.1099997       2.38339938E-11
  -12.1000004       2.98592262E-11
  -12.0900002       3.60210126E-11
  -12.0799999       4.22521254E-11
  -12.0699997       4.84544696E-11
  -12.0600004       5.45063300E-11
  -12.0500002       6.02765476E-11
  -12.0400000       6.56420265E-11
  -12.0299997       7.05042344E-11
  -12.0200005       7.48005338E-11
  -12.0100002       7.85076310E-11
  -12.0000000       8.16360313E-11
  -11.9899998       8.42170084E-11
  -11.9799995       8.62847016E-11
  -11.9700003       8.78575337E-11
  -11.9600000       8.89231674E-11
  -11.9499998       8.94301994E-11
  -11.9399996       8.92879937E-11
  -11.9300003       8.83738568E-11
  -11.9200001       8.65470959E-11
  -11.9099998       8.36655814E-11
  -11.8999996       7.96019778E-11
  -11.8900003       7.42576348E-11
  -11.8800001       6.75716011E-11
  -11.8699999       5.95243091E-11
  -11.8599997       5.01374602E-11
  -11.8500004       3.94695839E-11
  -11.8400002       2.76100080E-11
  -11.8299999       1.46715626E-11
  -11.8199997       7.83343117E-13
  -11.8100004      -1.39161972E-11
  -11.8000002      -2.92867085E-11
  -11.7900000      -4.51918503E-11
  -11.7799997      -6.15046486E-11
  -11.7700005      -7.81106568E-11
  -11.7600002      -9.49077414E-11
  -11.7500000      -1.11803282E-10
  -11.7399998      -1.28706434E-10
  -11.7299995      -1.45517903E-10
  -11.7200003      -1.62118582E-10
  -11.7100000      -1.78359244E-10
  -11.6999998      -1.94055313E-10
  -11.6899996      -2.08987383E-10
  -11.6800003      -2.22910634E-10
  -11.6700001      -2.35571201E-10
  -11.6599998      -2.46729220E-10
  -11.6499996      -2.56184018E-10
  -11.6400003      -2.63796263E-10
  -11.6300001      -2.69503198E-10
  -11.6199999      -2.73322448E-10
  -11.6099997      -2.75342943E-10
  -11.6000004      -2.75700796E-10
  -11.5900002      -2.74546247E-10
  -11.5799999      -2.72004225E-10
  -11.5699997      -2.68137262E-10
  -11.5600004      -2.62916661E-10
  -11.5500002      -2.56209276E-10
  -11.5400000      -2.47782544E-10
  -11.5299997      -2.37331821E-10
  -11.5200005      -2.24520638E-10
  -11.5100002      -2.09034901E-10
  -11.5000000      -1.90633606E-10
  -11.4899998      -1.69192507E-10
  -11.4799995      -1.44728937E-10
  -11.4700003      -1.17398979E-10
  -11.4600000      -8.74738754E-11
  -11.4499998      -5.52928814E-11
  -11.4399996      -2.12043941E-11
  -11.4300003       1.44909258E-11
  -11.4200001       5.15867800E-11
  -11.4099998       8.99952751E-11
  -11.3999996       1.29742050E-10
  -11.3900003       1.70936987E-10
  -11.3800001       2.13723816E-10
  -11.3699999       2.58222527E-10
  -11.3599997       3.04478082E-10
  -11.3500004       3.52425922E-10
  -11.3400002       4.01882860E-10
  -11.3299999       4.52565485E-10
  -11.3199997       5.04132902E-10
  -11.3100004       5.56238777E-10
  -11.3000002       6.08586515E-10
  -11.2900000       6.60967225E-10
  -11.2799997       7.13278714E-10
  -11.2700005       7.65515151E-10
  -11.2600002       8.17736878E-10
  -11.2500000       8.70021943E-10
  -11.2399998       9.22418419E-10
  -11.2299995       9.74903047E-10
  -11.2200003       1.02735809E-09
  -11.2100000       1.07957565E-09
  -11.1999998       1.13127807E-09
  -11.1899996       1.18215904E-09
  -11.1800003       1.23192623E-09
  -11.1700001       1.28034572E-09
  -11.1599998       1.32727396E-09
  -11.1499996       1.37267164E-09
  -11.1400003       1.41659606E-09
  -11.1300001       1.45919166E-09
  -11.1199999       1.50065427E-09
  -11.1099997       1.54120050E-09
  -11.1000004       1.58102942E-09
  -11.0900002       1.62029357E-09
  -11.0799999       1.65906255E-09
  -11.0699997       1.69731074E-09
  -11.0600004       1.73490078E-09
  -11.0500002       1.77159465E-09
  -11.0400000       1.80706761E-09
  -11.0299997       1.84096871E-09
  -11.0200005       1.87297244E-09
  -11.0100002       1.90285898E-09
  -11.0000000       1.93059280E-09
  -10.9899998       1.95637151E-09
  -10.9799995       1.98065364E-09
  -10.9700003       2.00412753E-09
  -10.9600000       2.02763428E-09
  -10.9499998       2.05203587E-09
  -10.9399996       2.07807993E-09
  -10.9300003       2.10622475E-09
  -10.9200001       2.13655538E-09
  -10.9099998       2.16873541E-09
  -10.8999996       2.20201990E-09
  -10.8900003       2.23539409E-09
  -10.8800001       2.26773511E-09
  -10.8699999       2.29801955E-09
  -10.8599997       2.32548647E-09
  -10.8500004       2.34979081E-09
  -10.8400002       2.37102671E-09
  -10.8299999       2.38967912E-09
  -10.8199997       2.40650944E-09
  -10.8100004       2.42237164E-09
  -10.8000002       2.43803777E-09
  -10.7900000       2.45406673E-09
  -10.7799997       2.47073206E-09
  -10.7700005       2.48802245E-09
  -10.7600002       2.50571142E-09
  -10.7500000       2.52345478E-09
  -10.7399998       2.54092813E-09
  -10.7299995       2.55792032E-09
  -10.7200003       2.57434052E-09
  -10.7100000       2.59021271E-09
  -10.6999998       2.60560284E-09
  -10.6899996       2.62051403E-09
  -10.6800003       2.63481859E-09
  -10.6700001       2.64821032E-09
  -10.6599998       2.66020739E-09
  -10.6499996       2.67025091E-09
  -10.6400003       2.67776046E-09
  -10.6300001       2.68230593E-09
  -10.6199999       2.68369704E-09
  -10.6099997       2.68205169E-09
  -10.6000004       2.67779710E-09
  -10.5900002       2.67162648E-09
  -10.5799999       2.66438382E-09
  -10.5699997       2.65695022E-09
  -10.5600004       2.65009881E-09
  -10.5500002       2.64443867E-09
  -10.5400000       2.64029043E-09
  -10.5299997       2.63776756E-09
  -10.5200005       2.63677413E-09
  -10.5100002       2.63708011E-09
  -10.5000000       2.63841837E-09
  -10.4899998       2.64052114E-09
  -10.4799995       2.64318945E-09
  -10.4700003       2.64631317E-09
  -10.4600000       2.64982791E-09
  -10.4499998       2.65374189E-09
  -10.4399996       2.65805933E-09
  -10.4300003       2.66279843E-09
  -10.4200001       2.66794720E-09
  -10.4099998       2.67350075E-09
  -10.3999996       2.67947864E-09
  -10.3900003       2.68595435E-09
  -10.3800001       2.69304667E-09
  -10.3699999       2.70091571E-09
  -10.3599997       2.70975553E-09
  -10.3500004       2.71973977E-09
  -10.3400002       2.73100409E-09
  -10.3299999       2.74360068E-09
  -10.3199997       2.75748135E-09
  -10.3100004       2.77254286E-09
  -10.3000002       2.78860868E-09
  -10.2900000       2.80551471E-09
  -10.2799997       2.82311485E-09
  -10.2700005       2.84126700E-09
  -10.2600002       2.85988411E-09
  -10.2500000       2.87893442E-09
  -10.2399998       2.89832092E-09
  -10.2299995       2.91800184E-09
  -10.2200003       2.93791569E-09
  -10.2100000       2.95809066E-09
  -10.1999998       2.97861158E-09
  -10.1899996       2.99975089E-09
  -10.1800003       3.02195846E-09
  -10.1700001       3.04582204E-09
  -10.1599998       3.07203174E-09
  -10.1499996       3.10128412E-09
  -10.1400003       3.13409831E-09
  -10.1300001       3.17072057E-09
  -10.1199999       3.21113602E-09
  -10.1099997       3.25494254E-09
  -10.1000004       3.30156413E-09
  -10.0900002       3.35022032E-09
  -10.0799999       3.40023298E-09
  -10.0699997       3.45110296E-09
  -10.0600004       3.50260598E-09
  -10.0500002       3.55481200E-09
  -10.0400000       3.60807073E-09
  -10.0299997       3.66283492E-09
  -10.0200005       3.71955067E-09
  -10.0100002       3.77865916E-09
  -10.0000000       3.84038668E-09
  -9.98999977       3.90483335E-09
  -9.97999954       3.97200317E-09
  -9.97000027       4.04189837E-09
  -9.96000004       4.11454781E-09
  -9.94999981       4.19006740E-09
  -9.93999958       4.26858904E-09
  -9.93000031       4.35023306E-09
  -9.92000008       4.43508608E-09
  -9.90999985       4.52306947E-09
  -9.89999962       4.61392835E-09
  -9.89000034       4.70730965E-09
  -9.88000011       4.80277285E-09
  -9.86999989       4.89995555E-09
  -9.85999966       4.99863440E-09
  -9.85000038       5.09873033E-09
  -9.84000015       5.20036370E-09
  -9.82999992       5.30379740E-09
  -9.81999969       5.40938849E-09
  -9.81000042       5.51746249E-09
  -9.80000019       5.62830094E-09
  -9.78999996       5.74221337E-09
  -9.77999973       5.85952931E-09
  -9.77000046       5.98063021E-09
  -9.76000023       6.10607653E-09
  -9.75000000       6.23665519E-09
  -9.73999977       6.37318731E-09
  -9.72999954       6.51658283E-09
  -9.72000027       6.66757938E-09
  -9.71000004       6.82660728E-09
  -9.69999981       6.99365366E-09
  -9.68999958       7.16821269E-09
  -9.68000031       7.34924832E-09
  -9.67000008       7.53547980E-09
  -9.65999985       7.72544695E-09
  -9.64999962       7.91784949E-09
  -9.64000034       8.11164469E-09
  -9.63000011       8.30632096E-09
  -9.61999989       8.50178328E-09
  -9.60999966       8.69835759E-09
  -9.60000038       8.89653418E-09
  -9.59000015       9.09687436E-09
  -9.57999992       9.29961530E-09
  -9.56999969       9.50468237E-09
  -9.56000042       9.71141656E-09
  -9.55000019       9.91876270E-09
  -9.53999996       1.01252580E-08
  -9.52999973       1.03293338E-08
  -9.52000046       1.05293356E-08
  -9.51000023       1.07237792E-08
  -9.50000000       1.09114406E-08
  -9.48999977       1.10912008E-08
  -9.47999954       1.12622542E-08
  -9.47000027       1.14238210E-08
  -9.46000004       1.15753283E-08
  -9.44999981       1.17161534E-08
  -9.43999958       1.18458336E-08
  -9.43000031       1.19639942E-08
  -9.42000008       1.20705801E-08
  -9.40999985       1.21657484E-08
  -9.39999962       1.22501929E-08
  -9.39000034       1.23249455E-08
  -9.38000011       1.23915136E-08
  -9.36999989       1.24516006E-08
  -9.35999966       1.25070834E-08
  -9.35000038       1.25599842E-08
  -9.34000015       1.26122215E-08
  -9.32999992       1.26656632E-08
  -9.31999969       1.27220776E-08
  -9.31000042       1.27831221E-08
  -9.30000019       1.28502426E-08
  -9.28999996       1.29245548E-08
  -9.27999973       1.30070825E-08
  -9.27000046       1.30984512E-08
  -9.26000023       1.31991653E-08
  -9.25000000       1.33097515E-08
  -9.23999977       1.34307827E-08
  -9.22999954       1.35631915E-08
  -9.22000027       1.37084619E-08
  -9.21000004       1.38685499E-08
  -9.19999981       1.40460248E-08
  -9.18999958       1.42436445E-08
  -9.18000031       1.44640406E-08
  -9.17000008       1.47096353E-08
  -9.15999985       1.49820369E-08
  -9.14999962       1.52819943E-08
  -9.14000034       1.56093840E-08
  -9.13000011       1.59631899E-08
  -9.11999989       1.63419518E-08
  -9.10999966       1.67438827E-08
  -9.10000038       1.71671992E-08
  -9.09000015       1.76097625E-08
  -9.07999992       1.80697146E-08
  -9.06999969       1.85448190E-08
  -9.06000042       1.90326617E-08
  -9.05000019       1.95303613E-08
  -9.03999996       2.00350563E-08
  -9.02999973       2.05435935E-08
  -9.02000046       2.10528430E-08
  -9.01000023       2.15602096E-08
  -9.00000000       2.20634142E-08
  -8.98999977       2.25607923E-08
  -8.97999954       2.30509976E-08
  -8.97000027       2.35329427E-08
  -8.96000004       2.40057485E-08
  -8.94999981       2.44682390E-08
  -8.93999958       2.49193999E-08
  -8.93000031       2.53580676E-08
  -8.92000008       2.57831445E-08
  -8.90999985       2.61935540E-08
  -8.89999962       2.65885340E-08
  -8.89000034       2.69671467E-08
  -8.88000011       2.73284453E-08
  -8.86999989       2.76709411E-08
  -8.85999966       2.79927974E-08
  -8.85000038       2.82914705E-08
  -8.84000015       2.85642940E-08
  -8.82999992       2.88087154E-08
  -8.81999969       2.90226794E-08
  -8.81000042       2.92050295E-08
  -8.80000019       2.93555225E-08
  -8.78999996       2.94748741E-08
  -8.77999973       2.95647133E-08
  -8.77000046       2.96267082E-08
  -8.76000023       2.96623011E-08
  -8.75000000       2.96726430E-08
  -8.73999977       2.96582687E-08
  -8.72999954       2.96194678E-08
  -8.72000027       2.95560802E-08
  -8.71000004       2.94685236E-08
  -8.69999981       2.93576345E-08
  -8.68999958       2.92246352E-08
  -8.68000031       2.90711810E-08
  -8.67000008       2.88992315E-08
  -8.65999985       2.87105077E-08
  -8.64999962       2.85064132E-08
  -8.64000034       2.82879391E-08
  -8.63000011       2.80562595E-08
  -8.61999989       2.78126908E-08
  -8.60999966       2.75590928E-08
  -8.60000038       2.72982046E-08
  -8.59000015       2.70333640E-08
  -8.57999992       2.67684275E-08
  -8.56999969       2.65068110E-08
  -8.56000042       2.62518185E-08
  -8.55000019       2.60054556E-08
  -8.53999996       2.57692836E-08
  -8.52999973       2.55436063E-08
  -8.52000046       2.53282870E-08
  -8.51000023       2.51235921E-08
  -8.50000000       2.49297649E-08
  -8.48999977       2.47477185E-08
  -8.47999954       2.45787710E-08
  -8.47000027       2.44240290E-08
  -8.46000004       2.42841480E-08
  -8.44999981       2.41592115E-08
  -8.43999958       2.40480329E-08
  -8.43000031       2.39488163E-08
  -8.42000008       2.38592222E-08
  -8.40999985       2.37772042E-08
  -8.39999962       2.37005526E-08
  -8.39000034       2.36287132E-08
  -8.38000011       2.35619098E-08
  -8.36999989       2.35009203E-08
  -8.35999966       2.34474182E-08
  -8.35000038       2.34030111E-08
  -8.34000015       2.33691040E-08
  -8.32999992       2.33464821E-08
  -8.31999969       2.33357209E-08
  -8.31000042       2.33374937E-08
  -8.30000019       2.33519533E-08
  -8.28999996       2.33790942E-08
  -8.27999973       2.34191138E-08
  -8.27000046       2.34721433E-08
  -8.26000023       2.35384299E-08
  -8.25000000       2.36175079E-08
  -8.23999977       2.37087914E-08
  -8.22999954       2.38115270E-08
  -8.22000027       2.39244677E-08
  -8.21000004       2.40474325E-08
  -8.19999981       2.41799061E-08
  -8.18999958       2.43221159E-08
  -8.18000031       2.44748168E-08
  -8.17000008       2.46390570E-08
  -8.15999985       2.48166891E-08
  -8.14999962       2.50085517E-08
  -8.14000034       2.52158738E-08
  -8.13000011       2.54394212E-08
  -8.11999989       2.56796007E-08
  -8.10999966       2.59364636E-08
  -8.10000038       2.62103104E-08
  -8.09000015       2.65007074E-08
  -8.07999992       2.68079994E-08
  -8.06999969       2.71320122E-08
  -8.06000042       2.74734813E-08
  -8.05000019       2.78326855E-08
  -8.03999996       2.82107138E-08
  -8.02999973       2.86081292E-08
  -8.02000046       2.90258839E-08
  -8.01000023       2.94646263E-08
  -8.00000000       2.99259106E-08
  -7.98999977       3.04103693E-08
  -7.98000002       3.09187094E-08
  -7.96999979       3.14517905E-08
  -7.96000004       3.20095701E-08
  -7.94999981       3.25921228E-08
  -7.94000006       3.31998855E-08
  -7.92999983       3.38325208E-08
  -7.92000008       3.44896947E-08
  -7.90999985       3.51717233E-08
  -7.90000010       3.58783652E-08
  -7.88999987       3.66095136E-08
  -7.88000011       3.73653464E-08
  -7.86999989       3.81454157E-08
  -7.86000013       3.89495654E-08
  -7.84999990       3.97767366E-08
  -7.84000015       4.06260519E-08
  -7.82999992       4.14957029E-08
  -7.82000017       4.23846274E-08
  -7.80999994       4.32908536E-08
  -7.80000019       4.42124630E-08
  -7.78999996       4.51473952E-08
  -7.78000021       4.60936000E-08
  -7.76999998       4.70490988E-08
  -7.76000023       4.80126410E-08
  -7.75000000       4.89824039E-08
  -7.73999977       4.99571193E-08
  -7.73000002       5.09359523E-08
  -7.71999979       5.19182208E-08
  -7.71000004       5.29028590E-08
  -7.69999981       5.38892593E-08
  -7.69000006       5.48768249E-08
  -7.67999983       5.58642625E-08
  -7.67000008       5.68501441E-08
  -7.65999985       5.78326897E-08
  -7.65000010       5.88113913E-08
  -7.63999987       5.97850871E-08
  -7.63000011       6.07531447E-08
  -7.61999989       6.17151059E-08
  -7.61000013       6.26705017E-08
  -7.59999990       6.36195168E-08
  -7.59000015       6.45623004E-08
  -7.57999992       6.54982415E-08
  -7.57000017       6.64271695E-08
  -7.55999994       6.73495819E-08
  -7.55000019       6.82652797E-08
  -7.53999996       6.91748809E-08
  -7.53000021       7.00793095E-08
  -7.51999998       7.09801213E-08
  -7.51000023       7.18784889E-08
  -7.50000000       7.27760465E-08
  -7.48999977       7.36743715E-08
  -7.48000002       7.45749489E-08
  -7.46999979       7.54784821E-08
  -7.46000004       7.63863923E-08
  -7.44999981       7.72990632E-08
  -7.44000006       7.82178589E-08