  -16.0000000       0.00000000    
  -15.9899998       0.00000000    
  -15.9799995       0.00000000    
  -15.9700003       0.00000000    
  -15.9600000       0.00000000    
  -15.9499998       0.00000000    
  -15.9399996       0.00000000    
  -15.9300003       0.00000000    
  -15.9200001       0.00000000    
  -15.9099998       0.00000000    
  -15.8999996       0.00000000    
  -15.8900003       0.00000000    
  -15.8800001       0.00000000    
  -15.8699999       0.00000000    
  -15.8599997      -0.00000000    
  -15.8500004      -9.80908925E-45
  -15.8400002      -1.07899982E-43
  -15.8299999      -9.30462180E-43
  -15.8199997      -6.50763007E-42
  -15.8100004      -3.81013052E-41
  -15.8000002      -1.91958271E-40
  -15.7900000      -8.48675395E-40
  -15.7799997      -3.34282411E-39
  -15.7700005      -1.18698149E-38
  -15.7600002      -3.83498031E-38
  -15.7500000      -1.13565824E-37
  -15.7399998      -3.10009013E-37
  -15.7299995      -7.83464761E-37
  -15.7200003      -1.83870483E-36
  -15.7100000      -4.01459589E-36
  -15.6999998      -8.15869418E-36
  -15.6899996      -1.54158565E-35
  -15.6800003      -2.69942750E-35
  -15.6700001      -4.35214185E-35
  -15.6599998      -6.38197924E-35
  -15.6499996      -8.31052006E-35
  -15.6400003      -9.10241295E-35
  -15.6300001      -7.06097473E-35
  -15.6199999       2.52760724E-38
  -15.6099997       1.41081454E-34
  -15.6000004       3.58101336E-34
  -15.5900002       6.23724787E-34
  -15.5799999       8.59799639E-34
  -15.5699997       9.30941659E-34
  -15.5600004       6.64197609E-34
  -15.5500002      -9.32003783E-35
  -15.5400000      -1.37882916E-33
  -15.5299997      -3.00712779E-33
  -15.5200005      -4.50014282E-33
  -15.5100002      -5.12447836E-33
  -15.5000000      -4.08619101E-33
  -15.4899998      -8.74262903E-34
  -15.4799995       4.35507616E-33
  -15.4700003       1.05535001E-32
  -15.4600000       1.59295368E-32
  -15.4499998       1.85501516E-32
  -15.4399996       1.71804245E-32
  -15.4300003       1.18103468E-32
  -15.4200001       3.19302139E-33
  -15.4099998      -8.88926461E-33
  -15.3999996      -2.78605885E-32
  -15.3900003      -6.08995235E-32
  -15.3800001      -1.14739898E-31
  -15.3699999      -1.84706086E-31
  -15.3599997      -2.39039127E-31
  -15.3500004      -2.07397311E-31
  -15.3400002       1.08308580E-32
  -15.3299999       5.01656038E-31
  -15.3199997       1.24947667E-30
  -15.3100004       2.02937608E-30
  -15.3000002       2.33814177E-30
  -15.2900000       1.45478541E-30
  -15.2799997      -1.28283401E-30
  -15.2700005      -5.96786370E-30
  -15.2600002      -1.15080385E-29
  -15.2500000      -1.52179642E-29
  -15.2399998      -1.30769590E-29
  -15.2299995      -1.07303836E-30
  -15.2200003       2.22852965E-29
  -15.2100000       5.28786876E-29
  -15.1999998       7.87416578E-29
  -15.1899996       8.07444805E-29
  -15.1800003       3.81108735E-29
  -15.1700001      -6.07217364E-29
  -15.1599998      -2.04177728E-28
  -15.1499996      -3.46344315E-28
  -15.1400003      -4.06990405E-28
  -15.1300001      -2.91043837E-28
  -15.1199999       6.93833415E-29
  -15.1099997       6.57835895E-28
  -15.1000004       1.32225953E-27
  -15.0900002       1.76190889E-27
  -15.0799999       1.58570720E-27
  -15.0699997       4.58910683E-28
  -15.0600004      -1.68141908E-27
  -15.0500002      -4.41113531E-27
  -15.0400000      -6.71749573E-27
  -15.0299997      -7.13803872E-27
  -15.0200005      -4.22147088E-27
  -15.0100002       2.72308564E-27
  -15.0000000       1.27910853E-26
  -14.9899998       2.29326980E-26
  -14.9799995       2.81412015E-26
  -14.9700003       2.27358927E-26
  -14.9600000       2.76363802E-27
  -14.9499998      -3.09965636E-26
  -14.9399996      -7.05430360E-26
  -14.9300003      -1.00195948E-25
  -14.9200001      -9.95953964E-26
  -14.9099998      -5.07259040E-26
  -14.8999996       5.20612760E-26
  -14.8900003       1.92074466E-25
  -14.8800001       3.25110928E-25
  -14.8699999       3.84270097E-25
  -14.8599997       2.98167556E-25
  -14.8500004       2.16412588E-26
  -14.8400002      -4.28255871E-25
  -14.8299999      -9.44606108E-25
  -14.8199997      -1.32864194E-24
  -14.8100004      -1.32856424E-24
  -14.8000002      -7.24053862E-25
  -14.7900000       5.56590771E-25
  -14.7799997       2.32149458E-24
  -14.7700005       4.05501405E-24
  -14.7600002       4.96873507E-24
  -14.7500000       4.20093676E-24
  -14.7399998       1.15609843E-24
  -14.7299995      -4.08995507E-24
  -14.7200003      -1.04615333E-23
  -14.7100000      -1.58145218E-23
  -14.6999998      -1.72937527E-23
  -14.6899996      -1.21840916E-23
  -14.6800003       8.54656934E-25
  -14.6700001       2.04996424E-23
  -14.6599998       4.19451606E-23
  -14.6499996       5.71368672E-23
  -14.6400003       5.64931441E-23
  -14.6300001       3.21346276E-23
  -14.6199999      -1.79804782E-23
  -14.6099997      -8.62929138E-23
  -14.6000004      -1.53996731E-22
  -14.5900002      -1.93222959E-22
  -14.5799999      -1.74000161E-22
  -14.5699997      -7.54248213E-23
  -14.5600004       1.01523117E-22
  -14.5500002       3.23956548E-22
  -14.5400000       5.25210817E-22
  -14.5299997       6.15652849E-22
  -14.5200005       5.07645397E-22
  -14.5100002       1.51125643E-22
  -14.5000000      -4.29574219E-22
  -14.4899998      -1.11168743E-21
  -14.4799995      -1.67786782E-21
  -14.4700003      -1.85863202E-21
  -14.4600000      -1.41353676E-21
  -14.4499998      -2.36164508E-22
  -14.4399996       1.54755052E-21
  -14.4300003       3.52826620E-21
  -14.4200001       5.04865163E-21
  -14.4099998       5.34734825E-21
  -14.3999996       3.80113241E-21
  -14.3900003       2.13538664E-22
  -14.3800001      -4.93974127E-21
  -14.3699999      -1.04172121E-20
  -14.3599997      -1.43635309E-20
  -14.3500004      -1.47455155E-20
  -14.3400002      -1.00203634E-20
  -14.3299999       1.20374633E-22
  -14.3199997       1.41729029E-20
  -14.3100004       2.86787687E-20
  -14.3000002       3.87271196E-20
  -14.2900000       3.91535636E-20
  -14.2799997       2.62571635E-20
  -14.2700005      -3.88516975E-22
  -14.2600002      -3.66324560E-20
  -14.2500000      -7.35783682E-20
  -14.2399998      -9.89919932E-20
  -14.2299995      -1.00322494E-19
  -14.2200003      -6.88335697E-20
  -14.2100000      -3.79922278E-21
  -14.1999998       8.46321766E-20
  -14.1899996       1.75285543E-19
  -14.1800003       2.39411428E-19
  -14.1700001       2.47702078E-19
  -14.1599998       1.79639318E-19
  -14.1499996       3.28103032E-20
  -14.1400003      -1.70842950E-19
  -14.1300001      -3.84742951E-19
  -14.1199999      -5.45157364E-19
  -14.1099997      -5.86241357E-19
  -14.1000004      -4.59978285E-19
  -14.0900002      -1.56099890E-19
  -14.0799999       2.84232157E-19
  -14.0699997       7.66870305E-19
  -14.0600004       1.15889482E-18
  -14.0500002       1.31831755E-18
  -14.0400000       1.13420472E-18
  -14.0299997       5.67742496E-19
  -14.0200005      -3.17782112E-19
  -14.0100002      -1.34967659E-18
  -14.0000000      -2.26878974E-18
  -13.9899998      -2.78314699E-18
  -13.9799995      -2.64384150E-18
  -13.9700003      -1.72640752E-18
  -13.9600000      -9.56299435E-20
  -13.9499998       1.96836540E-18
  -13.9399996       3.99865850E-18
  -13.9300003       5.42864202E-18
  -13.9200001       5.72602958E-18
  -13.9099998       4.54664497E-18
  -13.8999996       1.86980579E-18
  -13.8900003      -1.92560884E-18
  -13.8800001      -6.07734849E-18
  -13.8699999      -9.56271908E-18
  -13.8599997      -1.13167523E-17
  -13.8500004      -1.05061550E-17
  -13.8400002      -6.79702747E-18
  -13.8299999      -5.43914525E-19
  -13.8199997       7.16512697E-18
  -13.8100004       1.46471501E-17
  -13.8000002       1.99450865E-17
  -13.7900000       2.12809832E-17
  -13.7799997       1.75477417E-17
  -13.7700005       8.71814699E-18
  -13.7600002      -3.95045910E-18
  -13.7500000      -1.80055646E-17
  -13.7399998      -3.02116171E-17
  -13.7299995      -3.72338478E-17
  -13.7200003      -3.64629221E-17
  -13.7100000      -2.67903882E-17
  -13.6999998      -9.12632588E-18
  -13.6899996       1.35152246E-17
  -13.6800003       3.64518842E-17
  -13.6700001       5.42549650E-17
  -13.6599998       6.19900930E-17
  -13.6499996       5.65002938E-17
  -13.6400003       3.74056565E-17
  -13.6300001       7.52549648E-18
  -13.6199999      -2.74564638E-17
  -13.6099997      -6.00829189E-17
  -13.6000004      -8.27675333E-17
  -13.5900002      -8.96199173E-17
  -13.5799999      -7.79904858E-17
  -13.5699997      -4.93068367E-17
  -13.5600004      -8.92934192E-18
  -13.5500002       3.49987760E-17
  -13.5400000       7.34509782E-17
  -13.5299997       9.86823096E-17
  -13.5200005       1.06068318E-16
  -13.5100002       9.50894208E-17
  -13.5000000       6.91620864E-17
  -13.4899998       3.43599080E-17
  -13.4799995      -2.57530131E-18
  -13.4700003      -3.62744374E-17
  -13.4600000      -6.41149082E-17
  -13.4499998      -8.63887182E-17
  -13.4399996      -1.05119059E-16
  -13.4300003      -1.21880537E-16
  -13.4200001      -1.35427704E-16
  -13.4099998      -1.40172174E-16
  -13.3999996      -1.26442670E-16
  -13.3900003      -8.29944058E-17
  -13.3800001      -1.48721977E-18
  -13.3699999       1.18169633E-16
  -13.3599997       2.63341061E-16
  -13.3500004       4.06985699E-16
  -13.3400002       5.10292034E-16
  -13.3299999       5.30143310E-16
  -13.3199997       4.30506745E-16
  -13.3100004       1.95375045E-16
  -13.3000002      -1.60197912E-16
  -13.2900000      -5.84719814E-16
  -13.2799997      -9.93552177E-16
  -13.2700005      -1.28212127E-15
  -13.2600002      -1.34781291E-15
  -13.2500000      -1.11668959E-15
  -13.2399998      -5.69068709E-16
  -13.2299995       2.42892521E-16
  -13.2200003       1.19173152E-15
  -13.2100000       2.08900115E-15
  -13.1999998       2.71728000E-15
  -13.1899996       2.87540030E-15
  -13.1800003       2.42844219E-15
  -13.1700001       1.35154864E-15
  -13.1599998      -2.43710967E-16
  -13.1499996      -2.10938542E-15
  -13.1400003      -3.89186525E-15
  -13.1300001      -5.19122904E-15
  -13.1199999      -5.64049404E-15
  -13.1099997      -4.99037084E-15
  -13.1000004      -3.18190637E-15
  -13.0900002      -3.89576737E-16
  -13.0799999       2.97868284E-15
  -13.0699997       6.33066580E-15
  -13.0600004       8.98487488E-15
  -13.0500002       1.02977251E-14
  -13.0400000       9.80080478E-15
  -13.0299997       7.32091085E-15
  -13.0200005       3.05554197E-15
  -13.0100002      -2.41781404E-15
  -13.0000000      -8.20915195E-15
  -12.9899998      -1.32559386E-14
  -12.9799995      -1.65154620E-14
  -12.9700003      -1.71754446E-14
  -12.9600000      -1.48406932E-14
  -12.9499998      -9.65330670E-15
  -12.9399996      -2.31324232E-15
  -12.9300003       6.01588507E-15
  -12.9200001       1.39071358E-14
  -12.9099998       1.99431011E-14
  -12.8999996       2.30072106E-14
  -12.8900003       2.25292146E-14
  -12.8800001       1.86242758E-14
  -12.8699999       1.20839448E-14
  -12.8599997       4.20868013E-15
  -12.8500004      -3.49059652E-15
  -12.8400002      -9.65883359E-15
  -12.8299999      -1.34438655E-14
  -12.8199997      -1.47319579E-14
  -12.8100004      -1.41979400E-14
  -12.8000002      -1.31353694E-14
  -12.7900000      -1.30858577E-14
  -12.7799997      -1.53420808E-14
  -12.7700005      -2.04424981E-14
  -12.7600002      -2.77942478E-14
  -12.7500000      -3.55465305E-14
  -12.7399998      -4.07895289E-14
  -12.7299995      -4.00818091E-14
  -12.7200003      -3.02274956E-14
  -12.7100000      -9.15346663E-15
  -12.6999998       2.33060929E-14
  -12.6899996       6.49100728E-14
  -12.6800003       1.10942925E-13
  -12.6700001       1.54642480E-13
  -12.6599998       1.88082799E-13
  -12.6499996       2.03371282E-13
  -12.6400003       1.93948454E-13
  -12.6300001       1.55753787E-13
  -12.6199999       8.80489664E-14
  -12.6099997      -6.23261666E-15
  -12.6000004      -1.20640070E-13
  -12.5900002      -2.45785841E-13
  -12.5799999      -3.70201916E-13
  -12.5699997      -4.81287211E-13
  -12.5600004      -5.66190324E-13
  -12.5500002      -6.12539045E-13
  -12.5400000      -6.09029374E-13
  -12.5299997      -5.45967514E-13
  -12.5200005      -4.15916244E-13
  -12.5100002      -2.14584996E-13
  -12.5000000       5.79677433E-14
  -12.4899998       3.95863680E-13
  -12.4799995       7.85857111E-13
  -12.4700003       1.20600795E-12
  -12.4600000       1.62493500E-12
  -12.4499998       2.00198148E-12
  -12.4399996       2.28852028E-12
  -12.4300003       2.43044538E-12
  -12.4200001       2.37169160E-12
  -12.4099998       2.05844348E-12
  -12.3999996       1.44356337E-12
  -12.3900003       4.90759777E-13
  -12.3800001      -8.21944238E-13
  -12.3699999      -2.49972786E-12
  -12.3599997      -4.52956596E-12
  -12.3500004      -6.87986777E-12
  -12.3400002      -9.50093476E-12
  -12.3299999      -1.23260907E-11
  -12.3199997      -1.52732930E-11
  -12.3100004      -1.82471347E-11
  -12.3000002      -2.11412970E-11
  -12.2900000      -2.38415624E-11
  -12.2799997      -2.62294683E-11
  -12.2700005      -2.81866162E-11
  -12.2600002      -2.95995208E-11
  -12.2500000      -3.03647975E-11
  -12.2399998      -3.03940380E-11
  -12.2299995      -2.96182662E-11
  -12.2200003      -2.79911892E-11
  -12.2100000      -2.54911630E-11
  -12.1999998      -2.21218426E-11
  -12.1899996      -1.79114067E-11
  -12.1800003      -1.29108451E-11
  -12.1700001      -7.19148656E-12
  -12.1599998      -8.42071421E-13
  -12.1499996       6.03460120E-12
  -12.1400003       1.33253764E-11
  -12.1300001       2.09110160E-11
  -12.1199999       2.86711089E-11
  -12.1099997       3.64895926E-11
  -12.1000004       4.42603038E-11
  -12.0900002       5.18922509E-11
  -12.0799999       5.93133112E-11
  -12.0699997       6.64715991E-11
  -12.0600004       7.33337141E-11
  -12.0500002       7.98793462E-11
  -12.0400000       8.60929800E-11
  -12.0299997       9.19534171E-11
  -12.0200005       9.74228476E-11
  -12.0100002       1.02437822E-10
  -12.0000000       1.06903465E-10
  -11.9899998       1.10692851E-10
  -11.9799995       1.13651519E-10
  -11.9700003       1.15607364E-10
  -11.9600000       1.16383722E-10
  -11.9499998       1.15814004E-10
  -11.9399996       1.13755519E-10
  -11.9300003       1.10100158E-10
  -11.9200001       1.04780636E-10
  -11.9099998       9.77720405E-11
  -11.8999996       8.90888405E-11
  -11.8900003       7.87785601E-11
  -11.8800001       6.69143352E-11
  -11.8699999       5.35874747E-11
  -11.8599997       3.89013093E-11
  -11.8500004       2.29676625E-11
  -11.8400002       5.90499958E-12
  -11.8299999      -1.21614645E-11
  -11.8199997      -3.10987798E-11
  -11.8100004      -5.07653537E-11
  -11.8000002      -7.10105516E-11
  -11.7900000      -9.16752299E-11
  -11.7799997      -1.12593185E-10
  -11.7700005      -1.33593026E-10
  -11.7600002      -1.54500773E-10
  -11.7500000      -1.75142262E-10
  -11.7399998      -1.95345740E-10
  -11.7299995      -2.14943952E-10
  -11.7200003      -2.33776665E-10
  -11.7100000      -2.51691751E-10
  -11.6999998      -2.68546074E-10
  -11.6899996      -2.84204799E-10
  -11.6800003      -2.98538999E-10
  -11.6700001      -3.11421444E-10
  -11.6599998      -3.22721461E-10
  -11.6499996      -3.32298744E-10
  -11.6400003      -3.39999418E-10
  -11.6300001      -3.45653117E-10
  -11.6199999      -3.49074991E-10
  -11.6099997      -3.50072055E-10
  -11.6000004      -3.48452739E-10
  -11.5900002      -3.44039824E-10
  -11.5799999      -3.36683126E-10
  -11.5699997      -3.26270649E-10
  -11.5600004      -3.12734783E-10
  -11.5500002      -2.96054320E-10
  -11.5400000      -2.76249745E-10
  -11.5299997      -2.53375210E-10
  -11.5200005      -2.27509206E-10
  -11.5100002      -1.98744785E-10
  -11.5000000      -1.67184586E-10
  -11.4899998      -1.32938743E-10
  -11.4799995      -9.61275989E-11
  -11.4700003      -5.68868598E-11
  -11.4600000      -1.53721636E-11
  -11.4499998       2.82388436E-11
  -11.4399996       7.37490485E-11
  -11.4300003       1.20951138E-10
  -11.4200001       1.69639663E-10
  -11.4099998       2.19627413E-10
  -11.3999996       2.70759165E-10
  -11.3900003       3.22921440E-10
  -11.3800001       3.76045056E-10
  -11.3699999       4.30099373E-10
  -11.3599997       4.85077589E-10
  -11.3500004       5.40976819E-10
  -11.3400002       5.97776884E-10
  -11.3299999       6.55418053E-10
  -11.3199997       7.13786641E-10
  -11.3100004       7.72706232E-10
  -11.3000002       8.31939462E-10
  -11.2900000       8.91196617E-10
  -11.2799997       9.50153956E-10
  -11.2700005       1.00847475E-09
  -11.2600002       1.06583442E-09
  -11.2500000       1.12194498E-09
  -11.2399998       1.17657473E-09
  -11.2299995       1.22956523E-09
  -11.2200003       1.28083533E-09
  -11.2100000       1.33038369E-09
  -11.1999998       1.37827461E-09
  -11.1899996       1.42462098E-09
  -11.1800003       1.46956247E-09
  -11.1700001       1.51323465E-09
  -11.1599998       1.55574675E-09
  -11.1499996       1.59716074E-09
  -11.1400003       1.63748337E-09
  -11.1300001       1.67665926E-09
  -11.1199999       1.71458114E-09
  -11.1099997       1.75110715E-09
  -11.1000004       1.78607751E-09
  -11.0900002       1.81933679E-09
  -11.0799999       1.85075044E-09
  -11.0699997       1.88021843E-09
  -11.0600004       1.90767713E-09
  -11.0500002       1.93310501E-09
  -11.0400000       1.95650873E-09
  -11.0299997       1.97791783E-09
  -11.0200005       1.99737271E-09
  -11.0100002       2.01490735E-09
  -11.0000000       2.03054262E-09
  -10.9899998       2.04427275E-09
  -10.9799995       2.05606088E-09
  -10.9700003       2.06583461E-09
  -10.9600000       2.07348827E-09
  -10.9499998       2.07889572E-09
  -10.9399996       2.08192441E-09
  -10.9300003       2.08245354E-09
  -10.9200001       2.08039386E-09
  -10.9099998       2.07570161E-09
  -10.8999996       2.06838502E-09
  -10.8900003       2.05849582E-09
  -10.8800001       2.04611883E-09
  -10.8699999       2.03133954E-09
  -10.8599997       2.01422479E-09
  -10.8500004       1.99479855E-09
  -10.8400002       1.97303240E-09
  -10.8299999       1.94885219E-09
  -10.8199997       1.92215910E-09
  -10.8100004       1.89286209E-09
  -10.8000002       1.86090610E-09
  -10.7900000       1.82630022E-09
  -10.7799997       1.78912896E-09
  -10.7700005       1.74954018E-09
  -10.7600002       1.70771886E-09
  -10.7500000       1.66385616E-09
  -10.7399998       1.61810332E-09
  -10.7299995       1.57054947E-09
  -10.7200003       1.52121116E-09
  -10.7100000       1.47003276E-09
  -10.6999998       1.41691880E-09
  -10.6899996       1.36176859E-09
  -10.6800003       1.30450339E-09
  -10.6700001       1.24510047E-09
  -10.6599998       1.18360077E-09
  -10.6499996       1.12010601E-09
  -10.6400003       1.05476528E-09
  -10.6300001       9.87759208E-10
  -10.6199999       9.19283927E-10
  -10.6099997       8.49546877E-10
  -10.6000004       7.78766218E-10
  -10.5900002       7.07180980E-10
  -10.5799999       6.35042574E-10
  -10.5699997       5.62622060E-10
  -10.5600004       4.90190055E-10
  -10.5500002       4.17987867E-10
  -10.5400000       3.46211393E-10
  -10.5299997       2.74985507E-10
  -10.5200005       2.04360820E-10
  -10.5100002       1.34327313E-10
  -10.5000000       6.48397031E-11
  -10.4899998      -4.14327557E-12
  -10.4799995      -7.26101818E-11
  -10.4700003      -1.40480794E-10
  -10.4600000      -2.07580134E-10
  -10.4499998      -2.73664369E-10
  -10.4399996      -3.38441358E-10
  -10.4300003      -4.01608191E-10
  -10.4200001      -4.62887229E-10
  -10.4099998      -5.22043186E-10
  -10.3999996      -5.78893822E-10
  -10.3900003      -6.33290254E-10
  -10.3800001      -6.85114521E-10
  -10.3699999      -7.34249328E-10
  -10.3599997      -7.80583320E-10
  -10.3500004      -8.24010693E-10
  -10.3400002      -8.64451899E-10
  -10.3299999      -9.01877018E-10
  -10.3199997      -9.36318800E-10
  -10.3100004      -9.67868896E-10
  -10.3000002      -9.96667859E-10
  -10.2900000      -1.02286346E-09
  -10.2799997      -1.04658215E-09
  -10.2700005      -1.06789233E-09
  -10.2600002      -1.08679599E-09
  -10.2500000      -1.10324627E-09
  -10.2399998      -1.11717946E-09
  -10.2299995      -1.12856247E-09
  -10.2200003      -1.13743770E-09
  -10.2100000      -1.14394583E-09
  -10.1999998      -1.14832577E-09
  -10.1899996      -1.15088128E-09
  -10.1800003      -1.15193077E-09
  -10.1700001      -1.15175447E-09
  -10.1599998      -1.15055643E-09
  -10.1499996      -1.14844634E-09
  -10.1400003      -1.14546017E-09
  -10.1300001      -1.14160381E-09
  -10.1199999      -1.13690779E-09
  -10.1099997      -1.13147791E-09
  -10.1000004      -1.12551868E-09
  -10.0900002      -1.11932896E-09
  -10.0799999      -1.11327192E-09
  -10.0699997      -1.10771581E-09
  -10.0600004      -1.10298448E-09
  -10.0500002      -1.09931486E-09
  -10.0400000      -1.09684761E-09
  -10.0299997      -1.09563825E-09
  -10.0200005      -1.09569476E-09
  -10.0100002      -1.09701870E-09
  -10.0000000      -1.09963472E-09
  -9.98999977      -1.10360088E-09
  -9.97999954      -1.10899290E-09
  -9.97000027      -1.11587528E-09
  -9.96000004      -1.12426268E-09
  -9.94999981      -1.13410259E-09
  -9.93999958      -1.14527476E-09
  -9.93000031      -1.15762466E-09
  -9.92000008      -1.17101429E-09
  -9.90999985      -1.18537802E-09
  -9.89999962      -1.20076737E-09
  -9.89000034      -1.21736210E-09
  -9.88000011      -1.23544797E-09
  -9.86999989      -1.25536082E-09
  -9.85999966      -1.27741440E-09
  -9.85000038      -1.30183198E-09
  -9.84000015      -1.32870603E-09
  -9.82999992      -1.35799150E-09
  -9.81999969      -1.38954426E-09
  -9.81000042      -1.42318335E-09
  -9.80000019      -1.45876566E-09
  -9.78999996      -1.49624424E-09
  -9.77999973      -1.53569790E-09
  -9.77000046      -1.57731839E-09
  -9.76000023      -1.62136904E-09
  -9.75000000      -1.66812297E-09
  -9.73999977      -1.71780734E-09
  -9.72999954      -1.77056991E-09
  -9.72000027      -1.82648030E-09
  -9.71000004      -1.88556371E-09
  -9.69999981      -1.94784899E-09
  -9.68999958      -2.01341877E-09
  -9.68000031      -2.08243156E-09
  -9.67000008      -2.15510942E-09
  -9.65999985      -2.23168439E-09
  -9.64999962      -2.31232056E-09
  -9.64000034      -2.39703168E-09
  -9.63000011      -2.48561460E-09
  -9.61999989      -2.57762856E-09
  -9.60999966      -2.67241473E-09
  -9.60000038      -2.76915868E-09
  -9.59000015      -2.86697266E-09
  -9.57999992      -2.96496827E-09
  -9.56999969      -3.06230374E-09
  -9.56000042      -3.15819215E-09
  -9.55000019      -3.25185590E-09
  -9.53999996      -3.34247208E-09
  -9.52999973      -3.42910611E-09
  -9.52000046      -3.51068441E-09
  -9.51000023      -3.58600349E-09
  -9.50000000      -3.65379127E-09
  -9.48999977      -3.71280739E-09
  -9.47999954      -3.76194853E-09
  -9.47000027      -3.80033782E-09
  -9.46000004      -3.82737042E-09
  -9.44999981      -3.84270615E-09
  -9.43999958      -3.84620957E-09
  -9.43000031      -3.83787269E-09
  -9.42000008      -3.81774612E-09
  -9.40999985      -3.78590315E-09
  -9.39999962      -3.74245923E-09
  -9.39000034      -3.68764175E-09
  -9.38000011      -3.62188834E-09
  -9.36999989      -3.54595331E-09
  -9.35999966      -3.46097417E-09
  -9.35000038      -3.36847861E-09
  -9.34000015      -3.27033711E-09
  -9.32999992      -3.16865867E-09
  -9.31999969      -3.06567682E-09
  -9.31000042      -2.96365421E-09
  -9.30000019      -2.86480728E-09
  -9.28999996      -2.77131318E-09
  -9.27999973      -2.68534017E-09
  -9.27000046      -2.60910715E-09
  -9.26000023      -2.54490917E-09
  -9.25000000      -2.49511478E-09
  -9.23999977      -2.46208698E-09
  -9.22999954      -2.44807374E-09
  -9.22000027      -2.45504594E-09
  -9.21000004      -2.48459786E-09
  -9.19999981      -2.53785992E-09
  -9.18999958      -2.61551092E-09
  -9.18000031      -2.71784906E-09
  -9.17000008      -2.84492052E-09
  -9.15999985      -2.99662939E-09
  -9.14999962      -3.17283710E-09
  -9.14000034      -3.37338268E-09
  -9.13000011      -3.59803476E-09
  -9.11999989      -3.84640053E-09
  -9.10999966      -4.11781187E-09
  -9.10000038      -4.41124781E-09
  -9.09000015      -4.72531703E-09
  -9.07999992      -5.05829245E-09
  -9.06999969      -5.40820766E-09
  -9.06000042      -5.77299009E-09
  -9.05000019      -6.15053386E-09
  -9.03999996      -6.53875221E-09
  -9.02999973      -6.93553925E-09
  -9.02000046      -7.33871142E-09
  -9.01000023      -7.74590170E-09
  -9.00000000      -8.15446732E-09
  -8.98999977      -8.56150084E-09
  -8.97999954      -8.96388208E-09
  -8.97000027      -9.35837008E-09
  -8.96000004      -9.74177272E-09
  -8.94999981      -1.01110604E-08
  -8.93999958      -1.04634452E-08
  -8.93000031      -1.07963638E-08
  -8.92000008      -1.11074288E-08
  -8.90999985      -1.13943202E-08
  -8.89999962      -1.16547048E-08
  -8.89000034      -1.18861880E-08
  -8.88000011      -1.20863444E-08
  -8.86999989      -1.22528503E-08
  -8.85999966      -1.23836035E-08
  -8.85000038      -1.24768791E-08
  -8.84000015      -1.25313990E-08
  -8.82999992      -1.25463613E-08
  -8.81999969      -1.25213466E-08
  -8.81000042      -1.24562218E-08
  -8.80000019      -1.23509869E-08
  -8.78999996      -1.22056951E-08
  -8.77999973      -1.20204042E-08
  -8.77000046      -1.17952261E-08
  -8.76000023      -1.15304468E-08
  -8.75000000      -1.12265832E-08
  -8.73999977      -1.08845128E-08
  -8.72999954      -1.05054578E-08
  -8.72000027      -1.00909539E-08
  -8.71000004      -9.64271596E-09
  -8.69999981      -9.16254095E-09
  -8.68999958      -8.65218208E-09
  -8.68000031      -8.11329937E-09
  -8.67000008      -7.54747820E-09
  -8.65999985      -6.95628222E-09
  -8.64999962      -6.34134434E-09
  -8.64000034      -5.70441827E-09
  -8.63000011      -5.04737852E-09
  -8.61999989      -4.37218262E-09
  -8.60999966      -3.68078390E-09
  -8.60000038      -2.97499225E-09
  -8.59000015      -2.25644659E-09
  -8.57999992      -1.52655766E-09
  -8.56999969      -7.86547882E-10
  -8.56000042      -3.75724209E-11
  -8.55000019       7.19231785E-10
  -8.53999996       1.48258239E-09
  -8.52999973       2.25106112E-09
  -8.52000046       3.02313130E-09
  -8.51000023       3.79718212E-09
  -8.50000000       4.57166571E-09
  -8.48999977       5.34515143E-09
  -8.47999954       6.11643491E-09
  -8.47000027       6.88448143E-09
  -8.46000004       7.64840635E-09
  -8.44999981       8.40740988E-09
  -8.43999958       9.16068199E-09
  -8.43000031       9.90740112E-09
  -8.42000008       1.06467200E-08
  -8.40999985       1.13778285E-08
  -8.39999962       1.21000081E-08
  -8.39000034       1.28126629E-08
  -8.38000011       1.35153702E-08
  -8.36999989       1.42078171E-08
  -8.35999966       1.48897294E-08
  -8.35000038       1.55608273E-08
  -8.34000015       1.62207030E-08
  -8.32999992       1.68688352E-08
  -8.31999969       1.75045756E-08
  -8.31000042       1.81272437E-08
  -8.30000019       1.87361735E-08
  -8.28999996       1.93308036E-08
  -8.27999973       1.99106847E-08
  -8.27000046       2.04754738E-08
  -8.26000023       2.10248601E-08
  -8.25000000       2.15584848E-08
  -8.23999977       2.20758434E-08
  -8.22999954       2.25762395E-08
  -8.22000027       2.30587691E-08
  -8.21000004       2.35223627E-08
  -8.19999981       2.39658302E-08
  -8.18999958       2.43879459E-08
  -8.18000031       2.47875143E-08
  -8.17000008       2.51633754E-08
  -8.15999985       2.55144172E-08
  -8.14999962       2.58395385E-08
  -8.14000034       2.61376201E-08
  -8.13000011       2.64074878E-08
  -8.11999989       2.66479336E-08
  -8.10999966       2.68577072E-08
  -8.10000038       2.70355827E-08
  -8.09000015       2.71803842E-08
  -8.07999992       2.72910210E-08
  -8.06999969       2.73665091E-08
  -8.06000042       2.74059904E-08
  -8.05000019       2.74086940E-08
  -8.03999996       2.73739591E-08
  -8.02999973       2.73011924E-08
  -8.02000046       2.71899427E-08
  -8.01000023       2.70398832E-08
  -8.00000000       2.68508860E-08
  -7.98999977       2.66230380E-08
  -7.98000002       2.63566928E-08
  -7.96999979       2.60524775E-08
  -7.96000004       2.57112820E-08
  -7.94999981       2.53342254E-08
  -7.94000006       2.49226275E-08
  -7.92999983       2.44779450E-08
  -7.92000008       2.40017570E-08
  -7.90999985       2.34956978E-08
  -7.90000010       2.29614567E-08
  -7.88999987       2.24007817E-08
  -7.88000011       2.18154650E-08
  -7.86999989       2.12074003E-08
  -7.86000013       2.05785664E-08
  -7.84999990       1.99311039E-08
  -7.84000015       1.92672918E-08
  -7.82999992       1.85895441E-08
  -7.82000017       1.79003994E-08
  -7.80999994       1.72024563E-08
  -7.80000019       1.64983174E-08
  -7.78999996       1.57905404E-08
  -7.78000021       1.50815573E-08
  -7.76999998       1.43736774E-08
  -7.76000023       1.36690854E-08
  -7.75000000       1.29698305E-08
  -7.73999977       1.22778898E-08
  -7.73000002       1.15951924E-08
  -7.71999979       1.09236353E-08
  -7.71000004       1.02650253E-08
  -7.69999981       9.62110658E-09
  -7.69000006       8.99345221E-09
  -7.67999983       8.38342018E-09
  -7.67000008       7.79213227E-09
  -7.65999985       7.22041893E-09
  -7.65000010       6.66889255E-09
  -7.63999987       6.13797635E-09
  -7.63000011       5.62795810E-09
  -7.61999989       5.13905674E-09
  -7.61000013       4.67143790E-09
  -7.59999990       4.22522684E-09
  -7.59000015       3.80050391E-09
  -7.57999992       3.39720185E-09
  -7.57000017       3.01513570E-09
  -7.55999994       2.65394373E-09
  -7.55000019       2.31311970E-09
  -7.53999996       1.99202321E-09
  -7.53000021       1.68994196E-09
  -7.51999998       1.40613354E-09
  -7.51000023       1.13984755E-09
  -7.50000000       8.90337803E-10
  -7.48999977       6.56839805E-10
  -7.48000002       4.38556830E-10
  -7.46999979       2.34575970E-10
  -7.46000004       4.38984578E-11
  -7.44999981      -1.34577960E-10
  -7.44000006      -3.02028597E-10