  -16.0000000       0.00000000    
  -15.9899998       0.00000000    
  -15.9799995       0.00000000    
  -15.9700003       0.00000000    
  -15.9600000       0.00000000    
  -15.9499998       0.00000000    
  -15.9399996       0.00000000    
  -15.9300003       0.00000000    
  -15.9200001       0.00000000    
  -15.9099998       0.00000000    
  -15.8999996       0.00000000    
  -15.8900003      -1.47486663E-41
  -15.8800001      -5.03088569E-40
  -15.8699999      -9.62859220E-39
  -15.8599997      -1.23812578E-37
  -15.8500004      -1.16483336E-36
  -15.8400002      -8.52092709E-36
  -15.8299999      -5.06793841E-35
  -15.8199997      -2.53272357E-34
  -15.8100004      -1.08992920E-33
  -15.8000002      -4.11409982E-33
  -15.7900000      -1.38126478E-32
  -15.7799997      -4.16818248E-32
  -15.7700005      -1.13912514E-31
  -15.7600002      -2.83342663E-31
  -15.7500000      -6.42983749E-31
  -15.7399998      -1.33035576E-30
  -15.7299995      -2.49796800E-30
  -15.7200003      -4.20887012E-30
  -15.7100000      -6.21007986E-30
  -15.6999998      -7.56697123E-30
  -15.6899996      -6.24350452E-30
  -15.6800003       1.09150321E-30
  -15.6700001       1.84999700E-29
  -15.6599998       4.87642001E-29
  -15.6499996       8.94768756E-29
  -15.6400003       1.27752374E-28
  -15.6300001       1.35940164E-28
  -15.6199999       7.29879782E-29
  -15.6099997      -1.02696399E-28
  -15.6000004      -4.05237183E-28
  -15.5900002      -7.82217169E-28
  -15.5799999      -1.08160438E-27
  -15.5699997      -1.05489086E-27
  -15.5600004      -4.29335188E-28
  -15.5500002       9.38283121E-28
  -15.5400000       2.86341968E-27
  -15.5299997       4.69354790E-27
  -15.5200005       5.37173100E-27
  -15.5100002       3.81608150E-27
  -15.5000000      -4.22250703E-28
  -15.4899998      -6.50086251E-27
  -15.4799995      -1.21150685E-26
  -15.4700003      -1.42771652E-26
  -15.4600000      -1.10774113E-26
  -15.4499998      -3.65085174E-27
  -15.4399996       3.22000907E-27
  -15.4300003       3.50045009E-27
  -15.4200001      -4.43412899E-27
  -15.4099998      -1.14407457E-26
  -15.3999996       3.78596651E-27
  -15.3900003       6.47110612E-26
  -15.3800001       1.73493858E-25
  -15.3699999       2.82398399E-25
  -15.3599997       2.81333757E-25
  -15.3500004       2.93408709E-26
  -15.3400002      -5.53334255E-25
  -15.3299999      -1.35149760E-24
  -15.3199997      -1.95089719E-24
  -15.3100004      -1.67656056E-24
  -15.3000002       1.25626641E-25
  -15.2900000       3.56479143E-24
  -15.2799997       7.62654709E-24
  -15.2700005       9.92888813E-24
  -15.2600002       7.27511272E-24
  -15.2500000      -2.74325137E-24
  -15.2399998      -1.93994749E-23
  -15.2299995      -3.68187417E-23
  -15.2200003      -4.39666167E-23
  -15.2100000      -2.81590811E-23
  -15.1999998       1.77060288E-23
  -15.1899996       8.64065540E-23
  -15.1800003       1.50958152E-22
  -15.1700001       1.68427420E-22
  -15.1599998       9.68097991E-23
  -15.1499996      -7.73957177E-23
  -15.1400003      -3.12044849E-22
  -15.1300001      -5.00929452E-22
  -15.1199999      -5.01993013E-22
  -15.1099997      -2.07434825E-22
  -15.1000004       3.63637387E-22
  -15.0900002       9.97303149E-22
  -15.0799999       1.30388817E-21
  -15.0699997       8.69538581E-22
  -15.0600004      -4.72116818E-22
  -15.0500002      -2.34911802E-21
  -15.0400000      -3.72336895E-21
  -15.0299997      -3.12495668E-21
  -15.0200005       6.52185616E-22
  -15.0100002       7.52368750E-21
  -15.0000000       1.51851329E-20
  -14.9899998       1.89342773E-20
  -14.9799995       1.28718868E-20
  -14.9700003      -7.31341318E-21
  -14.9600000      -4.05768667E-20
  -14.9499998      -7.73153052E-20
  -14.9399996      -9.89154403E-20
  -14.9300003      -8.20178399E-20
  -14.9200001      -8.03607258E-21
  -14.9099998       1.24035526E-19
  -14.8999996       2.86302461E-19
  -14.8900003       4.18705720E-19
  -14.8800001       4.39693800E-19
  -14.8699999       2.72749288E-19
  -14.8599997      -1.16050868E-19
  -14.8500004      -6.81644026E-19
  -14.8400002      -1.28157160E-18
  -14.8299999      -1.69091723E-18
  -14.8199997      -1.65687834E-18
  -14.8100004      -9.84264175E-19
  -14.8000002       3.72210777E-19
  -14.7900000       2.24196345E-18
  -14.7799997       4.22795255E-18
  -14.7700005       5.76305625E-18
  -14.7600002       6.22014674E-18
  -14.7500000       5.04345833E-18
  -14.7399998       1.86772626E-18
  -14.7299995      -3.38514670E-18
  -14.7200003      -1.04058957E-17
  -14.7100000      -1.83455359E-17
  -14.6999998      -2.55859537E-17
  -14.6899996      -2.95017804E-17
  -14.6800003      -2.64274644E-17
  -14.6700001      -1.21715193E-17
  -14.6599998       1.65767491E-17
  -14.6499996       5.98433674E-17
  -14.6400003       1.11392734E-16
  -14.6300001       1.56322061E-16
  -14.6199999       1.71016217E-16
  -14.6099997       1.27379819E-16
  -14.6000004       2.46558552E-18
  -14.5900002      -2.07333151E-16
  -14.5799999      -4.71193682E-16
  -14.5699997      -7.14434757E-16
  -14.5600004      -8.22811617E-16
  -14.5500002      -6.67219235E-16
  -14.5400000      -1.50170868E-16
  -14.5299997       7.33633500E-16
  -14.5200005       1.84098545E-15
  -14.5100002       2.85484641E-15
  -14.5000000       3.31797480E-15
  -14.4899998       2.74322017E-15
  -14.4799995       7.95084205E-16
  -14.4700003      -2.49536414E-15
  -14.4600000      -6.55294249E-15
  -14.4499998      -1.02086740E-14
  -14.4399996      -1.18605712E-14
  -14.4300003      -9.88303304E-15
  -14.4200001      -3.24192162E-15
  -14.4099998       7.82764576E-15
  -14.3999996       2.13136630E-14
  -14.3900003       3.33610872E-14
  -14.3800001       3.88705656E-14
  -14.3699999       3.28298688E-14
  -14.3599997       1.22010895E-14
  -14.3500004      -2.20971956E-14
  -14.3400002      -6.38017674E-14
  -14.3299999      -1.01268494E-13
  -14.3199997      -1.19363924E-13
  -14.3100004      -1.03398355E-13
  -14.3000002      -4.45240294E-14
  -14.2900000       5.47318098E-14
  -14.2799997       1.76701955E-13
  -14.2700005       2.88610390E-13
  -14.2600002       3.47881852E-13
  -14.2500000       3.12939317E-13
  -14.2399998       1.57878498E-13
  -14.2299995      -1.12553338E-13
  -14.2200003      -4.52687990E-13
  -14.2100000      -7.75664201E-13
  -14.1999998      -9.66989401E-13
  -14.1899996      -9.12496749E-13
  -14.1800003      -5.36596050E-13
  -14.1700001       1.58253280E-13
  -14.1599998       1.06357902E-12
  -14.1499996       1.96191739E-12
  -14.1400003       2.55872385E-12
  -14.1300001       2.55101669E-12
  -14.1199999       1.72305779E-12
  -14.1099997       4.70952047E-14
  -14.1000004      -2.24198936E-12
  -14.0900002      -4.63143196E-12
  -14.0799999      -6.39973881E-12
  -14.0699997      -6.77626314E-12
  -14.0600004      -5.16971362E-12
  -14.0500002      -1.41488806E-12
  -14.0400000       4.03542174E-12
  -14.0299997       1.00521683E-11
  -14.0200005       1.49663164E-11
  -14.0100002       1.69175143E-11
  -14.0000000       1.43709922E-11
  -13.9899998       6.69172053E-12
  -13.9799995      -5.38635976E-12
  -13.9700003      -1.95735667E-11
  -13.9600000      -3.22606213E-11
  -13.9499998      -3.92270973E-11
  -13.9399996      -3.67384734E-11
  -13.9300003      -2.28047633E-11
  -13.9200001       1.73827695E-12
  -13.9099998       3.27017337E-11
  -13.8999996       6.28764263E-11
  -13.8900003       8.33517630E-11
  -13.8800001       8.56797133E-11
  -13.8699999       6.44534218E-11
  -13.8599997       1.96395383E-11
  -13.8500004      -4.20830766E-11
  -13.8400002      -1.07607777E-10
  -13.8299999      -1.59605676E-10
  -13.8199997      -1.80451917E-10
  -13.8100004      -1.57126895E-10
  -13.8000002      -8.58987464E-11
  -13.7900000       2.45976451E-11
  -13.7799997       1.53098742E-10
  -13.7700005       2.68922606E-10
  -13.7600002       3.38448547E-10
  -13.7500000       3.33697958E-10
  -13.7399998       2.41033526E-10
  -13.7299995       6.75883308E-11
  -13.7200003      -1.56763491E-10
  -13.7100000      -3.83234972E-10
  -13.6999998      -5.53729118E-10
  -13.6899996      -6.14593376E-10
  -13.6800003      -5.31502564E-10
  -13.6700001      -3.01647207E-10
  -13.6599998       4.04761294E-11
  -13.6499996       4.26218338E-10
  -13.6400003       7.65398689E-10
  -13.6300001       9.66458358E-10
  -13.6199999       9.59902935E-10
  -13.6099997       7.19301840E-10
  -13.6000004       2.73949891E-10
  -13.5900002      -2.91310032E-10
  -13.5799999      -8.50811199E-10
  -13.5699997      -1.26539246E-09
  -13.5600004      -1.41677559E-09
  -13.5500002      -1.24078348E-09
  -13.5400000      -7.50383589E-10
  -13.5299997      -4.10541393E-11
  -13.5200005       7.25299931E-10
  -13.5100002       1.35633971E-09
  -13.5000000       1.67802294E-09
  -13.4899998       1.58434776E-09
  -13.4799995       1.07443310E-09
  -13.4700003       2.64733679E-10
  -13.4600000      -6.30656360E-10
  -13.4499998      -1.35071432E-09
  -13.4399996      -1.65930525E-09
  -13.4300003      -1.42046375E-09
  -13.4200001      -6.55496379E-10
  -13.4099998       4.38229592E-10
  -13.3999996       1.51930257E-09
  -13.3900003       2.18486251E-09
  -13.3800001       2.08847784E-09
  -13.3699999       1.06448950E-09
  -13.3599997      -7.77682807E-10
  -13.3500004      -3.02422976E-09
  -13.3400002      -5.01539787E-09
  -13.3299999      -5.99305228E-09
  -13.3199997      -5.31249755E-09
  -13.3100004      -2.66939693E-09
  -13.3000002       1.72225223E-09
  -13.2900000       7.06431358E-09
  -13.2799997       1.20647705E-08
  -13.2700005       1.51918282E-08
  -13.2600002       1.50541037E-08
  -13.2500000       1.08254739E-08
  -13.2399998       2.60392063E-09
  -13.2299995      -8.40944914E-09
  -13.2200003      -1.99968451E-08
  -13.2100000      -2.93039157E-08
  -13.1999998      -3.34659767E-08
  -13.1899996      -3.03567695E-08
  -13.1800003      -1.92810639E-08
  -13.1700001      -1.41682066E-09
  -13.1599998       2.01525356E-08
  -13.1499996       4.08918730E-08
  -13.1400003       5.57131372E-08
  -13.1300001       6.01551164E-08
  -13.1199999       5.15817256E-08
  -13.1099997       3.00947853E-08
  -13.1000004      -1.11117859E-09
  -13.0900002      -3.61161447E-08
  -13.0799999      -6.73637288E-08
  -13.0699997      -8.72869990E-08
  -13.0600004      -9.01267896E-08
  -13.0500002      -7.35098240E-08
  -13.0400000      -3.93668884E-08
  -13.0299997       6.10688167E-09
  -13.0200005       5.35360734E-08
  -13.0100002       9.23262178E-08
  -13.0000000       1.13097400E-07
  -12.9899998       1.10029688E-07
  -12.9799995       8.25314004E-08
  -12.9700003       3.57588554E-08
  -12.9600000      -2.02350936E-08
  -12.9499998      -7.26217380E-08
  -12.9399996      -1.08757149E-07
  -12.9300003      -1.19309163E-07
  -12.9200001      -1.00781676E-07
  -12.9099998      -5.67600864E-08
  -12.8999996       2.52978727E-09
  -12.8900003       6.23625880E-08
  -12.8800001       1.06942053E-07
  -12.8699999       1.23349679E-07
  -12.8599997       1.05057865E-07
  -12.8500004       5.40903784E-08
  -12.8400002      -1.88150846E-08
  -12.8299999      -9.62336699E-08
  -12.8199997      -1.57924759E-07
  -12.8100004      -1.85715905E-07
  -12.8000002      -1.68252342E-07
  -12.7900000      -1.04415847E-07
  -12.7799997      -4.46170123E-09
  -12.7700005       1.11574806E-07
  -12.7600002       2.18004459E-07
  -12.7500000       2.89299720E-07
  -12.7399998       3.06280697E-07
  -12.7299995       2.61168623E-07
  -12.7200003       1.60184143E-07
  -12.7100000       2.28855264E-08
  -12.6999998      -1.21805371E-07
  -12.6899996      -2.42128465E-07
  -12.6800003      -3.11121767E-07
  -12.6700001      -3.13559838E-07
  -12.6599998      -2.50436699E-07
  -12.6499996      -1.39717571E-07
  -12.6400003      -1.29076785E-08
  -12.6300001       9.20305041E-08
  -12.6199999       1.39964385E-07
  -12.6099997       1.08007967E-07
  -12.6000004      -7.17860837E-09
  -12.5900002      -1.86108309E-07
  -12.5799999      -3.88296485E-07
  -12.5699997      -5.59185366E-07
  -12.5600004      -6.40982648E-07
  -12.5500002      -5.85277462E-07
  -12.5400000      -3.64773598E-07
  -12.5299997       1.84677624E-08
  -12.5200005       5.30248883E-07
  -12.5100002       1.10778399E-06
  -12.5000000       1.66908774E-06
  -12.4899998       2.12640839E-06
  -12.4799995       2.40095005E-06
  -12.4700003       2.43571662E-06
  -12.4600000       2.20362313E-06
  -12.4499998       1.70897056E-06
  -12.4399996       9.81835456E-07
  -12.4300003       6.65892728E-08
  -12.4200001      -9.92766104E-07
  -12.4099998      -2.16676403E-06
  -12.3999996      -3.45030026E-06
  -12.3900003      -4.86499584E-06
  -12.3800001      -6.45250157E-06
  -12.3699999      -8.25932420E-06
  -12.3599997      -1.03158727E-05
  -12.3500004      -1.26143295E-05
  -12.3400002      -1.50908390E-05
  -12.3299999      -1.76172161E-05
  -12.3199997      -2.00058166E-05
  -12.3100004      -2.20286129E-05
  -12.3000002      -2.34481613E-05
  -12.2900000      -2.40553454E-05
  -12.2799997      -2.37063832E-05
  -12.2700005      -2.23511597E-05
  -12.2600002      -2.00459963E-05
  -12.2500000      -1.69470586E-05
  -12.2399998      -1.32845471E-05
  -12.2299995      -9.32232069E-06
  -12.2200003      -5.31114893E-06
  -12.2100000      -1.44569970E-06
  -12.1999998       2.16506419E-06
  -12.1899996       5.50708864E-06
  -12.1800003       8.64782669E-06
  -12.1700001       1.17032187E-05
  -12.1599998       1.47930905E-05
  -12.1499996       1.79960116E-05
  -12.1400003       2.13151252E-05
  -12.1300001       2.46640975E-05
  -12.1199999       2.78773769E-05
  -12.1099997       3.07430273E-05
  -12.1000004       3.30505100E-05
  -12.0900002       3.46416746E-05
  -12.0799999       3.54521981E-05
  -12.0699997       3.55324846E-05
  -12.0600004       3.50422233E-05
  -12.0500002       3.42189887E-05
  -12.0400000       3.33278767E-05
  -12.0299997       3.26038280E-05
  -12.0200005       3.22002961E-05
  -12.0100002       3.21561893E-05
  -12.0000000       3.23886416E-05
  -11.9899998       3.27127163E-05
  -11.9799995       3.28826936E-05
  -11.9700003       3.26445261E-05
  -11.9600000       3.17868908E-05
  -11.9499998       3.01792024E-05
  -11.9399996       2.77888921E-05
  -11.9300003       2.46757645E-05
  -11.9200001       2.09672144E-05
  -11.9099998       1.68224178E-05
  -11.8999996       1.23956415E-05
  -11.8900003       7.80801020E-06
  -11.8800001       3.13383066E-06
  -11.8699999      -1.59705303E-06
  -11.8599997      -6.38401116E-06
  -11.8500004      -1.12338166E-05
  -11.8400002      -1.61398330E-05
  -11.8299999      -2.10685739E-05
  -11.8199997      -2.59569497E-05
  -11.8100004      -3.07200135E-05
  -11.8000002      -3.52654097E-05
  -11.7900000      -3.95090101E-05
  -11.7799997      -4.33861860E-05
  -11.7700005      -4.68548023E-05
  -11.7600002      -4.98895242E-05
  -11.7500000      -5.24696989E-05
  -11.7399998      -5.45658586E-05
  -11.7299995      -5.61305533E-05
  -11.7200003      -5.70981501E-05
  -11.7100000      -5.73954239E-05
  -11.6999998      -5.69615513E-05
  -11.6899996      -5.57723797E-05
  -11.6800003      -5.38621171E-05
  -11.6700001      -5.13351188E-05
  -11.6599998      -4.83623007E-05
  -11.6499996      -4.51603082E-05
  -11.6400003      -4.19558892E-05
  -11.6300001      -3.89423003E-05
  -11.6199999      -3.62373830E-05
  -11.6099997      -3.38536338E-05
  -11.6000004      -3.16890946E-05
  -11.5900002      -2.95435639E-05
  -11.5799999      -2.71591343E-05
  -11.5699997      -2.42780352E-05
  -11.5600004      -2.07059220E-05
  -11.5500002      -1.63661916E-05
  -11.5400000      -1.13313581E-05
  -11.5299997      -5.82172106E-06
  -11.5200005      -1.68185338E-07
  -11.5100002       5.25555333E-06
  -11.5000000       1.01184014E-05
  -11.4899998       1.42161134E-05
  -11.4799995       1.75340956E-05
  -11.4700003       2.02715073E-05
  -11.4600000       2.28168992E-05
  -11.4499998       2.56765798E-05
  -11.4399996       2.93678986E-05
  -11.4300003       3.42996427E-05
  -11.4200001       4.06659528E-05
  -11.4099998       4.83796321E-05
  -11.3999996       5.70625889E-05
  -11.3900003       6.60991718E-05
  -11.3800001       7.47433442E-05
  -11.3699999       8.22575166E-05
  -11.3599997       8.80529187E-05
  -11.3500004       9.17995421E-05
  -11.3400002       9.34804411E-05
  -11.3299999       9.33785195E-05
  -11.3199997       9.19989179E-05
  -11.3100004       8.99467341E-05
  -11.3000002       8.77896964E-05
  -11.2900000       8.59389474E-05
  -11.2799997       8.45758332E-05
  -11.2700005       8.36404797E-05
  -11.2600002       8.28816192E-05
  -11.2500000       8.19518318E-05
  -11.2399998       8.05207528E-05
  -11.2299995       7.83753421E-05
  -11.2200003       7.54806024E-05
  -11.2100000       7.19860109E-05
  -11.1999998       6.81774545E-05
  -11.1899996       6.43898093E-05
  -11.1800003       6.09051895E-05
  -11.1700001       5.78651998E-05
  -11.1599998       5.52214769E-05
  -11.1499996       5.27372140E-05
  -11.1400003       5.00397291E-05
  -11.1300001       4.67102327E-05
  -11.1199999       4.23884012E-05
  -11.1099997       3.68668443E-05
  -11.1000004       3.01539330E-05
  -11.0900002       2.24927498E-05
  -11.0799999       1.43346087E-05
  -11.0699997       6.27548388E-06
  -11.0600004      -1.02942749E-06
  -11.0500002      -6.95585550E-06
  -11.0400000      -1.09906759E-05
  -11.0299997      -1.27922003E-05
  -11.0200005      -1.22266720E-05
  -11.0100002      -9.38106587E-06
  -11.0000000      -4.55491954E-06
  -10.9899998       1.76678395E-06
  -10.9799995       8.95818357E-06
  -10.9700003       1.63141140E-05
  -10.9600000       2.31270496E-05
  -10.9499998       2.87744115E-05
  -10.9399996       3.28065835E-05
  -10.9300003       3.50213559E-05
  -10.9200001       3.55087795E-05
  -10.9099998       3.46521992E-05
  -10.8999996       3.30782896E-05
  -10.8900003       3.15587713E-05
  -10.8800001       3.08788112E-05
  -10.8699999       3.16953119E-05
  -10.8599997       3.44138498E-05
  -10.8500004       3.91098947E-05
  -10.8400002       4.55112786E-05
  -10.8299999       5.30455800E-05
  -10.8199997       6.09412455E-05
  -10.8100004       6.83602775E-05
  -10.8000002       7.45343059E-05
  -10.7900000       7.88777834E-05
  -10.7799997       8.10595666E-05
  -10.7700005       8.10259371E-05
  -10.7600002       7.89792975E-05
  -10.7500000       7.53249114E-05
  -10.7399998       7.06013452E-05
  -10.7299995       6.54078103E-05
  -10.7200003       6.03366097E-05
  -10.7100000       5.59129730E-05
  -10.6999998       5.25415053E-05
  -10.6899996       5.04587551E-05
  -10.6800003       4.96948851E-05
  -10.6700001       5.00533715E-05
  -10.6599998       5.11193648E-05
  -10.6499996       5.23072886E-05
  -10.6400003       5.29508397E-05
  -10.6300001       5.24267416E-05
  -10.6199999       5.02915864E-05
  -10.6099997       4.64018231E-05
  -10.6000004       4.09841632E-05
  -10.5900002       3.46316228E-05
  -10.5799999       2.82158271E-05
  -10.5699997       2.27275887E-05
  -10.5600004       1.90768842E-05
  -10.5500002       1.78975897E-05
  -10.5400000       1.94037548E-05
  -10.5299997       2.33341379E-05
  -10.5200005       2.90011703E-05
  -10.5100002       3.54347430E-05
  -10.5000000       4.15880349E-05
  -10.4899998       4.65574230E-05
  -10.4799995       4.97654692E-05
  -10.4700003       5.10657410E-05
  -10.4600000       5.07483201E-05
  -10.4499998       4.94483174E-05
  -10.4399996       4.79818627E-05
  -10.4300003       4.71501626E-05
  -10.4200001       4.75552697E-05
  -10.4099998       4.94681117E-05
  -10.3999996       5.27743723E-05
  -10.3900003       5.70071024E-05
  -10.3800001       6.14563105E-05
  -10.3699999       6.53311217E-05
  -10.3599997       6.79401128E-05
  -10.3500004       6.88523796E-05
  -10.3400002       6.80045923E-05
  -10.3299999       6.57290584E-05
  -10.3199997       6.26929977E-05
  -10.3100004       5.97558283E-05
  -10.3000002       5.77712854E-05
  -10.2900000       5.73757934E-05
  -10.2799997       5.88138573E-05
  -10.2700005       6.18467093E-05
  -10.2600002       6.57781056E-05
  -10.2500000       6.96032221E-05
  -10.2399998       7.22552359E-05
  -10.2299995       7.28959858E-05
  -10.2200003       7.11760222E-05
  -10.2100000       6.73908071E-05
  -10.1999998       6.24787499E-05
  -10.1899996       5.78453182E-05
  -10.1800003       5.50432669E-05
  -10.1700001       5.53834652E-05
  -10.1599998       5.95738529E-05
  -10.1499996       6.74864350E-05
  -10.1400003       7.81219787E-05
  -10.1300001       8.97940845E-05
  -10.1199999       1.00492878E-04
  -10.1099997       1.08342225E-04
  -10.1000004       1.12033442E-04
  -10.0900002       1.11125279E-04
  -10.0799999       1.06135092E-04
  -10.0699997       9.84008366E-05
  -10.0600004       8.97573409E-05
  -10.0500002       8.21153662E-05
  -10.0400000       7.70556217E-05
  -10.0299997       7.55372603E-05
  -10.0200005       7.77826426E-05
  -10.0100002       8.33459853E-05
  -10.0000000       9.13232579E-05
  -9.98999977       1.00625090E-04
  -9.97999954       1.10228320E-04
  -9.97000027       1.19341210E-04
  -9.96000004       1.27453823E-04
  -9.94999981       1.34288726E-04
  -9.93999958       1.39698575E-04
  -9.93000031       1.43567522E-04
  -9.92000008       1.45765473E-04
  -9.90999985       1.46173334E-04
  -9.89999962       1.44765261E-04
  -9.89000034       1.41707962E-04
  -9.88000011       1.37425595E-04
  -9.86999989       1.32591929E-04
  -9.85999966       1.28036685E-04
  -9.85000038       1.24587270E-04
  -9.84000015       1.22892539E-04
  -9.82999992       1.23286940E-04
  -9.81999969       1.25741906E-04
  -9.81000042       1.29925611E-04
  -9.80000019       1.35354741E-04
  -9.78999996       1.41592813E-04
  -9.77999973       1.48429259E-04
  -9.77000046       1.55982387E-04
  -9.76000023       1.64689511E-04
  -9.75000000       1.75186055E-04
  -9.73999977       1.88110382E-04
  -9.72999954       2.03897085E-04
  -9.72000027       2.22623159E-04
  -9.71000004       2.43958188E-04
  -9.69999981       2.67232390E-04
  -9.68999958       2.91601697E-04
  -9.68000031       3.16255610E-04
  -9.67000008       3.40599247E-04
  -9.65999985       3.64351843E-04
  -9.64999962       3.87529057E-04
  -9.64000034       4.10315348E-04
  -9.63000011       4.32870991E-04
  -9.61999989       4.55138361E-04
  -9.60999966       4.76715795E-04
  -9.60000038       4.96845052E-04
  -9.59000015       5.14520856E-04
  -9.57999992       5.28691977E-04
  -9.56999969       5.38488850E-04
  -9.56000042       5.43403497E-04
  -9.55000019       5.43361006E-04
  -9.53999996       5.38655964E-04
  -9.52999973       5.29774930E-04
  -9.52000046       5.17164066E-04
  -9.51000023       5.01026574E-04
  -9.50000000       4.81224182E-04
  -9.48999977       4.57329006E-04
  -9.47999954       4.28815139E-04
  -9.47000027       3.95332434E-04
  -9.46000004       3.56968085E-04
  -9.44999981       3.14396690E-04
  -9.43999958       2.68852134E-04
  -9.43000031       2.21912444E-04
  -9.42000008       1.75152323E-04
  -9.40999985       1.29773151E-04
  -9.39999962       8.63361784E-05
  -9.39000034       4.47015045E-05
  -9.38000011       4.21055393E-06
  -9.36999989      -3.59306177E-05
  -9.35999966      -7.61841511E-05
  -9.35000038      -1.16286144E-04
  -9.34000015      -1.55068061E-04
  -9.32999992      -1.90574414E-04
  -9.31999969      -2.20458678E-04
  -9.31000042      -2.42546303E-04
  -9.30000019      -2.55385472E-04
  -9.28999996      -2.58601038E-04
  -9.27999973      -2.52923841E-04
  -9.27000046      -2.39872214E-04
  -9.26000023      -2.21183538E-04
  -9.25000000      -1.98180162E-04
  -9.23999977      -1.71292777E-04
  -9.22999954      -1.39910670E-04
  -9.22000027      -1.02630969E-04
  -9.21000004      -5.78313629E-05
  -9.19999981      -4.38318102E-06
  -9.18999958       5.77433639E-05
  -9.18000031       1.27200488E-04
  -9.17000008       2.01424962E-04
  -9.15999985       2.77206738E-04
  -9.14999962       3.51486611E-04
  -9.14000034       4.22120997E-04
  -9.13000011       4.88354301E-04
  -9.11999989       5.50834346E-04
  -9.10999966       6.11162046E-04
  -9.10000038       6.71127869E-04
  -9.09000015       7.31895445E-04
  -9.07999992       7.93420302E-04
  -9.06999969       8.54303187E-04
  -9.06000042       9.12131451E-04
  -9.05000019       9.64185630E-04
  -9.03999996       1.00826111E-03
  -9.02999973       1.04330969E-03
  -9.02000046       1.06967881E-03
  -9.01000023       1.08886475E-03
  -9.00000000       1.10287790E-03
  -8.98999977       1.11346273E-03
  -8.97999954       1.12146197E-03
  -8.97000027       1.12656446E-03
  -8.96000004       1.12753047E-03
  -8.94999981       1.12280482E-03
  -8.93999958       1.11127784E-03
  -8.93000031       1.09289261E-03
  -8.92000008       1.06884749E-03
  -8.90999985       1.04129955E-03
  -8.89999962       1.01264799E-03
  -8.89000034       9.84664191E-04
  -8.88000011       9.57789074E-04
  -8.86999989       9.30878392E-04
  -8.85999966       9.01520485E-04
  -8.85000038       8.66837509E-04
  -8.84000015       8.24509072E-04
  -8.82999992       7.73651293E-04
  -8.81999969       7.15237344E-04
  -8.81000042       6.51889772E-04
  -8.80000019       5.87107323E-04
  -8.78999996       5.24186646E-04
  -8.77999973       4.65218822E-04
  -8.77000046       4.10518405E-04
  -8.76000023       3.58694728E-04
  -8.75000000       3.07346112E-04
  -8.73999977       2.54135433E-04
  -8.72999954       1.97859932E-04
  -8.72000027       1.39138079E-04
  -8.71000004       8.04562587E-05
  -8.69999981       2.55541672E-05
  -8.68999958      -2.16397566E-05
  -8.68000031      -5.81545646E-05
  -8.67000008      -8.28045304E-05
  -8.65999985      -9.64144710E-05
  -8.64999962      -1.01372956E-04
  -8.64000034      -1.00686157E-04
  -8.63000011      -9.68701934E-05
  -8.61999989      -9.10783274E-05
  -8.60999966      -8.27675321E-05
  -8.60000038      -7.00023447E-05
  -8.59000015      -5.02761250E-05
  -8.57999992      -2.15407545E-05
  -8.56999969       1.69316518E-05
  -8.56000042       6.41554070E-05
  -8.55000019       1.17636075E-04
  -8.53999996       1.74083994E-04
  -8.52999973       2.30368591E-04
  -8.52000046       2.84367095E-04
  -8.51000023       3.35416145E-04
  -8.50000000       3.84222425E-04
  -8.48999977       4.32292552E-04
  -8.47999954       4.81111929E-04
  -8.47000027       5.31380414E-04
  -8.46000004       5.82576671E-04
  -8.44999981       6.32995565E-04
  -8.43999958       6.80216588E-04
  -8.43000031       7.21819524E-04
  -8.42000008       7.56074442E-04
  -8.40999985       7.82367191E-04
  -8.39999962       8.01230199E-04
  -8.39000034       8.14001018E-04
  -8.38000011       8.22267728E-04
  -8.36999989       8.27318581E-04
  -8.35999966       8.29804689E-04
  -8.35000038       8.29711091E-04
  -8.34000015       8.26615491E-04
  -8.32999992       8.20101821E-04
  -8.31999969       8.10144586E-04
  -8.31000042       7.97312474E-04
  -8.30000019       7.82717369E-04
  -8.28999996       7.67754449E-04
  -8.27999973       7.53749278E-04
  -8.27000046       7.41661526E-04
  -8.26000023       7.31961452E-04
  -8.25000000       7.24702375E-04
  -8.23999977       7.19734875E-04
  -8.22999954       7.16941780E-04
  -8.22000027       7.16375653E-04
  -8.21000004       7.18229567E-04
  -8.19999981       7.22661673E-04
  -8.18999958       7.29562656E-04
  -8.18000031       7.38397648E-04
  -8.17000008       7.48221937E-04
  -8.15999985       7.57905189E-04
  -8.14999962       7.66493846E-04
  -8.14000034       7.73577834E-04
  -8.13000011       7.79505819E-04
  -8.11999989       7.85338401E-04
  -8.10999966       7.92534323E-04
  -8.10000038       8.02463968E-04
  -8.09000015       8.15926818E-04
  -8.07999992       8.32860183E-04
  -8.06999969       8.52361438E-04
  -8.06000042       8.73021432E-04
  -8.05000019       8.93466349E-04
  -8.03999996       9.12897056E-04
  -8.02999973       9.31418035E-04
  -8.02000046       9.50028480E-04
  -8.01000023       9.70264955E-04
  -8.00000000       9.93626309E-04
  -7.98999977       1.02099846E-03
  -7.98000002       1.05230953E-03
  -7.96999979       1.08655205E-03
  -7.96000004       1.12217595E-03
  -7.94999981       1.15771464E-03
  -7.94000006       1.19240035E-03
  -7.92999983       1.22653064E-03
  -7.92000008       1.26142125E-03
  -7.90999985       1.29895331E-03
  -7.90000010       1.34085235E-03
  -7.88999987       1.38796819E-03
  -7.88000011       1.43982051E-03
  -7.86999989       1.49458484E-03
  -7.86000013       1.54954498E-03
  -7.84999990       1.60185958E-03
  -7.84000015       1.64937356E-03
  -7.82999992       1.69119088E-03
  -7.82000017       1.72779616E-03
  -7.80999994       1.76068814E-03
  -7.80000019       1.79165439E-03
  -7.78999996       1.82194624E-03
  -7.78000021       1.85166416E-03
  -7.76999998       1.87956577E-03
  -7.76000023       1.90338085E-03
  -7.75000000       1.92051905E-03
  -7.73999977       1.92892156E-03
  -7.73000002       1.92775973E-03
  -7.71999979       1.91773567E-03
  -7.71000004       1.90088304E-03
  -7.69999981       1.87994738E-03
  -7.69000006       1.85756013E-03
  -7.67999983       1.83550059E-03
  -7.67000008       1.81429426E-03
  -7.65999985       1.79327617E-03
  -7.65000010       1.77108264E-03
  -7.63999987       1.74638047E-03
  -7.63000011       1.71857071E-03
  -7.61999989       1.68822100E-03
  -7.61000013       1.65706943E-03
  -7.59999990       1.62761437E-03
  -7.59000015       1.60242489E-03
  -7.57999992       1.58342090E-03
  -7.57000017       1.57136191E-03
  -7.55999994       1.56570645E-03
  -7.55000019       1.56488025E-03
  -7.53999996       1.56685547E-03
  -7.53000021       1.56982359E-03
  -7.51999998       1.57276005E-03
  -7.51000023       1.57568185E-03
  -7.50000000       1.57954346E-03
  -7.48999977       1.58581894E-03
  -7.48000002       1.59593113E-03
  -7.46999979       1.61072228E-03
  -7.46000004       1.63014920E-03
  -7.44999981       1.65330141E-03
  -7.44000006       1.67872198E-03