  -16.0000000       0.00000000    
  -15.9899998       0.00000000    
  -15.9799995       0.00000000    
  -15.9700003       0.00000000    
  -15.9600000       0.00000000    
  -15.9499998       0.00000000    
  -15.9399996       0.00000000    
  -15.9300003       0.00000000    
  -15.9200001       0.00000000    
  -15.9099998       0.00000000    
  -15.8999996       0.00000000    
  -15.8900003       0.00000000    
  -15.8800001       0.00000000    
  -15.8699999      -0.00000000    
  -15.8599997      -0.00000000    
  -15.8500004      -5.60519386E-45
  -15.8400002      -7.56701171E-44
  -15.8299999      -6.88037546E-43
  -15.8199997      -5.01384591E-42
  -15.8100004      -3.03030793E-41
  -15.8000002      -1.56565676E-40
  -15.7900000      -7.06800932E-40
  -15.7799997      -2.83334422E-39
  -15.7700005      -1.02097583E-38
  -15.7600002      -3.33821300E-38
  -15.7500000      -9.97484604E-38
  -15.7399998      -2.73858203E-37
  -15.7299995      -6.93475391E-37
  -15.7200003      -1.62346539E-36
  -15.7100000      -3.51653648E-36
  -15.6999998      -7.04060347E-36
  -15.6899996      -1.29843338E-35
  -15.6800003      -2.18961580E-35
  -15.6700001      -3.32853996E-35
  -15.6599998      -4.42891116E-35
  -15.6499996      -4.79797219E-35
  -15.6400003      -3.20224348E-35
  -15.6300001       2.08695491E-35
  -15.6199999       1.28591551E-34
  -15.6099997       2.99387368E-34
  -15.6000004       5.15225281E-34
  -15.5900002       7.12093356E-34
  -15.5799999       7.66150162E-34
  -15.5699997       5.00432603E-34
  -15.5600004      -2.71031919E-34
  -15.5500002      -1.65121214E-33
  -15.5400000      -3.52826136E-33
  -15.5299997      -5.44198599E-33
  -15.5200005      -6.51926302E-33
  -15.5100002      -5.56685729E-33
  -15.5000000      -1.39173342E-33
  -15.4899998       6.65011317E-33
  -15.4799995       1.79888766E-32
  -15.4700003       3.02937707E-32
  -15.4600000       3.93412392E-32
  -15.4499998       3.95384695E-32
  -15.4399996       2.51402889E-32
  -15.4300003      -8.08002711E-33
  -15.4200001      -6.11301143E-32
  -15.4099998      -1.30374537E-31
  -15.3999996      -2.06181921E-31
  -15.3900003      -2.70757280E-31
  -15.3800001      -2.94119431E-31
  -15.3699999      -2.28603182E-31
  -15.3599997      -6.10230268E-33
  -15.3500004       4.51887488E-31
  -15.3400002       1.19641025E-30
  -15.3299999       2.17227444E-30
  -15.3199997       3.10191838E-30
  -15.3100004       3.37235186E-30
  -15.3000002       2.01841671E-30
  -15.2900000      -2.05798686E-30
  -15.2799997      -9.49724730E-30
  -15.2700005      -1.94964777E-29
  -15.2600002      -2.86665855E-29
  -15.2500000      -3.03563603E-29
  -15.2399998      -1.54386652E-29
  -15.2299995       2.43758197E-29
  -15.2200003       9.02343258E-29
  -15.2100000       1.67942415E-28
  -15.1999998       2.21384323E-28
  -15.1899996       1.93564530E-28
  -15.1800003       2.21973974E-29
  -15.1700001      -3.26026838E-28
  -15.1599998      -8.06617305E-28
  -15.1499996      -1.25141737E-27
  -15.1400003      -1.35777724E-27
  -15.1300001      -7.52096491E-28
  -15.1199999       8.44343384E-28
  -15.1099997       3.35888153E-27
  -15.1000004       6.09929379E-27
  -15.0900002       7.62971168E-27
  -15.0799999       5.99249751E-27
  -15.0699997      -5.61968447E-28
  -15.0600004      -1.23491606E-26
  -15.0500002      -2.68514231E-26
  -15.0400000      -3.78431275E-26
  -15.0299997      -3.59951777E-26
  -15.0200005      -1.18081477E-26
  -15.0100002       3.89740551E-26
  -15.0000000       1.08658897E-25
  -14.9899998       1.72492621E-25
  -14.9799995       1.89353291E-25
  -14.9700003       1.12371128E-25
  -14.9600000      -8.89376144E-26
  -14.9499998      -3.98792508E-25
  -14.9399996      -7.28512504E-25
  -14.9300003      -9.10471998E-25
  -14.9200001      -7.31317397E-25
  -14.9099998      -1.50106656E-26
  -14.8999996       1.25347217E-24
  -14.8900003       2.80173239E-24
  -14.8800001       4.00717477E-24
  -14.8699999       3.97667149E-24
  -14.8599997       1.82630510E-24
  -14.8500004      -2.84738022E-24
  -14.8400002      -9.41972654E-24
  -14.8299999      -1.58467057E-23
  -14.8199997      -1.87377500E-23
  -14.8100004      -1.41658530E-23
  -14.8000002       7.08550921E-25
  -14.7900000       2.54855873E-23
  -14.7799997       5.45803268E-23
  -14.7700005       7.65828249E-23
  -14.7600002       7.60702421E-23
  -14.7500000       3.85286987E-23
  -14.7399998      -4.20663549E-23
  -14.7299995      -1.55023260E-22
  -14.7200003      -2.67599971E-22
  -14.7100000      -3.26841608E-22
  -14.6999998      -2.72014159E-22
  -14.6899996      -5.80915656E-23
  -14.6800003       3.14124564E-22
  -14.6700001       7.71280086E-22
  -14.6599998       1.15829772E-21
  -14.6499996       1.26087589E-21
  -14.6400003       8.67305032E-22
  -14.6300001      -1.36205279E-22
  -14.6199999      -1.66057568E-21
  -14.6099997      -3.34028618E-21
  -14.6000004      -4.54022192E-21
  -14.5900002      -4.48272560E-21
  -14.5799999      -2.50330501E-21
  -14.5699997       1.60749849E-21
  -14.5600004       7.27703258E-21
  -14.5500002       1.29837484E-20
  -14.5400000       1.64012516E-20
  -14.5299997       1.49479421E-20
  -14.5200005       6.71483370E-21
  -14.5100002      -8.42510434E-21
  -14.5000000      -2.78905657E-20
  -14.4899998      -4.61103431E-20
  -14.4799995      -5.53029887E-20
  -14.4700003      -4.75001390E-20
  -14.4600000      -1.75831133E-20
  -14.4499998       3.34017470E-20
  -14.4399996       9.58204471E-20
  -14.4300003       1.51258079E-19
  -14.4200001       1.75607872E-19
  -14.4099998       1.45682403E-19
  -14.3999996       4.83399891E-20
  -14.3900003      -1.10259415E-19
  -14.3800001      -2.98690654E-19
  -14.3699999      -4.61178162E-19
  -14.3599997      -5.27860241E-19
  -14.3500004      -4.34393588E-19
  -14.3400002      -1.47448783E-19
  -14.3299999       3.10848581E-19
  -14.3199997       8.48770182E-19
  -14.3100004       1.31015359E-18
  -14.3000002       1.50437229E-18
  -14.2900000       1.25977198E-18
  -14.2799997       4.90448155E-19
  -14.2700005      -7.42117753E-19
  -14.2600002      -2.19582518E-18
  -14.2500000      -3.46468922E-18
  -14.2399998      -4.05733373E-18
  -14.2299995      -3.53187262E-18
  -14.2200003      -1.66075864E-18
  -14.2100000       1.41976691E-18
  -14.1999998       5.13070397E-18
  -14.1899996       8.49117029E-18
  -14.1800003       1.03043717E-17
  -14.1700001       9.47391049E-18
  -14.1599998       5.38834757E-18
  -14.1499996      -1.72949683E-18
  -14.1400003      -1.06316838E-17
  -14.1300001      -1.91215570E-17
  -14.1199999      -2.44524482E-17
  -14.1099997      -2.40169939E-17
  -14.1000004      -1.61943700E-17
  -14.0900002      -1.13587377E-18
  -14.0799999       1.87720716E-17
  -14.0699997       3.89991075E-17
  -14.0600004       5.36386128E-17
  -14.0500002       5.67990053E-17
  -14.0400000       4.43612760E-17
  -14.0299997       1.56693551E-17
  -14.0200005      -2.53697336E-17
  -14.0100002      -7.02502988E-17
  -14.0000000      -1.07170440E-16
  -13.9899998      -1.23614559E-16
  -13.9799995      -1.09767688E-16
  -13.9700003      -6.19658136E-17
  -13.9600000       1.48044104E-17
  -13.9499998       1.06289671E-16
  -13.9399996       1.90833214E-16
  -13.9300003       2.43732963E-16
  -13.9200001       2.43402567E-16
  -13.9099998       1.77989760E-16
  -13.8999996       5.07013640E-17
  -13.8900003      -1.17906748E-16
  -13.8800001      -2.91916062E-16
  -13.8699999      -4.26604756E-16
  -13.8599997      -4.78673353E-16
  -13.8500004      -4.18053985E-16
  -13.8400002      -2.38402055E-16
  -13.8299999       3.67949822E-17
  -13.8199997       3.54917260E-16
  -13.8100004       6.42734265E-16
  -13.8000002       8.21832447E-16
  -13.7900000       8.28034528E-16
  -13.7799997       6.30345190E-16
  -13.7700005       2.44364558E-16
  -13.7600002      -2.64235448E-16
  -13.7500000      -7.88637014E-16
  -13.7399998      -1.20177956E-15
  -13.7299995      -1.38559937E-15
  -13.7200003      -1.26223643E-15
  -13.7100000      -8.19395744E-16
  -13.6999998      -1.22458200E-16
  -13.6899996       6.91631730E-16
  -13.6800003       1.43959824E-15
  -13.6700001       1.93219566E-15
  -13.6599998       2.02121522E-15
  -13.6499996       1.64177993E-15
  -13.6400003       8.38351760E-16
  -13.6300001      -2.34356467E-16
  -13.6199999      -1.33885024E-15
  -13.6099997      -2.20690919E-15
  -13.6000004      -2.60544264E-15
  -13.5900002      -2.40035648E-15
  -13.5799999      -1.60123108E-15
  -13.5699997      -3.72667921E-16
  -13.5600004       9.94605568E-16
  -13.5500002       2.14971880E-15
  -13.5400000       2.77111593E-15
  -13.5299997       2.65777234E-15
  -13.5200005       1.79727622E-15
  -13.5100002       3.89104384E-16
  -13.5000000      -1.18894246E-15
  -13.4899998      -2.46893947E-15
  -13.4799995      -3.01797394E-15
  -13.4700003      -2.56981898E-15
  -13.4600000      -1.12677235E-15
  -13.4499998       1.00137813E-15
  -13.4399996       3.24136470E-15
  -13.4300003       4.88315214E-15
  -13.4200001       5.26594327E-15
  -13.4099998       3.98016208E-15
  -13.3999996       1.03123720E-15
  -13.3900003      -3.08635894E-15
  -13.3800001      -7.43938365E-15
  -13.3699999      -1.08359790E-14
  -13.3599997      -1.21068816E-14
  -13.3500004      -1.04272746E-14
  -13.3400002      -5.59919398E-15
  -13.3299999       1.78646957E-15
  -13.3199997       1.03690411E-14
  -13.3100004       1.82395535E-14
  -13.3000002       2.33362185E-14
  -13.2900000       2.39367056E-14
  -13.2799997       1.91349774E-14
  -13.2700005       9.18045394E-15
  -13.2600002      -4.42277449E-15
  -13.2500000      -1.91107303E-14
  -13.2399998      -3.17347026E-14
  -13.2299995      -3.92319471E-14
  -13.2200003      -3.93495424E-14
  -13.2100000      -3.12515415E-14
  -13.1999998      -1.58514932E-14
  -13.1899996       4.23518252E-15
  -13.1800003       2.51409797E-14
  -13.1700001       4.25246081E-14
  -13.1599998       5.25183162E-14
  -13.1499996       5.26313781E-14
  -13.1400003       4.23919627E-14
  -13.1300001       2.35577464E-14
  -13.1199999      -1.81461165E-16
  -13.1099997      -2.39671123E-14
  -13.1000004      -4.28436854E-14
  -13.0900002      -5.28966756E-14
  -13.0799999      -5.21848833E-14
  -13.0699997      -4.12304434E-14
  -13.0600004      -2.29266052E-14
  -13.0500002      -1.85965893E-15
  -13.0400000       1.68123165E-14
  -13.0299997       2.86624294E-14
  -13.0200005       3.11581646E-14
  -13.0100002       2.43794988E-14
  -13.0000000       1.10816694E-14
  -12.9899998      -3.95393286E-15
  -12.9799995      -1.51586388E-14
  -12.9700003      -1.77232750E-14
  -12.9600000      -9.07079960E-15
  -12.9499998       1.01379188E-14
  -12.9399996       3.57707333E-14
  -12.9300003       6.08982401E-14
  -12.9200001       7.72920072E-14
  -12.9099998       7.74494604E-14
  -12.8999996       5.66898281E-14
  -12.8900003       1.48064341E-14
  -12.8800001      -4.31765084E-14
  -12.8699999      -1.07418536E-13
  -12.8599997      -1.64867008E-13
  -12.8500004      -2.01788618E-13
  -12.8400002      -2.06728257E-13
  -12.8299999      -1.73256727E-13
  -12.8199997      -1.01874699E-13
  -12.8100004      -5.89176954E-16
  -12.8000002       1.16046672E-13
  -12.7900000       2.29305751E-13
  -12.7799997       3.19626731E-13
  -12.7700005       3.70242790E-13
  -12.7600002       3.70340911E-13
  -12.7500000       3.17079886E-13
  -12.7399998       2.16045755E-13
  -12.7299995       8.00711223E-14
  -12.7200003      -7.32836982E-14
  -12.7100000      -2.24987468E-13
  -12.6999998      -3.57775441E-13
  -12.6899996      -4.58639040E-13
  -12.6800003      -5.20049878E-13
  -12.6700001      -5.39743326E-13
  -12.6599998      -5.19275541E-13
  -12.6499996      -4.61900863E-13
  -12.6400003      -3.70505303E-13
  -12.6300001      -2.46318645E-13
  -12.6199999      -8.89123234E-14
  -12.6099997       1.02385047E-13
  -12.6000004       3.25959122E-13
  -12.5900002       5.74952304E-13
  -12.5799999       8.34789106E-13
  -12.5699997       1.08208971E-12
  -12.5600004       1.28561983E-12
  -12.5500002       1.40948201E-12
  -12.5400000       1.41821060E-12
  -12.5299997       1.28292418E-12
  -12.5200005       9.87357331E-13
  -12.5100002       5.32519341E-13
  -12.5000000      -6.10593593E-14
  -12.4899998      -7.54052528E-13
  -12.4799995      -1.49197917E-12
  -12.4700003      -2.21108245E-12
  -12.4600000      -2.84527978E-12
  -12.4499998      -3.33281796E-12
  -12.4399996      -3.62137078E-12
  -12.4300003      -3.67073125E-12
  -12.4200001      -3.45285649E-12
  -12.4099998      -2.94969387E-12
  -12.3999996      -2.14977949E-12
  -12.3900003      -1.04490082E-12
  -12.3800001       3.71925337E-13
  -12.3699999       2.10624400E-12
  -12.3599997       4.15942454E-12
  -12.3500004       6.52382098E-12
  -12.3400002       9.17686326E-12
  -12.3299999       1.20755749E-11
  -12.3199997       1.51529657E-11
  -12.3100004       1.83175298E-11
  -12.3000002       2.14564408E-11
  -12.2900000       2.44422330E-11
  -12.2799997       2.71419571E-11
  -12.2700005       2.94272662E-11
  -12.2600002       3.11836945E-11
  -12.2500000       3.23174994E-11
  -12.2399998       3.27589796E-11
  -12.2299995       3.24619741E-11
  -12.2200003       3.14001949E-11
  -12.2100000       2.95615130E-11
  -12.1999998       2.69420250E-11
  -12.1899996       2.35413251E-11
  -12.1800003       1.93603935E-11
  -12.1700001       1.44025087E-11
  -12.1599998       8.67699055E-12
  -12.1499996       2.20460065E-12
  -12.1400003      -4.97679935E-12
  -12.1300001      -1.28079977E-11
  -12.1199999      -2.12067013E-11
  -12.1099997      -3.00690826E-11
  -12.1000004      -3.92741846E-11
  -12.0900002      -4.86903400E-11
  -12.0799999      -5.81819454E-11
  -12.0699997      -6.76151773E-11
  -12.0600004      -7.68612674E-11
  -12.0500002      -8.57967725E-11
  -12.0400000      -9.43012057E-11
  -12.0299997      -1.02252824E-10
  -12.0200005      -1.09524528E-10
  -12.0100002      -1.15981405E-10
  -12.0000000      -1.21481200E-10
  -11.9899998      -1.25878544E-10
  -11.9799995      -1.29032521E-10
  -11.9700003      -1.30816441E-10
  -11.9600000      -1.31127539E-10
  -11.9499998      -1.29895247E-10
  -11.9399996      -1.27085245E-10
  -11.9300003      -1.22698948E-10
  -11.9200001      -1.16768081E-10
  -11.9099998      -1.09345297E-10
  -11.8999996      -1.00493107E-10
  -11.8900003      -9.02729488E-11
  -11.8800001      -7.87370447E-11
  -11.8699999      -6.59247032E-11
  -11.8599997      -5.18634163E-11
  -11.8500004      -3.65745628E-11
  -11.8400002      -2.00821772E-11
  -11.8299999      -2.42251510E-12
  -11.8199997       1.63474529E-11
  -11.8100004       3.61449655E-11
  -11.8000002       5.68603116E-11
  -11.7900000       7.83600615E-11
  -11.7799997       1.00493176E-10
  -11.7700005       1.23098587E-10
  -11.7600002       1.46011661E-10
  -11.7500000       1.69068537E-10
  -11.7399998       1.92106081E-10
  -11.7299995       2.14958412E-10
  -11.7200003       2.37450531E-10
  -11.7100000       2.59390703E-10
  -11.6999998       2.80564294E-10
  -11.6899996       3.00730801E-10
  -11.6800003       3.19625798E-10
  -11.6700001       3.36968065E-10
  -11.6599998       3.52471469E-10
  -11.6499996       3.65859315E-10
  -11.6400003       3.76878417E-10
  -11.6300001       3.85311338E-10
  -11.6199999       3.90983024E-10
  -11.6099997       3.93761940E-10
  -11.6000004       3.93554772E-10
  -11.5900002       3.90297378E-10
  -11.5799999       3.83943044E-10
  -11.5699997       3.74451775E-10
  -11.5600004       3.61783326E-10
  -11.5500002       3.45895368E-10
  -11.5400000       3.26747379E-10
  -11.5299997       3.04309522E-10
  -11.5200005       2.78573081E-10
  -11.5100002       2.49561372E-10
  -11.5000000       2.17335969E-10
  -11.4899998       1.81998416E-10
  -11.4799995       1.43683357E-10
  -11.4700003       1.02548359E-10
  -11.4600000       5.87588311E-11
  -11.4499998       1.24745726E-11
  -11.4399996      -3.61605225E-11
  -11.4300003      -8.70215774E-11
  -11.4200001      -1.39997361E-10
  -11.4099998      -1.94978894E-10
  -11.3999996      -2.51842713E-10
  -11.3900003      -3.10434844E-10
  -11.3800001      -3.70558667E-10
  -11.3699999      -4.31971153E-10
  -11.3599997      -4.94389640E-10
  -11.3500004      -5.57508317E-10
  -11.3400002      -6.21021123E-10
  -11.3299999      -6.84647006E-10
  -11.3199997      -7.48153595E-10
  -11.3100004      -8.11370415E-10
  -11.3000002      -8.74192940E-10
  -11.2900000      -9.36574485E-10
  -11.2799997      -9.98507721E-10
  -11.2700005      -1.06000075E-09
  -11.2600002      -1.12105547E-09
  -11.2500000      -1.18164600E-09
  -11.2399998      -1.24171173E-09
  -11.2299995      -1.30115363E-09
  -11.2200003      -1.35984601E-09
  -11.2100000      -1.41764867E-09
  -11.1999998      -1.47442170E-09
  -11.1899996      -1.53003799E-09
  -11.1800003      -1.58438807E-09
  -11.1700001      -1.63737890E-09
  -11.1599998      -1.68892411E-09
  -11.1499996      -1.73893699E-09
  -11.1400003      -1.78731563E-09
  -11.1300001      -1.83394155E-09
  -11.1199999      -1.87867966E-09
  -11.1099997      -1.92138994E-09
  -11.1000004      -1.96194283E-09
  -11.0900002      -2.00023820E-09
  -11.0799999      -2.03622386E-09
  -11.0699997      -2.06990158E-09
  -11.0600004      -2.10133488E-09
  -11.0500002      -2.13063456E-09
  -11.0400000      -2.15794449E-09
  -11.0299997      -2.18341389E-09
  -11.0200005      -2.20717156E-09
  -11.0100002      -2.22930518E-09
  -11.0000000      -2.24984587E-09
  -10.9899998      -2.26875696E-09
  -10.9799995      -2.28594499E-09
  -10.9700003      -2.30126895E-09
  -10.9600000      -2.31455854E-09
  -10.9499998      -2.32564057E-09
  -10.9399996      -2.33434694E-09
  -10.9300003      -2.34053577E-09
  -10.9200001      -2.34409447E-09
  -10.9099998      -2.34493491E-09
  -10.8999996      -2.34299091E-09
  -10.8900003      -2.33821296E-09
  -10.8800001      -2.33054953E-09
  -10.8699999      -2.31994579E-09
  -10.8599997      -2.30634356E-09
  -10.8500004      -2.28967401E-09
  -10.8400002      -2.26986674E-09
  -10.8299999      -2.24685492E-09
  -10.8199997      -2.22057839E-09
  -10.8100004      -2.19099139E-09
  -10.8000002      -2.15806728E-09
  -10.7900000      -2.12179807E-09
  -10.7799997      -2.08219664E-09
  -10.7700005      -2.03929318E-09
  -10.7600002      -1.99314143E-09
  -10.7500000      -1.94381156E-09
  -10.7399998      -1.89139260E-09
  -10.7299995      -1.83598736E-09
  -10.7200003      -1.77771531E-09
  -10.7100000      -1.71670567E-09
  -10.6999998      -1.65309577E-09
  -10.6899996      -1.58702840E-09
  -10.6800003      -1.51864621E-09
  -10.6700001      -1.44809265E-09
  -10.6599998      -1.37550860E-09
  -10.6499996      -1.30103095E-09
  -10.6400003      -1.22479726E-09
  -10.6300001      -1.14694310E-09
  -10.6199999      -1.06760067E-09
  -10.6099997      -9.86899562E-10
  -10.6000004      -9.04965269E-10
  -10.5900002      -8.21925417E-10
  -10.5799999      -7.37901740E-10
  -10.5699997      -6.53009369E-10
  -10.5600004      -5.67356107E-10
  -10.5500002      -4.81045259E-10
  -10.5400000      -3.94165950E-10
  -10.5299997      -3.06788345E-10
  -10.5200005      -2.18967178E-10
  -10.5100002      -1.30746886E-10
  -10.5000000      -4.21551891E-11
  -10.4899998       4.67684121E-11
  -10.4799995       1.35963268E-10
  -10.4700003       2.25317348E-10
  -10.4600000       3.14650694E-10
  -10.4499998       4.03688000E-10
  -10.4399996       4.92055119E-10
  -10.4300003       5.79280512E-10
  -10.4200001       6.64805044E-10
  -10.4099998       7.48024642E-10
  -10.3999996       8.28319302E-10
  -10.3900003       9.05099273E-10
  -10.3800001       9.77843029E-10
  -10.3699999       1.04612430E-09
  -10.3599997       1.10963361E-09
  -10.3500004       1.16817833E-09
  -10.3400002       1.22167532E-09
  -10.3299999       1.27013733E-09
  -10.3199997       1.31364741E-09
  -10.3100004       1.35234024E-09
  -10.3000002       1.38638645E-09
  -10.2900000       1.41596945E-09
  -10.2799997       1.44128132E-09
  -10.2700005       1.46250656E-09
  -10.2600002       1.47982249E-09
  -10.2500000       1.49338997E-09
  -10.2399998       1.50335822E-09
  -10.2299995       1.50986956E-09
  -10.2200003       1.51306279E-09
  -10.2100000       1.51308921E-09
  -10.1999998       1.51012325E-09
  -10.1899996       1.50437618E-09
  -10.1800003       1.49609680E-09
  -10.1700001       1.48557600E-09
  -10.1599998       1.47313095E-09
  -10.1499996       1.45908885E-09
  -10.1400003       1.44376189E-09
  -10.1300001       1.42742274E-09
  -10.1199999       1.41028389E-09
  -10.1099997       1.39248546E-09
  -10.1000004       1.37409206E-09
  -10.0900002       1.35510447E-09
  -10.0799999       1.33547995E-09
  -10.0699997       1.31516031E-09
  -10.0600004       1.29410072E-09
  -10.0500002       1.27229904E-09
  -10.0400000       1.24981581E-09
  -10.0299997       1.22678445E-09
  -10.0200005       1.20341259E-09
  -10.0100002       1.17996801E-09
  -10.0000000       1.15675824E-09
  -9.98999977       1.13410326E-09
  -9.97999954       1.11230580E-09
  -9.97000027       1.09162279E-09
  -9.96000004       1.07224529E-09
  -9.94999981       1.05428699E-09
  -9.93999958       1.03778108E-09
  -9.93000031       1.02269082E-09
  -9.92000008       1.00892916E-09
  -9.90999985       9.96382088E-10
  -9.89999962       9.84939574E-10
  -9.89000034       9.74519465E-10
  -9.88000011       9.65095892E-10
  -9.86999989       9.56714374E-10
  -9.85999966       9.49507251E-10
  -9.85000038       9.43694012E-10
  -9.84000015       9.39582856E-10
  -9.82999992       9.37557143E-10
  -9.81999969       9.38064626E-10
  -9.81000042       9.41596023E-10
  -9.80000019       9.48663703E-10
  -9.78999996       9.59779145E-10
  -9.77999973       9.75429515E-10
  -9.77000046       9.96057126E-10
  -9.76000023       1.02205033E-09
  -9.75000000       1.05373588E-09
  -9.73999977       1.09137688E-09
  -9.72999954       1.13518372E-09
  -9.72000027       1.18532317E-09
  -9.71000004       1.24192834E-09
  -9.69999981       1.30511713E-09
  -9.68999958       1.37499467E-09
  -9.68000031       1.45165513E-09
  -9.67000008       1.53517710E-09
  -9.65999985       1.62560276E-09
  -9.64999962       1.72293224E-09
  -9.64000034       1.82708104E-09
  -9.63000011       1.93786120E-09
  -9.61999989       2.05494000E-09
  -9.60999966       2.17782170E-09
  -9.60000038       2.30582464E-09
  -9.59000015       2.43806353E-09
  -9.57999992       2.57346322E-09
  -9.56999969       2.71076606E-09
  -9.56000042       2.84856694E-09
  -9.55000019       2.98536018E-09
  -9.53999996       3.11956816E-09
  -9.52999973       3.24959126E-09
  -9.52000046       3.37384387E-09
  -9.51000023       3.49078233E-09
  -9.50000000       3.59892693E-09
  -9.48999977       3.69687569E-09
  -9.47999954       3.78333542E-09
  -9.47000027       3.85713506E-09
  -9.46000004       3.91726473E-09
  -9.44999981       3.96291622E-09
  -9.43999958       3.99351086E-09
  -9.43000031       4.00873867E-09
  -9.42000008       4.00856637E-09
  -9.40999985       3.99325373E-09
  -9.39999962       3.96332167E-09
  -9.39000034       3.91954069E-09
  -9.38000011       3.86289356E-09
  -9.36999989       3.79454423E-09
  -9.35999966       3.71583808E-09
  -9.35000038       3.62828101E-09
  -9.34000015       3.53356344E-09
  -9.32999992       3.43354500E-09
  -9.31999969       3.33028183E-09
  -9.31000042       3.22599969E-09
  -9.30000019       3.12310200E-09
  -9.28999996       3.02411496E-09
  -9.27999973       2.93165625E-09
  -9.27000046       2.84838908E-09
  -9.26000023       2.77696599E-09
  -9.25000000       2.72002620E-09
  -9.23999977       2.68013212E-09
  -9.22999954       2.65976619E-09
  -9.22000027       2.66129052E-09
  -9.21000004       2.68692624E-09
  -9.19999981       2.73871925E-09
  -9.18999958       2.81848367E-09
  -9.18000031       2.92778779E-09
  -9.17000008       3.06792391E-09
  -9.15999985       3.23986926E-09
  -9.14999962       3.44427864E-09
  -9.14000034       3.68150466E-09
  -9.13000011       3.95155064E-09
  -9.11999989       4.25409485E-09
  -9.10999966       4.58845806E-09
  -9.10000038       4.95361530E-09
  -9.09000015       5.34815925E-09
  -9.07999992       5.77031267E-09
  -9.06999969       6.21794527E-09
  -9.06000042       6.68860833E-09
  -9.05000019       7.17959248E-09
  -9.03999996       7.68798181E-09
  -9.02999973       8.21072188E-09
  -9.02000046       8.74465922E-09
  -9.01000023       9.28657684E-09
  -9.00000000       9.83317960E-09
  -8.98999977       1.03810986E-08
  -8.97999954       1.09268914E-08
  -8.97000027       1.14669998E-08
  -8.96000004       1.19977779E-08
  -8.94999981       1.25155113E-08
  -8.93999958       1.30164661E-08
  -8.93000031       1.34969431E-08
  -8.92000008       1.39533478E-08
  -8.90999985       1.43822314E-08
  -8.89999962       1.47802988E-08
  -8.89000034       1.51444404E-08
  -8.88000011       1.54717448E-08
  -8.86999989       1.57595039E-08
  -8.85999966       1.60051812E-08
  -8.85000038       1.62064602E-08
  -8.84000015       1.63612199E-08
  -8.82999992       1.64676077E-08
  -8.81999969       1.65239893E-08
  -8.81000042       1.65289791E-08
  -8.80000019       1.64814864E-08
  -8.78999996       1.63806728E-08
  -8.77999973       1.62259699E-08
  -8.77000046       1.60170490E-08
  -8.76000023       1.57538871E-08
  -8.75000000       1.54367452E-08
  -8.73999977       1.50661492E-08
  -8.72999954       1.46429278E-08
  -8.72000027       1.41681813E-08
  -8.71000004       1.36432527E-08
  -8.69999981       1.30697462E-08
  -8.68999958       1.24494903E-08
  -8.68000031       1.17845502E-08
  -8.67000008       1.10770939E-08
  -8.65999985       1.03295204E-08
  -8.64999962       9.54436530E-09
  -8.64000034       8.72428974E-09
  -8.63000011       7.87209586E-09
  -8.61999989       6.99064939E-09
  -8.60999966       6.08282003E-09
  -8.60000038       5.15148635E-09
  -8.59000015       4.19947499E-09
  -8.57999992       3.22958504E-09
  -8.56999969       2.24448393E-09
  -8.56000042       1.24679966E-09
  -8.55000019       2.39130216E-10
  -8.53999996      -7.75960574E-10
  -8.52999973      -1.79602722E-09
  -8.52000046      -2.81865331E-09
  -8.51000023      -3.84156351E-09
  -8.50000000      -4.86265606E-09
  -8.48999977      -5.87999738E-09
  -8.47999954      -6.89186130E-09
  -8.47000027      -7.89668952E-09
  -8.46000004      -8.89310847E-09
  -8.44999981      -9.87991289E-09
  -8.43999958      -1.08559863E-08
  -8.43000031      -1.18204397E-08
  -8.42000008      -1.27725341E-08
  -8.40999985      -1.37117899E-08
  -8.39999962      -1.46379584E-08
  -8.39000034      -1.55510236E-08
  -8.38000011      -1.64511924E-08
  -8.36999989      -1.73387420E-08
  -8.35999966      -1.82139352E-08
  -8.35000038      -1.90769249E-08
  -8.34000015      -1.99276027E-08
  -8.32999992      -2.07656790E-08
  -8.31999969      -2.15906297E-08
  -8.31000042      -2.24018084E-08
  -8.30000019      -2.31985720E-08
  -8.28999996      -2.39802631E-08
  -8.27999973      -2.47463436E-08
  -8.27000046      -2.54963570E-08
  -8.26000023      -2.62298325E-08
  -8.25000000      -2.69461928E-08
  -8.23999977      -2.76446936E-08
  -8.22999954      -2.83243118E-08
  -8.22000027      -2.89838109E-08
  -8.21000004      -2.96217184E-08
  -8.19999981      -3.02364569E-08
  -8.18999958      -3.08264454E-08
  -8.18000031      -3.13901225E-08
  -8.17000008      -3.19260245E-08
  -8.15999985      -3.24326557E-08
  -8.14999962      -3.29084848E-08
  -8.14000034      -3.33518315E-08
  -8.13000011      -3.37608022E-08
  -8.11999989      -3.41332935E-08
  -8.10999966      -3.44670745E-08
  -8.10000038      -3.47599283E-08
  -8.09000015      -3.50097515E-08
  -8.07999992      -3.52147822E-08
  -8.06999969      -3.53735992E-08
  -8.06000042      -3.54851579E-08
  -8.05000019      -3.55487906E-08
  -8.03999996      -3.55640424E-08
  -8.02999973      -3.55305687E-08
  -8.02000046      -3.54480925E-08
  -8.01000023      -3.53163294E-08
  -8.00000000      -3.51350664E-08
  -7.98999977      -3.49042040E-08
  -7.98000002      -3.46239126E-08
  -7.96999979      -3.42946436E-08
  -7.96000004      -3.39172566E-08
  -7.94999981      -3.34928991E-08
  -7.94000006      -3.30229959E-08
  -7.92999983      -3.25091278E-08
  -7.92000008      -3.19528723E-08
  -7.90999985      -3.13557997E-08
  -7.90000010      -3.07194341E-08
  -7.88999987      -3.00452889E-08
  -7.88000011      -2.93349629E-08
  -7.86999989      -2.85902484E-08
  -7.86000013      -2.78131882E-08
  -7.84999990      -2.70061449E-08
  -7.84000015      -2.61717279E-08
  -7.82999992      -2.53127972E-08
  -7.82000017      -2.44322607E-08
  -7.80999994      -2.35330972E-08
  -7.80000019      -2.26182095E-08
  -7.78999996      -2.16904574E-08
  -7.78000021      -2.07526583E-08
  -7.76999998      -1.98076666E-08
  -7.76000023      -1.88584295E-08
  -7.75000000      -1.79080253E-08
  -7.73999977      -1.69596373E-08
  -7.73000002      -1.60165303E-08
  -7.71999979      -1.50819588E-08
  -7.71000004      -1.41589753E-08
  -7.69999981      -1.32504363E-08
  -7.69000006      -1.23588642E-08
  -7.67999983      -1.14864962E-08
  -7.67000008      -1.06353060E-08
  -7.65999985      -9.80712134E-09
  -7.65000010      -9.00371155E-09
  -7.63999987      -8.22690716E-09
  -7.63000011      -7.47857154E-09
  -7.61999989      -6.76061340E-09
  -7.61000013      -6.07485573E-09
  -7.59999990      -5.42290524E-09
  -7.59000015      -4.80607243E-09
  -7.57999992      -4.22516555E-09
  -7.57000017      -3.68057584E-09
  -7.55999994      -3.17224003E-09
  -7.55000019      -2.69982237E-09
  -7.53999996      -2.26275043E-09
  -7.53000021      -1.86044524E-09
  -7.51999998      -1.49233992E-09
  -7.51000023      -1.15789089E-09
  -7.50000000      -8.56531290E-10
  -7.48999977      -5.87618343E-10
  -7.48000002      -3.50226570E-10
  -7.46999979      -1.43134088E-10
  -7.46000004       3.52245386E-11
  -7.44999981       1.86689622E-10
  -7.44000006       3.13301968E-10