  -16.0000000       0.00000000    
  -15.9899998       0.00000000    
  -15.9799995       0.00000000    
  -15.9700003       0.00000000    
  -15.9600000       0.00000000    
  -15.9499998       0.00000000    
  -15.9399996       0.00000000    
  -15.9300003       0.00000000    
  -15.9200001       0.00000000    
  -15.9099998       0.00000000    
  -15.8999996       0.00000000    
  -15.8900003       0.00000000    
  -15.8800001       0.00000000    
  -15.8699999       0.00000000    
  -15.8599997      -0.00000000    
  -15.8500004      -1.40129846E-45
  -15.8400002      -9.80908925E-45
  -15.8299999      -9.52882956E-44
  -15.8199997      -7.00649232E-43
  -15.8100004      -4.28376941E-42
  -15.8000002      -2.25454910E-41
  -15.7900000      -1.04073036E-40
  -15.7799997      -4.27555780E-40
  -15.7700005      -1.58093932E-39
  -15.7600002      -5.30871834E-39
  -15.7500000      -1.63046233E-38
  -15.7399998      -4.60609748E-38
  -15.7299995      -1.20214099E-37
  -15.7200003      -2.90776247E-37
  -15.7100000      -6.53133421E-37
  -15.6999998      -1.36319929E-36
  -15.6899996      -2.64111802E-36
  -15.6800003      -4.73416826E-36
  -15.6700001      -7.79686519E-36
  -15.6599998      -1.16412131E-35
  -15.6499996      -1.53345807E-35
  -15.6400003      -1.67019524E-35
  -15.6300001      -1.19434603E-35
  -15.6199999       4.20649297E-36
  -15.6099997       3.71519926E-35
  -15.6000004       8.93060252E-35
  -15.5900002       1.54968761E-34
  -15.5799999       2.14182395E-34
  -15.5699997       2.28449544E-34
  -15.5600004       1.43401024E-34
  -15.5500002      -9.53025731E-35
  -15.5400000      -5.08496724E-34
  -15.5299997      -1.03549628E-33
  -15.5200005      -1.48829404E-33
  -15.5100002      -1.54195325E-33
  -15.5000000      -8.06901842E-34
  -15.4899998       9.80003579E-34
  -15.4799995       3.65512879E-33
  -15.4700003       6.31873984E-33
  -15.4600000       7.23313853E-33
  -15.4499998       4.22493755E-33
  -15.4399996      -4.16993837E-33
  -15.4300003      -1.68859279E-32
  -15.4200001      -2.84937862E-32
  -15.4099998      -2.87539642E-32
  -15.3999996      -5.42962898E-33
  -15.3900003       4.82346004E-32
  -15.3800001       1.22041881E-31
  -15.3699999       1.77913774E-31
  -15.3599997       1.48641190E-31
  -15.3500004      -4.19417442E-32
  -15.3400002      -4.29211497E-31
  -15.3299999      -9.34048752E-31
  -15.3199997      -1.29518055E-30
  -15.3100004      -1.06552667E-30
  -15.3000002       2.55276583E-31
  -15.2900000       2.90453708E-30
  -15.2799997       6.39427249E-30
  -15.2700005       9.08758470E-30
  -15.2600002       8.16130719E-30
  -15.2500000       3.81070818E-31
  -15.2399998      -1.60320698E-29
  -15.2299995      -3.86555205E-29
  -15.2200003      -5.82771776E-29
  -15.2100000      -5.84102654E-29
  -15.1999998      -1.92945981E-29
  -15.1899996       7.20039063E-29
  -15.1800003       2.06370784E-28
  -15.1700001       3.37604806E-28
  -15.1599998       3.77642699E-28
  -15.1499996       2.14578520E-28
  -15.1400003      -2.37523929E-28
  -15.1300001      -9.60506715E-28
  -15.1199999      -1.75028456E-27
  -15.1099997      -2.17958859E-27
  -15.1000004      -1.66697075E-27
  -15.0900002       3.00160876E-28
  -15.0799999       3.79576718E-27
  -15.0699997       8.04174051E-27
  -15.0600004       1.11645581E-26
  -15.0500002       1.04056793E-26
  -15.0400000       3.02453624E-27
  -15.0299997      -1.20895499E-26
  -15.0200005      -3.24843430E-26
  -15.0100002      -5.07648016E-26
  -15.0000000      -5.49858299E-26
  -14.9899998      -3.19354345E-26
  -14.9799995       2.63923215E-26
  -14.9700003       1.14425729E-25
  -14.9600000       2.06048583E-25
  -14.9499998       2.53940883E-25
  -14.9399996       2.00126850E-25
  -14.9300003      -9.23358163E-29
  -14.9200001      -3.44468884E-25
  -14.9099998      -7.51888523E-25
  -14.8999996      -1.05064193E-24
  -14.8900003      -1.00701871E-24
  -14.8800001      -4.06371194E-25
  -14.8699999       8.20976320E-25
  -14.8599997       2.46532266E-24
  -14.8500004       3.95939307E-24
  -14.8400002       4.43384163E-24
  -14.8299999       2.96469311E-24
  -14.8199997      -9.90573723E-25
  -14.8100004      -7.07014062E-24
  -14.8000002      -1.36080415E-23
  -14.7900000      -1.76359069E-23
  -14.7799997      -1.55353849E-23
  -14.7700005      -4.41886431E-24
  -14.7600002       1.59966619E-23
  -14.7500000       4.16412567E-23
  -14.7399998       6.33946546E-23
  -14.7299995       6.84025077E-23
  -14.7200003       4.39637452E-23
  -14.7100000      -1.63577140E-23
  -14.6999998      -1.05995946E-22
  -14.6899996      -2.00821747E-22
  -14.6800003      -2.60117001E-22
  -14.6700001      -2.35750816E-22
  -14.6599998      -8.99194021E-23
  -14.6499996       1.81902641E-22
  -14.6400003       5.30321172E-22
  -14.6300001       8.44200773E-22
  -14.6199999       9.66001856E-22
  -14.6099997       7.35767411E-22
  -14.6000004       5.94841070E-23
  -14.5900002      -1.01528877E-21
  -14.5799999      -2.24545670E-21
  -14.5699997      -3.19420438E-21
  -14.5600004      -3.31580599E-21
  -14.5500002      -2.12878707E-21
  -14.5400000       5.51773443E-22
  -14.5299997       4.39071347E-21
  -14.5200005       8.41450609E-21
  -14.5100002       1.10965253E-20
  -14.5000000       1.07065250E-20
  -14.4899998       5.90556834E-21
  -14.4799995      -3.53970617E-21
  -14.4700003      -1.61534883E-20
  -14.4600000      -2.85455635E-20
  -14.4499998      -3.58604703E-20
  -14.4399996      -3.29912489E-20
  -14.4300003      -1.64180149E-20
  -14.4200001       1.37677460E-20
  -14.4099998       5.23455757E-20
  -14.3999996       8.87379845E-20
  -14.3900003       1.08684101E-19
  -14.3800001       9.79593358E-20
  -14.3699999       4.75802916E-20
  -14.3599997      -4.08305430E-20
  -14.3500004      -1.51412594E-19
  -14.3400002      -2.54142454E-19
  -14.3299999      -3.09986917E-19
  -14.3199997      -2.81185289E-19
  -14.3100004      -1.44902566E-19
  -14.3000002       9.33228980E-20
  -14.2900000       3.91099834E-19
  -14.2799997       6.70350942E-19
  -14.2700005       8.31061175E-19
  -14.2600002       7.77203446E-19
  -14.2500000       4.50148070E-19
  -14.2399998      -1.39207220E-19
  -14.2299995      -8.90719561E-19
  -14.2200003      -1.61821043E-18
  -14.2100000      -2.08176462E-18
  -14.1999998      -2.04760144E-18
  -14.1899996      -1.36451342E-18
  -14.1800003      -3.72651167E-20
  -14.1700001       1.72738731E-18
  -14.1599998       3.52456406E-18
  -14.1499996       4.81801109E-18
  -14.1400003       5.06647918E-18
  -14.1300001       3.88694445E-18
  -14.1199999       1.21444352E-18
  -14.1099997      -2.59116147E-18
  -14.1000004      -6.73755649E-18
  -14.0900002      -1.01190220E-17
  -14.0799999      -1.15582319E-17
  -14.0699997      -1.01293097E-17
  -14.0600004      -5.48676759E-18
  -14.0500002       1.89403515E-18
  -14.0400000       1.06546397E-17
  -14.0299997       1.87272384E-17
  -14.0200005       2.37467093E-17
  -14.0100002       2.36357844E-17
  -14.0000000       1.72359591E-17
  -13.9899998       4.81842468E-18
  -13.9799995      -1.16892946E-17
  -13.9700003      -2.88778877E-17
  -13.9600000      -4.24603720E-17
  -13.9499998      -4.82225187E-17
  -13.9399996      -4.31284295E-17
  -13.9300003      -2.63165097E-17
  -13.9200001       2.93158703E-19
  -13.9099998       3.20005739E-17
  -13.8999996       6.20319748E-17
  -13.8900003       8.28772505E-17
  -13.8800001       8.80125532E-17
  -13.8699999       7.36303242E-17
  -13.8599997       3.99476190E-17
  -13.8500004      -8.28438920E-18
  -13.8400002      -6.22925169E-17
  -13.8299999      -1.10810081E-16
  -13.8199997      -1.42366677E-16
  -13.8100004      -1.47870975E-16
  -13.8000002      -1.22903501E-16
  -13.7900000      -6.91551447E-17
  -13.7799997       5.39284123E-18
  -13.7700005       8.76801258E-17
  -13.7600002       1.61978388E-16
  -13.7500000       2.13015313E-16
  -13.7399998       2.29133053E-16
  -13.7299995       2.04770493E-16
  -13.7200003       1.41703199E-16
  -13.7100000       4.87663139E-17
  -13.6999998      -5.98475496E-17
  -13.6899996      -1.67276632E-16
  -13.6800003      -2.56997419E-16
  -13.6700001      -3.15440364E-16
  -13.6599998      -3.33664807E-16
  -13.6499996      -3.07866883E-16
  -13.6400003      -2.38884282E-16
  -13.6300001      -1.31191864E-16
  -13.6199999       7.96956839E-18
  -13.6099997       1.68788798E-16
  -13.6000004       3.38216127E-16
  -13.5900002       4.98749728E-16
  -13.5799999       6.27494078E-16
  -13.5699997       6.96597937E-16
  -13.5600004       6.76095346E-16
  -13.5500002       5.39635267E-16
  -13.5400000       2.72659297E-16
  -13.5299997      -1.18520450E-16
  -13.5200005      -5.99246852E-16
  -13.5100002      -1.10360272E-15
  -13.5000000      -1.53865589E-15
  -13.4899998      -1.79719936E-15
  -13.4799995      -1.77828680E-15
  -13.4700003      -1.41246069E-15
  -13.4600000      -6.86425018E-16
  -13.4499998       3.39301414E-16
  -13.4399996       1.52595156E-15
  -13.4300003       2.66950311E-15
  -13.4200001       3.53174411E-15
  -13.4099998       3.88564887E-15
  -13.3999996       3.56696670E-15
  -13.3900003       2.52094412E-15
  -13.3800001       8.32355613E-16
  -13.3699999      -1.27079538E-15
  -13.3599997      -3.44469178E-15
  -13.3500004      -5.28620896E-15
  -13.3400002      -6.40933272E-15
  -13.3299999      -6.52645493E-15
  -13.3199997      -5.51668620E-15
  -13.3100004      -3.46457694E-15
  -13.3000002      -6.58025062E-16
  -13.2900000       2.45719980E-15
  -13.2799997       5.35883695E-15
  -13.2700005       7.54899310E-15
  -13.2600002       8.65245680E-15
  -13.2500000       8.48996031E-15
  -13.2399998       7.10901624E-15
  -13.2299995       4.76468654E-15
  -13.2200003       1.85497547E-15
  -13.2100000      -1.17287435E-15
  -13.1999998      -3.92090408E-15
  -13.1899996      -6.11770520E-15
  -13.1800003      -7.65353052E-15
  -13.1700001      -8.56372163E-15
  -13.1599998      -8.96575311E-15
  -13.1499996      -8.96965201E-15
  -13.1400003      -8.59150516E-15
  -13.1300001      -7.70189102E-15
  -13.1199999      -6.03392136E-15
  -13.1099997      -3.26006274E-15
  -13.1000004       8.73625864E-16
  -13.0900002       6.38751357E-15
  -13.0799999       1.29287280E-14
  -13.0699997       1.97013714E-14
  -13.0600004       2.55061627E-14
  -13.0500002       2.89064223E-14
  -13.0400000       2.85058638E-14
  -13.0299997       2.32909395E-14
  -13.0200005       1.29644855E-14
  -13.0100002      -1.81378024E-15
  -13.0000000      -1.93559310E-14
  -12.9899998      -3.70910747E-14
  -12.9799995      -5.19299603E-14
  -12.9700003      -6.08006755E-14
  -12.9600000      -6.12604585E-14
  -12.9499998      -5.20596444E-14
  -12.9399996      -3.35296468E-14
  -12.9300003      -7.69315641E-15
  -12.9200001       2.19535693E-14
  -12.9099998       5.09681239E-14
  -12.8999996       7.47112401E-14
  -12.8900003       8.91757439E-14
  -12.8800001       9.17273053E-14
  -12.8699999       8.16005995E-14
  -12.8599997       6.00430689E-14
  -12.8500004       3.00726376E-14
  -12.8400002      -4.09789204E-15
  -12.8299999      -3.78421863E-14
  -12.8199997      -6.69330924E-14
  -12.8100004      -8.82068669E-14
  -12.8000002      -9.99379006E-14
  -12.7900000      -1.01857623E-13
  -12.7799997      -9.48433769E-14
  -12.7700005      -8.03903520E-14
  -12.7600002      -6.00376885E-14
  -12.7500000      -3.49326044E-14
  -12.7399998      -5.67792781E-15
  -12.7299995       2.74737305E-14
  -12.7200003       6.41219798E-14
  -12.7100000       1.03062544E-13
  -12.6999998       1.41688771E-13
  -12.6899996       1.75683768E-13
  -12.6800003       1.99188187E-13
  -12.6700001       2.05524522E-13
  -12.6599998       1.88418129E-13
  -12.6499996       1.43512386E-13
  -12.6400003       6.98653307E-14
  -12.6300001      -2.89298140E-14
  -12.6199999      -1.44321946E-13
  -12.6099997      -2.63282506E-13
  -12.6000004      -3.69717847E-13
  -12.5900002      -4.46643455E-13
  -12.5799999      -4.78772458E-13
  -12.5699997      -4.55055373E-13
  -12.5600004      -3.70688641E-13
  -12.5500002      -2.28190080E-13
  -12.5400000      -3.73132819E-14
  -12.5299997       1.86198862E-13
  -12.5200005       4.22782631E-13
  -12.5100002       6.51711270E-13
  -12.5000000       8.53700249E-13
  -12.4899998       1.01292564E-12
  -12.4799995       1.11803340E-12
  -12.4700003       1.16193708E-12
  -12.4600000       1.14044895E-12
  -12.4499998       1.05004905E-12
  -12.4399996       8.85286202E-13
  -12.4300003       6.36393716E-13
  -12.4200001       2.87681012E-13
  -12.4099998      -1.82889131E-13
  -12.3999996      -8.02744644E-13
  -12.3900003      -1.60244702E-12
  -12.3800001      -2.61244065E-12
  -12.3699999      -3.85929700E-12
  -12.3599997      -5.36200294E-12
  -12.3500004      -7.12879495E-12
  -12.3400002      -9.15489906E-12
  -12.3299999      -1.14213222E-11
  -12.3199997      -1.38946311E-11
  -12.3100004      -1.65274548E-11
  -12.3000002      -1.92594083E-11
  -12.2900000      -2.20180991E-11
  -12.2799997      -2.47199500E-11
  -12.2700005      -2.72709459E-11
  -12.2600002      -2.95673347E-11
  -12.2500000      -3.14967635E-11
  -12.2399998      -3.29400916E-11
  -12.2299995      -3.37745110E-11
  -12.2200003      -3.38779560E-11
  -12.2100000      -3.31349774E-11
  -12.1999998      -3.14434971E-11
  -12.1899996      -2.87221063E-11
  -12.1800003      -2.49168793E-11
  -12.1700001      -2.00069666E-11
  -12.1599998      -1.40080430E-11
  -12.1499996      -6.97329477E-12
  -12.1400003       1.00823354E-12
  -12.1300001       9.81579228E-12
  -12.1199999       1.93029880E-11
  -12.1099997       2.93047774E-11
  -12.1000004       3.96447666E-11
  -12.0900002       5.01418282E-11
  -12.0799999       6.06156861E-11
  -12.0699997       7.08911124E-11
  -12.0600004       8.08010117E-11
  -12.0500002       9.01885233E-11
  -12.0400000       9.89088048E-11
  -12.0299997       1.06830593E-10
  -12.0200005       1.13838154E-10
  -12.0100002       1.19833143E-10
  -12.0000000       1.24736360E-10
  -11.9899998       1.28488692E-10
  -11.9799995       1.31050920E-10
  -11.9700003       1.32401798E-10
  -11.9600000       1.32534511E-10
  -11.9499998       1.31451489E-10
  -11.9399996       1.29158628E-10
  -11.9300003       1.25659205E-10
  -11.9200001       1.20949195E-10
  -11.9099998       1.15014498E-10
  -11.8999996       1.07830363E-10
  -11.8900003       9.93639546E-11
  -11.8800001       8.95788235E-11
  -11.8699999       7.84413506E-11
  -11.8599997       6.59270485E-11
  -11.8500004       5.20270597E-11
  -11.8400002       3.67524414E-11
  -11.8299999       2.01369182E-11
  -11.8199997       2.23724923E-12
  -11.8100004      -1.68676306E-11
  -11.8000002      -3.70791904E-11
  -11.7900000      -5.82813312E-11
  -11.7799997      -8.03424202E-11
  -11.7700005      -1.03116120E-10
  -11.7600002      -1.26441732E-10
  -11.7500000      -1.50143328E-10
  -11.7399998      -1.74029305E-10
  -11.7299995      -1.97892827E-10
  -11.7200003      -2.21513238E-10
  -11.7100000      -2.44658876E-10
  -11.6999998      -2.67091793E-10
  -11.6899996      -2.88572860E-10
  -11.6800003      -3.08867432E-10
  -11.6700001      -3.27749938E-10
  -11.6599998      -3.45007051E-10
  -11.6499996      -3.60439595E-10
  -11.6400003      -3.73861303E-10
  -11.6300001      -3.85097704E-10
  -11.6199999      -3.93983401E-10
  -11.6099997      -4.00359662E-10
  -11.6000004      -4.04073247E-10
  -11.5900002      -4.04976608E-10
  -11.5799999      -4.02930606E-10
  -11.5699997      -3.97808314E-10
  -11.5600004      -3.89500016E-10
  -11.5500002      -3.77918780E-10
  -11.5400000      -3.63005709E-10
  -11.5299997      -3.44733270E-10
  -11.5200005      -3.23106569E-10
  -11.5100002      -2.98162078E-10
  -11.5000000      -2.69963940E-10
  -11.4899998      -2.38597558E-10
  -11.4799995      -2.04161896E-10
  -11.4700003      -1.66760314E-10
  -11.4600000      -1.26493024E-10
  -11.4499998      -8.34489908E-11
  -11.4399996      -3.77019735E-11
  -11.4300003       1.06924877E-11
  -11.4200001       6.16944273E-11
  -11.4099998       1.15275275E-10
  -11.3999996       1.71410566E-10
  -11.3900003       2.30069463E-10
  -11.3800001       2.91205754E-10
  -11.3699999       3.54747370E-10
  -11.3599997       4.20588703E-10
  -11.3500004       4.88587171E-10
  -11.3400002       5.58561419E-10
  -11.3299999       6.30294039E-10
  -11.3199997       7.03539338E-10
  -11.3100004       7.78030473E-10
  -11.3000002       8.53491278E-10
  -11.2900000       9.29646082E-10
  -11.2799997       1.00622866E-09
  -11.2700005       1.08299081E-09
  -11.2600002       1.15970655E-09
  -11.2500000       1.23617527E-09
  -11.2399998       1.31222166E-09
  -11.2299995       1.38769429E-09
  -11.2200003       1.46246237E-09
  -11.2100000       1.53641166E-09
  -11.1999998       1.60944036E-09
  -11.1899996       1.68145575E-09
  -11.1800003       1.75236814E-09
  -11.1700001       1.82209015E-09
  -11.1599998       1.89053218E-09
  -11.1499996       1.95760341E-09
  -11.1400003       2.02320960E-09
  -11.1300001       2.08725859E-09
  -11.1199999       2.14966023E-09
  -11.1099997       2.21033547E-09
  -11.1000004       2.26921681E-09
  -11.0900002       2.32626052E-09
  -11.0799999       2.38144704E-09
  -11.0699997       2.43478948E-09
  -11.0600004       2.48633936E-09
  -11.0500002       2.53618859E-09
  -11.0400000       2.58446864E-09
  -11.0299997       2.63135114E-09
  -11.0200005       2.67704325E-09
  -11.0100002       2.72177747E-09
  -11.0000000       2.76580558E-09
  -10.9899998       2.80937495E-09
  -10.9799995       2.85271495E-09
  -10.9700003       2.89602342E-09
  -10.9600000       2.93944113E-09
  -10.9499998       2.98304559E-09
  -10.9399996       3.02683723E-09
  -10.9300003       3.07075299E-09
  -10.9200001       3.11466319E-09
  -10.9099998       3.15839777E-09
  -10.8999996       3.20176974E-09
  -10.8900003       3.24459015E-09
  -10.8800001       3.28670158E-09
  -10.8699999       3.32798944E-09
  -10.8599997       3.36838935E-09
  -10.8500004       3.40789308E-09
  -10.8400002       3.44653706E-09
  -10.8299999       3.48438145E-09
  -10.8199997       3.52151419E-09
  -10.8100004       3.55801211E-09
  -10.8000002       3.59394092E-09
  -10.7900000       3.62934349E-09
  -10.7799997       3.66422914E-09
  -10.7700005       3.69856989E-09
  -10.7600002       3.73231845E-09
  -10.7500000       3.76538045E-09
  -10.7399998       3.79765330E-09
  -10.7299995       3.82899712E-09
  -10.7200003       3.85925913E-09
  -10.7100000       3.88828303E-09
  -10.6999998       3.91589960E-09
  -10.6899996       3.94194455E-09
  -10.6800003       3.96625799E-09
  -10.6700001       3.98868050E-09
  -10.6599998       4.00907485E-09
  -10.6499996       4.02731581E-09
  -10.6400003       4.04330169E-09
  -10.6300001       4.05695566E-09
  -10.6199999       4.06823686E-09
  -10.6099997       4.07714307E-09
  -10.6000004       4.08373424E-09
  -10.5900002       4.08812806E-09
  -10.5799999       4.09051504E-09
  -10.5699997       4.09114298E-09
  -10.5600004       4.09031209E-09
  -10.5500002       4.08836520E-09
  -10.5400000       4.08565137E-09
  -10.5299997       4.08252809E-09
  -10.5200005       4.07932488E-09
  -10.5100002       4.07633172E-09
  -10.5000000       4.07380973E-09
  -10.4899998       4.07198009E-09
  -10.4799995       4.07101552E-09
  -10.4700003       4.07108436E-09
  -10.4600000       4.07231315E-09
  -10.4499998       4.07482759E-09
  -10.4399996       4.07873291E-09
  -10.4300003       4.08412859E-09
  -10.4200001       4.09108392E-09
  -10.4099998       4.09964018E-09
  -10.3999996       4.10981560E-09
  -10.3900003       4.12159684E-09
  -10.3800001       4.13493373E-09
  -10.3699999       4.14974943E-09
  -10.3599997       4.16592938E-09
  -10.3500004       4.18333190E-09
  -10.3400002       4.20179536E-09
  -10.3299999       4.22112967E-09
  -10.3199997       4.24116031E-09
  -10.3100004       4.26171898E-09
  -10.3000002       4.28268621E-09
  -10.2900000       4.30399760E-09
  -10.2799997       4.32566871E-09
  -10.2700005       4.34781278E-09
  -10.2600002       4.37061809E-09
  -10.2500000       4.39433512E-09
  -10.2399998       4.41928849E-09
  -10.2299995       4.44583748E-09
  -10.2200003       4.47434179E-09
  -10.2100000       4.50516646E-09
  -10.1999998       4.53867255E-09
  -10.1899996       4.57520155E-09
  -10.1800003       4.61509053E-09
  -10.1700001       4.65864991E-09
  -10.1599998       4.70620609E-09
  -10.1499996       4.75804018E-09
  -10.1400003       4.81440798E-09
  -10.1300001       4.87552843E-09
  -10.1199999       4.94156538E-09
  -10.1099997       5.01265074E-09
  -10.1000004       5.08884224E-09
  -10.0900002       5.17017318E-09
  -10.0799999       5.25666044E-09
  -10.0699997       5.34829470E-09
  -10.0600004       5.44505685E-09
  -10.0500002       5.54692914E-09
  -10.0400000       5.65387603E-09
  -10.0299997       5.76585091E-09
  -10.0200005       5.88278670E-09
  -10.0100002       6.00458527E-09
  -10.0000000       6.13112272E-09
  -9.98999977       6.26228713E-09
  -9.97999954       6.39793063E-09
  -9.97000027       6.53795018E-09
  -9.96000004       6.68223166E-09
  -9.94999981       6.83069779E-09
  -9.93999958       6.98327263E-09
  -9.93000031       7.13991977E-09
  -9.92000008       7.30062055E-09
  -9.90999985       7.46535544E-09
  -9.89999962       7.63418750E-09
  -9.89000034       7.80721621E-09
  -9.88000011       7.98460409E-09
  -9.86999989       8.16661316E-09
  -9.85999966       8.35356317E-09
  -9.85000038       8.54584759E-09
  -9.84000015       8.74391493E-09
  -9.82999992       8.94820751E-09
  -9.81999969       9.15917209E-09
  -9.81000042       9.37717459E-09
  -9.80000019       9.60251167E-09
  -9.78999996       9.83540183E-09
  -9.77999973       1.00759454E-08
  -9.77000046       1.03241637E-08
  -9.76000023       1.05799902E-08
  -9.75000000       1.08432703E-08
  -9.73999977       1.11137943E-08
  -9.72999954       1.13913199E-08
  -9.72000027       1.16755521E-08
  -9.71000004       1.19662111E-08
  -9.69999981       1.22630306E-08
  -9.68999958       1.25657786E-08
  -9.68000031       1.28742759E-08
  -9.67000008       1.31883588E-08
  -9.65999985       1.35079308E-08
  -9.64999962       1.38328575E-08
  -9.64000034       1.41629704E-08
  -9.63000011       1.44980028E-08
  -9.61999989       1.48375774E-08
  -9.60999966       1.51811630E-08
  -9.60000038       1.55281068E-08
  -9.59000015       1.58775801E-08
  -9.57999992       1.62286522E-08
  -9.56999969       1.65803424E-08
  -9.56000042       1.69315868E-08
  -9.55000019       1.72813213E-08
  -9.53999996       1.76284640E-08
  -9.52999973       1.79718942E-08
  -9.52000046       1.83104802E-08
  -9.51000023       1.86430782E-08
  -9.50000000       1.89685316E-08
  -9.48999977       1.92856753E-08
  -9.47999954       1.95933971E-08
  -9.47000027       1.98906491E-08
  -9.46000004       2.01765271E-08
  -9.44999981       2.04502761E-08
  -9.43999958       2.07113473E-08
  -9.43000031       2.09594422E-08
  -9.42000008       2.11944080E-08
  -9.40999985       2.14163869E-08
  -9.39999962       2.16256861E-08
  -9.39000034       2.18227676E-08
  -9.38000011       2.20083365E-08
  -9.36999989       2.21833041E-08
  -9.35999966       2.23488090E-08
  -9.35000038       2.25061907E-08
  -9.34000015       2.26570354E-08
  -9.32999992       2.28031780E-08
  -9.31999969       2.29465886E-08
  -9.31000042       2.30894681E-08
  -9.30000019       2.32340724E-08
  -9.28999996       2.33827553E-08
  -9.27999973       2.35378561E-08
  -9.27000046       2.37018227E-08
  -9.26000023       2.38770568E-08
  -9.25000000       2.40660167E-08
  -9.23999977       2.42711558E-08
  -9.22999954       2.44949216E-08
  -9.22000027       2.47397089E-08
  -9.21000004       2.50077612E-08
  -9.19999981       2.53012065E-08
  -9.18999958       2.56218602E-08
  -9.18000031       2.59712927E-08
  -9.17000008       2.63507189E-08
  -9.15999985       2.67610432E-08
  -9.14999962       2.72028799E-08
  -9.14000034       2.76765562E-08
  -9.13000011       2.81821180E-08
  -9.11999989       2.87193451E-08
  -9.10999966       2.92876319E-08
  -9.10000038       2.98861167E-08
  -9.09000015       3.05135721E-08
  -9.07999992       3.11682982E-08
  -9.06999969       3.18482520E-08
  -9.06000042       3.25511174E-08
  -9.05000019       3.32742580E-08
  -9.03999996       3.40148709E-08
  -9.02999973       3.47700926E-08
  -9.02000046       3.55369529E-08
  -9.01000023       3.63124606E-08
  -9.00000000       3.70935709E-08
  -8.98999977       3.78772000E-08
  -8.97999954       3.86601933E-08
  -8.97000027       3.94393531E-08
  -8.96000004       4.02114217E-08
  -8.94999981       4.09732337E-08
  -8.93999958       4.17217834E-08
  -8.93000031       4.24541717E-08
  -8.92000008       4.31677591E-08
  -8.90999985       4.38601084E-08
  -8.89999962       4.45289174E-08
  -8.89000034       4.51720439E-08
  -8.88000011       4.57874094E-08
  -8.86999989       4.63729535E-08
  -8.85999966       4.69267469E-08
  -8.85000038       4.74468820E-08
  -8.84000015       4.79316959E-08
  -8.82999992       4.83797926E-08
  -8.81999969       4.87901701E-08
  -8.81000042       4.91621606E-08
  -8.80000019       4.94953056E-08
  -8.78999996       4.97893957E-08
  -8.77999973       5.00444379E-08
  -8.77000046       5.02604287E-08
  -8.76000023       5.04376203E-08
  -8.75000000       5.05762721E-08
  -8.73999977       5.06769879E-08
  -8.72999954       5.07407805E-08
  -8.72000027       5.07688256E-08
  -8.71000004       5.07627504E-08
  -8.69999981       5.07245339E-08
  -8.68999958       5.06562436E-08
  -8.68000031       5.05601783E-08
  -8.67000008       5.04385333E-08
  -8.65999985       5.02936111E-08
  -8.64999962       5.01275608E-08
  -8.64000034       4.99425816E-08
  -8.63000011       4.97411747E-08
  -8.61999989       4.95258696E-08
  -8.60999966       4.92994623E-08
  -8.60000038       4.90649406E-08
  -8.59000015       4.88253100E-08
  -8.57999992       4.85835372E-08
  -8.56999969       4.83424927E-08
  -8.56000042       4.81046172E-08
  -8.55000019       4.78723408E-08
  -8.53999996       4.76475961E-08
  -8.52999973       4.74323123E-08
  -8.52000046       4.72281521E-08
  -8.51000023       4.70368278E-08
  -8.50000000       4.68598138E-08
  -8.48999977       4.66986094E-08
  -8.47999954       4.65546002E-08
  -8.47000027       4.64286956E-08
  -8.46000004       4.63215777E-08
  -8.44999981       4.62337830E-08
  -8.43999958       4.61653187E-08
  -8.43000031       4.61162557E-08
  -8.42000008       4.60863276E-08
  -8.40999985       4.60754244E-08
  -8.39999962       4.60832794E-08
  -8.39000034       4.61096334E-08
  -8.38000011       4.61541880E-08
  -8.36999989       4.62164991E-08
  -8.35999966       4.62960088E-08
  -8.35000038       4.63920919E-08
  -8.34000015       4.65041552E-08
  -8.32999992       4.66316727E-08
  -8.31999969       4.67742360E-08
  -8.31000042       4.69315502E-08
  -8.30000019       4.71034696E-08
  -8.28999996       4.72899693E-08
  -8.27999973       4.74912127E-08
  -8.27000046       4.77072888E-08
  -8.26000023       4.79381939E-08
  -8.25000000       4.81840878E-08
  -8.23999977       4.84451341E-08
  -8.22999954       4.87213896E-08
  -8.22000027       4.90132663E-08
  -8.21000004       4.93211054E-08
  -8.19999981       4.96455534E-08
  -8.18999958       4.99872250E-08
  -8.18000031       5.03469799E-08
  -8.17000008       5.07256068E-08
  -8.15999985       5.11238589E-08
  -8.14999962       5.15426564E-08
  -8.14000034       5.19829833E-08
  -8.13000011       5.24459551E-08
  -8.11999989       5.29325206E-08
  -8.10999966       5.34439693E-08
  -8.10000038       5.39815659E-08
  -8.09000015       5.45467103E-08
  -8.07999992       5.51404895E-08
  -8.06999969       5.57638486E-08
  -8.06000042       5.64177469E-08
  -8.05000019       5.71028949E-08
  -8.03999996       5.78198858E-08
  -8.02999973       5.85691815E-08
  -8.02000046       5.93512048E-08
  -8.01000023       6.01665846E-08
  -8.00000000       6.10156903E-08
  -7.98999977       6.18985752E-08
  -7.98000002       6.28157011E-08
  -7.96999979       6.37668549E-08
  -7.96000004       6.47521361E-08
  -7.94999981       6.57713883E-08
  -7.94000006       6.68243700E-08
  -7.92999983       6.79110244E-08
  -7.92000008       6.90310316E-08
  -7.90999985       7.01846048E-08
  -7.90000010       7.13713462E-08
  -7.88999987       7.25910994E-08
  -7.88000011       7.38435659E-08
  -7.86999989       7.51280638E-08
  -7.86000013       7.64438113E-08
  -7.84999990       7.77898990E-08
  -7.84000015       7.91652610E-08
  -7.82999992       8.05688387E-08
  -7.82000017       8.19996941E-08
  -7.80999994       8.34567757E-08
  -7.80000019       8.49392094E-08
  -7.78999996       8.64455245E-08
  -7.78000021       8.79745485E-08
  -7.76999998       8.95248533E-08
  -7.76000023       9.10947406E-08
  -7.75000000       9.26823205E-08
  -7.73999977       9.42856389E-08
  -7.73000002       9.59029265E-08
  -7.71999979       9.75322294E-08
  -7.71000004       9.91718636E-08
  -7.69999981       1.00820294E-07
  -7.69000006       1.02476150E-07
  -7.67999983       1.04138245E-07
  -7.67000008       1.05805256E-07
  -7.65999985       1.07475586E-07
  -7.65000010       1.09148324E-07
  -7.63999987       1.10822249E-07
  -7.63000011       1.12496153E-07
  -7.61999989       1.14169090E-07
  -7.61000013       1.15840386E-07
  -7.59999990       1.17509742E-07
  -7.59000015       1.19176804E-07
  -7.57999992       1.20841435E-07
  -7.57000017       1.22503906E-07
  -7.55999994       1.24164330E-07
  -7.55000019       1.25823206E-07
  -7.53999996       1.27480831E-07
  -7.53000021       1.29137632E-07
  -7.51999998       1.30794220E-07
  -7.51000023       1.32451291E-07
  -7.50000000       1.34109811E-07
  -7.48999977       1.35770776E-07
  -7.48000002       1.37435435E-07
  -7.46999979       1.39105182E-07
  -7.46000004       1.40781225E-07
  -7.44999981       1.42465183E-07
  -7.44000006       1.44158079E-07