  -16.0000000       0.00000000    
  -15.9899998       0.00000000    
  -15.9799995       0.00000000    
  -15.9700003       0.00000000    
  -15.9600000       0.00000000    
  -15.9499998       0.00000000    
  -15.9399996       0.00000000    
  -15.9300003       0.00000000    
  -15.9200001       0.00000000    
  -15.9099998       0.00000000    
  -15.8999996       0.00000000    
  -15.8900003       1.14906474E-43
  -15.8800001       1.26355083E-41
  -15.8699999       4.26775256E-40
  -15.8599997       7.68421771E-39
  -15.8500004       9.12664232E-38
  -15.8400002       7.99362794E-37
  -15.8299999       5.52207233E-36
  -15.8199997       3.14470883E-35
  -15.8100004       1.52237768E-34
  -15.8000002       6.40545377E-34
  -15.7900000       2.38095205E-33
  -15.7799997       7.91361384E-33
  -15.7700005       2.37275269E-32
  -15.7600002       6.45693228E-32
  -15.7500000       1.60045907E-31
  -15.7399998       3.61663783E-31
  -15.7299995       7.43339134E-31
  -15.7200003       1.37966926E-30
  -15.7100000       2.27615278E-30
  -15.6999998       3.22255438E-30
  -15.6899996       3.56177835E-30
  -15.6800003       1.93452572E-30
  -15.6700001      -3.81158689E-30
  -15.6599998      -1.61948515E-29
  -15.6499996      -3.66970393E-29
  -15.6400003      -6.30744223E-29
  -15.6300001      -8.56981469E-29
  -15.6199999      -8.44690605E-29
  -15.6099997      -2.94369424E-29
  -15.6000004       1.10668930E-28
  -15.5900002       3.48714726E-28
  -15.5799999       6.49476444E-28
  -15.5699997       8.99836359E-28
  -15.5600004       8.99204558E-28
  -15.5500002       3.97007419E-28
  -15.5400000      -8.02106633E-28
  -15.5299997      -2.67091085E-27
  -15.5200005      -4.78116538E-27
  -15.5100002      -6.21458150E-27
  -15.5000000      -5.68615370E-27
  -15.4899998      -1.96274949E-27
  -15.4799995       5.46097936E-27
  -15.4700003       1.56424785E-26
  -15.4600000       2.57874239E-26
  -15.4499998       3.15261543E-26
  -15.4399996       2.80118283E-26
  -15.4300003       1.15726850E-26
  -15.4200001      -1.87328380E-26
  -15.4099998      -6.03383005E-26
  -15.3999996      -1.07285194E-25
  -15.3900003      -1.50341555E-25
  -15.3800001      -1.75515487E-25
  -15.3699999      -1.60082903E-25
  -15.3599997      -6.83067879E-26
  -15.3500004       1.46118351E-25
  -15.3400002       5.20054481E-25
  -15.3299999       1.03475595E-24
  -15.3199997       1.54830075E-24
  -15.3100004       1.73655225E-24
  -15.3000002       1.10158400E-24
  -15.2900000      -8.79605153E-25
  -15.2799997      -4.42004011E-24
  -15.2700005      -8.94219432E-24
  -15.2600002      -1.26345248E-23
  -15.2500000      -1.23775376E-23
  -15.2399998      -4.43891282E-24
  -15.2299995       1.37908017E-23
  -15.2200003       4.11547504E-23
  -15.2100000       6.99709210E-23
  -15.1999998       8.46846726E-23
  -15.1899996       6.39116615E-23
  -15.1800003      -1.24376054E-23
  -15.1700001      -1.50689763E-22
  -15.1599998      -3.28014120E-22
  -15.1499996      -4.80016232E-22
  -15.1400003      -5.00414635E-22
  -15.1300001      -2.62942385E-22
  -15.1199999       3.27665153E-22
  -15.1099997       1.25817110E-21
  -15.1000004       2.32134749E-21
  -15.0900002       3.06082454E-21
  -15.0799999       2.80135034E-21
  -15.0699997       8.21614360E-22
  -15.0600004      -3.30006492E-21
  -15.0500002      -9.20397728E-21
  -15.0400000      -1.52744005E-20
  -15.0299997      -1.84365731E-20
  -15.0200005      -1.45696734E-20
  -15.0100002       1.62995084E-22
  -15.0000000       2.70174297E-20
  -14.9899998       6.18526112E-20
  -14.9799995       9.29076598E-20
  -14.9700003       1.00881920E-19
  -14.9600000       6.31549037E-20
  -14.9499998      -3.68192372E-20
  -14.9399996      -1.95936495E-19
  -14.9300003      -3.77765166E-19
  -14.9200001      -5.06078818E-19
  -14.9099998      -4.74603510E-19
  -14.8999996      -1.80014199E-19
  -14.8900003       4.22069295E-19
  -14.8800001       1.25085311E-18
  -14.8699999       2.05141971E-18
  -14.8599997       2.40111796E-18
  -14.8500004       1.80711481E-18
  -14.8400002      -9.18551242E-20
  -14.8299999      -3.25180312E-18
  -14.8199997      -6.96930851E-18
  -14.8100004      -9.78964284E-18
  -14.8000002      -9.73163598E-18
  -14.7900000      -4.92383437E-18
  -14.7799997       5.40019776E-18
  -14.7700005       1.98131578E-17
  -14.7600002       3.39920641E-17
  -14.7500000       4.09911900E-17
  -14.7399998       3.29601067E-17
  -14.7299995       4.35650345E-18
  -14.7200003      -4.39941534E-17
  -14.7100000      -1.01435570E-16
  -14.6999998      -1.46621350E-16
  -14.6899996      -1.51193965E-16
  -14.6800003      -8.88987416E-17
  -14.6700001       5.10183561E-17
  -14.6599998       2.49935229E-16
  -14.6499996       4.51646067E-16
  -14.6400003       5.66740481E-16
  -14.6300001       4.94482482E-16
  -14.6199999       1.61779944E-16
  -14.6099997      -4.29112423E-16
  -14.6000004      -1.16084171E-15
  -14.5900002      -1.79097980E-15
  -14.5799999      -1.99169337E-15
  -14.5699997      -1.44718681E-15
  -14.5600004       4.08402271E-18
  -14.5500002       2.22134623E-15
  -14.5400000       4.66813791E-15
  -14.5299997       6.44019267E-15
  -14.5200005       6.46157474E-15
  -14.5100002       3.84738882E-15
  -14.5000000      -1.63914798E-15
  -14.4899998      -9.18011344E-15
  -14.4799995      -1.67369966E-14
  -14.4700003      -2.13029108E-14
  -14.4600000      -1.96592434E-14
  -14.4499998      -9.55729128E-15
  -14.4399996       8.95949947E-15
  -14.4300003       3.25551625E-14
  -14.4200001       5.44535052E-14
  -14.4099998       6.55609803E-14
  -14.3999996       5.69552272E-14
  -14.3900003       2.33446549E-14
  -14.3800001      -3.34272405E-14
  -14.3699999      -1.02141765E-13
  -14.3599997      -1.62572186E-13
  -14.3500004      -1.89336190E-13
  -14.3400002      -1.59146080E-13
  -14.3299999      -6.00769502E-14
  -14.3199997       9.97778249E-14
  -14.3100004       2.87627290E-13
  -14.3000002       4.48407316E-13
  -14.2900000       5.15985421E-13
  -14.2799997       4.32270349E-13
  -14.2700005       1.70248947E-13
  -14.2600002      -2.45751661E-13
  -14.2500000      -7.30535803E-13
  -14.2399998      -1.14609147E-12
  -14.2299995      -1.33022749E-12
  -14.2200003      -1.14272925E-12
  -14.2100000      -5.19071548E-13
  -14.1999998       4.83868642E-13
  -14.1899996       1.66770048E-12
  -14.1800003       2.71237633E-12
  -14.1700001       3.24146938E-12
  -14.1599998       2.92511826E-12
  -14.1499996       1.59850095E-12
  -14.1400003      -6.37433194E-13
  -14.1300001      -3.36975088E-12
  -14.1199999      -5.91138163E-12
  -14.1099997      -7.43411235E-12
  -14.1000004      -7.18132324E-12
  -14.0900002      -4.71646550E-12
  -14.0799999      -1.41367197E-13
  -14.0699997       5.78900209E-12
  -14.0600004       1.17157178E-11
  -14.0500002       1.59154131E-11
  -14.0400000       1.67069067E-11
  -14.0299997       1.29473741E-11
  -14.0200005       4.49659797E-12
  -14.0100002      -7.49117608E-12
  -14.0000000      -2.05712287E-11
  -13.9899998      -3.13762315E-11
  -13.9799995      -3.63293527E-11
  -13.9700003      -3.25840292E-11
  -13.9600000      -1.89828899E-11
  -13.9499998       3.22255352E-12
  -13.9399996       3.01415663E-11
  -13.9300003       5.56757661E-11
  -13.9200001       7.26447791E-11
  -13.9099998       7.44591264E-11
  -13.8999996       5.70155277E-11
  -13.8900003       2.03594797E-11
  -13.8800001      -3.03779710E-11
  -13.8699999      -8.51784615E-11
  -13.8599997      -1.30668670E-10
  -13.8500004      -1.52877266E-10
  -13.8400002      -1.40760167E-10
  -13.8299999      -8.97343103E-11
  -13.8199997      -4.29213002E-12
  -13.8100004       1.01191597E-10
  -13.8000002       2.04063447E-10
  -13.7900000       2.77501772E-10
  -13.7799997       2.96585007E-10
  -13.7700005       2.45133580E-10
  -13.7600002       1.21684551E-10
  -13.7500000      -5.71528866E-11
  -13.7399998      -2.57376787E-10
  -13.7299995      -4.32934300E-10
  -13.7200003      -5.35234246E-10
  -13.7100000      -5.25127941E-10
  -13.6999998      -3.84668603E-10
  -13.6899996      -1.25510186E-10
  -13.6800003       2.08876944E-10
  -13.6700001       5.48847634E-10
  -13.6599998       8.11954892E-10
  -13.6499996       9.21825838E-10
  -13.6400003       8.28477564E-10
  -13.6300001       5.24951249E-10
  -13.6199999       5.53239156E-11
  -13.6099997      -4.89296381E-10
  -13.6000004      -9.87466664E-10
  -13.5900002      -1.31417044E-09
  -13.5799999      -1.37193990E-09
  -13.5699997      -1.11868981E-09
  -13.5600004      -5.84492121E-10
  -13.5500002       1.28491967E-10
  -13.5400000       8.64866456E-10
  -13.5299997       1.45072898E-09
  -13.5200005       1.73669468E-09
  -13.5100002       1.63850844E-09
  -13.5000000       1.16399357E-09
  -13.4899998       4.17603369E-10
  -13.4799995      -4.20906782E-10
  -13.4700003      -1.14033760E-09
  -13.4600000      -1.55439850E-09
  -13.4499998      -1.55587931E-09
  -13.4399996      -1.15293219E-09
  -13.4300003      -4.75051054E-10
  -13.4200001       2.56425658E-10
  -13.4099998       7.88834997E-10
  -13.3999996       9.15683696E-10
  -13.3900003       5.50206658E-10
  -13.3800001      -2.27729599E-10
  -13.3699999      -1.16966326E-09
  -13.3599997      -1.90946658E-09
  -13.3500004      -2.06095430E-09
  -13.3400002      -1.34130418E-09
  -13.3299999       3.11672937E-10
  -13.3199997       2.66433942E-09
  -13.3100004       5.18457322E-09
  -13.3000002       7.12723880E-09
  -13.2900000       7.70152564E-09
  -13.2799997       6.28987751E-09
  -13.2700005       2.66808420E-09
  -13.2600002      -2.83402457E-09
  -13.2500000      -9.28756272E-09
  -13.2399998      -1.52713557E-08
  -13.2299995      -1.91331626E-08
  -13.2200003      -1.93676524E-08
  -13.2100000      -1.50355941E-08
  -13.1999998      -6.12372197E-09
  -13.1899996       6.25866114E-09
  -13.1800003       1.99273718E-08
  -13.1700001       3.19485380E-08
  -13.1599998       3.92097803E-08
  -13.1499996       3.91382251E-08
  -13.1400003       3.04122949E-08
  -13.1300001       1.34904621E-08
  -13.1199999      -9.20295129E-09
  -13.1099997      -3.35345227E-08
  -13.1000004      -5.43662821E-08
  -13.0900002      -6.66034410E-08
  -13.0799999      -6.63806574E-08
  -13.0699997      -5.21198729E-08
  -13.0600004      -2.51877132E-08
  -13.0500002       1.00567439E-08
  -13.0400000       4.69105252E-08
  -13.0299997       7.75988909E-08
  -13.0200005       9.49376187E-08
  -13.0100002       9.40305966E-08
  -13.0000000       7.36012780E-08
  -12.9899998       3.66033674E-08
  -12.9799995      -1.01032001E-08
  -12.9700003      -5.70182941E-08
  -12.9600000      -9.39884472E-08
  -12.9499998      -1.12497908E-07
  -12.9399996      -1.07738749E-07
  -12.9300003      -7.99460267E-08
  -12.9200001      -3.46242679E-08
  -12.9099998       1.84655349E-08
  -12.8999996       6.73946445E-08
  -12.8900003       1.00792128E-07
  -12.8800001       1.10582896E-07
  -12.8699999       9.40710123E-08
  -12.8599997       5.48206778E-08
  -12.8500004       2.05176431E-09
  -12.8400002      -5.13822371E-08
  -12.8299999      -9.20104242E-08
  -12.8199997      -1.09060167E-07
  -12.8100004      -9.72640706E-08
  -12.8000002      -5.84318371E-08
  -12.7900000      -1.32893208E-09
  -12.7799997       6.01980759E-08
  -12.7700005       1.10474126E-07
  -12.7600002       1.35884690E-07
  -12.7500000       1.28458609E-07
  -12.7399998       8.82247022E-08
  -12.7299995       2.36767317E-08
  -12.7200003      -4.98853190E-08
  -12.7100000      -1.13852600E-07
  -12.6999998      -1.50882840E-07
  -12.6899996      -1.49480087E-07
  -12.6800003      -1.07436307E-07
  -12.6700001      -3.32029906E-08
  -12.6599998       5.52903963E-08
  -12.6499996       1.34263971E-07
  -12.6400003       1.79456222E-07
  -12.6300001       1.72072475E-07
  -12.6199999       1.03949446E-07
  -12.6099997      -1.93149319E-08
  -12.6000004      -1.78103818E-07
  -12.5900002      -3.41606949E-07
  -12.5799999      -4.73246985E-07
  -12.5699997      -5.37619712E-07
  -12.5600004      -5.07502705E-07
  -12.5500002      -3.69454540E-07
  -12.5400000      -1.26843645E-07
  -12.5299997       2.00270932E-07
  -12.5200005       5.78258039E-07
  -12.5100002       9.65203981E-07
  -12.5000000       1.31707009E-06
  -12.4899998       1.59326794E-06
  -12.4799995       1.76041067E-06
  -12.4700003       1.79352799E-06
  -12.4600000       1.67473797E-06
  -12.4499998       1.39006659E-06
  -12.4399996       9.25640904E-07
  -12.4300003       2.64688595E-07
  -12.4200001      -6.13390057E-07
  -12.4099998      -1.73112130E-06
  -12.3999996      -3.10817836E-06
  -12.3900003      -4.75447814E-06
  -12.3800001      -6.66252163E-06
  -12.3699999      -8.80065090E-06
  -12.3599997      -1.11089203E-05
  -12.3500004      -1.34987768E-05
  -12.3400002      -1.58570892E-05
  -12.3299999      -1.80542738E-05
  -12.3199997      -1.99553615E-05
  -12.3100004      -2.14324591E-05
  -12.3000002      -2.23766601E-05
  -12.2900000      -2.27076853E-05
  -12.2799997      -2.23798925E-05
  -12.2700005      -2.13840067E-05
  -12.2600002      -1.97446025E-05
  -12.2500000      -1.75141868E-05
  -12.2399998      -1.47650435E-05
  -12.2299995      -1.15805169E-05
  -12.2200003      -8.04718002E-06
  -12.2100000      -4.24912787E-06
  -12.1999998      -2.65122367E-07
  -12.1899996       3.83141560E-06
  -12.1800003       7.97012035E-06
  -12.1700001       1.20802961E-05
  -12.1599998       1.60878426E-05
  -12.1499996       1.99139267E-05
  -12.1400003       2.34764830E-05
  -12.1300001       2.66948682E-05
  -12.1199999       2.94973233E-05
  -12.1099997       3.18298517E-05
  -12.1000004       3.36646335E-05
  -12.0900002       3.50058726E-05
  -12.0799999       3.58911457E-05
  -12.0699997       3.63872823E-05
  -12.0600004       3.65808446E-05
  -12.0500002       3.65645137E-05
  -12.0400000       3.64219377E-05
  -12.0299997       3.62138235E-05
  -12.0200005       3.59680453E-05
  -12.0100002       3.56759920E-05
  -12.0000000       3.52953430E-05
  -11.9899998       3.47586683E-05
  -11.9799995       3.39854996E-05
  -11.9700003       3.28950555E-05
  -11.9600000       3.14167555E-05
  -11.9499998       2.94968631E-05
  -11.9399996       2.71004592E-05
  -11.9300003       2.42100705E-05
  -11.9200001       2.08225902E-05
  -11.9099998       1.69470859E-05
  -11.8999996       1.26051591E-05
  -11.8900003       7.83425276E-06
  -11.8800001       2.69293719E-06
  -11.8699999      -2.73421279E-06
  -11.8599997      -8.33514696E-06
  -11.8500004      -1.39746335E-05
  -11.8400002      -1.95052016E-05
  -11.8299999      -2.47836597E-05
  -11.8199997      -2.96898743E-05
  -11.8100004      -3.41432169E-05
  -11.8000002      -3.81121317E-05
  -11.7900000      -4.16133007E-05
  -11.7799997      -4.46998056E-05
  -11.7700005      -4.74403896E-05
  -11.7600002      -4.98947193E-05
  -11.7500000      -5.20911781E-05
  -11.7399998      -5.40131405E-05
  -11.7299995      -5.55980841E-05
  -11.7200003      -5.67503739E-05
  -11.7100000      -5.73646903E-05
  -11.6999998      -5.73543548E-05
  -11.6899996      -5.66768358E-05
  -11.6800003      -5.53494501E-05
  -11.6700001      -5.34506762E-05
  -11.6599998      -5.11062062E-05
  -11.6499996      -4.84629636E-05
  -11.6400003      -4.56577218E-05
  -11.6300001      -4.27881569E-05
  -11.6199999      -3.98938901E-05
  -11.6099997      -3.69522750E-05
  -11.6000004      -3.38898390E-05
  -11.5900002      -3.06064212E-05
  -11.5799999      -2.70057590E-05
  -11.5699997      -2.30247333E-05
  -11.5600004      -1.86542220E-05
  -11.5500002      -1.39464419E-05
  -11.5400000      -9.00744635E-06
  -11.5299997      -3.97666599E-06
  -11.5200005       1.00159434E-06
  -11.5100002       5.80810865E-06
  -11.5000000       1.03736829E-05
  -11.4899998       1.46938382E-05
  -11.4799995       1.88304111E-05
  -11.4700003       2.28998670E-05
  -11.4600000       2.70506462E-05
  -11.4499998       3.14337049E-05
  -11.4399996       3.61716375E-05
  -11.4300003       4.13319285E-05
  -11.4200001       4.69090555E-05
  -11.4099998       5.28189594E-05
  -11.3999996       5.89073898E-05
  -11.3900003       6.49709109E-05
  -11.3800001       7.07873332E-05
  -11.3699999       7.61496922E-05
  -11.3599997       8.08971963E-05
  -11.3500004       8.49359567E-05
  -11.3400002       8.82448439E-05
  -11.3299999       9.08640650E-05
  -11.3199997       9.28690424E-05
  -11.3100004       9.43357736E-05
  -11.3000002       9.53068666E-05
  -11.2900000       9.57684460E-05
  -11.2799997       9.56457443E-05
  -11.2700005       9.48210582E-05
  -11.2600002       9.31709292E-05
  -11.2500000       9.06139030E-05
  -11.2399998       8.71553275E-05
  -11.2299995       8.29150522E-05
  -11.2200003       7.81271010E-05
  -11.2100000       7.31069158E-05
  -11.1999998       6.81913007E-05
  -11.1899996       6.36637633E-05
  -11.1800003       5.96846876E-05
  -11.1700001       5.62452587E-05
  -11.1599998       5.31604819E-05
  -11.1499996       5.01063805E-05
  -11.1400003       4.66951933E-05
  -11.1300001       4.25719591E-05
  -11.1199999       3.75089294E-05
  -11.1099997       3.14740064E-05
  -11.1000004       2.46553082E-05
  -11.0900002       1.74355537E-05
  -11.0799999       1.03227321E-05
  -11.0699997       3.85497015E-06
  -11.0600004      -1.49575817E-06
  -11.0500002      -5.39736857E-06
  -11.0400000      -7.69244616E-06
  -11.0299997      -8.38918277E-06
  -11.0200005      -7.61706269E-06
  -11.0100002      -5.56530449E-06
  -11.0000000      -2.42607553E-06
  -10.9899998       1.63867207E-06
  -10.9799995       6.49742287E-06
  -10.9700003       1.20196919E-05
  -10.9600000       1.80309726E-05
  -10.9499998       2.42735969E-05
  -10.9399996       3.03935831E-05
  -10.9300003       3.59661535E-05
  -10.9200001       4.05602877E-05
  -10.9099998       4.38284660E-05
  -10.8999996       4.55981753E-05
  -10.8900003       4.59378571E-05
  -10.8800001       4.51750529E-05
  -10.8699999       4.38560091E-05
  -10.8599997       4.26513834E-05
  -10.8500004       4.22275771E-05
  -10.8400002       4.31126900E-05
  -10.8299999       4.55878071E-05
  -10.8199997       4.96287503E-05
  -10.8100004       5.49102297E-05
  -10.8000002       6.08694245E-05
  -10.7900000       6.68127905E-05
  -10.7799997       7.20410317E-05
  -10.7700005       7.59656978E-05
  -10.7600002       7.81953568E-05
  -10.7500000       7.85789962E-05
  -10.7399998       7.72046551E-05
  -10.7299995       7.43598139E-05
  -10.7200003       7.04669583E-05
  -10.7100000       6.60074948E-05
  -10.6999998       6.14477976E-05
  -10.6899996       5.71760356E-05
  -10.6800003       5.34563696E-05
  -10.6700001       5.04041891E-05
  -10.6599998       4.79842311E-05
  -10.6499996       4.60322335E-05
  -10.6400003       4.42980709E-05
  -10.6300001       4.25051076E-05
  -10.6199999       4.04161947E-05
  -10.6099997       3.78939731E-05
  -10.6000004       3.49414404E-05
  -10.5900002       3.17118902E-05
  -10.5799999       2.84835442E-05
  -10.5699997       2.56030453E-05
  -10.5600004       2.34111503E-05
  -10.5500002       2.21693663E-05
  -10.5400000       2.20074799E-05
  -10.5299997       2.29060697E-05
  -10.5200005       2.47179196E-05
  -10.5100002       2.72205525E-05
  -10.5000000       3.01819819E-05
  -10.4899998       3.34181168E-05
  -10.4799995       3.68236397E-05
  -10.4700003       4.03670383E-05
  -10.4600000       4.40542171E-05
  -10.4499998       4.78761904E-05
  -10.4399996       5.17622721E-05
  -10.4300003       5.55591905E-05
  -10.4200001       5.90460440E-05
  -10.4099998       6.19829516E-05
  -10.3999996       6.41766383E-05
  -10.3900003       6.55406111E-05
  -10.3800001       6.61270678E-05
  -10.3699999       6.61175727E-05
  -10.3599997       6.57741330E-05
  -10.3500004       6.53658790E-05
  -10.3400002       6.50969450E-05
  -10.3299999       6.50596703E-05
  -10.3199997       6.52290619E-05
  -10.3100004       6.54988107E-05
  -10.3000002       6.57441051E-05
  -10.2900000       6.58853533E-05
  -10.2799997       6.59284051E-05
  -10.2700005       6.59641519E-05
  -10.2600002       6.61287486E-05
  -10.2500000       6.65407133E-05
  -10.2399998       6.72423921E-05
  -10.2299995       6.81727252E-05
  -10.2200003       6.91870810E-05
  -10.2100000       7.01202807E-05
  -10.1999998       7.08708030E-05
  -10.1899996       7.14708949E-05
  -10.1800003       7.21106044E-05
  -10.1700001       7.30954052E-05
  -10.1599998       7.47440281E-05
  -10.1499996       7.72557978E-05
  -10.1400003       8.05944437E-05
  -10.1300001       8.44347742E-05
  -10.1199999       8.82031673E-05
  -10.1099997       9.12118194E-05
  -10.1000004       9.28535592E-05
  -10.0900002       9.28001464E-05
  -10.0799999       9.11380412E-05
  -10.0699997       8.83908579E-05
  -10.0600004       8.54119644E-05
  -10.0500002       8.31696088E-05
  -10.0400000       8.24853487E-05
  -10.0299997       8.38044361E-05
  -10.0200005       8.70701406E-05
  -10.0100002       9.17450961E-05
  -10.0000000       9.69754547E-05
  -9.98999977       1.01851343E-04
  -9.97999954       1.05682302E-04
  -9.97000027       1.08202665E-04
  -9.96000004       1.09641580E-04
  -9.94999981       1.10635578E-04
  -9.93999958       1.12011025E-04
  -9.93000031       1.14505514E-04
  -9.92000008       1.18516524E-04
  -9.90999985       1.23957449E-04
  -9.89999962       1.30266417E-04
  -9.89000034       1.36564355E-04
  -9.88000011       1.41913188E-04
  -9.86999989       1.45593120E-04
  -9.85999966       1.47314160E-04
  -9.85000038       1.47299070E-04
  -9.84000015       1.46216698E-04
  -9.82999992       1.44991980E-04
  -9.81999969       1.44555466E-04
  -9.81000042       1.45611848E-04
  -9.80000019       1.48496387E-04
  -9.78999996       1.53157744E-04
  -9.77999973       1.59262214E-04
  -9.77000046       1.66378071E-04
  -9.76000023       1.74173721E-04
  -9.75000000       1.82563977E-04
  -9.73999977       1.91759507E-04
  -9.72999954       2.02209674E-04
  -9.72000027       2.14464773E-04
  -9.71000004       2.29008991E-04
  -9.69999981       2.46122043E-04
  -9.68999958       2.65814393E-04
  -9.68000031       2.87851639E-04
  -9.67000008       3.11849668E-04
  -9.65999985       3.37398145E-04
  -9.64999962       3.64157459E-04
  -9.64000034       3.91885464E-04
  -9.63000011       4.20377881E-04
  -9.61999989       4.49339859E-04
  -9.60999966       4.78234637E-04
  -9.60000038       5.06173645E-04
  -9.59000015       5.31899510E-04
  -9.57999992       5.53894730E-04
  -9.56999969       5.70599746E-04
  -9.56000042       5.80693246E-04
  -9.55000019       5.83356014E-04
  -9.53999996       5.78439329E-04
  -9.52999973       5.66479343E-04
  -9.52000046       5.48545504E-04
  -9.51000023       5.25956450E-04
  -9.50000000       4.99944086E-04
  -9.48999977       4.71361389E-04
  -9.47999954       4.40524251E-04
  -9.47000027       4.07234184E-04
  -9.46000004       3.70976864E-04
  -9.44999981       3.31232732E-04
  -9.43999958       2.87798612E-04
  -9.43000031       2.41015296E-04
  -9.42000008       1.91821964E-04
  -9.40999985       1.41617071E-04
  -9.39999962       9.19665472E-05
  -9.39000034       4.42553392E-05
  -9.38000011      -5.99372981E-07
  -9.36999989      -4.22752128E-05
  -9.35999966      -8.09637422E-05
  -9.35000038      -1.17105366E-04
  -9.34000015      -1.51029933E-04
  -9.32999992      -1.82627380E-04
  -9.31999969      -2.11167979E-04
  -9.31000042      -2.35342945E-04
  -9.30000019      -2.53520528E-04
  -9.28999996      -2.64136586E-04
  -9.27999973      -2.66087794E-04
  -9.27000046      -2.58992164E-04
  -9.26000023      -2.43224029E-04
  -9.25000000      -2.19709269E-04
  -9.23999977      -1.89555343E-04
  -9.22999954      -1.53650632E-04
  -9.22000027      -1.12384580E-04
  -9.21000004      -6.55979966E-05
  -9.19999981      -1.27925960E-05
  -9.18999958       4.64703080E-05
  -9.18000031       1.12127083E-04
  -9.17000008       1.83298587E-04
  -9.15999985       2.58235494E-04
  -9.14999962       3.34569311E-04
  -9.14000034       4.09805012E-04
  -9.13000011       4.81895549E-04
  -9.11999989       5.49702148E-04
  -9.10999966       6.13176962E-04
  -9.10000038       6.73192728E-04
  -9.09000015       7.31068314E-04
  -9.07999992       7.87951052E-04
  -9.06999969       8.44268245E-04
  -9.06000042       8.99441075E-04
  -9.05000019       9.51964699E-04
  -9.03999996       9.99829499E-04
  -9.02999973       1.04112562E-03
  -9.02000046       1.07461854E-03
  -9.01000023       1.10008416E-03
  -9.00000000       1.11827545E-03
  -8.98999977       1.13054155E-03
  -8.97999954       1.13824138E-03
  -8.97000027       1.14217342E-03
  -8.96000004       1.14225154E-03
  -8.94999981       1.13755080E-03
  -8.93999958       1.12671941E-03
  -8.93000031       1.10860809E-03
  -8.92000008       1.08286738E-03
  -8.90999985       1.05028308E-03
  -8.89999962       1.01269607E-03
  -8.89000034       9.72513633E-04
  -8.88000011       9.31971183E-04
  -8.86999989       8.92414595E-04
  -8.85999966       8.53866921E-04
  -8.85000038       8.15058476E-04
  -8.84000015       7.73932552E-04
  -8.82999992       7.28455663E-04
  -8.81999969       6.77456206E-04
  -8.81000042       6.21180399E-04
  -8.80000019       5.61358174E-04
  -8.78999996       5.00741357E-04
  -8.77999973       4.42267919E-04
  -8.77000046       3.88146465E-04
  -8.76000023       3.39191378E-04
  -8.75000000       2.94654223E-04
  -8.73999977       2.52619240E-04
  -8.72999954       2.10828526E-04
  -8.72000027       1.67642822E-04
  -8.71000004       1.22793164E-04
  -8.69999981       7.76462402E-05
  -8.68999958       3.48850299E-05
  -8.68000031      -2.28638532E-06
  -8.67000008      -3.11289114E-05
  -8.65999985      -5.01962277E-05
  -8.64999962      -5.97052385E-05
  -8.64000034      -6.13252778E-05
  -8.63000011      -5.74656297E-05
  -8.61999989      -5.03309275E-05
  -8.60999966      -4.10885004E-05
  -8.60000038      -2.94554502E-05
  -8.59000015      -1.38524683E-05
  -8.57999992       7.93793242E-06
  -8.56999969       3.78511941E-05
  -8.56000042       7.67020611E-05
  -8.55000019       1.23729973E-04
  -8.53999996       1.76693648E-04
  -8.52999973       2.32471837E-04
  -8.52000046       2.87948496E-04
  -8.51000023       3.40855011E-04
  -8.50000000       3.90274334E-04
  -8.48999977       4.36630944E-04
  -8.47999954       4.81198542E-04
  -8.47000027       5.25324838E-04
  -8.46000004       5.69675991E-04
  -8.44999981       6.13789947E-04
  -8.43999958       6.56101329E-04
  -8.43000031       6.94418908E-04
  -8.42000008       7.26670318E-04
  -8.40999985       7.51621963E-04
  -8.39999962       7.69313250E-04
  -8.39000034       7.81036681E-04
  -8.38000011       7.88884354E-04
  -8.36999989       7.95035856E-04
  -8.35999966       8.01058719E-04
  -8.35000038       8.07471806E-04
  -8.34000015       8.13725288E-04
  -8.32999992       8.18584231E-04
  -8.31999969       8.20754154E-04
  -8.31000042       8.19497218E-04
  -8.30000019       8.15007079E-04
  -8.28999996       8.08408600E-04
  -8.27999973       8.01391492E-04
  -8.27000046       7.95635919E-04
  -8.26000023       7.92250503E-04
  -8.25000000       7.91439030E-04
  -8.23999977       7.92511855E-04
  -8.22999954       7.94218038E-04
  -8.22000027       7.95257976E-04
  -8.21000004       7.94771360E-04
  -8.19999981       7.92614534E-04
  -8.18999958       7.89333775E-04
  -8.18000031       7.85872806E-04
  -8.17000008       7.83141761E-04
  -8.15999985       7.81644601E-04
  -8.14999962       7.81312003E-04
  -8.14000034       7.81607931E-04
  -8.13000011       7.81852345E-04
  -8.11999989       7.81619688E-04
  -8.10999966       7.81040580E-04
  -8.10000038       7.80874398E-04
  -8.09000015       7.82319636E-04
  -8.07999992       7.86638877E-04
  -8.06999969       7.94748485E-04
  -8.06000042       8.06944387E-04
  -8.05000019       8.22872680E-04
  -8.03999996       8.41758738E-04
  -8.02999973       8.62799119E-04
  -8.02000046       8.85550980E-04
  -8.01000023       9.10161994E-04
  -8.00000000       9.37339035E-04
  -7.98999977       9.68063949E-04
  -7.98000002       1.00317784E-03
  -7.96999979       1.04300084E-03
  -7.96000004       1.08714204E-03
  -7.94999981       1.13458640E-03
  -7.94000006       1.18402776E-03
  -7.92999983       1.23430940E-03
  -7.92000008       1.28479372E-03
  -7.90999985       1.33550179E-03
  -7.90000010       1.38695922E-03
  -7.88999987       1.43979245E-03
  -7.88000011       1.49424491E-03
  -7.86999989       1.54980144E-03
  -7.86000013       1.60508859E-03
  -7.84999990       1.65811623E-03
  -7.84000015       1.70678203E-03
  -7.82999992       1.74947130E-03
  -7.82000017       1.78551779E-03
  -7.80999994       1.81535992E-03
  -7.80000019       1.84031192E-03
  -7.78999996       1.86202722E-03
  -7.78000021       1.88184204E-03
  -7.76999998       1.90023892E-03
  -7.76000023       1.91662426E-03
  -7.75000000       1.92951108E-03
  -7.73999977       1.93704141E-03
  -7.73000002       1.93766213E-03
  -7.71999979       1.93071458E-03
  -7.71000004       1.91672600E-03
  -7.69999981       1.89729990E-03
  -7.69000006       1.87464838E-03
  -7.67999983       1.85093912E-03
  -7.67000008       1.82769075E-03
  -7.65999985       1.80543179E-03
  -7.65000010       1.78373128E-03
  -7.63999987       1.76158280E-03
  -7.63000011       1.73798576E-03
  -7.61999989       1.71250862E-03
  -7.61000013       1.68561714E-03
  -7.59999990       1.65866059E-03
  -7.59000015       1.63351663E-03
  -7.57999992       1.61202799E-03
  -7.57000017       1.59544370E-03
  -7.55999994       1.58406328E-03
  -7.55000019       1.57719722E-03
  -7.53999996       1.57347741E-03
  -7.53000021       1.57137797E-03
  -7.51999998       1.56977854E-03
  -7.51000023       1.56835432E-03
  -7.50000000       1.56768633E-03
  -7.48999977       1.56903430E-03
  -7.48000002       1.57388754E-03
  -7.46999979       1.58342952E-03
  -7.46000004       1.59813033E-03
  -7.44999981       1.61758123E-03
  -7.44000006       1.64064474E-03