  -16.0000000       0.00000000    
  -15.9899998       0.00000000    
  -15.9799995       0.00000000    
  -15.9700003       0.00000000    
  -15.9600000       0.00000000    
  -15.9499998       0.00000000    
  -15.9399996       0.00000000    
  -15.9300003       0.00000000    
  -15.9200001       0.00000000    
  -15.9099998       0.00000000    
  -15.8999996       0.00000000    
  -15.8900003       0.00000000    
  -15.8800001       3.17851234E-38
  -15.8699999       3.33667505E-37
  -15.8599997       1.33224685E-37
  -15.8500004      -2.13689849E-35
  -15.8400002      -2.17678503E-34
  -15.8299999      -1.27181169E-33
  -15.8199997      -5.19997816E-33
  -15.8100004      -1.54501938E-32
  -15.8000002      -3.07097311E-32
  -15.7900000      -1.72183004E-32
  -15.7799997       1.67491241E-31
  -15.7700005       9.25960316E-31
  -15.7600002       3.13255439E-30
  -15.7500000       8.28217810E-30
  -15.7399998       1.82844298E-29
  -15.7299995       3.44465540E-29
  -15.7200003       5.50963117E-29
  -15.7100000       7.12474913E-29
  -15.6999998       5.96165716E-29
  -15.6899996      -2.74279688E-29
  -15.6800003      -2.72640830E-28
  -15.6700001      -7.93266759E-28
  -15.6599998      -1.69594406E-27
  -15.6499996      -2.92838187E-27
  -15.6400003      -3.97132609E-27
  -15.6300001      -3.41166664E-27
  -15.6199999       1.29898688E-27
  -15.6099997       1.31899546E-26
  -15.6000004       3.32365095E-26
  -15.5900002       5.54385683E-26
  -15.5799999       6.10213924E-26
  -15.5699997       1.70337379E-26
  -15.5600004      -1.11426899E-25
  -15.5500002      -3.26366646E-25
  -15.5400000      -5.41366199E-25
  -15.5299997      -5.33440464E-25
  -15.5200005       3.38925090E-26
  -15.5100002       1.43144688E-24
  -15.5000000       3.48174647E-24
  -15.4899998       5.06678299E-24
  -15.4799995       3.86661908E-24
  -15.4700003      -3.08002004E-24
  -15.4600000      -1.73878622E-23
  -15.4499998      -3.58540374E-23
  -15.4399996      -4.67750845E-23
  -15.4300003      -2.91901475E-23
  -15.4200001       4.04276604E-23
  -15.4099998       1.70440858E-22
  -15.3999996       3.26915344E-22
  -15.3900003       4.08840177E-22
  -15.3800001       2.49590466E-22
  -15.3699999      -3.25119215E-22
  -15.3599997      -1.36369509E-21
  -15.3500004      -2.59951746E-21
  -15.3400002      -3.29263181E-21
  -15.3299999      -2.26007614E-21
  -15.3199997       1.72077377E-21
  -15.3100004       9.03617109E-21
  -15.3000002       1.80341739E-20
  -15.2900000       2.40340590E-20
  -15.2799997       1.94775976E-20
  -15.2700005      -3.72705168E-21
  -15.2600002      -4.91181399E-20
  -15.2500000      -1.08658213E-19
  -15.2399998      -1.56673436E-19
  -15.2299995      -1.49728596E-19
  -15.2200003      -3.80877316E-20
  -15.2100000       2.08004969E-19
  -15.1999998       5.60637894E-19
  -15.1899996       8.98832652E-19
  -15.1800003       9.99637327E-19
  -15.1700001       5.84286108E-19
  -15.1599998      -5.61540503E-19
  -15.1499996      -2.40329076E-18
  -15.1400003      -4.46546299E-18
  -15.1300001      -5.73879380E-18
  -15.1199999      -4.82122799E-18
  -15.1099997      -3.98281106E-19
  -15.1000004       7.94321855E-18
  -15.0900002       1.87670704E-17
  -15.0799999       2.81301958E-17
  -15.0699997       2.97975967E-17
  -15.0600004       1.68634201E-17
  -15.0500002      -1.50607289E-17
  -15.0400000      -6.36529775E-17
  -15.0299997      -1.16177676E-16
  -15.0200005      -1.48552347E-16
  -15.0100002      -1.29601295E-16
  -15.0000000      -3.18891361E-17
  -14.9899998       1.51886719E-16
  -14.9799995       3.91446906E-16
  -14.9700003       6.08401955E-16
  -14.9600000       6.82355237E-16
  -14.9499998       4.81391482E-16
  -14.9399996      -8.22527358E-17
  -14.9300003      -9.82158419E-16
  -14.9200001      -2.01764921E-15
  -14.9099998      -2.79801516E-15
  -14.8999996      -2.80520287E-15
  -14.8900003      -1.55289790E-15
  -14.8800001       1.17393907E-15
  -14.8699999       5.06089480E-15
  -14.8599997       9.09267931E-15
  -14.8500004       1.15941345E-14
  -14.8400002       1.05846652E-14
  -14.8299999       4.46427571E-15
  -14.8199997      -7.08566142E-15
  -14.8100004      -2.22591670E-14
  -14.8000002      -3.67308892E-14
  -14.7900000      -4.41131574E-14
  -14.7799997      -3.75151434E-14
  -14.7700005      -1.21195431E-14
  -14.7600002       3.17734324E-14
  -14.7500000       8.62495364E-14
  -14.7399998       1.35117368E-13
  -14.7299995       1.56239605E-13
  -14.7200003       1.27365390E-13
  -14.7100000       3.48097947E-14
  -14.6999998      -1.17105896E-13
  -14.6899996      -2.99192284E-13
  -14.6800003      -4.56948227E-13
  -14.6700001      -5.19598579E-13
  -14.6599998      -4.19379538E-13
  -14.6499996      -1.18259122E-13
  -14.6400003       3.64736128E-13
  -14.6300001       9.35530950E-13
  -14.6199999       1.42695111E-12
  -14.6099997       1.62819563E-12
  -14.6000004       1.34237847E-12
  -14.5900002       4.62675688E-13
  -14.5799999      -9.52865499E-13
  -14.5699997      -2.63506838E-12
  -14.5600004      -4.11340970E-12
  -14.5500002      -4.79989529E-12
  -14.5400000      -4.14578745E-12
  -14.5299997      -1.84405594E-12
  -14.5200005       1.97524224E-12
  -14.5100002       6.62592594E-12
  -14.5000000       1.08906434E-11
  -14.4899998       1.32321567E-11
  -14.4799995       1.21851036E-11
  -14.4700003       6.86009973E-12
  -14.4600000      -2.56795778E-12
  -14.4499998      -1.45523385E-11
  -14.4399996      -2.62067226E-11
  -14.4300003      -3.37766447E-11
  -14.4200001      -3.35387620E-11
  -14.4099998      -2.29760221E-11
  -14.3999996      -1.94269535E-12
  -14.3900003       2.65493027E-11
  -14.3800001       5.62811325E-11
  -14.3699999       7.87471546E-11
  -14.3599997       8.50428061E-11
  -14.3500004       6.84198184E-11
  -14.3400002       2.69210088E-11
  -14.3299999      -3.46777954E-11
  -14.3199997      -1.04388768E-10
  -14.3100004      -1.64530237E-10
  -14.3000002      -1.95318414E-10
  -14.2900000      -1.80013254E-10
  -14.2799997      -1.10510066E-10
  -14.2700005       8.13599448E-12
  -14.2600002       1.55821689E-10
  -14.2500000       2.99322400E-10
  -14.2399998       3.98388517E-10
  -14.2299995       4.15250362E-10
  -14.2200003       3.25626914E-10
  -14.2100000       1.28481392E-10
  -14.1999998      -1.48478813E-10
  -14.1899996      -4.50005533E-10
  -14.1800003      -7.02299940E-10
  -14.1700001      -8.28924207E-10
  -14.1599998      -7.70671360E-10
  -14.1499996      -5.04751185E-10
  -14.1400003      -5.79382202E-11
  -14.1300001       4.91022722E-10
  -14.1199999       1.02239295E-09
  -14.1099997       1.39925693E-09
  -14.1000004       1.50005197E-09
  -14.0900002       1.25260147E-09
  -14.0799999       6.60825283E-10
  -14.0699997      -1.84171192E-10
  -14.0600004      -1.11403131E-09
  -14.0500002      -1.91467753E-09
  -14.0400000      -2.37428477E-09
  -14.0299997      -2.33734965E-09
  -14.0200005      -1.75139458E-09
  -14.0100002      -6.92972013E-10
  -14.0000000       6.36585895E-10
  -13.9899998       1.94828975E-09
  -13.9799995       2.92955304E-09
  -13.9700003       3.32121264E-09
  -13.9600000       2.98836933E-09
  -13.9499998       1.96537164E-09
  -13.9399996       4.60189498E-10
  -13.9300003      -1.18701515E-09
  -13.9200001      -2.58415445E-09
  -13.9099998      -3.38780892E-09
  -13.8999996      -3.39805384E-09
  -13.8900003      -2.62041588E-09
  -13.8800001      -1.27451871E-09
  -13.8699999       2.57769306E-10
  -13.8599997       1.53511415E-09
  -13.8500004       2.18501195E-09
  -13.8400002       2.02210049E-09
  -13.8299999       1.12015053E-09
  -13.8199997      -1.88804569E-10
  -13.8100004      -1.39599576E-09
  -13.8000002      -1.96268046E-09
  -13.7900000      -1.49536894E-09
  -13.7799997       1.00284489E-10
  -13.7700005       2.53657628E-09
  -13.7600002       5.16671417E-09
  -13.7500000       7.12170234E-09
  -13.7399998       7.53681118E-09
  -13.7299995       5.81400439E-09
  -13.7200003       1.84939153E-09
  -13.7100000      -3.84432530E-09
  -13.6999998      -1.01694599E-08
  -13.6899996      -1.56409392E-08
  -13.6800003      -1.87172393E-08
  -13.6700001      -1.81917130E-08
  -13.6599998      -1.35469236E-08
  -13.6499996      -5.17446042E-09
  -13.6400003       5.61109337E-09
  -13.6300001       1.67876006E-08
  -13.6199999       2.60355062E-08
  -13.6099997       3.12544159E-08
  -13.6000004       3.10634718E-08
  -13.5900002       2.51587355E-08
  -13.5799999       1.44296051E-08
  -13.5699997       7.93154098E-10
  -13.5600004      -1.32239526E-08
  -13.5500002      -2.50589203E-08
  -13.5400000      -3.26995355E-08
  -13.5299997      -3.51323060E-08
  -13.5200005      -3.25307958E-08
  -13.5100002      -2.61279371E-08
  -13.5000000      -1.78003745E-08
  -13.4899998      -9.47462908E-09
  -13.4799995      -2.52168242E-09
  -13.4700003       2.67872990E-09
  -13.4600000       6.85789781E-09
  -13.4499998       1.15950982E-08
  -13.4399996       1.87110061E-08
  -13.4300003       2.94632621E-08
  -13.4200001       4.37679368E-08
  -13.4099998       5.96958216E-08
  -13.3999996       7.34516945E-08
  -13.3900003       7.99415147E-08
  -13.3800001       7.38852748E-08
  -13.3699999       5.12769311E-08
  -13.3599997       1.08644231E-08
  -13.3500004      -4.47373978E-08
  -13.3400002      -1.08659748E-07
  -13.3299999      -1.70352024E-07
  -13.3199997      -2.17146280E-07
  -13.3100004      -2.36608869E-07
  -13.3000002      -2.19257331E-07
  -13.2900000      -1.61073615E-07
  -13.2799997      -6.52187069E-08
  -13.2700005       5.75355799E-08
  -13.2600002       1.89906117E-07
  -13.2500000       3.10658322E-07
  -13.2399998       3.98224643E-07
  -13.2299995       4.34708056E-07
  -13.2200003       4.09466026E-07
  -13.2100000       3.21503563E-07
  -13.1999998       1.80124758E-07
  -13.1899996       3.64519948E-09
  -13.1800003      -1.83619363E-07
  -13.1700001      -3.55488822E-07
  -13.1599998      -4.88332091E-07
  -13.1499996      -5.64844811E-07
  -13.1400003      -5.76435752E-07
  -13.1300001      -5.23798178E-07
  -13.1199999      -4.15674606E-07
  -13.1099997      -2.66256649E-07
  -13.1000004      -9.19723107E-08
  -13.0900002       9.14697580E-08
  -13.0799999       2.71029364E-07
  -13.0699997       4.36845937E-07
  -13.0600004       5.81333040E-07
  -13.0500002       6.97324595E-07
  -13.0400000       7.76077059E-07
  -13.0299997       8.06041839E-07
  -13.0200005       7.73166221E-07
  -13.0100002       6.63086439E-07
  -13.0000000       4.65023419E-07
  -12.9899998       1.76621683E-07
  -12.9799995      -1.91460202E-07
  -12.9700003      -6.12569920E-07
  -12.9600000      -1.04389881E-06
  -12.9499998      -1.42983117E-06
  -12.9399996      -1.70879503E-06
  -12.9300003      -1.82276108E-06
  -12.9200001      -1.72783928E-06
  -12.9099998      -1.40398072E-06
  -12.8999996      -8.61752540E-07
  -12.8900003      -1.44563131E-07
  -12.8800001       6.74502303E-07
  -12.8699999       1.50107178E-06
  -12.8599997       2.23190864E-06
  -12.8500004       2.76933861E-06
  -12.8400002       3.03524803E-06
  -12.8299999       2.98225814E-06
  -12.8199997       2.60024512E-06
  -12.8100004       1.91729237E-06
  -12.8000002       9.95242431E-07
  -12.7900000      -7.89739190E-08
  -12.7799997      -1.20437244E-06
  -12.7700005      -2.27721466E-06
  -12.7600002      -3.20074332E-06
  -12.7500000      -3.89220713E-06
  -12.7399998      -4.28693011E-06
  -12.7299995      -4.34002686E-06
  -12.7200003      -4.02694468E-06
  -12.7100000      -3.34414381E-06
  -12.6999998      -2.31082686E-06
  -12.6899996      -9.71868644E-07
  -12.6800003       5.98860481E-07
  -12.6700001       2.29639841E-06
  -12.6599998       3.98584689E-06
  -12.6499996       5.50864070E-06
  -12.6400003       6.69489646E-06
  -12.6300001       7.38150902E-06
  -12.6199999       7.43407645E-06
  -12.6099997       6.76937816E-06
  -12.6000004       5.37432197E-06
  -12.5900002       3.31729416E-06
  -12.5799999       7.48823879E-07
  -12.5699997      -2.10979124E-06
  -12.5600004      -4.98905774E-06
  -12.5500002      -7.60202602E-06
  -12.5400000      -9.67853521E-06
  -12.5299997      -1.09975281E-05
  -12.5200005      -1.14123550E-05
  -12.5100002      -1.08653376E-05
  -12.5000000      -9.38999165E-06
  -12.4899998      -7.10160339E-06
  -12.4799995      -4.17894398E-06
  -12.4700003      -8.41213080E-07
  -12.4600000       2.67542305E-06
  -12.4499998       6.13800285E-06
  -12.4399996       9.33153206E-06
  -12.4300003       1.20678969E-05
  -12.4200001       1.41904302E-05
  -12.4099998       1.55763937E-05
  -12.3999996       1.61400039E-05
  -12.3900003       1.58377661E-05
  -12.3800001       1.46764432E-05
  -12.3699999       1.27222174E-05
  -12.3599997       1.01081450E-05
  -12.3500004       7.03622845E-06
  -12.3400002       3.77067295E-06
  -12.3299999       6.20243725E-07
  -12.3199997      -2.09025688E-06
  -12.3100004      -4.05684614E-06
  -12.3000002      -5.03671799E-06
  -12.2900000      -4.88580554E-06
  -12.2799997      -3.58690932E-06
  -12.2700005      -1.26282816E-06
  -12.2600002       1.82888618E-06
  -12.2500000       5.31986416E-06
  -12.2399998       8.77069851E-06
  -12.2299995       1.17210357E-05
  -12.2200003       1.37426396E-05
  -12.2100000       1.44877331E-05
  -12.1999998       1.37259776E-05
  -12.1899996       1.13655096E-05
  -12.1800003       7.45642092E-06
  -12.1700001       2.17789375E-06
  -12.1599998      -4.18718264E-06
  -12.1499996      -1.12848456E-05
  -12.1400003      -1.87241912E-05
  -12.1300001      -2.61081404E-05
  -12.1199999      -3.30575567E-05
  -12.1099997      -3.92275870E-05
  -12.1000004      -4.43171812E-05
  -12.0900002      -4.80742201E-05
  -12.0799999      -5.02993353E-05
  -12.0699997      -5.08512203E-05
  -12.0600004      -4.96548892E-05
  -12.0500002      -4.67125719E-05
  -12.0400000      -4.21152326E-05
  -12.0299997      -3.60510239E-05
  -12.0200005      -2.88067677E-05
  -12.0100002      -2.07587636E-05
  -12.0000000      -1.23512573E-05
  -11.9899998      -4.06290565E-06
  -11.9799995       3.63538857E-06
  -11.9700003       1.03259163E-05
  -11.9600000       1.56858896E-05
  -11.9499998       1.95187367E-05
  -11.9399996       2.17695360E-05
  -11.9300003       2.25220738E-05
  -11.9200001       2.19782341E-05
  -11.9099998       2.04239986E-05
  -11.8999996       1.81886189E-05
  -11.8900003       1.56047772E-05
  -11.8800001       1.29766822E-05
  -11.8699999       1.05610115E-05
  -11.8599997       8.56194310E-06
  -11.8500004       7.13816962E-06
  -11.8400002       6.41685574E-06
  -11.8299999       6.50771017E-06
  -11.8199997       7.51096150E-06
  -11.8100004       9.51496986E-06
  -11.8000002       1.25824117E-05
  -11.7900000       1.67279104E-05
  -11.7799997       2.18927944E-05
  -11.7700005       2.79245087E-05
  -11.7600002       3.45675835E-05
  -11.7500000       4.14710921E-05
  -11.7399998       4.82134274E-05
  -11.7299995       5.43414644E-05
  -11.7200003       5.94171797E-05
  -11.7100000       6.30633003E-05
  -11.6999998       6.49990470E-05
  -11.6899996       6.50599177E-05
  -11.6800003       6.31988078E-05
  -11.6700001       5.94704106E-05
  -11.6599998       5.40047586E-05
  -11.6499996       4.69779552E-05
  -11.6400003       3.85884559E-05
  -11.6300001       2.90447970E-05
  -11.6199999       1.85673252E-05
  -11.6099997       7.40146243E-06
  -11.6000004      -4.16353532E-06
  -11.5900002      -1.57788181E-05
  -11.5799999      -2.70315941E-05
  -11.5699997      -3.74582487E-05
  -11.5600004      -4.65763769E-05
  -11.5500002      -5.39325920E-05
  -11.5400000      -5.91579083E-05
  -11.5299997      -6.20201536E-05
  -11.5200005      -6.24622771E-05
  -11.5100002      -6.06180001E-05
  -11.5000000      -5.68006799E-05
  -11.4899998      -5.14668573E-05
  -11.4799995      -4.51610613E-05
  -11.4700003      -3.84523591E-05
  -11.4600000      -3.18741950E-05
  -11.4499998      -2.58775472E-05
  -11.4399996      -2.08041765E-05
  -11.4300003      -1.68812803E-05
  -11.4200001      -1.42344725E-05
  -11.4099998      -1.29119544E-05
  -11.3999996      -1.29112705E-05
  -11.3900003      -1.42005365E-05
  -11.3800001      -1.67286962E-05
  -11.3699999      -2.04230855E-05
  -11.3599997      -2.51763850E-05
  -11.3500004      -3.08281815E-05
  -11.3400002      -3.71477872E-05
  -11.3299999      -4.38244497E-05
  -11.3199997      -5.04697709E-05
  -11.3100004      -5.66338640E-05
  -11.3000002      -6.18343547E-05
  -11.2900000      -6.55946496E-05
  -11.2799997      -6.74864132E-05
  -11.2700005      -6.71709859E-05
  -11.2600002      -6.44347165E-05
  -11.2500000      -5.92143115E-05
  -11.2399998      -5.16096770E-05
  -11.2299995      -4.18830823E-05
  -11.2200003      -3.04444766E-05
  -11.2100000      -1.78242499E-05
  -11.1999998      -4.63564356E-06
  -11.1899996       8.46987132E-06
  -11.1800003       2.08497349E-05
  -11.1700001       3.19150822E-05
  -11.1599998       4.11679503E-05
  -11.1499996       4.82271062E-05
  -11.1400003       5.28397541E-05
  -11.1300001       5.48796779E-05
  -11.1199999       5.43343849E-05
  -11.1099997       5.12862753E-05
  -11.1000004       4.58938775E-05
  -11.0900002       3.83784754E-05
  -11.0799999       2.90194293E-05
  -11.0699997       1.81583400E-05
  -11.0600004       6.20845412E-06
  -11.0500002      -6.33695754E-06
  -11.0400000      -1.89047732E-05
  -11.0299997      -3.08572926E-05
  -11.0200005      -4.15260620E-05
  -11.0100002      -5.02632029E-05
  -11.0000000      -5.65038717E-05
  -10.9899998      -5.98300503E-05
  -10.9799995      -6.00234489E-05
  -10.9700003      -5.70964694E-05
  -10.9600000      -5.12938095E-05
  -10.9499998      -4.30628097E-05
  -10.9399996      -3.29972354E-05
  -10.9300003      -2.17642737E-05
  -10.9200001      -1.00281877E-05
  -10.9099998       1.61600212E-06
  -10.8999996       1.26882060E-05
  -10.8900003       2.28429071E-05
  -10.8800001       3.18633502E-05
  -10.8699999       3.96366777E-05
  -10.8599997       4.61196723E-05
  -10.8500004       5.13057166E-05
  -10.8400002       5.52014972E-05
  -10.8299999       5.78179752E-05
  -10.8199997       5.91749049E-05
  -10.8100004       5.93144068E-05
  -10.8000002       5.83162473E-05
  -10.7900000       5.63076610E-05
  -10.7799997       5.34628343E-05
  -10.7700005       4.99905836E-05
  -10.7600002       4.61132695E-05
  -10.7500000       4.20422402E-05
  -10.7399998       3.79565172E-05
  -10.7299995       3.39900762E-05
  -10.7200003       3.02303451E-05
  -10.7100000       2.67266696E-05
  -10.6999998       2.35048010E-05
  -10.6899996       2.05816013E-05
  -10.6800003       1.79748768E-05
  -10.6700001       1.57053710E-05
  -10.6599998       1.37916777E-05
  -10.6499996       1.22416068E-05
  -10.6400003       1.10458650E-05
  -10.6300001       1.01791338E-05
  -10.6199999       9.61159822E-06
  -10.6099997       9.32972034E-06
  -10.6000004       9.36093602E-06
  -10.5900002       9.79423294E-06
  -10.5799999       1.07874212E-05
  -10.5699997       1.25549759E-05
  -10.5600004       1.53343481E-05
  -10.5500002       1.93353007E-05
  -10.5400000       2.46821692E-05
  -10.5299997       3.13622368E-05
  -10.5200005       3.91939284E-05
  -10.5100002       4.78245347E-05
  -10.5000000       5.67605530E-05
  -10.4899998       6.54263495E-05
  -10.4799995       7.32390254E-05
  -10.4700003       7.96838431E-05
  -10.4600000       8.43734015E-05
  -10.4499998       8.70783260E-05
  -10.4399996       8.77241255E-05
  -10.4300003       8.63574533E-05
  -10.4200001       8.30930512E-05
  -10.4099998       7.80570408E-05
  -10.3999996       7.13431218E-05
  -10.3900003       6.29941424E-05
  -10.3800001       5.30141515E-05
  -10.3699999       4.14076385E-05
  -10.3599997       2.82347391E-05
  -10.3500004       1.36662875E-05
  -10.3400002      -1.97766826E-06
  -10.3299999      -1.82186159E-05
  -10.3199997      -3.44450818E-05
  -10.3100004      -4.99699854E-05
  -10.3000002      -6.41090737E-05
  -10.2900000      -7.62648560E-05
  -10.2799997      -8.59990469E-05
  -10.2700005      -9.30795868E-05
  -10.2600002      -9.74939030E-05
  -10.2500000      -9.94273578E-05
  -10.2399998      -9.92126224E-05
  -10.2299995      -9.72610724E-05
  -10.2200003      -9.39887977E-05
  -10.2100000      -8.97502323E-05
  -10.1999998      -8.47891497E-05
  -10.1899996      -7.92132996E-05
  -10.1800003      -7.29945968E-05
  -10.1700001      -6.59936704E-05
  -10.1599998      -5.80042251E-05
  -10.1499996      -4.88113001E-05
  -10.1400003      -3.82552935E-05
  -10.1300001      -2.62930807E-05
  -10.1199999      -1.30463723E-05
  -10.1099997       1.17162347E-06
  -10.1000004       1.58587718E-05
  -10.0900002       3.03593133E-05
  -10.0799999       4.39300857E-05
  -10.0699997       5.58292959E-05
  -10.0600004       6.54142132E-05
  -10.0500002       7.22294353E-05
  -10.0400000       7.60681651E-05
  -10.0299997       7.69920807E-05
  -10.0200005       7.53040076E-05
  -10.0100002       7.14768903E-05
  -10.0000000       6.60535734E-05
  -9.98999977       5.95382917E-05
  -9.97999954       5.23041854E-05
  -9.97000027       4.45377336E-05
  -9.96000004       3.62324645E-05
  -9.94999981       2.72333582E-05
  -9.93999958       1.73211083E-05
  -9.93000031       6.31617604E-06
  -9.92000008      -5.82144548E-06
  -9.90999985      -1.89195162E-05
  -9.89999962      -3.25631045E-05
  -9.89000034      -4.61122618E-05
  -9.88000011      -5.87618670E-05
  -9.86999989      -6.96290954E-05
  -9.85999966      -7.78504400E-05
  -9.85000038      -8.26691467E-05
  -9.84000015      -8.34996899E-05
  -9.82999992      -7.99627014E-05
  -9.81999969      -7.18919327E-05
  -9.81000042      -5.93194054E-05
  -9.80000019      -4.24498539E-05
  -9.78999996      -2.16331355E-05
  -9.77999973       2.65872472E-06
  -9.77000046       2.98475388E-05
  -9.76000023       5.92607648E-05
  -9.75000000       9.01436579E-05
  -9.73999977       1.21677236E-04
  -9.72999954       1.53006433E-04
  -9.72000027       1.83279044E-04
  -9.71000004       2.11693012E-04
  -9.69999981       2.37546788E-04
  -9.68999958       2.60285626E-04
  -9.68000031       2.79536238E-04
  -9.67000008       2.95123202E-04
  -9.65999985       3.07064998E-04
  -9.64999962       3.15547193E-04
  -9.64000034       3.20877181E-04
  -9.63000011       3.23424407E-04
  -9.61999989       3.23554967E-04
  -9.60999966       3.21568077E-04
  -9.60000038       3.17644037E-04
  -9.59000015       3.11810785E-04
  -9.57999992       3.03934969E-04
  -9.56999969       2.93739722E-04
  -9.56000042       2.80847773E-04
  -9.55000019       2.64844159E-04
  -9.53999996       2.45350850E-04
  -9.52999973       2.22100614E-04
  -9.52000046       1.94999899E-04
  -9.51000023       1.64169396E-04
  -9.50000000       1.29956185E-04
  -9.48999977       9.29149392E-05
  -9.47999954       5.37623746E-05
  -9.47000027       1.33128178E-05
  -9.46000004      -2.75928287E-05
  -9.44999981      -6.81520323E-05
  -9.43999958      -1.07649314E-04
  -9.43000031      -1.45481143E-04
  -9.42000008      -1.81156895E-04
  -9.40999985      -2.14280459E-04
  -9.39999962      -2.44520925E-04
  -9.39000034      -2.71583267E-04
  -9.38000011      -2.95187958E-04
  -9.36999989      -3.15063895E-04
  -9.35999966      -3.30956071E-04
  -9.35000038      -3.42641404E-04
  -9.34000015      -3.49946989E-04
  -9.32999992      -3.52761359E-04
  -9.31999969      -3.51035618E-04
  -9.31000042      -3.44773405E-04
  -9.30000019      -3.34015000E-04
  -9.28999996      -3.18823208E-04
  -9.27999973      -2.99278967E-04
  -9.27000046      -2.75491242E-04
  -9.26000023      -2.47620366E-04
  -9.25000000      -2.15907945E-04
  -9.23999977      -1.80702176E-04
  -9.22999954      -1.42466452E-04
  -9.22000027      -1.01763857E-04
  -9.21000004      -5.92157376E-05
  -9.19999981      -1.54414047E-05
  -9.18999958       2.90061653E-05
  -9.18000031       7.36926959E-05
  -9.17000008       1.18327400E-04
  -9.15999985       1.62752476E-04
  -9.14999962       2.06898956E-04
  -9.14000034       2.50720215E-04
  -9.13000011       2.94120691E-04
  -9.11999989       3.36899044E-04
  -9.10999966       3.78719677E-04
  -9.10000038       4.19118471E-04
  -9.09000015       4.57540940E-04
  -9.07999992       4.93398635E-04
  -9.06999969       5.26129326E-04
  -9.06000042       5.55245322E-04
  -9.05000019       5.80360705E-04
  -9.03999996       6.01194915E-04
  -9.02999973       6.17556565E-04
  -9.02000046       6.29318471E-04
  -9.01000023       6.36393437E-04
  -9.00000000       6.38718600E-04
  -8.98999977       6.36252400E-04
  -8.97999954       6.28983486E-04
  -8.97000027       6.16945792E-04
  -8.96000004       6.00235653E-04
  -8.94999981       5.79023617E-04
  -8.93999958       5.53558755E-04
  -8.93000031       5.24163246E-04
  -8.92000008       4.91216895E-04
  -8.90999985       4.55133064E-04
  -8.89999962       4.16328985E-04
  -8.89000034       3.75193718E-04
  -8.88000011       3.32060445E-04
  -8.86999989       2.87190080E-04
  -8.85999966       2.40773326E-04
  -8.85000038       1.92954700E-04
  -8.84000015       1.43879020E-04
  -8.82999992       9.37500081E-05
  -8.81999969       4.28877865E-05
  -8.81000042      -8.23281516E-06
  -8.80000019      -5.89798765E-05
  -8.78999996      -1.08603061E-04
  -8.77999973      -1.56309587E-04
  -8.77000046      -2.01358431E-04
  -8.76000023      -2.43144910E-04
  -8.75000000      -2.81249173E-04
  -8.73999977      -3.15429439E-04
  -8.72999954      -3.45559383E-04
  -8.72000027      -3.71528673E-04
  -8.71000004      -3.93140916E-04
  -8.69999981      -4.10047563E-04
  -8.68999958      -4.21750447E-04
  -8.68000031      -4.27681196E-04
  -8.67000008      -4.27342486E-04
  -8.65999985      -4.20470431E-04
  -8.64999962      -4.07167274E-04
  -8.64000034      -3.87956417E-04
  -8.63000011      -3.63736384E-04
  -8.61999989      -3.35639081E-04
  -8.60999966      -3.04830581E-04
  -8.60000038      -2.72313482E-04
  -8.59000015      -2.38789551E-04
  -8.57999992      -2.04623851E-04
  -8.56999969      -1.69916573E-04
  -8.56000042      -1.34654983E-04
  -8.55000019      -9.88873071E-05
  -8.53999996      -6.28563284E-05
  -8.52999973      -2.70426481E-05
  -8.52000046       7.89749811E-06
  -8.51000023       4.12777081E-05
  -8.50000000       7.25549471E-05
  -8.48999977       1.01464844E-04
  -8.47999954       1.28064305E-04
  -8.47000027       1.52658802E-04
  -8.46000004       1.75633540E-04
  -8.44999981       1.97244764E-04
  -8.43999958       2.17443390E-04
  -8.43000031       2.35796440E-04
  -8.42000008       2.51539052E-04
  -8.40999985       2.63746799E-04
  -8.39999962       2.71576195E-04
  -8.39000034       2.74497201E-04
  -8.38000011       2.72443402E-04
  -8.36999989       2.65831623E-04
  -8.35999966       2.55447725E-04
  -8.35000038       2.42237016E-04
  -8.34000015       2.27070574E-04
  -8.32999992       2.10563274E-04
  -8.31999969       1.92999316E-04
  -8.31000042       1.74384608E-04
  -8.30000019       1.54599082E-04
  -8.28999996       1.33592446E-04
  -8.27999973       1.11551461E-04
  -8.27000046       8.89802832E-05
  -8.26000023       6.66685009E-05
  -8.25000000       4.55578411E-05
  -8.23999977       2.65544986E-05
  -8.22999954       1.03493403E-05
  -8.22000027      -2.69680913E-06
  -8.21000004      -1.25703546E-05
  -8.19999981      -1.95252469E-05
  -8.18999958      -2.39361143E-05
  -8.18000031      -2.61378063E-05
  -8.17000008      -2.63006095E-05
  -8.15999985      -2.43771719E-05
  -8.14999962      -2.01332077E-05
  -8.14000034      -1.32431578E-05
  -8.13000011      -3.41689611E-06
  -8.11999989       9.48473462E-06
  -8.10999966       2.53793842E-05
  -8.10000038       4.39561773E-05
  -8.09000015       6.47286579E-05
  -8.07999992       8.71290467E-05
  -8.06999969       1.10615954E-04
  -8.06000042       1.34766262E-04
  -8.05000019       1.59329167E-04
  -8.03999996       1.84234174E-04
  -8.02999973       2.09554826E-04
  -8.02000046       2.35439802E-04
  -8.01000023       2.62032903E-04
  -8.00000000       2.89400923E-04
  -7.98999977       3.17487924E-04
  -7.98000002       3.46105575E-04
  -7.96999979       3.74961732E-04
  -7.96000004       4.03716229E-04
  -7.94999981       4.32050205E-04
  -7.94000006       4.59720119E-04
  -7.92999983       4.86583274E-04
  -7.92000008       5.12579049E-04
  -7.90999985       5.37669752E-04
  -7.90000010       5.61759807E-04
  -7.88999987       5.84621041E-04
  -7.88000011       6.05855079E-04
  -7.86999989       6.24912034E-04
  -7.86000013       6.41172228E-04
  -7.84999990       6.54065690E-04
  -7.84000015       6.63195853E-04
  -7.82999992       6.68422144E-04
  -7.82000017       6.69869711E-04
  -7.80999994       6.67854736E-04
  -7.80000019       6.62751030E-04
  -7.78999996       6.54838455E-04
  -7.78000021       6.44196931E-04
  -7.76999998       6.30685710E-04
  -7.76000023       6.14027493E-04
  -7.75000000       5.93972625E-04
  -7.73999977       5.70484961E-04
  -7.73000002       5.43880218E-04
  -7.71999979       5.14852291E-04
  -7.71000004       4.84367047E-04
  -7.69999981       4.53447399E-04
  -7.69000006       4.22917423E-04
  -7.67999983       3.93196649E-04
  -7.67000008       3.64223932E-04
  -7.65999985       3.35545250E-04
  -7.65000010       3.06545175E-04
  -7.63999987       2.76744977E-04
  -7.63000011       2.46061361E-04
  -7.61999989       2.14930173E-04
  -7.61000013       1.84245626E-04
  -7.59999990       1.55131042E-04
  -7.59000015       1.28624117E-04
  -7.57999992       1.05391220E-04
  -7.57000017       8.55829858E-05
  -7.55999994       6.88875516E-05
  -7.55000019       5.47663149E-05
  -7.53999996       4.27844716E-05
  -7.53000021       3.29070426E-05
  -7.51999998       2.56350686E-05
  -7.51000023       2.19181202E-05
  -7.50000000       2.28582248E-05
  -7.48999977       2.93057637E-05
  -7.48000002       4.14963906E-05
  -7.46999979       5.88688708E-05
  -7.46000004       8.01463975E-05
  -7.44999981       1.03665683E-04
  -7.44000006       1.27846593E-04