  -16.0000000       0.00000000    
  -15.9899998       0.00000000    
  -15.9799995       0.00000000    
  -15.9700003       0.00000000    
  -15.9600000       0.00000000    
  -15.9499998       0.00000000    
  -15.9399996       0.00000000    
  -15.9300003       0.00000000    
  -15.9200001       0.00000000    
  -15.9099998       0.00000000    
  -15.8999996       0.00000000    
  -15.8900003       0.00000000    
  -15.8800001       0.00000000    
  -15.8699999       3.85384386E-37
  -15.8599997       7.71324826E-36
  -15.8500004       7.85317470E-35
  -15.8400002       5.45382864E-34
  -15.8299999       2.93539913E-33
  -15.8199997       1.32427373E-32
  -15.8100004       5.29107522E-32
  -15.8000002       1.94075175E-31
  -15.7900000       6.63760424E-31
  -15.7799997       2.11143461E-30
  -15.7700005       6.16106569E-30
  -15.7600002       1.61700010E-29
  -15.7500000       3.71798007E-29
  -15.7399998       7.15410632E-29
  -15.7299995       1.02104777E-28
  -15.7200003       4.99276424E-29
  -15.7100000      -3.04496024E-28
  -15.6999998      -1.42217398E-27
  -15.6899996      -4.04352189E-27
  -15.6800003      -8.95008149E-27
  -15.6700001      -1.60912664E-26
  -15.6599998      -2.26990797E-26
  -15.6499996      -2.04070227E-26
  -15.6400003       7.45231890E-27
  -15.6300001       8.51231268E-26
  -15.6199999       2.34614851E-25
  -15.6099997       4.50316515E-25
  -15.6000004       6.55841207E-25
  -15.5900002       6.54487621E-25
  -15.5799999       1.09333065E-25
  -15.5699997      -1.38134544E-24
  -15.5600004      -4.03287743E-24
  -15.5500002      -7.40253505E-24
  -15.5400000      -9.78206061E-24
  -15.5299997      -7.78256721E-24
  -15.5200005       3.25025879E-24
  -15.5100002       2.71517877E-23
  -15.5000000       6.25765554E-23
  -15.4899998       9.68108531E-23
  -15.4799995       1.00357275E-22
  -15.4700003       2.77965174E-23
  -15.4600000      -1.67244772E-22
  -15.4499998      -4.96100563E-22
  -15.4399996      -8.78781658E-22
  -15.4300003      -1.08511334E-21
  -15.4200001      -7.15890438E-22
  -15.4099998       7.09941645E-22
  -15.3999996       3.49386672E-21
  -15.3900003       7.30088269E-21
  -15.3800001       1.06053618E-20
  -15.3699999       1.03289914E-20
  -15.3599997       2.16552492E-21
  -15.3500004      -1.78250103E-20
  -15.3400002      -4.99952938E-20
  -15.3299999      -8.66406099E-20
  -15.3199997      -1.07946288E-19
  -15.3100004      -8.15840419E-20
  -15.3000002       2.97460417E-20
  -15.2900000       2.49215198E-19
  -15.2799997       5.55378576E-19
  -15.2700005       8.48057824E-19
  -15.2600002       9.28666368E-19
  -15.2500000       5.22101152E-19
  -15.2399998      -6.31689658E-19
  -15.2299995      -2.60403095E-18
  -15.2200003      -5.04753551E-18
  -15.2100000      -6.99410821E-18
  -15.1999998      -6.82734033E-18
  -15.1899996      -2.60726729E-18
  -15.1800003       7.11875275E-18
  -15.1700001       2.20469805E-17
  -15.1599998       3.87033772E-17
  -15.1499996       4.95513083E-17
  -15.1400003       4.35635728E-17
  -15.1300001       9.18452300E-18
  -15.1199999      -5.99330735E-17
  -15.1099997      -1.57216991E-16
  -15.1000004      -2.55989609E-16
  -15.0900002      -3.07002698E-16
  -15.0799999      -2.45680715E-16
  -15.0699997      -1.28562818E-17
  -15.0600004       4.11296620E-16
  -15.0500002       9.67343601E-16
  -15.0400000       1.48621724E-15
  -15.0299997       1.69040089E-15
  -15.0200005       1.24878427E-15
  -15.0100002      -1.03403909E-16
  -15.0000000      -2.39185037E-15
  -14.9899998      -5.22362550E-15
  -14.9799995      -7.68114210E-15
  -14.9700003      -8.38852388E-15
  -14.9600000      -5.83344899E-15
  -14.9499998       1.03734876E-15
  -14.9399996       1.20450389E-14
  -14.9300003       2.50654854E-14
  -14.9200001       3.57334435E-14
  -14.9099998       3.79526427E-14
  -14.8999996       2.54765725E-14
  -14.8900003      -5.49177411E-15
  -14.8800001      -5.32066998E-14
  -14.8699999      -1.07839403E-13
  -14.8599997      -1.50892292E-13
  -14.8500004      -1.57924550E-13
  -14.8400002      -1.05292938E-13
  -14.8299999       1.96956234E-14
  -14.8199997       2.07566589E-13
  -14.8100004       4.18437691E-13
  -14.8000002       5.81691650E-13
  -14.7900000       6.07811598E-13
  -14.7799997       4.13879922E-13
  -14.7700005      -4.05162015E-14
  -14.7600002      -7.15983425E-13
  -14.7500000      -1.46860594E-12
  -14.7399998      -2.05356175E-12
  -14.7299995      -2.16922986E-12
  -14.7200003      -1.54392742E-12
  -14.7100000      -5.19497267E-14
  -14.6999998       2.17163483E-12
  -14.6899996       4.66126053E-12
  -14.6800003       6.64232081E-12
  -14.6700001       7.17577950E-12
  -14.6599998       5.42582776E-12
  -14.6499996       1.00483630E-12
  -14.6400003      -5.69750367E-12
  -14.6300001      -1.33263270E-11
  -14.6199999      -1.96398089E-11
  -14.6099997      -2.19319320E-11
  -14.6000004      -1.77858683E-11
  -14.5900002      -6.02045584E-12
  -14.5799999       1.24266561E-11
  -14.5699997       3.40105340E-11
  -14.5600004       5.27984323E-11
  -14.5500002       6.15789364E-11
  -14.5400000       5.38004294E-11
  -14.5299997       2.59729564E-11
  -14.5200005      -2.01144969E-11
  -14.5100002      -7.61636379E-11
  -14.5000000      -1.27861513E-10
  -14.4899998      -1.57496932E-10
  -14.4799995      -1.48520973E-10
  -14.4700003      -9.11755810E-11
  -14.4600000       1.23054743E-11
  -14.4499998       1.44723900E-10
  -14.4399996       2.74786277E-10
  -14.4300003       3.62646413E-10
  -14.4200001       3.69696468E-10
  -14.4099998       2.70707901E-10
  -14.3999996       6.51619453E-11
  -14.3900003      -2.15966009E-10
  -14.3800001      -5.11231890E-10
  -14.3699999      -7.39234229E-10
  -14.3599997      -8.17721446E-10
  -14.3500004      -6.87565282E-10
  -14.3400002      -3.35485473E-10
  -14.3299999       1.91590840E-10
  -14.3199997       7.86686716E-10
  -14.3100004       1.30052913E-09
  -14.3000002       1.57530633E-09
  -14.2900000       1.48770918E-09
  -14.2799997       9.90423854E-10
  -14.2700005       1.39648973E-10
  -14.2600002      -9.01967334E-10
  -14.2500000      -1.89212934E-09
  -14.2399998      -2.56277022E-09
  -14.2299995      -2.68982481E-09
  -14.2200003      -2.16129603E-09
  -14.2100000      -1.02376063E-09
  -14.1999998       5.09145448E-10
  -14.1899996       2.09396522E-09
  -14.1800003       3.33568528E-09
  -14.1700001       3.88957933E-09
  -14.1599998       3.56017993E-09
  -14.1499996       2.36834174E-09
  -14.1400003       5.63476321E-10
  -14.1300001      -1.42829659E-09
  -14.1199999      -3.11121484E-09
  -14.1099997      -4.05576417E-09
  -14.1000004      -4.02542177E-09
  -14.0900002      -3.05503711E-09
  -14.0799999      -1.45256240E-09
  -14.0699997       2.83743695E-10
  -14.0600004       1.61468516E-09
  -14.0500002       2.13541962E-09
  -14.0400000       1.72307335E-09
  -14.0299997       6.05528350E-10
  -14.0200005      -6.81017076E-10
  -14.0100002      -1.44669798E-09
  -14.0000000      -1.08006737E-09
  -13.9899998       7.06744940E-10
  -13.9799995       3.69811004E-09
  -13.9700003       7.12967685E-09
  -13.9600000       9.81651382E-09
  -13.9499998       1.04458895E-08
  -13.9399996       7.97452415E-09
  -13.9300003       2.02883088E-09
  -13.9200001      -6.81035717E-09
  -13.9099998      -1.69440071E-08
  -13.8999996      -2.59699764E-08
  -13.8900003      -3.11676907E-08
  -13.8800001      -3.01660137E-08
  -13.8699999      -2.16460894E-08
  -13.8599997      -5.89802296E-09
  -13.8500004       1.49368535E-08
  -13.8400002       3.70507998E-08
  -13.8299999       5.56001787E-08
  -13.8199997       6.56917791E-08
  -13.8100004       6.35346709E-08
  -13.8000002       4.75001656E-08
  -13.7900000       1.88241067E-08
  -13.7799997      -1.82643358E-08
  -13.7700005      -5.70905705E-08
  -13.7600002      -8.97159040E-08
  -13.7500000      -1.08552577E-07
  -13.7399998      -1.08087733E-07
  -13.7299995      -8.63302532E-08
  -13.7200003      -4.56139304E-08
  -13.7100000       7.49712825E-09
  -13.6999998       6.32708321E-08
  -13.6899996       1.10684098E-07
  -13.6800003       1.39755613E-07
  -13.6700001       1.43825844E-07
  -13.6599998       1.21240873E-07
  -13.6499996       7.59884315E-08
  -13.6400003       1.70487908E-08
  -13.6300001      -4.34826930E-08
  -13.6199999      -9.31275608E-08
  -13.6099997      -1.21994361E-07
  -13.6000004      -1.25245592E-07
  -13.5900002      -1.04392761E-07
  -13.5799999      -6.69941969E-08
  -13.5699997      -2.47161687E-08
  -13.5600004       9.83941373E-09
  -13.5500002       2.67722644E-08
  -13.5400000       2.20070824E-08
  -13.5299997      -1.03053421E-09
  -13.5200005      -3.18081952E-08
  -13.5100002      -5.52674813E-08
  -13.5000000      -5.60954163E-08
  -13.4899998      -2.36604460E-08
  -13.4799995       4.37256311E-08
  -13.4700003       1.36533870E-07
  -13.4600000       2.34650827E-07
  -13.4499998       3.11145016E-07
  -13.4399996       3.38553207E-07
  -13.4300003       2.96305387E-07
  -13.4200001       1.77434657E-07
  -13.4099998      -7.31933714E-09
  -13.3999996      -2.29422426E-07
  -13.3900003      -4.46984529E-07
  -13.3800001      -6.13099758E-07
  -13.3699999      -6.86386272E-07
  -13.3599997      -6.41282668E-07
  -13.3500004      -4.75489941E-07
  -13.3400002      -2.12446594E-07
  -13.3299999       1.02190931E-07
  -13.3199997       4.09653211E-07
  -13.3100004       6.50869936E-07
  -13.3000002       7.80045355E-07
  -13.2900000       7.75642434E-07
  -13.2799997       6.45853049E-07
  -13.2700005       4.26839875E-07
  -13.2600002       1.73827971E-07
  -13.2500000      -5.30750199E-08
  -13.2399998      -2.04884671E-07
  -13.2299995      -2.57438842E-07
  -13.2200003      -2.18946468E-07
  -13.2100000      -1.28868152E-07
  -13.1999998      -4.77337316E-08
  -13.1899996      -3.98508391E-08
  -13.1800003      -1.52981670E-07
  -13.1700001      -4.00233972E-07
  -13.1599998      -7.49382195E-07
  -13.1499996      -1.12343491E-06
  -13.1400003      -1.41370799E-06
  -13.1300001      -1.50361575E-06
  -13.1199999      -1.29837201E-06
  -13.1099997      -7.53835934E-07
  -13.1000004       1.02865627E-07
  -13.0900002       1.16704473E-06
  -13.0799999       2.26772818E-06
  -13.0699997       3.19586957E-06
  -13.0600004       3.74471142E-06
  -13.0500002       3.75425702E-06
  -13.0400000       3.15006423E-06
  -13.0299997       1.96716519E-06
  -13.0200005       3.52520516E-07
  -13.0100002      -1.45596346E-06
  -13.0000000      -3.17085801E-06
  -12.9899998      -4.50902462E-06
  -12.9799995      -5.24667712E-06
  -12.9700003      -5.26371559E-06
  -12.9600000      -4.56721409E-06
  -12.9499998      -3.28841656E-06
  -12.9399996      -1.65336542E-06
  -12.9300003       6.64478534E-08
  -12.9200001       1.61235380E-06
  -12.9099998       2.79214055E-06
  -12.8999996       3.51622339E-06
  -12.8900003       3.80747952E-06
  -12.8800001       3.78208961E-06
  -12.8699999       3.60577201E-06
  -12.8599997       3.43643637E-06
  -12.8500004       3.36813946E-06
  -12.8400002       3.39192684E-06
  -12.8299999       3.38579116E-06
  -12.8199997       3.13922965E-06
  -12.8100004       2.40951545E-06
  -12.8000002       9.97998541E-07
  -12.7900000      -1.17147033E-06
  -12.7799997      -3.99267128E-06
  -12.7700005      -7.15387705E-06
  -12.7600002      -1.01627566E-05
  -12.7500000      -1.24202470E-05
  -12.7399998      -1.33326112E-05
  -12.7299995      -1.24405688E-05
  -12.7200003      -9.53842300E-06
  -12.7100000      -4.75537945E-06
  -12.6999998       1.42283739E-06
  -12.6899996       8.20248260E-06
  -12.6800003       1.45963641E-05
  -12.6700001       1.95856574E-05
  -12.6599998       2.22990056E-05
  -12.6499996       2.21734226E-05
  -12.6400003       1.90637729E-05
  -12.6300001       1.32778978E-05
  -12.6199999       5.52911888E-06
  -12.6099997      -3.18442494E-06
  -12.6000004      -1.17485624E-05
  -12.5900002      -1.91147301E-05
  -12.5799999      -2.44576204E-05
  -12.5699997      -2.72774832E-05
  -12.5600004      -2.74304948E-05
  -12.5500002      -2.50868306E-05
  -12.5400000      -2.06344139E-05
  -12.5299997      -1.45575859E-05
  -12.5200005      -7.32587478E-06
  -12.5100002       6.77580374E-07
  -12.5000000       9.16930458E-06
  -12.4899998       1.79203216E-05
  -12.4799995       2.66693060E-05
  -12.4700003       3.50238588E-05
  -12.4600000       4.23859638E-05
  -12.4499998       4.79331793E-05
  -12.4399996       5.06735669E-05
  -12.4300003       4.95731074E-05
  -12.4200001       4.37359558E-05
  -12.4099998       3.25989131E-05
  -12.3999996       1.60955715E-05
  -12.3900003      -5.25063115E-06
  -12.3800001      -3.03350025E-05
  -12.3699999      -5.75855884E-05
  -12.3599997      -8.51692821E-05
  -12.3500004      -1.11248250E-04
  -12.3400002      -1.34237605E-04
  -12.3299999      -1.53010755E-04
  -12.3199997      -1.67012171E-04
  -12.3100004      -1.76252724E-04
  -12.3000002      -1.81196796E-04
  -12.2900000      -1.82564894E-04
  -12.2799997      -1.81107433E-04
  -12.2700005      -1.77391456E-04
  -12.2600002      -1.71662716E-04
  -12.2500000      -1.63804667E-04
  -12.2399998      -1.53402361E-04
  -12.2299995      -1.39891548E-04
  -12.2200003      -1.22755140E-04
  -12.2100000      -1.01709345E-04
  -12.1999998      -7.68301907E-05
  -12.1899996      -4.85869314E-05
  -12.1800003      -1.77681632E-05
  -12.1700001       1.46861930E-05
  -12.1599998       4.79038390E-05
  -12.1499996       8.13000079E-05
  -12.1400003       1.14739167E-04
  -12.1300001       1.48592997E-04
  -12.1199999       1.83671233E-04
  -12.1099997       2.21036054E-04
  -12.1000004       2.61725509E-04
  -12.0900002       3.06451024E-04
  -12.0799999       3.55325232E-04
  -12.0699997       4.07690415E-04
  -12.0600004       4.62076248E-04
  -12.0500002       5.16315922E-04
  -12.0400000       5.67787618E-04
  -12.0299997       6.13749435E-04
  -12.0200005       6.51696406E-04
  -12.0100002       6.79667981E-04
  -12.0000000       6.96458621E-04
  -11.9899998       7.01681885E-04
  -11.9799995       6.95689232E-04
  -11.9700003       6.79362507E-04
  -11.9600000       6.53836236E-04
  -11.9499998       6.20202743E-04
  -11.9399996       5.79278625E-04
  -11.9300003       5.31475293E-04
  -11.9200001       4.76792688E-04
  -11.9099998       4.14950278E-04
  -11.8999996       3.45603534E-04
  -11.8900003       2.68598844E-04
  -11.8800001       1.84200719E-04
  -11.8699999       9.32324037E-05
  -11.8599997      -2.90965863E-06
  -11.8500004      -1.02376958E-04
  -11.8400002      -2.03103904E-04
  -11.8299999      -3.03106790E-04
  -11.8199997      -4.00779711E-04
  -11.8100004      -4.95126063E-04
  -11.8000002      -5.85857721E-04
  -11.7900000      -6.73360482E-04
  -11.7799997      -7.58511887E-04
  -11.7700005      -8.42397683E-04
  -11.7600002      -9.25998960E-04
  -11.7500000      -1.00990408E-03
  -11.7399998      -1.09411753E-03
  -11.7299995      -1.17800571E-03
  -11.7200003      -1.26037246E-03
  -11.7100000      -1.33964163E-03
  -11.6999998      -1.41409738E-03
  -11.6899996      -1.48211303E-03
  -11.6800003      -1.54230371E-03
  -11.6700001      -1.59357022E-03
  -11.6599998      -1.63503876E-03
  -11.6499996      -1.66590791E-03
  -11.6400003      -1.68526161E-03
  -11.6300001      -1.69192278E-03
  -11.6199999      -1.68439234E-03
  -11.6099997      -1.66091800E-03
  -11.6000004      -1.61968614E-03
  -11.5900002      -1.55910396E-03
  -11.5799999      -1.47811102E-03
  -11.5699997      -1.37646205E-03
  -11.5600004      -1.25486357E-03
  -11.5500002      -1.11499080E-03
  -11.5400000      -9.59315454E-04
  -11.5299997      -7.90820399E-04
  -11.5200005      -6.12617354E-04
  -11.5100002      -4.27601277E-04
  -11.5000000      -2.38148641E-04
  -11.4899998      -4.59648036E-05
  -11.4799995       1.47935541E-04
  -11.4700003       3.43114400E-04
  -11.4600000       5.39522094E-04
  -11.4499998       7.37298280E-04
  -11.4399996       9.36609693E-04
  -11.4300003       1.13757828E-03
  -11.4200001       1.34031440E-03
  -11.4099998       1.54499931E-03
  -11.3999996       1.75202230E-03
  -11.3900003       1.96206826E-03
  -11.3800001       2.17611715E-03
  -11.3699999       2.39534117E-03
  -11.3599997       2.62088608E-03
  -11.3500004       2.85357540E-03
  -11.3400002       3.09362100E-03
  -11.3299999       3.34037840E-03
  -11.3199997       3.59226181E-03
  -11.3100004       3.84680135E-03
  -11.3000002       4.10089735E-03
  -11.2900000       4.35118843E-03
  -11.2799997       4.59450064E-03
  -11.2700005       4.82825842E-03
  -11.2600002       5.05080121E-03
  -11.2500000       5.26151992E-03
  -11.2399998       5.46082202E-03
  -11.2299995       5.64988935E-03
  -11.2200003       5.83033869E-03
  -11.2100000       6.00383757E-03
  -11.1999998       6.17173593E-03
  -11.1899996       6.33484684E-03
  -11.1800003       6.49334397E-03
  -11.1700001       6.64685061E-03
  -11.1599998       6.79465663E-03
  -11.1499996       6.93599274E-03
  -11.1400003       7.07032997E-03
  -11.1300001       7.19758822E-03
  -11.1199999       7.31824758E-03
  -11.1099997       7.43330130E-03
  -11.1000004       7.54409516E-03
  -11.0900002       7.65208201E-03
  -11.0799999       7.75852287E-03
  -11.0699997       7.86426291E-03
  -11.0600004       7.96960015E-03
  -11.0500002       8.07427987E-03
  -11.0400000       8.17759428E-03
  -11.0299997       8.27867258E-03
  -11.0200005       8.37675761E-03
  -11.0100002       8.47150665E-03
  -11.0000000       8.56323447E-03
  -10.9899998       8.65300186E-03
  -10.9799995       8.74262769E-03
  -10.9700003       8.83442722E-03
  -10.9600000       8.93096812E-03
  -10.9499998       9.03468858E-03
  -10.9399996       9.14754532E-03
  -10.9300003       9.27071832E-03
  -10.9200001       9.40445065E-03
  -10.9099998       9.54804663E-03
  -10.8999996       9.69997887E-03
  -10.8900003       9.85811744E-03
  -10.8800001       1.00200418E-02
  -10.8699999       1.01832915E-02
  -10.8599997       1.03455884E-02
  -10.8500004       1.05049433E-02
  -10.8400002       1.06596611E-02
  -10.8299999       1.08082155E-02
  -10.8199997       1.09491432E-02
  -10.8100004       1.10808574E-02
  -10.8000002       1.12015912E-02
  -10.7900000       1.13094179E-02
  -10.7799997       1.14023881E-02
  -10.7700005       1.14787901E-02
  -10.7600002       1.15373880E-02
  -10.7500000       1.15777552E-02
  -10.7399998       1.16004245E-02
  -10.7299995       1.16069801E-02
  -10.7200003       1.15999077E-02
  -10.7100000       1.15823448E-02
  -10.6999998       1.15576871E-02
  -10.6899996       1.15291700E-02
  -10.6800003       1.14994757E-02
  -10.6700001       1.14704482E-02
  -10.6599998       1.14429928E-02
  -10.6499996       1.14171477E-02
  -10.6400003       1.13922972E-02
  -10.6300001       1.13675017E-02
  -10.6199999       1.13418214E-02
  -10.6099997       1.13146389E-02
  -10.6000004       1.12857958E-02
  -10.5900002       1.12556377E-02
  -10.5799999       1.12248547E-02
  -10.5699997       1.11942990E-02
  -10.5600004       1.11647155E-02
  -10.5500002       1.11364592E-02
  -10.5400000       1.11094397E-02
  -10.5299997       1.10830385E-02
  -10.5200005       1.10563021E-02
  -10.5100002       1.10281231E-02
  -10.5000000       1.09976316E-02
  -10.4899998       1.09644001E-02
  -10.4799995       1.09287389E-02
  -10.4700003       1.08917439E-02
  -10.4600000       1.08552920E-02
  -10.4499998       1.08218081E-02
  -10.4399996       1.07939998E-02
  -10.4300003       1.07744783E-02
  -10.4200001       1.07653951E-02
  -10.4099998       1.07681928E-02
  -10.3999996       1.07833846E-02
  -10.3900003       1.08104944E-02
  -10.3800001       1.08480994E-02
  -10.3699999       1.08940462E-02
  -10.3599997       1.09455986E-02
  -10.3500004       1.09997485E-02
  -10.3400002       1.10534700E-02
  -10.3299999       1.11038918E-02
  -10.3199997       1.11485487E-02
  -10.3100004       1.11854710E-02
  -10.3000002       1.12133278E-02
  -10.2900000       1.12315034E-02
  -10.2799997       1.12401443E-02
  -10.2700005       1.12402029E-02
  -10.2600002       1.12333940E-02
  -10.2500000       1.12221641E-02
  -10.2399998       1.12094898E-02
  -10.2299995       1.11986613E-02
  -10.2200003       1.11929486E-02
  -10.2100000       1.11953784E-02
  -10.1999998       1.12082632E-02
  -10.1899996       1.12331174E-02
  -10.1800003       1.12704961E-02
  -10.1700001       1.13200117E-02
  -10.1599998       1.13805784E-02
  -10.1499996       1.14507256E-02
  -10.1400003       1.15290126E-02
  -10.1300001       1.16143851E-02
  -10.1199999       1.17064295E-02
  -10.1099997       1.18055763E-02
  -10.1000004       1.19129736E-02
  -10.0900002       1.20303221E-02
  -10.0799999       1.21594723E-02
  -10.0699997       1.23021537E-02
  -10.0600004       1.24596488E-02
  -10.0500002       1.26325702E-02
  -10.0400000       1.28209637E-02
  -10.0299997       1.30243851E-02
  -10.0200005       1.32422391E-02
  -10.0100002       1.34741087E-02
  -10.0000000       1.37198446E-02
  -9.98999977       1.39799919E-02
  -9.97999954       1.42555367E-02
  -9.97000027       1.45478044E-02
  -9.96000004       1.48581108E-02
  -9.94999981       1.51875336E-02
  -9.93999958       1.55365691E-02
  -9.93000031       1.59049295E-02
  -9.92000008       1.62916761E-02
  -9.90999985       1.66952834E-02
  -9.89999962       1.71140060E-02
  -9.89000034       1.75463352E-02
  -9.88000011       1.79911423E-02
  -9.86999989       1.84481516E-02
  -9.85999966       1.89178400E-02
  -9.85000038       1.94015168E-02
  -9.84000015       1.99010391E-02
  -9.82999992       2.04185657E-02
  -9.81999969       2.09562201E-02
  -9.81000042       2.15157531E-02
  -9.80000019       2.20984053E-02
  -9.78999996       2.27047969E-02
  -9.77999973       2.33348608E-02
  -9.77000046       2.39881147E-02
  -9.76000023       2.46635545E-02
  -9.75000000       2.53601205E-02
  -9.73999977       2.60765739E-02
  -9.72999954       2.68117283E-02
  -9.72000027       2.75644213E-02
  -9.71000004       2.83334590E-02
  -9.69999981       2.91175153E-02
  -9.68999958       2.99150553E-02
  -9.68000031       3.07240896E-02
  -9.67000008       3.15422565E-02
  -9.65999985       3.23666371E-02
  -9.64999962       3.31939608E-02
  -9.64000034       3.40205617E-02
  -9.63000011       3.48425321E-02
  -9.61999989       3.56560647E-02
  -9.60999966       3.64574119E-02
  -9.60000038       3.72428410E-02
  -9.59000015       3.80090326E-02
  -9.57999992       3.87528278E-02
  -9.56999969       3.94710526E-02
  -9.56000042       4.01608869E-02
  -9.55000019       4.08195704E-02
  -9.53999996       4.14446257E-02
  -9.52999973       4.20340933E-02
  -9.52000046       4.25866246E-02
  -9.51000023       4.31015231E-02
  -9.50000000       4.35792394E-02
  -9.48999977       4.40209210E-02
  -9.47999954       4.44285944E-02
  -9.47000027       4.48047444E-02
  -9.46000004       4.51521650E-02
  -9.44999981       4.54735309E-02
  -9.43999958       4.57712449E-02
  -9.43000031       4.60474603E-02
  -9.42000008       4.63036187E-02
  -9.40999985       4.65412550E-02
  -9.39999962       4.67616729E-02
  -9.39000034       4.69664037E-02
  -9.38000011       4.71573621E-02
  -9.36999989       4.73372191E-02
  -9.35999966       4.75093462E-02
  -9.35000038       4.76780236E-02
  -9.34000015       4.78484407E-02
  -9.32999992       4.80266251E-02
  -9.31999969       4.82194014E-02
  -9.31000042       4.84342054E-02
  -9.30000019       4.86789718E-02
  -9.28999996       4.89614904E-02
  -9.27999973       4.92893010E-02
  -9.27000046       4.96696047E-02
  -9.26000023       5.01082800E-02
  -9.25000000       5.06103039E-02
  -9.23999977       5.11795171E-02
  -9.22999954       5.18187210E-02
  -9.22000027       5.25299832E-02
  -9.21000004       5.33148013E-02
  -9.19999981       5.41743673E-02
  -9.18999958       5.51096313E-02
  -9.18000031       5.61213456E-02
  -9.17000008       5.72094731E-02
  -9.15999985       5.83734438E-02
  -9.14999962       5.96114844E-02
  -9.14000034       6.09207600E-02
  -9.13000011       6.22972324E-02
  -9.11999989       6.37357235E-02
  -9.10999966       6.52305856E-02
  -9.10000038       6.67755529E-02
  -9.09000015       6.83643147E-02
  -9.07999992       6.99905232E-02
  -9.06999969       7.16476068E-02
  -9.06000042       7.33288378E-02
  -9.05000019       7.50272721E-02
  -9.03999996       7.67352879E-02
  -9.02999973       7.84448087E-02
  -9.02000046       8.01476613E-02
  -9.01000023       8.18353742E-02
  -9.00000000       8.34995732E-02
  -8.98999977       8.51319805E-02
  -8.97999954       8.67245048E-02
  -8.97000027       8.82689059E-02
  -8.96000004       8.97570923E-02
  -8.94999981       9.11804587E-02
  -8.93999958       9.25298706E-02
  -8.93000031       9.37964991E-02
  -8.92000008       9.49716642E-02
  -8.90999985       9.60476920E-02
  -8.89999962       9.70183834E-02
  -8.89000034       9.78791714E-02
  -8.88000011       9.86276343E-02
  -8.86999989       9.92631987E-02
  -8.85999966       9.97866541E-02
  -8.85000038      0.100199901    
  -8.84000015      0.100505657    
  -8.82999992      0.100707047    
  -8.81999969      0.100807823    
  -8.81000042      0.100812696    
  -8.80000019      0.100727201    
  -8.78999996      0.100557618    
  -8.77999973      0.100311995    
  -8.77000046       9.99982208E-02
  -8.76000023       9.96249765E-02
  -8.75000000       9.92003158E-02
  -8.73999977       9.87318754E-02
  -8.72999954       9.82267708E-02
  -8.72000027       9.76910591E-02
  -8.71000004       9.71313119E-02
  -8.69999981       9.65543538E-02
  -8.68999958       9.59679186E-02
  -8.68000031       9.53807160E-02
  -8.67000008       9.48020667E-02
  -8.65999985       9.42413062E-02
  -8.64999962       9.37078372E-02
  -8.64000034       9.32094827E-02
  -8.63000011       9.27530527E-02
  -8.61999989       9.23439190E-02
  -8.60999966       9.19866785E-02
  -8.60000038       9.16856229E-02
  -8.59000015       9.14449021E-02
  -8.57999992       9.12693217E-02
  -8.56999969       9.11632106E-02
  -8.56000042       9.11313668E-02
  -8.55000019       9.11768228E-02
  -8.53999996       9.13016424E-02
  -8.52999973       9.15057138E-02
  -8.52000046       9.17870775E-02
  -8.51000023       9.21427757E-02
  -8.50000000       9.25689638E-02
  -8.48999977       9.30626616E-02
  -8.47999954       9.36211273E-02
  -8.47000027       9.42430496E-02
  -8.46000004       9.49275121E-02
  -8.44999981       9.56735611E-02
  -8.43999958       9.64794084E-02
  -8.43000031       9.73420814E-02
  -8.42000008       9.82563496E-02
  -8.40999985       9.92162824E-02
  -8.39999962      0.100214489    
  -8.39000034      0.101243779    
  -8.38000011      0.102297783    
  -8.36999989      0.103371337    
  -8.35999966      0.104460835    
  -8.35000038      0.105563909    
  -8.34000015      0.106678486    
  -8.32999992      0.107802756    
  -8.31999969      0.108935088    
  -8.31000042      0.110072792    
  -8.30000019      0.111212991    
  -8.28999996      0.112352513    
  -8.27999973      0.113488972    
  -8.27000046      0.114619784    
  -8.26000023      0.115742750    
  -8.25000000      0.116856232    
  -8.23999977      0.117958307    
  -8.22999954      0.119047090    
  -8.22000027      0.120120876    
  -8.21000004      0.121178403    
  -8.19999981      0.122219548    
  -8.18999958      0.123245716    
  -8.18000031      0.124261253    
  -8.17000008      0.125272140    
  -8.15999985      0.126286432    
  -8.14999962      0.127314016    
  -8.14000034      0.128364846    
  -8.13000011      0.129448220    
  -8.11999989      0.130573213    
  -8.10999966      0.131746322    
  -8.10000038      0.132973045    
  -8.09000015      0.134258136    
  -8.07999992      0.135605529    
  -8.06999969      0.137018844    
  -8.06000042      0.138502374    
  -8.05000019      0.140060917    
  -8.03999996      0.141699314    
  -8.02999973      0.143422529    
  -8.02000046      0.145235047    
  -8.01000023      0.147141308    
  -8.00000000      0.149143875    
  -7.98999977      0.151245683    
  -7.98000002      0.153448075    
  -7.96999979      0.155751795    
  -7.96000004      0.158156335    
  -7.94999981      0.160659745    
  -7.94000006      0.163259938    
  -7.92999983      0.165952697    
  -7.92000008      0.168733209    
  -7.90999985      0.171595111    
  -7.90000010      0.174531654    
  -7.88999987      0.177536175    
  -7.88000011      0.180600360    
  -7.86999989      0.183717400    
  -7.86000013      0.186879560    
  -7.84999990      0.190078825    
  -7.84000015      0.193307534    
  -7.82999992      0.196557477    
  -7.82000017      0.199819818    
  -7.80999994      0.203086257    
  -7.80000019      0.206347659    
  -7.78999996      0.209596306    
  -7.78000021      0.212824494    
  -7.76999998      0.216026247    
  -7.76000023      0.219196543    
  -7.75000000      0.222332567    
  -7.73999977      0.225432664    
  -7.73000002      0.228497326    
  -7.71999979      0.231527641    
  -7.71000004      0.234525949    
  -7.69999981      0.237495065    
  -7.69000006      0.240437269    
  -7.67999983      0.243355706    
  -7.67000008      0.246252805    
  -7.65999985      0.249132067    
  -7.65000010      0.251995891    
  -7.63999987      0.254848987    
  -7.63000011      0.257696539    
  -7.61999989      0.260544926    
  -7.61000013      0.263400346    
  -7.59999990      0.266269535    
  -7.59000015      0.269159317    
  -7.57999992      0.272075772    
  -7.57000017      0.275022596    
  -7.55999994      0.278003097    
  -7.55000019      0.281019956    
  -7.53999996      0.284075081    
  -7.53000021      0.287173033    
  -7.51999998      0.290317148    
  -7.51000023      0.293512374    
  -7.50000000      0.296764344    
  -7.48999977      0.300077707    
  -7.48000002      0.303455114    
  -7.46999979      0.306897402    
  -7.46000004      0.310402781    
  -7.44999981      0.313968211    
  -7.44000006      0.317590475    