  -16.0000000       0.00000000    
  -15.9899998       0.00000000    
  -15.9799995       0.00000000    
  -15.9700003       0.00000000    
  -15.9600000       0.00000000    
  -15.9499998       0.00000000    
  -15.9399996       0.00000000    
  -15.9300003       0.00000000    
  -15.9200001       0.00000000    
  -15.9099998       0.00000000    
  -15.8999996       0.00000000    
  -15.8900003       0.00000000    
  -15.8800001      -1.40129846E-45
  -15.8699999      -3.78350585E-44
  -15.8599997      -3.89560973E-43
  -15.8500004      -2.98056183E-42
  -15.8400002      -1.98634057E-41
  -15.8299999      -1.21185692E-40
  -15.8199997      -6.71038394E-40
  -15.8100004      -3.30930645E-39
  -15.8000002      -1.44031678E-38
  -15.7900000      -5.53409702E-38
  -15.7799997      -1.88614773E-37
  -15.7700005      -5.73462361E-37
  -15.7600002      -1.56257003E-36
  -15.7500000      -3.82499362E-36
  -15.7399998      -8.40394661E-36
  -15.7299995      -1.64704279E-35
  -15.7200003      -2.83343586E-35
  -15.7100000      -4.11366429E-35
  -15.6999998      -4.48091301E-35
  -15.6899996      -1.66813870E-35
  -15.6800003       8.32259414E-35
  -15.6700001       3.11765829E-34
  -15.6599998       7.30122087E-34
  -15.6499996       1.37068317E-33
  -15.6400003       2.17548795E-33
  -15.6300001       2.90240355E-33
  -15.6199999       3.00556273E-33
  -15.6099997       1.52188728E-33
  -15.6000004      -2.94771188E-33
  -15.5900002      -1.19696160E-32
  -15.5799999      -2.63936832E-32
  -15.5699997      -4.44716696E-32
  -15.5600004      -5.88775322E-32
  -15.5500002      -5.35178069E-32
  -15.5400000      -2.93588255E-33
  -15.5299997       1.20519592E-31
  -15.5200005       3.25624113E-31
  -15.5100002       5.65042831E-31
  -15.5000000       6.92221728E-31
  -15.4899998       4.44627729E-31
  -15.4799995      -4.91014288E-31
  -15.4700003      -2.27196313E-30
  -15.4600000      -4.53932322E-30
  -15.4499998      -6.01871916E-30
  -15.4399996      -4.38946367E-30
  -15.4300003       3.09741990E-30
  -15.4200001       1.78042293E-29
  -15.4099998       3.67177099E-29
  -15.3999996       4.93568449E-29
  -15.3900003       3.70759209E-29
  -15.3800001      -2.16864918E-29
  -15.3699999      -1.37313412E-28
  -15.3599997      -2.86972349E-28
  -15.3500004      -3.92999679E-28
  -15.3400002      -3.19325011E-28
  -15.3299999       9.07204185E-29
  -15.3199997       9.17966101E-28
  -15.3100004       2.02094762E-27
  -15.3000002       2.89484277E-27
  -15.2900000       2.64567481E-27
  -15.2799997       2.19523682E-28
  -15.2700005      -5.01448563E-27
  -15.2600002      -1.23808121E-26
  -15.2500000      -1.90306346E-26
  -15.2399998      -1.97055420E-26
  -15.2299995      -7.90390248E-27
  -15.2200003       2.09951000E-26
  -15.2100000       6.48828542E-26
  -15.1999998       1.09929123E-25
  -15.1899996       1.28547559E-25
  -15.1800003       8.42778131E-26
  -15.1700001      -5.33783040E-26
  -15.1599998      -2.84750585E-25
  -15.1499996      -5.53317294E-25
  -15.1400003      -7.30740050E-25
  -15.1300001      -6.32450298E-25
  -15.1199999      -7.96552237E-26
  -15.1099997       9.91144366E-25
  -15.1000004       2.39706016E-24
  -15.0900002       3.61492591E-24
  -15.0799999       3.80737326E-24
  -15.0699997       2.04643614E-24
  -15.0600004      -2.24073534E-24
  -15.0500002      -8.68512506E-24
  -15.0400000      -1.54663690E-23
  -15.0299997      -1.92143340E-23
  -15.0200005      -1.56710500E-23
  -15.0100002      -1.30020577E-24
  -15.0000000       2.43419314E-23
  -14.9899998       5.61890035E-23
  -14.9799995       8.24237341E-23
  -14.9700003       8.58475861E-23
  -14.9600000       4.89045073E-23
  -14.9499998      -3.77715878E-23
  -14.9399996      -1.65272052E-22
  -14.9300003      -2.98808672E-22
  -14.9200001      -3.77902895E-22
  -14.9099998      -3.29163358E-22
  -14.8999996      -9.32672078E-23
  -14.8900003       3.38099574E-22
  -14.8800001       8.86880798E-22
  -14.8699999       1.37247005E-21
  -14.8599997       1.53356963E-21
  -14.8500004       1.10009973E-21
  -14.8400002      -8.91091662E-23
  -14.8299999      -1.95046846E-21
  -14.8199997      -4.05283200E-21
  -14.8100004      -5.61211592E-21
  -14.8000002      -5.63902312E-21
  -14.7900000      -3.25746391E-21
  -14.7799997       1.85451066E-21
  -14.7700005       9.02800430E-21
  -14.7600002       1.63609669E-20
  -14.7500000       2.08736863E-20
  -14.7399998       1.91981495E-20
  -14.7299995       8.77919984E-21
  -14.7200003      -1.06600607E-20
  -14.7100000      -3.58657823E-20
  -14.6999998      -5.96307977E-20
  -14.6899996      -7.17697765E-20
  -14.6800003      -6.17556049E-20
  -14.6700001      -2.27314208E-20
  -14.6599998       4.40682798E-20
  -14.6499996       1.26048263E-19
  -14.6400003       1.98932142E-19
  -14.6300001       2.30816969E-19
  -14.6199999       1.90942560E-19
  -14.6099997       6.18409338E-20
  -14.6000004      -1.48320735E-19
  -14.5900002      -3.97784591E-19
  -14.5799999      -6.12427982E-19
  -14.5699997      -6.99458963E-19
  -14.5600004      -5.73541756E-19
  -14.5500002      -1.90711854E-19
  -14.5400000       4.19210223E-19
  -14.5299997       1.13399017E-18
  -14.5200005       1.74607756E-18
  -14.5100002       2.00257386E-18
  -14.5000000       1.67613955E-18
  -14.4899998       6.53293393E-19
  -14.4799995      -9.84383393E-19
  -14.4700003      -2.91673645E-18
  -14.4600000      -4.60740428E-18
  -14.4499998      -5.40722921E-18
  -14.4399996      -4.73138873E-18
  -14.4300003      -2.27554243E-18
  -14.4200001       1.78821187E-18
  -14.4099998       6.70711831E-18
  -14.3999996       1.11991975E-17
  -14.3900003       1.36930875E-17
  -14.3800001       1.27375913E-17
  -14.3699999       7.50137093E-18
  -14.3599997      -1.76967248E-18
  -14.3500004      -1.34956626E-17
  -14.3400002      -2.48473376E-17
  -14.3299999      -3.22453664E-17
  -14.3199997      -3.22384015E-17
  -14.3100004      -2.25956097E-17
  -14.3000002      -3.33732780E-18
  -14.2900000       2.26289186E-17
  -14.2799997       4.95684938E-17
  -14.2700005       6.98455957E-17
  -14.2600002       7.56672796E-17
  -14.2500000       6.13387975E-17
  -14.2399998       2.54924293E-17
  -14.2299995      -2.73767120E-17
  -14.2200003      -8.66949206E-17
  -14.2100000      -1.37307191E-16
  -14.1999998      -1.62673419E-16
  -14.1899996      -1.49250792E-16
  -14.1800003      -9.10822204E-17
  -14.1700001       6.67965178E-18
  -14.1599998       1.26570730E-16
  -14.1499996       2.40818111E-16
  -14.1400003       3.16711945E-16
  -14.1300001       3.24588055E-16
  -14.1199999       2.46754038E-16
  -14.1099997       8.50550979E-17
  -14.1000004      -1.35338091E-16
  -14.0900002      -3.67794808E-16
  -14.0799999      -5.52426736E-16
  -14.0699997      -6.29678046E-16
  -14.0600004      -5.56647765E-16
  -14.0500002      -3.22179702E-16
  -14.0400000       4.37062813E-17
  -14.0299997       4.69780566E-16
  -14.0200005       8.54833591E-16
  -14.0100002       1.08927050E-15
  -14.0000000       1.08312019E-15
  -13.9899998       7.93970833E-16
  -13.9799995       2.47143435E-16
  -13.9700003      -4.58873852E-16
  -13.9600000      -1.16590348E-15
  -13.9499998      -1.68817309E-15
  -13.9399996      -1.85751700E-15
  -13.9300003      -1.57158758E-15
  -13.9200001      -8.32382295E-16
  -13.9099998       2.37113136E-16
  -13.8999996       1.40638291E-15
  -13.8900003       2.38221748E-15
  -13.8800001       2.87774870E-15
  -13.8699999       2.69066474E-15
  -13.8599997       1.77064995E-15
  -13.8500004       2.55920258E-16
  -13.8400002      -1.53588959E-15
  -13.8299999      -3.16690267E-15
  -13.8199997      -4.17956295E-15
  -13.8100004      -4.21721484E-15
  -13.8000002      -3.13471478E-15
  -13.7900000      -1.06749466E-15
  -13.7799997       1.56563590E-15
  -13.7700005       4.13597083E-15
  -13.7600002       5.94526454E-15
  -13.7500000       6.40401208E-15
  -13.7399998       5.20450501E-15
  -13.7299995       2.44122370E-15
  -13.7200003      -1.36083572E-15
  -13.7100000      -5.32942458E-15
  -13.6999998      -8.43186994E-15
  -13.6899996      -9.72854101E-15
  -13.6800003      -8.63363912E-15
  -13.6700001      -5.11484318E-15
  -13.6599998       2.28591773E-16
  -13.6499996       6.24447131E-15
  -13.6400003       1.14608216E-14
  -13.6300001       1.44303379E-14
  -13.6199999       1.41086848E-14
  -13.6099997       1.01717180E-14
  -13.6000004       3.18219246E-15
  -13.5900002      -5.45395536E-15
  -13.5799999      -1.37533629E-14
  -13.5699997      -1.95983163E-14
  -13.5600004      -2.12618331E-14
  -13.5500002      -1.78882872E-14
  -13.5400000      -9.80147732E-15
  -13.5299997       1.45682393E-15
  -13.5200005       1.33954068E-14
  -13.5100002       2.31118428E-14
  -13.5000000       2.79899462E-14
  -13.4899998       2.63937719E-14
  -13.4799995       1.81796818E-14
  -13.4700003       4.87624289E-15
  -13.4600000      -1.05482766E-14
  -13.4499998      -2.43135115E-14
  -13.4399996      -3.27284959E-14
  -13.4300003      -3.31622750E-14
  -13.4200001      -2.48389566E-14
  -13.4099998      -9.23105400E-15
  -13.3999996       1.00953715E-14
  -13.3900003       2.82043150E-14
  -13.3800001       3.99565838E-14
  -13.3699999       4.13641492E-14
  -13.3599997       3.07975352E-14
  -13.3500004       9.71101590E-15
  -13.3400002      -1.73634622E-14
  -13.3299999      -4.36407333E-14
  -13.3199997      -6.16087381E-14
  -13.3100004      -6.49422871E-14
  -13.3000002      -5.03500440E-14
  -13.2900000      -1.88630815E-14
  -13.2799997       2.38411484E-14
  -13.2700005       6.82835475E-14
  -13.2600002       1.03122440E-13
  -13.2500000       1.17820291E-13
  -13.2399998       1.05441250E-13
  -13.2299995       6.48794440E-14
  -13.2200003       1.88484228E-15
  -13.2100000      -7.15108785E-14
  -13.1999998      -1.39201584E-13
  -13.1899996      -1.84471213E-13
  -13.1800003      -1.93982878E-13
  -13.1700001      -1.61354681E-13
  -13.1599998      -8.93975174E-14
  -13.1499996       9.66214718E-15
  -13.1400003       1.16211904E-13
  -13.1300001       2.07233265E-13
  -13.1199999       2.61422259E-13
  -13.1099997       2.64295340E-13
  -13.1000004       2.12040428E-13
  -13.0900002       1.13090079E-13
  -13.0799999      -1.31163577E-14
  -13.0699997      -1.40061479E-13
  -13.0600004      -2.39981673E-13
  -13.0500002      -2.90300200E-13
  -13.0400000      -2.79135547E-13
  -13.0299997      -2.08500602E-13
  -13.0200005      -9.43009844E-14
  -13.0100002       3.70207574E-14
  -13.0000000       1.54530929E-13
  -12.9899998       2.30182030E-13
  -12.9799995       2.45769469E-13
  -12.9700003       1.97734949E-13
  -12.9600000       9.85346922E-14
  -12.9499998      -2.59210378E-14
  -12.9399996      -1.42302606E-13
  -12.9300003      -2.18032867E-13
  -12.9200001      -2.29665218E-13
  -12.9099998      -1.69393240E-13
  -12.8999996      -4.79740386E-14
  -12.8900003       1.06849920E-13
  -12.8800001       2.56284414E-13
  -12.8699999       3.59544344E-13
  -12.8599997       3.83981448E-13
  -12.8500004       3.13849424E-13
  -12.8400002       1.55478102E-13
  -12.8299999      -6.26130753E-14
  -12.8199997      -2.94986502E-13
  -12.8100004      -4.88979137E-13
  -12.8000002      -5.96739726E-13
  -12.7900000      -5.86859012E-13
  -12.7799997      -4.52800829E-13
  -12.7700005      -2.15959181E-13
  -12.7600002       7.76666803E-14
  -12.7500000       3.66723253E-13
  -12.7399998       5.87804003E-13
  -12.7299995       6.89883318E-13
  -12.7200003       6.46563966E-13
  -12.7100000       4.63184829E-13
  -12.6999998       1.76910326E-13
  -12.6899996      -1.50515952E-13
  -12.6800003      -4.45969921E-13
  -12.6700001      -6.41266066E-13
  -12.6599998      -6.88924829E-13
  -12.6499996      -5.73701080E-13
  -12.6400003      -3.17034620E-13
  -12.6300001       2.68626064E-14
  -12.6199999       3.82661622E-13
  -12.6099997       6.70844131E-13
  -12.6000004       8.26100690E-13
  -12.5900002       8.12902588E-13
  -12.5799999       6.34451584E-13
  -12.5699997       3.32625312E-13
  -12.5600004      -2.14129506E-14
  -12.5500002      -3.44067575E-13
  -12.5400000      -5.59877719E-13
  -12.5299997      -6.20988178E-13
  -12.5200005      -5.20730106E-13
  -12.5100002      -2.97682777E-13
  -12.5000000      -2.86631816E-14
  -12.4899998       1.88353361E-13
  -12.4799995       2.57938500E-13
  -12.4700003       1.12335285E-13
  -12.4600000      -2.67823659E-13
  -12.4499998      -8.42325558E-13
  -12.4399996      -1.51288552E-12
  -12.4300003      -2.13776501E-12
  -12.4200001      -2.55688960E-12
  -12.4099998      -2.62236912E-12
  -12.3999996      -2.22787956E-12
  -12.3900003      -1.33036377E-12
  -12.3800001       4.09206360E-14
  -12.3699999       1.79026303E-12
  -12.3599997       3.77518286E-12
  -12.3500004       5.83564577E-12
  -12.3400002       7.82637150E-12
  -12.3299999       9.64488125E-12
  -12.3199997       1.12488005E-11
  -12.3100004       1.26585149E-11
  -12.3000002       1.39445096E-11
  -12.2900000       1.52021694E-11
  -12.2799997       1.65199347E-11
  -12.2700005       1.79483216E-11
  -12.2600002       1.94767102E-11
  -12.2500000       2.10234920E-11
  -12.2399998       2.24421159E-11
  -12.2299995       2.35411916E-11
  -12.2200003       2.41149045E-11
  -12.2100000       2.39764077E-11
  -12.1999998       2.29875563E-11
  -12.1899996       2.10783734E-11
  -12.1800003       1.82532878E-11
  -12.1700001       1.45829963E-11
  -12.1599998       1.01853135E-11
  -12.1499996       5.20006087E-12
  -12.1400003      -2.36678082E-13
  -12.1300001      -6.01229526E-12
  -12.1199999      -1.20480284E-11
  -12.1099997      -1.82993707E-11
  -12.1000004      -2.47465243E-11
  -12.0900002      -3.13796628E-11
  -12.0799999      -3.81825509E-11
  -12.0699997      -4.51192451E-11
  -12.0600004      -5.21262859E-11
  -12.0500002      -5.91120278E-11
  -12.0400000      -6.59618540E-11
  -12.0299997      -7.25471835E-11
  -12.0200005      -7.87352683E-11
  -12.0100002      -8.43973988E-11
  -12.0000000      -8.94136154E-11
  -11.9899998      -9.36743114E-11
  -11.9799995      -9.70792544E-11
  -11.9700003      -9.95360530E-11
  -11.9600000      -1.00959990E-10
  -11.9499998      -1.01275578E-10
  -11.9399996      -1.00420623E-10
  -11.9300003      -9.83513410E-11
  -11.9200001      -9.50462209E-11
  -11.9099998      -9.05075459E-11
  -11.8999996      -8.47585405E-11
  -11.8900003      -7.78364873E-11
  -11.8800001      -6.97832347E-11
  -11.8699999      -6.06349138E-11
  -11.8599997      -5.04150437E-11
  -11.8500004      -3.91332730E-11
  -11.8400002      -2.67877959E-11
  -11.8299999      -1.33773314E-11
  -11.8199997       1.08558973E-12
  -11.8100004       1.65600936E-11
  -11.8000002       3.29653561E-11
  -11.7900000       5.01763006E-11
  -11.7799997       6.80258350E-11
  -11.7700005       8.63150940E-11
  -11.7600002       1.04829936E-10
  -11.7500000       1.23356769E-10
  -11.7399998       1.41698056E-10
  -11.7299995       1.59680810E-10
  -11.7200003       1.77158524E-10
  -11.7100000       1.94005770E-10
  -11.6999998       2.10108153E-10
  -11.6899996       2.25350349E-10
  -11.6800003       2.39605891E-10
  -11.6700001       2.52732169E-10
  -11.6599998       2.64570837E-10
  -11.6499996       2.74954948E-10
  -11.6400003       2.83718410E-10
  -11.6300001       2.90708096E-10
  -11.6199999       2.95792613E-10
  -11.6099997       2.98867348E-10
  -11.6000004       2.99854086E-10
  -11.5900002       2.98695957E-10
  -11.5799999       2.95349301E-10
  -11.5699997       2.89773872E-10
  -11.5600004       2.81925816E-10
  -11.5500002       2.71751566E-10
  -11.5400000       2.59187644E-10
  -11.5299997       2.44162385E-10
  -11.5200005       2.26598643E-10
  -11.5100002       2.06423253E-10
  -11.5000000       1.83571047E-10
  -11.4899998       1.57994590E-10
  -11.4799995       1.29670955E-10
  -11.4700003       9.86088572E-11
  -11.4600000       6.48563425E-11
  -11.4499998       2.85068306E-11
  -11.4399996      -1.02945898E-11
  -11.4300003      -5.13532238E-11
  -11.4200001      -9.44274312E-11
  -11.4099998      -1.39241535E-10
  -11.3999996      -1.85496937E-10
  -11.3900003      -2.32896452E-10
  -11.3800001      -2.81156737E-10
  -11.3699999      -3.30027394E-10
  -11.3599997      -3.79298676E-10
  -11.3500004      -4.28801605E-10
  -11.3400002      -4.78405093E-10
  -11.3299999      -5.28004584E-10
  -11.3199997      -5.77510484E-10
  -11.3100004      -6.26839636E-10
  -11.3000002      -6.75909051E-10
  -11.2900000      -7.24637017E-10
  -11.2799997      -7.72945985E-10
  -11.2700005      -8.20766899E-10
  -11.2600002      -8.68040806E-10
  -11.2500000      -9.14712195E-10
  -11.2399998      -9.60720614E-10
  -11.2299995      -1.00598163E-09
  -11.2200003      -1.05037157E-09
  -11.2100000      -1.09371878E-09
  -11.1999998      -1.13580079E-09
  -11.1899996      -1.17635879E-09
  -11.1800003      -1.21512600E-09
  -11.1700001      -1.25186228E-09
  -11.1599998      -1.28639310E-09
  -11.1499996      -1.31862732E-09
  -11.1400003      -1.34858569E-09
  -11.1300001      -1.37636869E-09
  -11.1199999      -1.40213452E-09
  -11.1099997      -1.42605305E-09
  -11.1000004      -1.44824652E-09
  -11.0900002      -1.46875689E-09
  -11.0799999      -1.48753099E-09
  -11.0699997      -1.50441493E-09
  -11.0600004      -1.51920165E-09
  -11.0500002      -1.53168889E-09
  -11.0400000      -1.54173008E-09
  -11.0299997      -1.54928781E-09
  -11.0200005      -1.55447288E-09
  -11.0100002      -1.55752544E-09
  -11.0000000      -1.55878022E-09
  -10.9899998      -1.55863356E-09
  -10.9799995      -1.55746172E-09
  -10.9700003      -1.55556279E-09
  -10.9600000      -1.55312407E-09
  -10.9499998      -1.55020918E-09
  -10.9399996      -1.54678570E-09
  -10.9300003      -1.54276691E-09
  -10.9200001      -1.53804902E-09
  -10.9099998      -1.53257085E-09
  -10.8999996      -1.52632151E-09
  -10.8900003      -1.51933621E-09
  -10.8800001      -1.51168367E-09
  -10.8699999      -1.50341883E-09
  -10.8599997      -1.49455648E-09
  -10.8500004      -1.48504098E-09
  -10.8400002      -1.47472812E-09
  -10.8299999      -1.46345025E-09
  -10.8199997      -1.45101764E-09
  -10.8100004      -1.43729328E-09
  -10.8000002      -1.42222556E-09
  -10.7900000      -1.40585443E-09
  -10.7799997      -1.38830503E-09
  -10.7700005      -1.36978473E-09
  -10.7600002      -1.35047107E-09
  -10.7500000      -1.33052203E-09
  -10.7399998      -1.30998501E-09
  -10.7299995      -1.28880229E-09
  -10.7200003      -1.26680055E-09
  -10.7100000      -1.24376498E-09
  -10.6999998      -1.21947230E-09
  -10.6899996      -1.19377730E-09
  -10.6800003      -1.16662868E-09
  -10.6700001      -1.13808218E-09
  -10.6599998      -1.10831144E-09
  -10.6499996      -1.07757403E-09
  -10.6400003      -1.04611475E-09
  -10.6300001      -1.01417208E-09
  -10.6199999      -9.81901116E-10
  -10.6099997      -9.49362144E-10
  -10.6000004      -9.16586140E-10
  -10.5900002      -8.83563167E-10
  -10.5799999      -8.50319593E-10
  -10.5699997      -8.16924250E-10
  -10.5600004      -7.83541287E-10
  -10.5500002      -7.50409734E-10
  -10.5400000      -7.17827464E-10
  -10.5299997      -6.86090185E-10
  -10.5200005      -6.55459131E-10
  -10.5100002      -6.26171559E-10
  -10.5000000      -5.98325944E-10
  -10.4899998      -5.71997338E-10
  -10.4799995      -5.47190626E-10
  -10.4700003      -5.23922905E-10
  -10.4600000      -5.02236253E-10
  -10.4499998      -4.82133167E-10
  -10.4399996      -4.63701910E-10
  -10.4300003      -4.46979065E-10
  -10.4200001      -4.31948893E-10
  -10.4099998      -4.18468787E-10
  -10.3999996      -4.06352313E-10
  -10.3900003      -3.95266070E-10
  -10.3800001      -3.84846127E-10
  -10.3699999      -3.74761305E-10
  -10.3599997      -3.64777902E-10
  -10.3500004      -3.54800550E-10
  -10.3400002      -3.44986484E-10
  -10.3299999      -3.35613093E-10
  -10.3199997      -3.27158495E-10
  -10.3100004      -3.20160537E-10
  -10.3000002      -3.15135029E-10
  -10.2900000      -3.12500026E-10
  -10.2799997      -3.12492282E-10
  -10.2700005      -3.15158288E-10
  -10.2600002      -3.20379029E-10
  -10.2500000      -3.27895461E-10
  -10.2399998      -3.37367134E-10
  -10.2299995      -3.48474416E-10
  -10.2200003      -3.60913743E-10
  -10.2100000      -3.74437259E-10
  -10.1999998      -3.88860999E-10
  -10.1899996      -4.04046324E-10
  -10.1800003      -4.19823426E-10
  -10.1700001      -4.36050585E-10
  -10.1599998      -4.52554882E-10
  -10.1499996      -4.69162043E-10
  -10.1400003      -4.85732010E-10
  -10.1300001      -5.02214381E-10
  -10.1199999      -5.18629695E-10
  -10.1099997      -5.35062772E-10
  -10.1000004      -5.51671375E-10
  -10.0900002      -5.68597558E-10
  -10.0799999      -5.85952620E-10
  -10.0699997      -6.03732841E-10
  -10.0600004      -6.21824814E-10
  -10.0500002      -6.40034581E-10
  -10.0400000      -6.58081090E-10
  -10.0299997      -6.75726919E-10
  -10.0200005      -6.92805147E-10
  -10.0100002      -7.09293901E-10
  -10.0000000      -7.25361993E-10
  -9.98999977      -7.41322337E-10
  -9.97999954      -7.57637619E-10
  -9.97000027      -7.74782238E-10
  -9.96000004      -7.93250077E-10
  -9.94999981      -8.13470347E-10
  -9.93999958      -8.35709446E-10
  -9.93000031      -8.60109539E-10
  -9.92000008      -8.86689611E-10
  -9.90999985      -9.15373000E-10
  -9.89999962      -9.46033696E-10
  -9.89000034      -9.78536585E-10
  -9.88000011      -1.01276543E-09
  -9.86999989      -1.04861619E-09
  -9.85999966      -1.08602738E-09
  -9.85000038      -1.12492304E-09
  -9.84000015      -1.16522469E-09
  -9.82999992      -1.20689181E-09
  -9.81999969      -1.24983879E-09
  -9.81000042      -1.29400035E-09
  -9.80000019      -1.33940070E-09
  -9.78999996      -1.38604039E-09
  -9.77999973      -1.43397971E-09
  -9.77000046      -1.48338231E-09
  -9.76000023      -1.53439106E-09
  -9.75000000      -1.58718727E-09
  -9.73999977      -1.64186575E-09
  -9.72999954      -1.69844960E-09
  -9.72000027      -1.75691850E-09
  -9.71000004      -1.81711901E-09
  -9.69999981      -1.87884019E-09
  -9.68999958      -1.94185867E-09
  -9.68000031      -2.00594363E-09
  -9.67000008      -2.07093387E-09
  -9.65999985      -2.13677187E-09
  -9.64999962      -2.20343854E-09
  -9.64000034      -2.27102537E-09
  -9.63000011      -2.33955433E-09
  -9.61999989      -2.40905829E-09
  -9.60999966      -2.47945975E-09
  -9.60000038      -2.55049892E-09
  -9.59000015      -2.62178879E-09
  -9.57999992      -2.69284395E-09
  -9.56999969      -2.76312750E-09
  -9.56000042      -2.83215429E-09
  -9.55000019      -2.89949686E-09
  -9.53999996      -2.96490810E-09
  -9.52999973      -3.02832914E-09
  -9.52000046      -3.08977421E-09
  -9.51000023      -3.14942472E-09
  -9.50000000      -3.20741966E-09
  -9.48999977      -3.26382099E-09
  -9.47999954      -3.31865690E-09
  -9.47000027      -3.37187545E-09
  -9.46000004      -3.42329276E-09
  -9.44999981      -3.47283224E-09
  -9.43999958      -3.52038909E-09
  -9.43000031      -3.56597862E-09
  -9.42000008      -3.60961483E-09
  -9.40999985      -3.65144515E-09
  -9.39999962      -3.69157327E-09
  -9.39000034      -3.72999232E-09
  -9.38000011      -3.76667764E-09
  -9.36999989      -3.80147291E-09
  -9.35999966      -3.83422227E-09
  -9.35000038      -3.86484222E-09
  -9.34000015      -3.89324972E-09
  -9.32999992      -3.91959842E-09
  -9.31999969      -3.94413613E-09
  -9.31000042      -3.96721456E-09
  -9.30000019      -3.98928757E-09
  -9.28999996      -4.01082989E-09
  -9.27999973      -4.03211065E-09
  -9.27000046      -4.05324974E-09
  -9.26000023      -4.07424405E-09
  -9.25000000      -4.09493195E-09
  -9.23999977      -4.11512291E-09
  -9.22999954      -4.13470946E-09
  -9.22000027      -4.15361834E-09
  -9.21000004      -4.17192947E-09
  -9.19999981      -4.18989909E-09
  -9.18999958      -4.20790558E-09
  -9.18000031      -4.22625268E-09
  -9.17000008      -4.24545776E-09
  -9.15999985      -4.26581170E-09
  -9.14999962      -4.28748637E-09
  -9.14000034      -4.31055636E-09
  -9.13000011      -4.33508740E-09
  -9.11999989      -4.36095515E-09
  -9.10999966      -4.38810988E-09
  -9.10000038      -4.41645787E-09
  -9.09000015      -4.44592585E-09
  -9.07999992      -4.47649162E-09
  -9.06999969      -4.50819648E-09
  -9.06000042      -4.54105908E-09
  -9.05000019      -4.57520866E-09
  -9.03999996      -4.61072647E-09
  -9.02999973      -4.64777639E-09
  -9.02000046      -4.68644590E-09
  -9.01000023      -4.72692729E-09
  -9.00000000      -4.76941420E-09
  -8.98999977      -4.81388662E-09
  -8.97999954      -4.86060081E-09
  -8.97000027      -4.90957763E-09
  -8.96000004      -4.96103070E-09
  -8.94999981      -5.01498931E-09
  -8.93999958      -5.07161912E-09
  -8.93000031      -5.13104759E-09
  -8.92000008      -5.19315302E-09
  -8.90999985      -5.25776933E-09
  -8.89999962      -5.32447020E-09
  -8.89000034      -5.39281020E-09
  -8.88000011      -5.46211920E-09
  -8.86999989      -5.53188562E-09
  -8.85999966      -5.60152946E-09
  -8.85000038      -5.67071412E-09
  -8.84000015      -5.73942005E-09
  -8.82999992      -5.80776760E-09
  -8.81999969      -5.87611559E-09
  -8.81000042      -5.94468874E-09
  -8.80000019      -6.01389694E-09
  -8.78999996      -6.08394179E-09
  -8.77999973      -6.15461948E-09
  -8.77000046      -6.22572882E-09
  -8.76000023      -6.29698738E-09
  -8.75000000      -6.36813002E-09
  -8.73999977      -6.43894538E-09
  -8.72999954      -6.50955601E-09
  -8.72000027      -6.58018129E-09
  -8.71000004      -6.65136124E-09
  -8.69999981      -6.72368916E-09
  -8.68999958      -6.79774237E-09
  -8.68000031      -6.87392188E-09
  -8.67000008      -6.95264157E-09
  -8.65999985      -7.03403691E-09
  -8.64999962      -7.11821313E-09
  -8.64000034      -7.20505433E-09
  -8.63000011      -7.29489980E-09
  -8.61999989      -7.38774153E-09
  -8.60999966      -7.48387574E-09
  -8.60000038      -7.58362440E-09
  -8.59000015      -7.68735564E-09
  -8.57999992      -7.79535370E-09
  -8.56999969      -7.90784771E-09
  -8.56000042      -8.02490163E-09
  -8.55000019      -8.14686008E-09
  -8.53999996      -8.27388114E-09
  -8.52999973      -8.40645331E-09
  -8.52000046      -8.54518323E-09
  -8.51000023      -8.69055317E-09
  -8.50000000      -8.84312712E-09
  -8.48999977      -9.00334829E-09
  -8.47999954      -9.17116871E-09
  -8.47000027      -9.34670297E-09
  -8.46000004      -9.52911705E-09
  -8.44999981      -9.71791003E-09
  -8.43999958      -9.91225235E-09
  -8.43000031      -1.01114273E-08
  -8.42000008      -1.03147109E-08
  -8.40999985      -1.05216280E-08
  -8.39999962      -1.07317311E-08
  -8.39000034      -1.09445244E-08
  -8.38000011      -1.11600036E-08
  -8.36999989      -1.13778089E-08
  -8.35999966      -1.15975620E-08
  -8.35000038      -1.18187033E-08
  -8.34000015      -1.20409256E-08
  -8.32999992      -1.22638104E-08
  -8.31999969      -1.24868240E-08
  -8.31000042      -1.27094495E-08
  -8.30000019      -1.29308786E-08
  -8.28999996      -1.31502285E-08
  -8.27999973      -1.33665017E-08
  -8.27000046      -1.35780986E-08
  -8.26000023      -1.37836711E-08
  -8.25000000      -1.39813521E-08
  -8.23999977      -1.41697969E-08
  -8.22999954      -1.43477097E-08
  -8.22000027      -1.45140557E-08
  -8.21000004      -1.46679717E-08
  -8.19999981      -1.48094781E-08
  -8.18999958      -1.49383563E-08
  -8.18000031      -1.50550168E-08
  -8.17000008      -1.51600119E-08
  -8.15999985      -1.52537769E-08
  -8.14999962      -1.53367345E-08
  -8.14000034      -1.54096345E-08
  -8.13000011      -1.54730078E-08
  -8.11999989      -1.55268935E-08
  -8.10999966      -1.55715991E-08
  -8.10000038      -1.56067408E-08
  -8.09000015      -1.56321089E-08
  -8.07999992      -1.56470037E-08
  -8.06999969      -1.56506648E-08
  -8.06000042      -1.56425575E-08
  -8.05000019      -1.56223869E-08
  -8.03999996      -1.55901994E-08
  -8.02999973      -1.55468740E-08
  -8.02000046      -1.54927502E-08
  -8.01000023      -1.54294888E-08
  -8.00000000      -1.53586566E-08
  -7.98999977      -1.52816497E-08
  -7.98000002      -1.52001203E-08
  -7.96999979      -1.51153507E-08
  -7.96000004      -1.50285366E-08
  -7.94999981      -1.49403316E-08
  -7.94000006      -1.48519748E-08
  -7.92999983      -1.47639847E-08
  -7.92000008      -1.46771884E-08
  -7.90999985      -1.45924401E-08
  -7.90000010      -1.45102872E-08
  -7.88999987      -1.44314241E-08
  -7.88000011      -1.43564085E-08
  -7.86999989      -1.42858410E-08
  -7.86000013      -1.42200349E-08
  -7.84999990      -1.41595216E-08
  -7.84000015      -1.41046375E-08
  -7.82999992      -1.40560363E-08
  -7.82000017      -1.40143408E-08
  -7.80999994      -1.39802907E-08
  -7.80000019      -1.39546019E-08
  -7.78999996      -1.39375826E-08
  -7.78000021      -1.39297587E-08
  -7.76999998      -1.39316567E-08
  -7.76000023      -1.39433842E-08
  -7.75000000      -1.39647529E-08
  -7.73999977      -1.39959635E-08
  -7.73000002      -1.40372949E-08
  -7.71999979      -1.40886529E-08
  -7.71000004      -1.41501681E-08
  -7.69999981      -1.42222865E-08
  -7.69000006      -1.43050523E-08
  -7.67999983      -1.43982550E-08
  -7.67000008      -1.45022101E-08
  -7.65999985      -1.46167984E-08
  -7.65000010      -1.47414534E-08
  -7.63999987      -1.48763135E-08
  -7.63000011      -1.50212234E-08
  -7.61999989      -1.51753898E-08
  -7.61000013      -1.53391309E-08
  -7.59999990      -1.55120876E-08
  -7.59000015      -1.56937112E-08
  -7.57999992      -1.58838063E-08
  -7.57000017      -1.60818914E-08
  -7.55999994      -1.62877907E-08
  -7.55000019      -1.65007776E-08
  -7.53999996      -1.67210175E-08
  -7.53000021      -1.69488761E-08
  -7.51999998      -1.71842931E-08
  -7.51000023      -1.74277019E-08
  -7.50000000      -1.76798327E-08
  -7.48999977      -1.79407671E-08
  -7.48000002      -1.82110682E-08
  -7.46999979      -1.84908640E-08
  -7.46000004      -1.87797298E-08
  -7.44999981      -1.90780032E-08
  -7.44000006      -1.93849257E-08