  -16.0000000       0.00000000    
  -15.9899998       0.00000000    
  -15.9799995       0.00000000    
  -15.9700003       0.00000000    
  -15.9600000       0.00000000    
  -15.9499998       0.00000000    
  -15.9399996       0.00000000    
  -15.9300003       0.00000000    
  -15.9200001       0.00000000    
  -15.9099998       0.00000000    
  -15.8999996       0.00000000    
  -15.8900003      -0.00000000    
  -15.8800001      -0.00000000    
  -15.8699999      -0.00000000    
  -15.8599997      -1.40129846E-45
  -15.8500004      -9.80908925E-45
  -15.8400002      -1.07899982E-43
  -15.8299999      -8.61798556E-43
  -15.8199997      -5.65704190E-42
  -15.8100004      -3.14297233E-41
  -15.8000002      -1.51242143E-40
  -15.7900000      -6.41741447E-40
  -15.7799997      -2.43490742E-39
  -15.7700005      -8.35305467E-39
  -15.7600002      -2.61370358E-38
  -15.7500000      -7.51127198E-38
  -15.7399998      -1.99311636E-37
  -15.7299995      -4.90262047E-37
  -15.7200003      -1.12085698E-36
  -15.7100000      -2.38495295E-36
  -15.6999998      -4.72244058E-36
  -15.6899996      -8.68510600E-36
  -15.6800003      -1.47695599E-35
  -15.6700001      -2.30268883E-35
  -15.6599998      -3.23871595E-35
  -15.6499996      -3.97539103E-35
  -15.6400003      -3.91619329E-35
  -15.6300001      -2.16314178E-35
  -15.6199999       2.33292509E-35
  -15.6099997       1.03576159E-34
  -15.6000004       2.17122806E-34
  -15.5900002       3.42950683E-34
  -15.5799999       4.33278126E-34
  -15.5699997       4.13287237E-34
  -15.5600004       1.95608482E-34
  -15.5500002      -2.85094183E-34
  -15.5400000      -1.01902228E-33
  -15.5299997      -1.86328069E-33
  -15.5200005      -2.50712998E-33
  -15.5100002      -2.49888132E-33
  -15.5000000      -1.36991441E-33
  -15.4899998       1.13416599E-33
  -15.4799995       4.75727156E-33
  -15.4700003       8.48503120E-33
  -15.4600000       1.05259047E-32
  -15.4499998       8.72106532E-33
  -15.4399996       1.49989323E-33
  -15.4300003      -1.07340414E-32
  -15.4200001      -2.42800856E-32
  -15.4099998      -3.17971486E-32
  -15.3999996      -2.40772908E-32
  -15.3900003       5.27761037E-33
  -15.3800001       5.27721262E-32
  -15.3699999       9.82810197E-32
  -15.3599997       1.03993481E-31
  -15.3500004       2.56245749E-32
  -15.3400002      -1.59992269E-31
  -15.3299999      -4.15087321E-31
  -15.3199997      -6.06840965E-31
  -15.3100004      -5.11198043E-31
  -15.3000002       1.08981715E-31
  -15.2900000       1.33470265E-30
  -15.2799997       2.86650993E-30
  -15.2700005       3.85958129E-30
  -15.2600002       3.00280690E-30
  -15.2500000      -9.73767107E-31
  -15.2399998      -8.31757083E-30
  -15.2299995      -1.70598814E-29
  -15.2200003      -2.22796270E-29
  -15.2100000      -1.67970763E-29
  -15.1999998       5.85100602E-30
  -15.1899996       4.61492477E-29
  -15.1800003       9.26709341E-29
  -15.1700001       1.19031282E-28
  -15.1599998       8.84554647E-29
  -15.1499996      -3.03933111E-29
  -15.1400003      -2.37222810E-28
  -15.1300001      -4.72290215E-28
  -15.1199999      -6.04273472E-28
  -15.1099997      -4.55338902E-28
  -15.1000004       1.21748011E-28
  -15.0900002       1.12155259E-27
  -15.0799999       2.26118293E-27
  -15.0699997       2.93108010E-27
  -15.0600004       2.31410247E-27
  -15.0500002      -2.67726435E-28
  -15.0400000      -4.81636907E-27
  -15.0299997      -1.01165787E-26
  -15.0200005      -1.35220589E-26
  -15.0100002      -1.14523529E-26
  -15.0000000      -8.39776426E-28
  -14.9899998       1.86305295E-26
  -14.9799995       4.22368023E-26
  -14.9700003       5.92186665E-26
  -14.9600000       5.45883242E-26
  -14.9499998       1.47400432E-26
  -14.9399996      -6.36629116E-26
  -14.9300003      -1.64302051E-25
  -14.9200001      -2.46324751E-25
  -14.9099998      -2.49891339E-25
  -14.8999996      -1.16261642E-25
  -14.8900003       1.78783491E-25
  -14.8800001       5.87579101E-25
  -14.8699999       9.67087165E-25
  -14.8599997       1.09130909E-24
  -14.8500004       7.16638372E-25
  -14.8400002      -3.00110668E-25
  -14.8299999      -1.85939604E-24
  -14.8199997      -3.51153662E-24
  -14.8100004      -4.46231359E-24
  -14.8000002      -3.75973987E-24
  -14.7900000      -6.79097566E-25
  -14.7799997       4.76715074E-24
  -14.7700005       1.13751439E-23
  -14.7600002       1.66113659E-23
  -14.7500000       1.70472242E-23
  -14.7399998       9.49109084E-24
  -14.7299995      -7.32586408E-24
  -14.7200003      -3.10038933E-23
  -14.7100000      -5.44697474E-23
  -14.6999998      -6.66074958E-23
  -14.6899996      -5.51407967E-23
  -14.6800003      -1.16638078E-23
  -14.6700001       6.23359086E-23
  -14.6599998       1.50692262E-22
  -14.6499996       2.21851214E-22
  -14.6400003       2.34704168E-22
  -14.6300001       1.51755495E-22
  -14.6199999      -4.24564624E-23
  -14.6099997      -3.23136233E-22
  -14.6000004      -6.15280204E-22
  -14.5900002      -8.00423561E-22
  -14.5799999      -7.45363746E-22
  -14.5699997      -3.51233338E-22
  -14.5600004       3.88157178E-22
  -14.5500002       1.33888754E-21
  -14.5400000       2.21531691E-21
  -14.5299997       2.62564555E-21
  -14.5200005       2.18194292E-21
  -14.5100002       6.58721373E-22
  -14.5000000      -1.84267669E-21
  -14.4899998      -4.78750288E-21
  -14.4799995      -7.22647440E-21
  -14.4700003      -7.98632380E-21
  -14.4600000      -6.02958767E-21
  -14.4499998      -9.13582818E-22
  -14.4399996       6.78862767E-21
  -14.4300003       1.52829454E-20
  -14.4200001       2.17297067E-20
  -14.4099998       2.28841035E-20
  -14.3999996       1.61420871E-20
  -14.3900003       7.56743689E-22
  -14.3800001      -2.11616889E-20
  -14.3699999      -4.43122496E-20
  -14.3599997      -6.09050435E-20
  -14.3500004      -6.25216647E-20
  -14.3400002      -4.28808394E-20
  -14.3299999      -8.40333461E-22
  -14.3199997       5.73485870E-20
  -14.3100004       1.17587757E-19
  -14.3000002       1.60051500E-19
  -14.2900000       1.64004441E-19
  -14.2799997       1.14548643E-19
  -14.2700005       9.61791090E-21
  -14.2600002      -1.35077017E-19
  -14.2500000      -2.85466130E-19
  -14.2399998      -3.94450743E-19
  -14.2299995      -4.13187676E-19
  -14.2200003      -3.06404243E-19
  -14.2100000      -6.79348574E-20
  -14.1999998       2.68490600E-19
  -14.1899996       6.28034088E-19
  -14.1800003       9.06200556E-19
  -14.1700001       9.92838730E-19
  -14.1599998       8.04583072E-19
  -14.1499996       3.17908696E-19
  -14.1400003      -4.07236629E-19
  -14.1300001      -1.22288221E-18
  -14.1199999      -1.91378885E-18
  -14.1099997      -2.24357211E-18
  -14.1000004      -2.01866149E-18
  -14.0900002      -1.15548126E-18
  -14.0799999       2.68042036E-19
  -14.0699997       1.99521775E-18
  -14.0600004       3.62030360E-18
  -14.0500002       4.66718090E-18
  -14.0400000       4.70547316E-18
  -14.0299997       3.47964857E-18
  -14.0200005       1.01805823E-18
  -14.0100002      -2.31216503E-18
  -14.0000000      -5.83020015E-18
  -13.9899998      -8.65570727E-18
  -13.9799995      -9.89888942E-18
  -13.9700003      -8.89064310E-18
  -13.9600000      -5.39992562E-18
  -13.9499998       2.20397311E-19
  -13.9399996       7.00962943E-18
  -13.9300003       1.35247661E-17
  -13.9200001       1.81095561E-17
  -13.9099998       1.92639578E-17
  -13.8999996       1.60388087E-17
  -13.8900003       8.36278193E-18
  -13.8800001      -2.78911054E-18
  -13.8699999      -1.54505973E-17
  -13.8599997      -2.69634956E-17
  -13.8500004      -3.44859604E-17
  -13.8400002      -3.56195387E-17
  -13.8299999      -2.90246295E-17
  -13.8199997      -1.48799684E-17
  -13.8100004       4.93989243E-18
  -13.8000002       2.70443856E-17
  -13.7900000       4.70655015E-17
  -13.7799997       6.04744400E-17
  -13.7700005       6.35242748E-17
  -13.7600002       5.41245020E-17
  -13.7500000       3.24520259E-17
  -13.7399998       1.14778755E-18
  -13.7299995      -3.49704401E-17
  -13.7200003      -6.96470260E-17
  -13.7100000      -9.62495383E-17
  -13.6999998      -1.08952564E-16
  -13.6899996      -1.03820517E-16
  -13.6800003      -7.95916626E-17
  -13.6700001      -3.80352336E-17
  -13.6599998       1.61548705E-17
  -13.6499996       7.58795275E-17
  -13.6400003       1.32457318E-16
  -13.6300001       1.76626659E-16
  -13.6199999       1.99625880E-16
  -13.6099997       1.94297063E-16
  -13.6000004       1.56195152E-16
  -13.5900002       8.46829593E-17
  -13.5799999      -1.60646118E-17
  -13.5699997      -1.36328140E-16
  -13.5600004      -2.60679260E-16
  -13.5500002      -3.68752167E-16
  -13.5400000      -4.37282771E-16
  -13.5299997      -4.43560026E-16
  -13.5200005      -3.70092915E-16
  -13.5100002      -2.09854861E-16
  -13.5000000       2.89709686E-17
  -13.4899998       3.20102115E-16
  -13.4799995       6.19476911E-16
  -13.4700003       8.69740895E-16
  -13.4600000       1.00906908E-15
  -13.4499998       9.83430239E-16
  -13.4399996       7.60272209E-16
  -13.4300003       3.40727976E-16
  -13.4200001      -2.32913202E-16
  -13.4099998      -8.77319298E-16
  -13.3999996      -1.47744357E-15
  -13.3900003      -1.90482146E-15
  -13.3800001      -2.04238998E-15
  -13.3699999      -1.81138208E-15
  -13.3599997      -1.19455966E-15
  -13.3500004      -2.49950158E-16
  -13.3400002       8.89494285E-16
  -13.3299999       2.03233380E-15
  -13.3199997       2.95980607E-15
  -13.3100004       3.46682877E-15
  -13.3000002       3.40512687E-15
  -13.2900000       2.71939864E-15
  -13.2799997       1.46803081E-15
  -13.2700005      -1.77559202E-16
  -13.2600002      -1.95665521E-15
  -13.2500000      -3.56284800E-15
  -13.2399998      -4.69971403E-15
  -13.2299995      -5.13763175E-15
  -13.2200003      -4.76000075E-15
  -13.2100000      -3.58887140E-15
  -13.1999998      -1.78418978E-15
  -13.1899996       3.83572835E-16
  -13.1800003       2.58180788E-15
  -13.1700001       4.47497078E-15
  -13.1599998       5.78214039E-15
  -13.1499996       6.32114642E-15
  -13.1400003       6.03099613E-15
  -13.1300001       4.96977354E-15
  -13.1199999       3.29116536E-15
  -13.1099997       1.20774860E-15
  -13.1000004      -1.04824838E-15
  -13.0900002      -3.25657762E-15
  -13.0799999      -5.22631483E-15
  -13.0699997      -6.79772739E-15
  -13.0600004      -7.83325228E-15
  -13.0500002      -8.20640417E-15
  -13.0400000      -7.79873738E-15
  -13.0299997      -6.51249032E-15
  -13.0200005      -4.30095082E-15
  -13.0100002      -1.21114742E-15
  -13.0000000       2.57350442E-15
  -12.9899998       6.70695045E-15
  -12.9799995       1.06865107E-14
  -12.9700003       1.39011447E-14
  -12.9600000       1.57217718E-14
  -12.9499998       1.56212493E-14
  -12.9399996       1.33005289E-14
  -12.9300003       8.79117031E-15
  -12.9200001       2.50494493E-15
  -12.9099998      -4.79008524E-15
  -12.8999996      -1.20723803E-14
  -12.8900003      -1.82353166E-14
  -12.8800001      -2.22902039E-14
  -12.8699999      -2.35611261E-14
  -12.8599997      -2.18267058E-14
  -12.8500004      -1.73724611E-14
  -12.8400002      -1.09363100E-14
  -12.8299999      -3.55415025E-15
  -12.8199997       3.66263230E-15
  -12.8100004       9.76724110E-15
  -12.8000002       1.41773783E-14
  -12.7900000       1.67837359E-14
  -12.7799997       1.79361310E-14
  -12.7700005       1.83054543E-14
  -12.7600002       1.86516977E-14
  -12.7500000       1.95547043E-14
  -12.7399998       2.11784851E-14
  -12.7299995       2.31368015E-14
  -12.7200003       2.45075227E-14
  -12.7100000       2.40084848E-14
  -12.6999998       2.03068119E-14
  -12.6899996       1.23959765E-14
  -12.6800003      -5.01825431E-17
  -12.6700001      -1.64416244E-14
  -12.6599998      -3.52305058E-14
  -12.6499996      -5.40995031E-14
  -12.6400003      -7.03612990E-14
  -12.6300001      -8.14941444E-14
  -12.6199999      -8.56935508E-14
  -12.6099997      -8.22992661E-14
  -12.6000004      -7.19680663E-14
  -12.5900002      -5.65085698E-14
  -12.5799999      -3.83672349E-14
  -12.5699997      -1.98425633E-14
  -12.5600004      -2.18656706E-15
  -12.5500002       1.51891591E-14
  -12.5400000       3.51703665E-14
  -12.5299997       6.28653623E-14
  -12.5200005       1.04890075E-13
  -12.5100002       1.68031631E-13
  -12.5000000       2.57446760E-13
  -12.4899998       3.74675172E-13
  -12.4799995       5.15823441E-13
  -12.4700003       6.70285008E-13
  -12.4600000       8.20290396E-13
  -12.4499998       9.41444188E-13
  -12.4399996       1.00422990E-12
  -12.4300003       9.76267569E-13
  -12.4200001       8.24973336E-13
  -12.4099998       5.20192667E-13
  -12.3999996       3.64028469E-14
  -12.3900003      -6.45800525E-13
  -12.3800001      -1.53902173E-12
  -12.3699999      -2.64907605E-12
  -12.3599997      -3.97537428E-12
  -12.3500004      -5.51128370E-12
  -12.3400002      -7.24404130E-12
  -12.3299999      -9.15397966E-12
  -12.3199997      -1.12129854E-11
  -12.3100004      -1.33824410E-11
  -12.3000002      -1.56111235E-11
  -12.2900000      -1.78337137E-11
  -12.2799997      -1.99704923E-11
  -12.2700005      -2.19288684E-11
  -12.2600002      -2.36067901E-11
  -12.2500000      -2.48980576E-11
  -12.2399998      -2.56988753E-11
  -12.2299995      -2.59149091E-11
  -12.2200003      -2.54678778E-11
  -12.2100000      -2.43007107E-11
  -12.1999998      -2.23807743E-11
  -12.1899996      -1.97006422E-11
  -12.1800003      -1.62767733E-11
  -12.1700001      -1.21463508E-11
  -12.1599998      -7.36332002E-12
  -12.1499996      -1.99421100E-12
  -12.1400003       3.88540285E-12
  -12.1300001       1.01934780E-11
  -12.1199999       1.68429333E-11
  -12.1099997       2.37422842E-11
  -12.1000004       3.07959283E-11
  -12.0900002       3.79046447E-11
  -12.0799999       4.49668983E-11
  -12.0699997       5.18811070E-11
  -12.0600004       5.85486520E-11
  -12.0500002       6.48774992E-11
  -12.0400000       7.07856621E-11
  -12.0299997       7.62036545E-11
  -12.0200005       8.10757225E-11
  -12.0100002       8.53590740E-11
  -12.0000000       8.90213736E-11
  -11.9899998       9.20368920E-11
  -11.9799995       9.43817385E-11
  -11.9700003       9.60292471E-11
  -11.9600000       9.69461178E-11
  -11.9499998       9.70901623E-11
  -11.9399996       9.64095123E-11
  -11.9300003       9.48441395E-11
  -11.9200001       9.23284574E-11
  -11.9099998       8.87954224E-11
  -11.8999996       8.41809469E-11
  -11.8900003       7.84281806E-11
  -11.8800001       7.14916043E-11
  -11.8699999       6.33403607E-11
  -11.8599997       5.39606831E-11
  -11.8500004       4.33577584E-11
  -11.8400002       3.15567503E-11
  -11.8299999       1.86032491E-11
  -11.8199997       4.56355830E-12
  -11.8100004      -1.04758632E-11
  -11.8000002      -2.64095620E-11
  -11.7900000      -4.31143038E-11
  -11.7799997      -6.04514216E-11
  -11.7700005      -7.82690648E-11
  -11.7600002      -9.64052935E-11
  -11.7500000      -1.14690778E-10
  -11.7399998      -1.32951816E-10
  -11.7299995      -1.51013091E-10
  -11.7200003      -1.68699915E-10
  -11.7100000      -1.85840857E-10
  -11.6999998      -2.02269479E-10
  -11.6899996      -2.17826687E-10
  -11.6800003      -2.32362504E-10
  -11.6700001      -2.45738208E-10
  -11.6599998      -2.57828037E-10
  -11.6499996      -2.68520428E-10
  -11.6400003      -2.77718598E-10
  -11.6300001      -2.85339641E-10
  -11.6199999      -2.91312585E-10
  -11.6099997      -2.95575286E-10
  -11.6000004      -2.98069708E-10
  -11.5900002      -2.98737007E-10
  -11.5799999      -2.97512653E-10
  -11.5699997      -2.94322677E-10
  -11.5600004      -2.89081231E-10
  -11.5500002      -2.81691642E-10
  -11.5400000      -2.72048467E-10
  -11.5299997      -2.60043681E-10
  -11.5200005      -2.45574255E-10
  -11.5100002      -2.28550651E-10
  -11.5000000      -2.08905407E-10
  -11.4899998      -1.86599999E-10
  -11.4799995      -1.61629390E-10
  -11.4700003      -1.34022890E-10
  -11.4600000      -1.03841741E-10
  -11.4499998      -7.11738446E-11
  -11.4399996      -3.61264733E-11
  -11.4300003       1.18204892E-12
  -11.4200001       4.06292222E-11
  -11.4099998       8.20939497E-11
  -11.3999996       1.25458435E-10
  -11.3900003       1.70608055E-10
  -11.3800001       2.17428853E-10
  -11.3699999       2.65803740E-10
  -11.3599997       3.15609205E-10
  -11.3500004       3.66714187E-10
  -11.3400002       4.18981100E-10
  -11.3299999       4.72269390E-10
  -11.3199997       5.26440724E-10
  -11.3100004       5.81365345E-10
  -11.3000002       6.36925901E-10
  -11.2900000       6.93019531E-10
  -11.2799997       7.49555751E-10
  -11.2700005       8.06450295E-10
  -11.2600002       8.63617289E-10
  -11.2500000       9.20959697E-10
  -11.2399998       9.78361281E-10
  -11.2299995       1.03568254E-09
  -11.2200003       1.09276022E-09
  -11.2100000       1.14941379E-09
  -11.1999998       1.20545485E-09
  -11.1899996       1.26069821E-09
  -11.1800003       1.31497446E-09
  -11.1700001       1.36814138E-09
  -11.1599998       1.42008882E-09
  -11.1499996       1.47074031E-09
  -11.1400003       1.52005297E-09
  -11.1300001       1.56801083E-09
  -11.1199999       1.61461855E-09
  -11.1099997       1.65989600E-09
  -11.1000004       1.70386838E-09
  -11.0900002       1.74656822E-09
  -11.0799999       1.78802706E-09
  -11.0699997       1.82827598E-09
  -11.0600004       1.86734495E-09
  -11.0500002       1.90526173E-09
  -11.0400000       1.94205541E-09
  -11.0299997       1.97776173E-09
  -11.0200005       2.01242689E-09
  -11.0100002       2.04611950E-09
  -11.0000000       2.07893835E-09
  -10.9899998       2.11101781E-09
  -10.9799995       2.14252771E-09
  -10.9700003       2.17366658E-09
  -10.9600000       2.20464447E-09
  -10.9499998       2.23566143E-09
  -10.9399996       2.26687935E-09
  -10.9300003       2.29839126E-09
  -10.9200001       2.33021002E-09
  -10.9099998       2.36225373E-09
  -10.8999996       2.39435782E-09
  -10.8900003       2.42630027E-09
  -10.8800001       2.45783172E-09
  -10.8699999       2.48872234E-09
  -10.8599997       2.51878274E-09
  -10.8500004       2.54790034E-09
  -10.8400002       2.57604338E-09
  -10.8299999       2.60325339E-09
  -10.8199997       2.62962163E-09
  -10.8100004       2.65525779E-09
  -10.8000002       2.68025246E-09
  -10.7900000       2.70466538E-09
  -10.7799997       2.72849365E-09
  -10.7700005       2.75168421E-09
  -10.7600002       2.77413914E-09
  -10.7500000       2.79573209E-09
  -10.7399998       2.81632473E-09
  -10.7299995       2.83579182E-09
  -10.7200003       2.85402724E-09
  -10.7100000       2.87095214E-09
  -10.6999998       2.88650792E-09
  -10.6899996       2.90065949E-09
  -10.6800003       2.91338265E-09
  -10.6700001       2.92467783E-09
  -10.6599998       2.93455837E-09
  -10.6499996       2.94307623E-09
  -10.6400003       2.95029379E-09
  -10.6300001       2.95630764E-09
  -10.6199999       2.96123859E-09
  -10.6099997       2.96522473E-09
  -10.6000004       2.96841107E-09
  -10.5900002       2.97094882E-09
  -10.5799999       2.97298985E-09
  -10.5699997       2.97467384E-09
  -10.5600004       2.97613401E-09
  -10.5500002       2.97750380E-09
  -10.5400000       2.97890801E-09
  -10.5299997       2.98045788E-09
  -10.5200005       2.98224379E-09
  -10.5100002       2.98434411E-09
  -10.5000000       2.98680636E-09
  -10.4899998       2.98964475E-09
  -10.4799995       2.99285663E-09
  -10.4700003       2.99641800E-09
  -10.4600000       3.00031822E-09
  -10.4499998       3.00456082E-09
  -10.4399996       3.00919734E-09
  -10.4300003       3.01431302E-09
  -10.4200001       3.02003045E-09
  -10.4099998       3.02649528E-09
  -10.3999996       3.03387782E-09
  -10.3900003       3.04230352E-09
  -10.3800001       3.05187764E-09
  -10.3699999       3.06265080E-09
  -10.3599997       3.07461345E-09
  -10.3500004       3.08770742E-09
  -10.3400002       3.10183257E-09
  -10.3299999       3.11686144E-09
  -10.3199997       3.13266368E-09
  -10.3100004       3.14912763E-09
  -10.3000002       3.16615578E-09
  -10.2900000       3.18369842E-09
  -10.2799997       3.20175730E-09
  -10.2700005       3.22038884E-09
  -10.2600002       3.23969718E-09
  -10.2500000       3.25982774E-09
  -10.2399998       3.28095862E-09
  -10.2299995       3.30329808E-09
  -10.2200003       3.32703820E-09
  -10.2100000       3.35235750E-09
  -10.1999998       3.37941852E-09
  -10.1899996       3.40833139E-09
  -10.1800003       3.43917628E-09
  -10.1700001       3.47198670E-09
  -10.1599998       3.50679019E-09
  -10.1499996       3.54356100E-09
  -10.1400003       3.58228713E-09
  -10.1300001       3.62292329E-09
  -10.1199999       3.66542574E-09
  -10.1099997       3.70972120E-09
  -10.1000004       3.75574194E-09
  -10.0900002       3.80343357E-09
  -10.0799999       3.85275944E-09
  -10.0699997       3.90375199E-09
  -10.0600004       3.95650801E-09
  -10.0500002       4.01120648E-09
  -10.0400000       4.06810630E-09
  -10.0299997       4.12752943E-09
  -10.0200005       4.18982893E-09
  -10.0100002       4.25534674E-09
  -10.0000000       4.32436087E-09
  -9.98999977       4.39705783E-09
  -9.97999954       4.47354509E-09
  -9.97000027       4.55379956E-09
  -9.96000004       4.63775418E-09
  -9.94999981       4.72527928E-09
  -9.93999958       4.81625761E-09
  -9.93000031       4.91056484E-09
  -9.92000008       5.00812547E-09
  -9.90999985       5.10886533E-09
  -9.89999962       5.21270893E-09
  -9.89000034       5.31959676E-09
  -9.88000011       5.42942047E-09
  -9.86999989       5.54205748E-09
  -9.85999966       5.65738789E-09
  -9.85000038       5.77534820E-09
  -9.84000015       5.89592597E-09
  -9.82999992       6.01924555E-09
  -9.81999969       6.14550855E-09
  -9.81000042       6.27507601E-09
  -9.80000019       6.40835118E-09
  -9.78999996       6.54581189E-09
  -9.77999973       6.68788225E-09
  -9.77000046       6.83493262E-09
  -9.76000023       6.98725078E-09
  -9.75000000       7.14501791E-09
  -9.73999977       7.30835081E-09
  -9.72999954       7.47727658E-09
  -9.72000027       7.65178765E-09
  -9.71000004       7.83187470E-09
  -9.69999981       8.01750932E-09
  -9.68999958       8.20863200E-09
  -9.68000031       8.40517256E-09
  -9.67000008       8.60701377E-09
  -9.65999985       8.81397799E-09
  -9.64999962       9.02579433E-09
  -9.64000034       9.24219368E-09
  -9.63000011       9.46285539E-09
  -9.61999989       9.68740999E-09
  -9.60999966       9.91546845E-09
  -9.60000038       1.01465769E-08
  -9.59000015       1.03802282E-08
  -9.57999992       1.06157341E-08
  -9.56999969       1.08522853E-08
  -9.56000042       1.10888605E-08
  -9.55000019       1.13242864E-08
  -9.53999996       1.15572458E-08
  -9.52999973       1.17863621E-08
  -9.52000046       1.20102595E-08
  -9.51000023       1.22276882E-08
  -9.50000000       1.24375408E-08
  -9.48999977       1.26388651E-08
  -9.47999954       1.28309070E-08
  -9.47000027       1.30130697E-08
  -9.46000004       1.31848630E-08
  -9.44999981       1.33458284E-08
  -9.43999958       1.34956668E-08
  -9.43000031       1.36341605E-08
  -9.42000008       1.37612215E-08
  -9.40999985       1.38769911E-08
  -9.39999962       1.39818823E-08
  -9.39000034       1.40765746E-08
  -9.38000011       1.41620484E-08
  -9.36999989       1.42395269E-08
  -9.35999966       1.43104080E-08
  -9.35000038       1.43762291E-08
  -9.34000015       1.44386059E-08
  -9.32999992       1.44991885E-08
  -9.31999969       1.45597205E-08
  -9.31000042       1.46219499E-08
  -9.30000019       1.46877506E-08
  -9.28999996       1.47590651E-08
  -9.27999973       1.48378643E-08
  -9.27000046       1.49261563E-08
  -9.26000023       1.50259147E-08
  -9.25000000       1.51389887E-08
  -9.23999977       1.52670960E-08
  -9.22999954       1.54119153E-08
  -9.22000027       1.55749742E-08
  -9.21000004       1.57577507E-08
  -9.19999981       1.59617191E-08
  -9.18999958       1.61882916E-08
  -9.18000031       1.64388130E-08
  -9.17000008       1.67144396E-08
  -9.15999985       1.70160170E-08
  -9.14999962       1.73440498E-08
  -9.14000034       1.76985360E-08
  -9.13000011       1.80790298E-08
  -9.11999989       1.84847373E-08
  -9.10999966       1.89145286E-08
  -9.10000038       1.93670999E-08
  -9.09000015       1.98410692E-08
  -9.07999992       2.03349497E-08
  -9.06999969       2.08472670E-08
  -9.06000042       2.13763602E-08
  -9.05000019       2.19203802E-08
  -9.03999996       2.24771810E-08
  -9.02999973       2.30443220E-08
  -9.02000046       2.36191546E-08
  -9.01000023       2.41988989E-08
  -9.00000000       2.47806842E-08
  -8.98999977       2.53618602E-08
  -8.97999954       2.59397286E-08
  -8.97000027       2.65119535E-08
  -8.96000004       2.70762328E-08
  -8.94999981       2.76303709E-08
  -8.93999958       2.81720407E-08
  -8.93000031       2.86989827E-08
  -8.92000008       2.92087652E-08
  -8.90999985       2.96990930E-08
  -8.89999962       3.01677332E-08
  -8.89000034       3.06126893E-08
  -8.88000011       3.10323607E-08
  -8.86999989       3.14253867E-08
  -8.85999966       3.17907336E-08
  -8.85000038       3.21275344E-08
  -8.84000015       3.24349756E-08
  -8.82999992       3.27123324E-08
  -8.81999969       3.29588588E-08
  -8.81000042       3.31739471E-08
  -8.80000019       3.33570860E-08
  -8.78999996       3.35081509E-08
  -8.77999973       3.36272770E-08
  -8.77000046       3.37149864E-08
  -8.76000023       3.37719719E-08
  -8.75000000       3.37992816E-08
  -8.73999977       3.37977966E-08
  -8.72999954       3.37685293E-08
  -8.72000027       3.37121762E-08
  -8.71000004       3.36296750E-08
  -8.69999981       3.35217614E-08
  -8.68999958       3.33894867E-08
  -8.68000031       3.32340129E-08
  -8.67000008       3.30568213E-08
  -8.65999985       3.28596670E-08
  -8.64999962       3.26443796E-08
  -8.64000034       3.24128528E-08
  -8.63000011       3.21669802E-08
  -8.61999989       3.19085025E-08
  -8.60999966       3.16393276E-08
  -8.60000038       3.13611501E-08
  -8.59000015       3.10760448E-08
  -8.57999992       3.07861612E-08
  -8.56999969       3.04937657E-08
  -8.56000042       3.02014200E-08
  -8.55000019       2.99116074E-08
  -8.53999996       2.96266904E-08
  -8.52999973       2.93486924E-08
  -8.52000046       2.90794642E-08
  -8.51000023       2.88204447E-08
  -8.50000000       2.85729005E-08
  -8.48999977       2.83377908E-08
  -8.47999954       2.81161050E-08
  -8.47000027       2.79087811E-08
  -8.46000004       2.77166112E-08
  -8.44999981       2.75402137E-08
  -8.43999958       2.73800804E-08
  -8.43000031       2.72363838E-08
  -8.42000008       2.71088769E-08
  -8.40999985       2.69971814E-08
  -8.39999962       2.69005014E-08
  -8.39000034       2.68180642E-08
  -8.38000011       2.67491398E-08
  -8.36999989       2.66930726E-08
  -8.35999966       2.66494506E-08
  -8.35000038       2.66179860E-08
  -8.34000015       2.65984301E-08
  -8.32999992       2.65907580E-08
  -8.31999969       2.65947975E-08
  -8.31000042       2.66105076E-08
  -8.30000019       2.66376805E-08
  -8.28999996       2.66761351E-08
  -8.27999973       2.67259388E-08
  -8.27000046       2.67870774E-08
  -8.26000023       2.68597020E-08
  -8.25000000       2.69441074E-08
  -8.23999977       2.70405671E-08
  -8.22999954       2.71494631E-08
  -8.22000027       2.72712608E-08
  -8.21000004       2.74063314E-08
  -8.19999981       2.75551386E-08
  -8.18999958       2.77181869E-08
  -8.18000031       2.78959984E-08
  -8.17000008       2.80892838E-08
  -8.15999985       2.82988477E-08
  -8.14999962       2.85255872E-08
  -8.14000034       2.87702235E-08
  -8.13000011       2.90336928E-08
  -8.11999989       2.93167552E-08
  -8.10999966       2.96201481E-08
  -8.10000038       2.99446015E-08
  -8.09000015       3.02908916E-08
  -8.07999992       3.06596242E-08
  -8.06999969       3.10516413E-08
  -8.06000042       3.14674935E-08
  -8.05000019       3.19078310E-08
  -8.03999996       3.23733964E-08
  -8.02999973       3.28646870E-08
  -8.02000046       3.33821859E-08
  -8.01000023       3.39265043E-08
  -8.00000000       3.44980045E-08
  -7.98999977       3.50971270E-08
  -7.98000002       3.57242627E-08
  -7.96999979       3.63795216E-08
  -7.96000004       3.70631561E-08
  -7.94999981       3.77750524E-08
  -7.94000006       3.85150862E-08
  -7.92999983       3.92828348E-08
  -7.92000008       4.00778859E-08
  -7.90999985       4.08997316E-08
  -7.90000010       4.17478212E-08
  -7.88999987       4.26215223E-08
  -7.88000011       4.35202274E-08
  -7.86999989       4.44430377E-08
  -7.86000013       4.53889584E-08
  -7.84999990       4.63568810E-08
  -7.84000015       4.73454378E-08
  -7.82999992       4.83531544E-08
  -7.82000017       4.93784995E-08
  -7.80999994       5.04197715E-08
  -7.80000019       5.14756273E-08
  -7.78999996       5.25442516E-08
  -7.78000021       5.36244897E-08
  -7.76999998       5.47146684E-08
  -7.76000023       5.58133060E-08
  -7.75000000       5.69185801E-08
  -7.73999977       5.80289310E-08
  -7.73000002       5.91425504E-08
  -7.71999979       6.02576549E-08
  -7.71000004       6.13729441E-08
  -7.69999981       6.24870538E-08
  -7.69000006       6.35992023E-08
  -7.67999983       6.47084946E-08
  -7.67000008       6.58140280E-08
  -7.65999985       6.69156677E-08
  -7.65000010       6.80125609E-08
  -7.63999987       6.91043240E-08
  -7.63000011       7.01904241E-08
  -7.61999989       7.12704562E-08
  -7.61000013       7.23440579E-08
  -7.59999990       7.34112788E-08
  -7.59000015       7.44725028E-08
  -7.57999992       7.55280283E-08
  -7.57000017       7.65785941E-08
  -7.55999994       7.76249323E-08
  -7.55000019       7.86676893E-08
  -7.53999996       7.97073838E-08
  -7.53000021       8.07443925E-08
  -7.51999998       8.17791417E-08
  -7.51000023       8.28121216E-08
  -7.50000000       8.38440357E-08
  -7.48999977       8.48756585E-08
  -7.48000002       8.59075868E-08
  -7.46999979       8.69414549E-08
  -7.46000004       8.79782363E-08
  -7.44999981       8.90193164E-08
  -7.44000006       9.00657611E-08