  -16.0000000       0.00000000    
  -15.9899998       0.00000000    
  -15.9799995       0.00000000    
  -15.9700003       0.00000000    
  -15.9600000       0.00000000    
  -15.9499998       0.00000000    
  -15.9399996       0.00000000    
  -15.9300003       0.00000000    
  -15.9200001       0.00000000    
  -15.9099998       0.00000000    
  -15.8999996       0.00000000    
  -15.8900003      -6.08806589E-39
  -15.8800001      -1.02237301E-37
  -15.8699999      -1.32902267E-36
  -15.8599997      -1.52193716E-35
  -15.8500004      -1.35723002E-34
  -15.8400002      -9.20730562E-34
  -15.8299999      -4.87196931E-33
  -15.8199997      -2.06522955E-32
  -15.8100004      -7.12181069E-32
  -15.8000002      -1.99257624E-31
  -15.7900000      -4.35237645E-31
  -15.7799997      -6.29746131E-31
  -15.7700005       3.96922418E-32
  -15.7600002       4.11073045E-30
  -15.7500000       1.73973811E-29
  -15.7399998       5.01432863E-29
  -15.7299995       1.15074663E-28
  -15.7200003       2.17582104E-28
  -15.7100000       3.33065606E-28
  -15.6999998       3.72234038E-28
  -15.6899996       1.50769801E-28
  -15.6800003      -5.96656130E-28
  -15.6700001      -2.10226501E-27
  -15.6599998      -4.32000647E-27
  -15.6499996      -6.61862311E-27
  -15.6400003      -7.65002100E-27
  -15.6300001      -5.75162068E-27
  -15.6199999      -7.08295464E-29
  -15.6099997       8.12475272E-27
  -15.6000004       1.56992072E-26
  -15.5900002       2.20104133E-26
  -15.5799999       3.83480200E-26
  -15.5699997       9.71899685E-26
  -15.5600004       2.45163425E-25
  -15.5500002       4.94377798E-25
  -15.5400000       7.14596997E-25
  -15.5299997       4.94331551E-25
  -15.5200005      -9.07619773E-25
  -15.5100002      -4.28756591E-24
  -15.5000000      -9.63783553E-24
  -15.4899998      -1.46620260E-23
  -15.4799995      -1.32470398E-23
  -15.4700003       4.53859841E-24
  -15.4600000       4.84747422E-23
  -15.4499998       1.18085649E-22
  -15.4399996       1.87067345E-22
  -15.4300003       1.89132078E-22
  -15.4200001       2.05747057E-23
  -15.4099998      -4.19314003E-22
  -15.3999996      -1.13427980E-21
  -15.3900003      -1.89417615E-21
  -15.3800001      -2.11636886E-21
  -15.3699999      -8.88911389E-22
  -15.3599997       2.70534630E-21
  -15.3500004       8.85573748E-21
  -15.3400002       1.59717332E-20
  -15.3299999       1.97573285E-20
  -15.3199997       1.32710426E-20
  -15.3100004      -1.09491087E-20
  -15.3000002      -5.59642291E-20
  -15.2900000      -1.13245743E-19
  -15.2799997      -1.55954061E-19
  -15.2700005      -1.37956937E-19
  -15.2600002      -5.26794295E-21
  -15.2500000       2.75235508E-19
  -15.2399998       6.71898235E-19
  -15.2299995       1.04353498E-18
  -15.2200003       1.12262192E-18
  -15.2100000       5.64264564E-19
  -15.1999998      -9.08343367E-19
  -15.1899996      -3.26454894E-18
  -15.1800003      -5.89703842E-18
  -15.1700001      -7.46270685E-18
  -15.1599998      -6.02890300E-18
  -15.1499996       2.95791619E-19
  -15.1400003       1.22049151E-17
  -15.1300001       2.77473716E-17
  -15.1199999       4.11919997E-17
  -15.1099997       4.31157968E-17
  -15.1000004       2.26619546E-17
  -15.0900002      -2.75654812E-17
  -15.0799999      -1.04616331E-16
  -15.0699997      -1.88568222E-16
  -15.0600004      -2.39979601E-16
  -15.0500002      -2.05893513E-16
  -15.0400000      -3.75755694E-17
  -15.0299997       2.80752670E-16
  -15.0200005       6.99252432E-16
  -15.0100002       1.08001762E-15
  -15.0000000       1.20360862E-15
  -14.9899998       8.21490669E-16
  -14.9799995      -2.40434220E-16
  -14.9700003      -1.94418668E-15
  -14.9600000      -3.91319693E-15
  -14.9499998      -5.38631258E-15
  -14.9399996      -5.32727523E-15
  -14.9300003      -2.73711582E-15
  -14.9200001       2.85055301E-15
  -14.9099998       1.08108484E-14
  -14.8999996       1.90282089E-14
  -14.8900003       2.39392094E-14
  -14.8800001       2.12644504E-14
  -14.8699999       7.50517270E-15
  -14.8599997      -1.80245799E-14
  -14.8500004      -5.12328928E-14
  -14.8400002      -8.22658592E-14
  -14.8299999      -9.64927533E-14
  -14.8199997      -7.81245253E-14
  -14.8100004      -1.63385032E-14
  -14.8000002       8.73745114E-14
  -14.7900000       2.13131785E-13
  -14.7799997       3.21098806E-13
  -14.7700005       3.57456361E-13
  -14.7600002       2.69264672E-13
  -14.7500000       2.65615150E-14
  -14.7399998      -3.53790022E-13
  -14.7299995      -7.91389903E-13
  -14.7200003      -1.14297146E-12
  -14.7100000      -1.22851620E-12
  -14.6999998      -8.84397048E-13
  -14.6899996      -3.50600117E-14
  -14.6800003       1.23648195E-12
  -14.6700001       2.64745409E-12
  -14.6599998       3.73251126E-12
  -14.6499996       3.93838694E-12
  -14.6400003       2.79334368E-12
  -14.6300001       1.18968000E-13
  -14.6199999      -3.77787602E-12
  -14.6099997      -8.01318994E-12
  -14.6000004      -1.12092254E-11
  -14.5900002      -1.17928436E-11
  -14.5799999      -8.48433736E-12
  -14.5699997      -8.72537557E-13
  -14.5600004       1.00993892E-11
  -14.5500002       2.19464481E-11
  -14.5400000       3.09308863E-11
  -14.5299997       3.28995546E-11
  -14.5200005       2.45708766E-11
  -14.5100002       4.97817933E-12
  -14.5000000      -2.33804174E-11
  -14.4899998      -5.41858260E-11
  -14.4799995      -7.81257420E-11
  -14.4700003      -8.50142942E-11
  -14.4600000      -6.69000619E-11
  -14.4499998      -2.14238002E-11
  -14.4399996       4.56291602E-11
  -14.4300003       1.19685789E-10
  -14.4200001       1.79443363E-10
  -14.4099998       2.01745662E-10
  -14.3999996       1.68486905E-10
  -14.3900003       7.38534026E-11
  -14.3800001      -7.03689398E-11
  -14.3699999      -2.33676467E-10
  -14.3599997      -3.71403241E-10
  -14.3500004      -4.34970643E-10
  -14.3400002      -3.86007615E-10
  -14.3299999      -2.10805470E-10
  -14.3199997       6.94043642E-11
  -14.3100004       3.96606109E-10
  -14.3000002       6.85148327E-10
  -14.2900000       8.41530789E-10
  -14.2799997       7.91014143E-10
  -14.2700005       5.04238484E-10
  -14.2600002       1.55756935E-11
  -14.2500000      -5.74200409E-10
  -14.2399998      -1.11492793E-09
  -14.2299995      -1.44239531E-09
  -14.2200003      -1.42464818E-09
  -14.2100000      -1.00708275E-09
  -14.1999998      -2.42254244E-10
  -14.1899996       7.07474690E-10
  -14.1800003       1.59999380E-09
  -14.1700001       2.17256235E-09
  -14.1599998       2.21670238E-09
  -14.1499996       1.64847924E-09
  -14.1400003       5.51891588E-10
  -14.1300001      -8.22119262E-10
  -14.1199999      -2.10751949E-09
  -14.1099997      -2.91758129E-09
  -14.1000004      -2.95906699E-09
  -14.0900002      -2.13389795E-09
  -14.0799999      -5.95135385E-10
  -14.0699997       1.26653898E-09
  -14.0600004       2.91152191E-09
  -14.0500002       3.79831278E-09
  -14.0400000       3.55157281E-09
  -14.0299997       2.10216045E-09
  -14.0200005      -2.48061072E-10
  -14.0100002      -2.86717894E-09
  -14.0000000      -4.94213692E-09
  -13.9899998      -5.70495473E-09
  -13.9799995      -4.67787364E-09
  -13.9700003      -1.86544757E-09
  -13.9600000       2.17191332E-09
  -13.9499998       6.40133768E-09
  -13.9399996       9.55427293E-09
  -13.9300003       1.04671027E-08
  -13.9200001       8.43923331E-09
  -13.9099998       3.50660900E-09
  -13.8999996      -3.45899687E-09
  -13.8900003      -1.08749028E-08
  -13.8800001      -1.67882508E-08
  -13.8699999      -1.93622167E-08
  -13.8599997      -1.73891443E-08
  -13.8500004      -1.06925224E-08
  -13.8400002      -2.96946245E-10
  -13.8299999       1.17026921E-08
  -13.8199997       2.25660965E-08
  -13.8100004       2.95403080E-08
  -13.8000002       3.05516998E-08
  -13.7900000       2.47816505E-08
  -13.7799997       1.29685018E-08
  -13.7700005      -2.66086975E-09
  -13.7600002      -1.88362179E-08
  -13.7500000      -3.19752438E-08
  -13.7399998      -3.90316011E-08
  -13.7299995      -3.82510983E-08
  -13.7200003      -2.96405194E-08
  -13.7100000      -1.50174877E-08
  -13.6999998       2.38921527E-09
  -13.6899996       1.87055900E-08
  -13.6800003       3.03633563E-08
  -13.6700001       3.49982514E-08
  -13.6599998       3.20601714E-08
  -13.6499996       2.29623023E-08
  -13.6400003       1.07080469E-08
  -13.6300001      -9.31312194E-10
  -13.6199999      -8.49083648E-09
  -13.6099997      -9.85887105E-09
  -13.6000004      -5.00299135E-09
  -13.5900002       3.85702803E-09
  -13.5799999       1.27317490E-08
  -13.5699997       1.69332477E-08
  -13.5600004       1.24984414E-08
  -13.5500002      -2.39686915E-09
  -13.5400000      -2.64372275E-08
  -13.5299997      -5.49227082E-08
  -13.5200005      -8.04616107E-08
  -13.5100002      -9.45510124E-08
  -13.5000000      -8.97471679E-08
  -13.4899998      -6.19255829E-08
  -13.4799995      -1.20358470E-08
  -13.4700003       5.31932969E-08
  -13.4600000       1.21940133E-07
  -13.4499998       1.79388692E-07
  -13.4399996       2.10893518E-07
  -13.4300003       2.05539948E-07
  -13.4200001       1.59243626E-07
  -13.4099998       7.65465415E-08
  -13.3999996      -2.94929983E-08
  -13.3900003      -1.39495157E-07
  -13.3800001      -2.31698351E-07
  -13.3699999      -2.86818477E-07
  -13.3599997      -2.92683183E-07
  -13.3500004      -2.47446621E-07
  -13.3400002      -1.60450796E-07
  -13.3299999      -5.03335080E-08
  -13.3199997       5.93251315E-08
  -13.3100004       1.45847324E-07
  -13.3000002       1.93340156E-07
  -13.2900000       1.97026253E-07
  -13.2799997       1.64717179E-07
  -13.2700005       1.14786673E-07
  -13.2600002       7.09122645E-08
  -13.2500000       5.47787415E-08
  -13.2399998       7.86344927E-08
  -13.2299995       1.39843024E-07
  -13.2200003       2.19260244E-07
  -13.2100000       2.84419940E-07
  -13.1999998       2.97288011E-07
  -13.1899996       2.25050371E-07
  -13.1800003       5.13554568E-08
  -13.1700001      -2.15034916E-07
  -13.1599998      -5.36946573E-07
  -13.1499996      -8.52548567E-07
  -13.1400003      -1.08623249E-06
  -13.1300001      -1.16483864E-06
  -13.1199999      -1.03585364E-06
  -13.1099997      -6.83296093E-07
  -13.1000004      -1.37080491E-07
  -13.0900002       5.27185819E-07
  -13.0799999       1.19898618E-06
  -13.0699997       1.75279104E-06
  -13.0600004       2.07325775E-06
  -13.0500002       2.08032770E-06
  -13.0400000       1.74843331E-06
  -13.0299997       1.11501890E-06
  -13.0200005       2.75833628E-07
  -13.0100002      -6.32558908E-07
  -13.0000000      -1.45954584E-06
  -12.9899998      -2.07066478E-06
  -12.9799995      -2.37438303E-06
  -12.9700003      -2.33925039E-06
  -12.9600000      -1.99741180E-06
  -12.9499998      -1.43373279E-06
  -12.9399996      -7.63327307E-07
  -12.9300003      -1.03176802E-07
  -12.9200001       4.54940505E-07
  -12.9099998       8.63303399E-07
  -12.8999996       1.12408111E-06
  -12.8900003       1.28074885E-06
  -12.8800001       1.39755207E-06
  -12.8699999       1.53278950E-06
  -12.8599997       1.71355953E-06
  -12.8500004       1.91950448E-06
  -12.8400002       2.08094889E-06
  -12.8299999       2.09315704E-06
  -12.8199997       1.84409907E-06
  -12.8100004       1.24926657E-06
  -12.8000002       2.84659109E-07
  -12.7900000      -9.91158117E-07
  -12.7799997      -2.43295904E-06
  -12.7700005      -3.82577900E-06
  -12.7600002      -4.92092613E-06
  -12.7500000      -5.48434673E-06
  -12.7399998      -5.34718401E-06
  -12.7299995      -4.44713532E-06
  -12.7200003      -2.85066949E-06
  -12.7100000      -7.49968308E-07
  -12.6999998       1.56611316E-06
  -12.6899996       3.76198591E-06
  -12.6800003       5.51622270E-06
  -12.6700001       6.58069257E-06
  -12.6599998       6.82528480E-06
  -12.6499996       6.25850180E-06
  -12.6400003       5.01942122E-06
  -12.6300001       3.34295532E-06
  -12.6199999       1.50641517E-06
  -12.6099997      -2.30185037E-07
  -12.6000004      -1.67611563E-06
  -12.5900002      -2.74192462E-06
  -12.5799999      -3.44390082E-06
  -12.5699997      -3.88017816E-06
  -12.5600004      -4.18482205E-06
  -12.5500002      -4.47214461E-06
  -12.5400000      -4.78656830E-06
  -12.5299997      -5.07274081E-06
  -12.5200005      -5.17616854E-06
  -12.5100002      -4.87726538E-06
  -12.5000000      -3.95306461E-06
  -12.4899998      -2.25291546E-06
  -12.4799995       2.30559976E-07
  -12.4700003       3.31482420E-06
  -12.4600000       6.62063030E-06
  -12.4499998       9.61238857E-06
  -12.4399996       1.16822275E-05
  -12.4300003       1.22634174E-05
  -12.4200001       1.09504163E-05
  -12.4099998       7.59917839E-06
  -12.3999996       2.38357870E-06
  -12.3900003      -4.20807601E-06
  -12.3800001      -1.14401219E-05
  -12.3699999      -1.84498094E-05
  -12.3599997      -2.43979030E-05
  -12.3500004      -2.86187042E-05
  -12.3400002      -3.07373630E-05
  -12.3299999      -3.07282862E-05
  -12.3199997      -2.89008130E-05
  -12.3100004      -2.58142536E-05
  -12.3000002      -2.21407026E-05
  -12.2900000      -1.85062690E-05
  -12.2799997      -1.53473993E-05
  -12.2700005      -1.28160264E-05
  -12.2600002      -1.07567294E-05
  -12.2500000      -8.76242757E-06
  -12.2399998      -6.29645501E-06
  -12.2299995      -2.85253122E-06
  -12.2200003       1.88594242E-06
  -12.2100000       7.92685569E-06
  -12.1999998       1.49218140E-05
  -12.1899996       2.22049421E-05
  -12.1800003       2.89127584E-05
  -12.1700001       3.41600680E-05
  -12.1599998       3.72328941E-05
  -12.1499996       3.77541692E-05
  -12.1400003       3.57832432E-05
  -12.1300001       3.18248603E-05
  -12.1199999       2.67437372E-05
  -12.1099997       2.16021126E-05
  -12.1000004       1.74554334E-05
  -12.0900002       1.51500617E-05
  -12.0799999       1.51660424E-05
  -12.0699997       1.75368605E-05
  -12.0600004       2.18601235E-05
  -12.0500002       2.73926817E-05
  -12.0400000       3.32054697E-05
  -12.0299997       3.83619699E-05
  -12.0200005       4.20815231E-05
  -12.0100002       4.38551142E-05
  -12.0000000       4.34945941E-05
  -11.9899998       4.11127330E-05
  -11.9799995       3.70470043E-05
  -11.9700003       3.17510530E-05
  -11.9600000       2.56820058E-05
  -11.9499998       1.92091702E-05
  -11.9399996       1.25614533E-05
  -11.9300003       5.81972063E-06
  -11.9200001      -1.05070615E-06
  -11.9099998      -8.14057330E-06
  -11.8999996      -1.55275629E-05
  -11.8900003      -2.32145194E-05
  -11.8800001      -3.10881042E-05
  -11.8699999      -3.89051238E-05
  -11.8599997      -4.63072356E-05
  -11.8500004      -5.28597338E-05
  -11.8400002      -5.81066233E-05
  -11.8299999      -6.16325924E-05
  -11.8199997      -6.31229923E-05
  -11.8100004      -6.24137756E-05
  -11.8000002      -5.95250931E-05
  -11.7900000      -5.46743540E-05
  -11.7799997      -4.82662799E-05
  -11.7700005      -4.08602864E-05
  -11.7600002      -3.31177762E-05
  -11.7500000      -2.57351185E-05
  -11.7399998      -1.93702963E-05
  -11.7299995      -1.45729282E-05
  -11.7200003      -1.17272884E-05
  -11.7100000      -1.10162728E-05
  -11.6999998      -1.24106218E-05
  -11.6899996      -1.56832994E-05
  -11.6800003      -2.04442385E-05
  -11.6700001      -2.61873411E-05
  -11.6599998      -3.23401619E-05
  -11.6499996      -3.83078877E-05
  -11.6400003      -4.35065776E-05
  -11.6300001      -4.73851651E-05
  -11.6199999      -4.94402921E-05
  -11.6099997      -4.92308027E-05
  -11.6000004      -4.63988290E-05
  -11.5900002      -4.07019907E-05
  -11.5799999      -3.20554282E-05
  -11.5699997      -2.05771212E-05
  -11.5600004      -6.62427965E-06
  -11.5500002       9.19313243E-06
  -11.5400000       2.60338147E-05
  -11.5299997       4.28875792E-05
  -11.5200005       5.86753486E-05
  -11.5100002       7.23736302E-05
  -11.5000000       8.31420839E-05
  -11.4899998       9.04292538E-05
  -11.4799995       9.40343525E-05
  -11.4700003       9.41108956E-05
  -11.4600000       9.11114475E-05
  -11.4499998       8.56857805E-05
  -11.4399996       7.85568118E-05
  -11.4300003       7.04034028E-05
  -11.4200001       6.17772748E-05
  -11.4099998       5.30714824E-05
  -11.3999996       4.45432124E-05
  -11.3900003       3.63780746E-05
  -11.3800001       2.87710955E-05
  -11.3699999       2.19942376E-05
  -11.3599997       1.64244739E-05
  -11.3500004       1.25180386E-05
  -11.3400002       1.07330179E-05
  -11.3299999       1.14189479E-05
  -11.3199997       1.47034834E-05
  -11.3100004       2.04092794E-05
  -11.3000002       2.80274544E-05
  -11.2900000       3.67597750E-05
  -11.2799997       4.56232847E-05
  -11.2700005       5.35950130E-05
  -11.2600002       5.97637954E-05
  -11.2500000       6.34556782E-05
  -11.2399998       6.43075982E-05
  -11.2299995       6.22789303E-05
  -11.2200003       5.76071398E-05
  -11.2100000       5.07272307E-05
  -11.1999998       4.21811346E-05
  -11.1899996       3.25406290E-05
  -11.1800003       2.23583284E-05
  -11.1700001       1.21480161E-05
  -11.1599998       2.38431198E-06
  -11.1499996      -6.49504500E-06
  -11.1400003      -1.40995853E-05
  -11.1300001      -2.01168223E-05
  -11.1199999      -2.43589384E-05
  -11.1099997      -2.68105159E-05
  -11.1000004      -2.76563569E-05
  -11.0900002      -2.72706147E-05
  -11.0799999      -2.61582099E-05
  -11.0699997      -2.48542292E-05
  -11.0600004      -2.38019657E-05
  -11.0500002      -2.32403781E-05
  -11.0400000      -2.31330923E-05
  -11.0299997      -2.31626491E-05
  -11.0200005      -2.27972141E-05
  -11.0100002      -2.14171869E-05
  -11.0000000      -1.84720338E-05
  -10.9899998      -1.36275821E-05
  -10.9799995      -6.86563999E-06
  -10.9700003       1.49054222E-06
  -10.9600000       1.08319973E-05
  -10.9499998       2.03865038E-05
  -10.9399996       2.93759895E-05
  -10.9300003       3.71686983E-05
  -10.9200001       4.33885762E-05
  -10.9099998       4.79571609E-05
  -10.8999996       5.10623540E-05
  -10.8900003       5.30681136E-05
  -10.8800001       5.43936330E-05
  -10.8699999       5.53964237E-05
  -10.8599997       5.62895621E-05
  -10.8500004       5.71105120E-05
  -10.8400002       5.77427454E-05
  -10.8299999       5.79758635E-05
  -10.8199997       5.75801823E-05
  -10.8100004       5.63708745E-05
  -10.8000002       5.42430280E-05
  -10.7900000       5.11719772E-05
  -10.7799997       4.71861604E-05
  -10.7700005       4.23300844E-05
  -10.7600002       3.66375607E-05
  -10.7500000       3.01309792E-05
  -10.7399998       2.28509198E-05
  -10.7299995       1.49073740E-05
  -10.7200003       6.53280540E-06
  -10.7100000      -1.88739659E-06
  -10.6999998      -9.82686106E-06
  -10.6899996      -1.66808768E-05
  -10.6800003      -2.18712921E-05
  -10.6700001      -2.49695840E-05
  -10.6599998      -2.58045220E-05
  -10.6499996      -2.45206211E-05
  -10.6400003      -2.15643795E-05
  -10.6300001      -1.75942041E-05
  -10.6199999      -1.33314734E-05
  -10.6099997      -9.38864741E-06
  -10.6000004      -6.11977839E-06
  -10.5900002      -3.53497535E-06
  -10.5799999      -1.30546641E-06
  -10.5699997       1.13824035E-06
  -10.5600004       4.43811041E-06
  -10.5500002       9.11297957E-06
  -10.5400000       1.53873116E-05
  -10.5299997       2.30904661E-05
  -10.5200005       3.16546575E-05
  -10.5100002       4.02136975E-05
  -10.5000000       4.77787762E-05
  -10.4899998       5.34469982E-05
  -10.4799995       5.65916307E-05
  -10.4700003       5.69885560E-05
  -10.4600000       5.48514399E-05
  -10.4499998       5.07721415E-05
  -10.4399996       4.55864465E-05
  -10.4300003       4.02022015E-05
  -10.4200001       3.54318909E-05
  -10.4099998       3.18669081E-05
  -10.3999996       2.98154446E-05
  -10.3900003       2.93072844E-05
  -10.3800001       3.01521759E-05
  -10.3699999       3.20270919E-05
  -10.3599997       3.45654589E-05
  -10.3500004       3.74268857E-05
  -10.3400002       4.03359663E-05
  -10.3299999       4.30904984E-05
  -10.3199997       4.55483678E-05
  -10.3100004       4.76059831E-05
  -10.3000002       4.91799001E-05
  -10.2900000       5.01984723E-05
  -10.2799997       5.06032920E-05
  -10.2700005       5.03565061E-05
  -10.2600002       4.94474261E-05
  -10.2500000       4.78942966E-05
  -10.2399998       4.57409187E-05
  -10.2299995       4.30514483E-05
  -10.2200003       3.99092023E-05
  -10.2100000       3.64232765E-05
  -10.1999998       3.27432572E-05
  -10.1899996       2.90765565E-05
  -10.1800003       2.56979820E-05
  -10.1700001       2.29404013E-05
  -10.1599998       2.11593306E-05
  -10.1499996       2.06707500E-05
  -10.1400003       2.16729295E-05
  -10.1300001       2.41704420E-05
  -10.1199999       2.79239939E-05
  -10.1099997       3.24464127E-05
  -10.1000004       3.70564485E-05
  -10.0900002       4.09866589E-05
  -10.0799999       4.35261609E-05
  -10.0699997       4.41664961E-05
  -10.0600004       4.27141895E-05
  -10.0500002       3.93390619E-05
  -10.0400000       3.45420849E-05
  -10.0299997       2.90467178E-05
  -10.0200005       2.36395626E-05
  -10.0100002       1.89999810E-05
  -10.0000000       1.55634825E-05
  -9.98999977       1.34549891E-05
  -9.97999954       1.25098104E-05
  -9.97000027       1.23748860E-05
  -9.96000004       1.26607902E-05
  -9.94999981       1.30997296E-05
  -9.93999958       1.36631497E-05
  -9.93000031       1.46042348E-05
  -9.92000008       1.64127614E-05
  -9.90999985       1.96953497E-05
  -9.89999962       2.50150715E-05
  -9.89000034       3.27359412E-05
  -9.88000011       4.29143074E-05
  -9.86999989       5.52638012E-05
  -9.85999966       6.91989189E-05
  -9.85000038       8.39389395E-05
  -9.84000015       9.86400337E-05
  -9.82999992       1.12519796E-04
  -9.81999969       1.24947430E-04
  -9.81000042       1.35488983E-04
  -9.80000019       1.43915226E-04
  -9.78999996       1.50190652E-04
  -9.77999973       1.54463938E-04
  -9.77000046       1.57070754E-04
  -9.76000023       1.58545343E-04
  -9.75000000       1.59620220E-04
  -9.73999977       1.61188495E-04
  -9.72999954       1.64207726E-04
  -9.72000027       1.69542531E-04
  -9.71000004       1.77767506E-04
  -9.69999981       1.88975799E-04
  -9.68999958       2.02651179E-04
  -9.68000031       2.17654626E-04
  -9.67000008       2.32353428E-04
  -9.65999985       2.44883297E-04
  -9.64999962       2.53494567E-04
  -9.64000034       2.56904314E-04
  -9.63000011       2.54567305E-04
  -9.61999989       2.46794021E-04
  -9.60999966       2.34681822E-04
  -9.60000038       2.19872672E-04
  -9.59000015       2.04197815E-04
  -9.57999992       1.89298371E-04
  -9.56999969       1.76315036E-04
  -9.56000042       1.65719466E-04
  -9.55000019       1.57318078E-04
  -9.53999996       1.50410575E-04
  -9.52999973       1.44047081E-04
  -9.52000046       1.37303548E-04
  -9.51000023       1.29499778E-04
  -9.50000000       1.20308658E-04
  -9.48999977       1.09742141E-04
  -9.47999954       9.80386249E-05
  -9.47000027       8.55034086E-05
  -9.46000004       7.23637640E-05
  -9.44999981       5.86884853E-05
  -9.43999958       4.43968784E-05
  -9.43000031       2.93503872E-05
  -9.42000008       1.34915399E-05
  -9.40999985      -3.01794262E-06
  -9.39999962      -1.97104873E-05
  -9.39000034      -3.58102734E-05
  -9.38000011      -5.03252486E-05
  -9.36999989      -6.22140506E-05
  -9.35999966      -7.05903876E-05
  -9.35000038      -7.49127648E-05
  -9.34000015      -7.51112166E-05
  -9.32999992      -7.16161449E-05
  -9.31999969      -6.52756280E-05
  -9.31000042      -5.71741912E-05
  -9.30000019      -4.83888653E-05
  -9.28999996      -3.97355107E-05
  -9.27999973      -3.15640355E-05
  -9.27000046      -2.36529795E-05
  -9.26000023      -1.52348111E-05
  -9.25000000      -5.15517104E-06
  -9.23999977       7.86491910E-06
  -9.22999954       2.49195218E-05
  -9.22000027       4.66342681E-05
  -9.21000004       7.29801977E-05
  -9.19999981       1.03233440E-04
  -9.18999958       1.36096234E-04
  -9.18000031       1.69952138E-04
  -9.17000008       2.03190066E-04
  -9.15999985       2.34514766E-04
  -9.14999962       2.63161957E-04
  -9.14000034       2.88965355E-04
  -9.13000011       3.12265038E-04
  -9.11999989       3.33693140E-04
  -9.10999966       3.53909592E-04
  -9.10000038       3.73371615E-04
  -9.09000015       3.92206683E-04
  -9.07999992       4.10220731E-04
  -9.06999969       4.27026884E-04
  -9.06000042       4.42235847E-04
  -9.05000019       4.55631176E-04
  -9.03999996       4.67258331E-04
  -9.02999973       4.77391091E-04
  -9.02000046       4.86384059E-04
  -9.01000023       4.94468608E-04
  -9.00000000       5.01570117E-04
  -8.98999977       5.07221266E-04
  -8.97999954       5.10613318E-04
  -8.97000027       5.10776939E-04
  -8.96000004       5.06833079E-04
  -8.94999981       4.98231326E-04
  -8.93999958       4.84888733E-04
  -8.93000031       4.67181031E-04
  -8.92000008       4.45789163E-04
  -8.90999985       4.21461038E-04
  -8.89999962       3.94778705E-04
  -8.89000034       3.66023072E-04
  -8.88000011       3.35191435E-04
  -8.86999989       3.02165572E-04
  -8.85999966       2.66966643E-04
  -8.85000038       2.29994650E-04
  -8.84000015       1.92147563E-04
  -8.82999992       1.54755195E-04
  -8.81999969       1.19329095E-04
  -8.81000042       8.71999291E-05
  -8.80000019       5.91630815E-05
  -8.78999996       3.52641364E-05
  -8.77999973       1.48118543E-05
  -8.77000046      -3.36391554E-06
  -8.76000023      -2.04807020E-05
  -8.75000000      -3.73305556E-05
  -8.73999977      -5.39252178E-05
  -8.72999954      -6.93840120E-05
  -8.72000027      -8.21136418E-05
  -8.71000004      -9.02354222E-05
  -8.69999981      -9.21315586E-05
  -8.68999958      -8.69397045E-05
  -8.68000031      -7.48391321E-05
  -8.67000008      -5.70386946E-05
  -8.65999985      -3.54709446E-05
  -8.64999962      -1.22878482E-05
  -8.64000034       1.06834550E-05
  -8.63000011       3.23620479E-05
  -8.61999989       5.25946489E-05
  -8.60999966       7.20595126E-05
  -8.60000038       9.19474987E-05
  -8.59000015       1.13535330E-04
  -8.57999992       1.37791183E-04
  -8.56999969       1.65126083E-04
  -8.56000042       1.95339468E-04
  -8.55000019       2.27741228E-04
  -8.53999996       2.61373003E-04
  -8.52999973       2.95233243E-04
  -8.52000046       3.28429480E-04
  -8.51000023       3.60227219E-04
  -8.50000000       3.90016445E-04
  -8.48999977       4.17254865E-04
  -8.47999954       4.41450335E-04
  -8.47000027       4.62216529E-04
  -8.46000004       4.79393930E-04
  -8.44999981       4.93179716E-04
  -8.43999958       5.04193245E-04
  -8.43000031       5.13413688E-04
  -8.42000008       5.21978014E-04
  -8.40999985       5.30879071E-04
  -8.39999962       5.40657958E-04
  -8.39000034       5.51200821E-04
  -8.38000011       5.61726338E-04
  -8.36999989       5.70984848E-04
  -8.35999966       5.77622559E-04
  -8.35000038       5.80593187E-04
  -8.34000015       5.79478452E-04
  -8.32999992       5.74607519E-04
  -8.31999969       5.66922885E-04
  -8.31000042       5.57641033E-04
  -8.30000019       5.47821342E-04
  -8.28999996       5.37997170E-04
  -8.27999973       5.27999306E-04
  -8.27000046       5.17042703E-04
  -8.26000023       5.04041382E-04
  -8.25000000       4.88043501E-04
  -8.23999977       4.68632148E-04
  -8.22999954       4.46144666E-04
  -8.22000027       4.21634526E-04
  -8.21000004       3.96591233E-04
  -8.19999981       3.72519280E-04
  -8.18999958       3.50530347E-04
  -8.18000031       3.31094197E-04
  -8.17000008       3.14031757E-04
  -8.15999985       2.98748782E-04
  -8.14999962       2.84608133E-04
  -8.14000034       2.71302735E-04
  -8.13000011       2.59081135E-04
  -8.11999989       2.48741271E-04
  -8.10999966       2.41398317E-04
  -8.10000038       2.38111810E-04
  -8.09000015       2.39521192E-04
  -8.07999992       2.45621195E-04
  -8.06999969       2.55768420E-04
  -8.06000042       2.68913718E-04
  -8.05000019       2.83974572E-04
  -8.03999996       3.00209009E-04
  -8.02999973       3.17458384E-04
  -8.02000046       3.36169411E-04
  -8.01000023       3.57196812E-04
  -8.00000000       3.81464168E-04
  -7.98999977       4.09612898E-04
  -7.98000002       4.41760145E-04
  -7.96999979       4.77450085E-04
  -7.96000004       5.15792635E-04
  -7.94999981       5.55721635E-04
  -7.94000006       5.96261292E-04
  -7.92999983       6.36690878E-04
  -7.92000008       6.76552416E-04
  -7.90999985       7.15511618E-04
  -7.90000010       7.53152766E-04
  -7.88999987       7.88806006E-04
  -7.88000011       8.21504393E-04
  -7.86999989       8.50104087E-04
  -7.86000013       8.73532845E-04
  -7.84999990       8.91081814E-04
  -7.84000015       9.02620726E-04
  -7.82999992       9.08657152E-04
  -7.82000017       9.10208968E-04
  -7.80999994       9.08531656E-04
  -7.80000019       9.04800894E-04
  -7.78999996       8.99860286E-04
  -7.78000021       8.94114142E-04
  -7.76999998       8.87588307E-04
  -7.76000023       8.80108331E-04
  -7.75000000       8.71503667E-04
  -7.73999977       8.61747307E-04
  -7.73000002       8.50964745E-04
  -7.71999979       8.39328684E-04
  -7.71000004       8.26902338E-04
  -7.69999981       8.13526625E-04
  -7.69000006       7.98841764E-04
  -7.67999983       7.82458170E-04
  -7.67000008       7.64232827E-04
  -7.65999985       7.44541467E-04
  -7.65000010       7.24413374E-04
  -7.63999987       7.05445826E-04
  -7.63000011       6.89480454E-04
  -7.61999989       6.78131531E-04
  -7.61000013       6.72320253E-04
  -7.59999990       6.71987596E-04
  -7.59000015       6.76102878E-04
  -7.57999992       6.82988146E-04
  -7.57000017       6.90857996E-04
  -7.55999994       6.98392862E-04
  -7.55000019       7.05134065E-04
  -7.53999996       7.11562461E-04
  -7.53000021       7.18822586E-04
  -7.51999998       7.28199666E-04
  -7.51000023       7.40550400E-04
  -7.50000000       7.55907327E-04
  -7.48999977       7.73431500E-04
  -7.48000002       7.91731523E-04
  -7.46999979       8.09446850E-04
  -7.46000004       8.25864030E-04
  -7.44999981       8.41318688E-04
  -7.44000006       8.57197505E-04