  -16.0000000       0.00000000    
  -15.9899998       0.00000000    
  -15.9799995       0.00000000    
  -15.9700003       0.00000000    
  -15.9600000       0.00000000    
  -15.9499998       0.00000000    
  -15.9399996       0.00000000    
  -15.9300003       0.00000000    
  -15.9200001       0.00000000    
  -15.9099998       0.00000000    
  -15.8999996       0.00000000    
  -15.8900003      -1.70972426E-41
  -15.8800001      -1.72955263E-40
  -15.8699999      -2.90860516E-40
  -15.8599997       2.33406018E-39
  -15.8500004      -3.70471953E-38
  -15.8400002      -9.97843695E-37
  -15.8299999      -1.08773040E-35
  -15.8199997      -8.03693236E-35
  -15.8100004      -4.61472128E-34
  -15.8000002      -2.19192044E-33
  -15.7900000      -8.92160613E-33
  -15.7799997      -3.18126681E-32
  -15.7700005      -1.00834164E-31
  -15.7600002      -2.86810818E-31
  -15.7500000      -7.36238772E-31
  -15.7399998      -1.70922765E-30
  -15.7299995      -3.58213265E-30
  -15.7200003      -6.72685952E-30
  -15.7100000      -1.11231730E-29
  -15.6999998      -1.55517549E-29
  -15.6899996      -1.63564190E-29
  -15.6800003      -6.17980363E-30
  -15.6700001       2.61854762E-29
  -15.6599998       9.28439308E-29
  -15.6499996       1.98475591E-28
  -15.6400003       3.25795678E-28
  -15.6300001       4.18172210E-28
  -15.6199999       3.69782931E-28
  -15.6099997       4.07366743E-29
  -15.6000004      -6.84621536E-28
  -15.5900002      -1.79186346E-27
  -15.5799999      -3.01223263E-27
  -15.5699997      -3.75504647E-27
  -15.5600004      -3.20319686E-27
  -15.5500002      -6.51357741E-28
  -15.5400000       3.95749522E-27
  -15.5299997       9.55179054E-27
  -15.5200005       1.39558246E-26
  -15.5100002       1.48418324E-26
  -15.5000000       1.15715595E-26
  -15.4899998       6.95568396E-27
  -15.4799995       6.93872962E-27
  -15.4700003       1.60191442E-26
  -15.4600000       2.80133752E-26
  -15.4499998       1.61675795E-26
  -15.4399996      -6.75437252E-26
  -15.4300003      -2.70667199E-25
  -15.4200001      -5.87801609E-25
  -15.4099998      -8.87747874E-25
  -15.3999996      -8.61798196E-25
  -15.3900003      -6.52726131E-26
  -15.3800001       1.87208329E-24
  -15.3699999       4.84706590E-24
  -15.3599997       7.80743684E-24
  -15.3500004       8.49289544E-24
  -15.3400002       3.82425015E-24
  -15.3299999      -8.68108452E-24
  -15.3199997      -2.84775221E-23
  -15.3100004      -4.93094958E-23
  -15.3000002      -5.79544300E-23
  -15.2900000      -3.66201696E-23
  -15.2799997       2.92834003E-23
  -15.2700005       1.38426320E-22
  -15.2600002       2.60033394E-22
  -15.2500000       3.27778067E-22
  -15.2399998       2.51380713E-22
  -15.2299995      -4.67867534E-23
  -15.2200003      -5.72803036E-22
  -15.2100000      -1.19888965E-21
  -15.1999998      -1.63334092E-21
  -15.1899996      -1.46569791E-21
  -15.1800003      -3.16828931E-22
  -15.1700001       1.91724593E-21
  -15.1599998       4.80197652E-21
  -15.1499996       7.21862103E-21
  -15.1400003       7.50026229E-21
  -15.1300001       3.96393108E-21
  -15.1199999      -4.19263279E-21
  -15.1099997      -1.58807369E-20
  -15.1000004      -2.74665904E-20
  -15.0900002      -3.30348762E-20
  -15.0799999      -2.59801824E-20
  -15.0699997      -1.87881697E-21
  -15.0600004       3.80878997E-20
  -15.0500002       8.45569613E-20
  -15.0400000       1.19950210E-19
  -15.0299997       1.22277224E-19
  -15.0200005       7.28236628E-20
  -15.0100002      -3.40486216E-20
  -15.0000000      -1.82513421E-19
  -14.9899998      -3.32597098E-19
  -14.9799995      -4.26482950E-19
  -14.9700003      -4.04224967E-19
  -14.9600000      -2.25245882E-19
  -14.9499998       1.11404594E-19
  -14.9399996       5.55993533E-19
  -14.9300003       1.01144192E-18
  -14.9200001       1.35037587E-18
  -14.9099998       1.43907248E-18
  -14.8999996       1.15914794E-18
  -14.8900003       4.22328151E-19
  -14.8800001      -8.15218237E-19
  -14.8699999      -2.52106287E-18
  -14.8599997      -4.51784668E-18
  -14.8500004      -6.37772424E-18
  -14.8400002      -7.32237153E-18
  -14.8299999      -6.22432690E-18
  -14.8199997      -1.83725520E-18
  -14.8100004       6.64826896E-18
  -14.8000002       1.87517990E-17
  -14.7900000       3.18003465E-17
  -14.7799997       4.04660825E-17
  -14.7700005       3.73764703E-17
  -14.7600002       1.53081551E-17
  -14.7500000      -2.90238883E-17
  -14.7399998      -9.04420488E-17
  -14.7299995      -1.51901449E-16
  -14.7200003      -1.84745880E-16
  -14.7100000      -1.54954593E-16
  -14.6999998      -3.61459697E-17
  -14.6899996       1.72819934E-16
  -14.6800003       4.31456905E-16
  -14.6700001       6.51239376E-16
  -14.6599998       7.08287892E-16
  -14.6499996       4.80364666E-16
  -14.6400003      -9.52755497E-17
  -14.6300001      -9.58523871E-16
  -14.6199999      -1.88411510E-15
  -14.6099997      -2.49176108E-15
  -14.6000004      -2.33277702E-15
  -14.5900002      -1.05500272E-15
  -14.5799999       1.38717072E-15
  -14.5699997       4.54849535E-15
  -14.5600004       7.43019588E-15
  -14.5500002       8.62938786E-15
  -14.5400000       6.74223657E-15
  -14.5299997       9.71866863E-16
  -14.5200005      -8.22173293E-15
  -14.5100002      -1.86893195E-14
  -14.5000000      -2.66680395E-14
  -14.4899998      -2.75760487E-14
  -14.4799995      -1.75303091E-14
  -14.4700003       4.70938503E-15
  -14.4600000       3.59807907E-14
  -14.4499998       6.79539229E-14
  -14.4399996       8.81187281E-14
  -14.4300003       8.29054232E-14
  -14.4200001       4.26154168E-14
  -14.4099998      -3.30227246E-14
  -14.3999996      -1.30607046E-13
  -14.3900003      -2.22351082E-13
  -14.3800001      -2.70652316E-13
  -14.3699999      -2.38345449E-13
  -14.3599997      -1.02997905E-13
  -14.3500004       1.28588302E-13
  -14.3400002       4.11074441E-13
  -14.3299999       6.62000240E-13
  -14.3199997       7.77496719E-13
  -14.3100004       6.61875557E-13
  -14.3000002       2.65404804E-13
  -14.2900000      -3.80500888E-13
  -14.2799997      -1.14434059E-12
  -14.2700005      -1.80441025E-12
  -14.2600002      -2.09410961E-12
  -14.2500000      -1.77886286E-12
  -14.2399998      -7.48381934E-13
  -14.2299995       9.02746953E-13
  -14.2200003       2.83789138E-12
  -14.2100000       4.51144200E-12
  -14.1999998       5.28330114E-12
  -14.1899996       4.60147241E-12
  -14.1800003       2.21242968E-12
  -14.1700001      -1.66252450E-12
  -14.1599998      -6.25354022E-12
  -14.1499996      -1.03255572E-11
  -14.1400003      -1.24365960E-11
  -14.1300001      -1.13369019E-11
  -14.1199999      -6.41948213E-12
  -14.1099997       1.90808632E-12
  -14.1000004       1.20701183E-11
  -14.0900002       2.14928700E-11
  -14.0799999       2.71298643E-11
  -14.0699997       2.62681456E-11
  -14.0600004       1.74371212E-11
  -14.0500002       1.16585062E-12
  -14.0400000      -1.96790553E-11
  -14.0299997      -4.01754914E-11
  -14.0200005      -5.43073503E-11
  -14.0100002      -5.64724899E-11
  -14.0000000      -4.32096997E-11
  -13.9899998      -1.46845661E-11
  -13.9799995       2.45538208E-11
  -13.9700003       6.59219276E-11
  -13.9600000       9.83792006E-11
  -13.9499998       1.11035001E-10
  -13.9399996       9.62375249E-11
  -13.9300003       5.23639569E-11
  -13.9200001      -1.45400705E-11
  -13.9099998      -9.09472775E-11
  -13.8999996      -1.58154503E-10
  -13.8900003      -1.96442723E-10
  -13.8800001      -1.90274976E-10
  -13.8699999      -1.33269437E-10
  -13.8599997      -3.15379216E-11
  -13.8500004       9.58145854E-11
  -13.8400002       2.19646037E-10
  -13.8299999       3.06963982E-10
  -13.8199997       3.29175243E-10
  -13.8100004       2.70483025E-10
  -13.8000002       1.34150149E-10
  -13.7900000      -5.54357567E-11
  -13.7799997      -2.56141774E-10
  -13.7700005      -4.16855911E-10
  -13.7600002      -4.90073815E-10
  -13.7500000      -4.45433551E-10
  -13.7399998      -2.80555912E-10
  -13.7299995      -2.57174230E-11
  -13.7200003       2.59953448E-10
  -13.7100000       5.01087116E-10
  -13.6999998       6.25307917E-10
  -13.6899996       5.84657933E-10
  -13.6800003       3.73330200E-10
  -13.6700001       3.58479878E-11
  -13.6599998      -3.38431921E-10
  -13.6499996      -6.35349495E-10
  -13.6400003      -7.47193252E-10
  -13.6300001      -6.07819128E-10
  -13.6199999      -2.21690499E-10
  -13.6099997       3.23339050E-10
  -13.6000004       8.66825667E-10
  -13.5900002       1.21182153E-09
  -13.5799999       1.18056542E-09
  -13.5699997       6.76957712E-10
  -13.5600004      -2.62033867E-10
  -13.5500002      -1.44438139E-09
  -13.5400000      -2.54402566E-09
  -13.5299997      -3.16863624E-09
  -13.5200005      -2.96447356E-09
  -13.5100002      -1.73555981E-09
  -13.5000000       4.55170374E-10
  -13.4899998       3.23684057E-09
  -13.4799995       5.96049343E-09
  -13.4700003       7.81710874E-09
  -13.4600000       8.03004863E-09
  -13.4499998       6.08356965E-09
  -13.4399996       1.93078775E-09
  -13.4300003      -3.88186416E-09
  -13.4200001      -1.02258753E-08
  -13.4099998      -1.55630389E-08
  -13.3999996      -1.82654922E-08
  -13.3900003      -1.70257053E-08
  -13.3800001      -1.12655103E-08
  -13.3699999      -1.43467926E-09
  -13.3599997       1.08998854E-08
  -13.3500004       2.32352324E-08
  -13.3400002       3.25848255E-08
  -13.3299999       3.61333257E-08
  -13.3199997       3.19599280E-08
  -13.3100004       1.96596783E-08
  -13.3000002       6.90448476E-10
  -13.2900000      -2.16812790E-08
  -13.2799997      -4.28823412E-08
  -13.2700005      -5.79220156E-08
  -13.2600002      -6.25045402E-08
  -13.2500000      -5.41249818E-08
  -13.2399998      -3.28836798E-08
  -13.2299995      -1.78836945E-09
  -13.2200003       3.35870602E-08
  -13.2100000       6.60780586E-08
  -13.1999998       8.83791387E-08
  -13.1899996       9.46731618E-08
  -13.1800003       8.20802768E-08
  -13.1700001       5.15669001E-08
  -13.1599998       8.05838329E-09
  -13.1499996      -4.03412166E-08
  -13.1400003      -8.39116723E-08
  -13.1300001      -1.13359334E-07
  -13.1199999      -1.21899262E-07
  -13.1099997      -1.06896593E-07
  -13.1000004      -7.06520211E-08
  -13.0900002      -2.00974188E-08
  -13.0799999       3.45919382E-08
  -13.0699997       8.21977935E-08
  -13.0600004       1.12992900E-07
  -13.0500002       1.21011098E-07
  -13.0400000       1.05488930E-07
  -13.0299997       7.10849122E-08
  -13.0200005       2.67583147E-08
  -13.0100002      -1.64735816E-08
  -13.0000000      -4.83856191E-08
  -12.9899998      -6.22882723E-08
  -12.9799995      -5.69337040E-08
  -12.9700003      -3.70107109E-08
  -12.9600000      -1.19858656E-08
  -12.9499998       6.53208554E-09
  -12.9399996       8.30640268E-09
  -12.9300003      -1.20287993E-08
  -12.9200001      -5.24767536E-08
  -12.9099998      -1.03024369E-07
  -12.8999996      -1.47260437E-07
  -12.8900003      -1.66131699E-07
  -12.8800001      -1.43114818E-07
  -12.8699999      -6.96000058E-08
  -12.8599997       5.09391427E-08
  -12.8500004       2.01282532E-07
  -12.8400002       3.52136936E-07
  -12.8299999       4.67211692E-07
  -12.8199997       5.10910468E-07
  -12.8100004       4.57094899E-07
  -12.8000002       2.96904091E-07
  -12.7900000       4.36016663E-08
  -12.7799997      -2.67075649E-07
  -12.7700005      -5.81700476E-07
  -12.7600002      -8.38494259E-07
  -12.7500000      -9.79578431E-07
  -12.7399998      -9.63561320E-07
  -12.7299995      -7.75659771E-07
  -12.7200003      -4.32876220E-07
  -12.7100000       1.72847248E-08
  -12.6999998       5.04646209E-07
  -12.6899996       9.49328808E-07
  -12.6800003       1.27714247E-06
  -12.6700001       1.43405930E-06
  -12.6599998       1.39641327E-06
  -12.6499996       1.17446382E-06
  -12.6400003       8.08409538E-07
  -12.6300001       3.57831055E-07
  -12.6199999      -1.12912851E-07
  -12.6099997      -5.49577635E-07
  -12.6000004      -9.19376248E-07
  -12.5900002      -1.21562857E-06
  -12.5799999      -1.45431386E-06
  -12.5699997      -1.66302675E-06
  -12.5600004      -1.86519844E-06
  -12.5500002      -2.06371919E-06
  -12.5400000      -2.22876156E-06
  -12.5299997      -2.29394891E-06
  -12.5200005      -2.16322974E-06
  -12.5100002      -1.72828095E-06
  -12.5000000      -8.93788695E-07
  -12.4899998       3.94455185E-07
  -12.4799995       2.12459236E-06
  -12.4700003       4.20276001E-06
  -12.4600000       6.45011141E-06
  -12.4499998       8.61427543E-06
  -12.4399996       1.03936318E-05
  -12.4300003       1.14697177E-05
  -12.4200001       1.15412149E-05
  -12.4099998       1.03534230E-05
  -12.3999996       7.71741179E-06
  -12.3900003       3.51669928E-06
  -12.3800001      -2.29889611E-06
  -12.3699999      -9.72693761E-06
  -12.3599997      -1.87292808E-05
  -12.3500004      -2.92450040E-05
  -12.3400002      -4.11932597E-05
  -12.3299999      -5.44657996E-05
  -12.3199997      -6.89072840E-05
  -12.3100004      -8.42898808E-05
  -12.3000002      -1.00286990E-04
  -12.2900000      -1.16455791E-04
  -12.2799997      -1.32233574E-04
  -12.2700005      -1.46950755E-04
  -12.2600002      -1.59863368E-04
  -12.2500000      -1.70197629E-04
  -12.2399998      -1.77202848E-04
  -12.2299995      -1.80201139E-04
  -12.2200003      -1.78631861E-04
  -12.2100000      -1.72077314E-04
  -12.1999998      -1.60277050E-04
  -12.1899996      -1.43125086E-04
  -12.1800003      -1.20657191E-04
  -12.1700001      -9.30322640E-05
  -12.1599998      -6.05153946E-05
  -12.1499996      -2.34602758E-05
  -12.1400003       1.76997219E-05
  -12.1300001       6.24607710E-05
  -12.1199999       1.10256013E-04
  -12.1099997       1.60464188E-04
  -12.1000004       2.12419254E-04
  -12.0900002       2.65428476E-04
  -12.0799999       3.18783161E-04
  -12.0699997       3.71771661E-04
  -12.0600004       4.23686521E-04
  -12.0500002       4.73822729E-04
  -12.0400000       5.21471142E-04
  -12.0299997       5.65909664E-04
  -12.0200005       6.06396468E-04
  -12.0100002       6.42173341E-04
  -12.0000000       6.72476250E-04
  -11.9899998       6.96563395E-04
  -11.9799995       7.13750371E-04
  -11.9700003       7.23451143E-04
  -11.9600000       7.25207501E-04
  -11.9499998       7.18710711E-04
  -11.9399996       7.03799946E-04
  -11.9300003       6.80436613E-04
  -11.9200001       6.48665067E-04
  -11.9099998       6.08557311E-04
  -11.8999996       5.60164510E-04
  -11.8900003       5.03483810E-04
  -11.8800001       4.38445451E-04
  -11.8699999       3.64938402E-04
  -11.8599997       2.82859197E-04
  -11.8500004       1.92182604E-04
  -11.8400002       9.30471069E-05
  -11.8299999      -1.41740329E-05
  -11.8199997      -1.28820029E-04
  -11.8100004      -2.49925972E-04
  -11.8000002      -3.76244803E-04
  -11.7900000      -5.06311713E-04
  -11.7799997      -6.38530648E-04
  -11.7700005      -7.71283172E-04
  -11.7600002      -9.03031090E-04
  -11.7500000      -1.03240379E-03
  -11.7399998      -1.15824852E-03
  -11.7299995      -1.27964281E-03
  -11.7200003      -1.39586581E-03
  -11.7100000      -1.50632614E-03
  -11.6999998      -1.61047687E-03
  -11.6899996      -1.70771405E-03
  -11.6800003      -1.79729366E-03
  -11.6700001      -1.87827810E-03
  -11.6599998      -1.94951566E-03
  -11.6499996      -2.00968049E-03
  -11.6400003      -2.05733906E-03
  -11.6300001      -2.09105643E-03
  -11.6199999      -2.10951176E-03
  -11.6099997      -2.11160630E-03
  -11.6000004      -2.09653145E-03
  -11.5900002      -2.06380477E-03
  -11.5799999      -2.01324862E-03
  -11.5699997      -1.94492633E-03
  -11.5600004      -1.85904396E-03
  -11.5500002      -1.75585167E-03
  -11.5400000      -1.63555297E-03
  -11.5299997      -1.49825704E-03
  -11.5200005      -1.34398020E-03
  -11.5100002      -1.17269147E-03
  -11.5000000      -9.84407496E-04
  -11.4899998      -7.79295748E-04
  -11.4799995      -5.57772466E-04
  -11.4700003      -3.20568972E-04
  -11.4600000      -6.87460852E-05
  -11.4499998       1.96347843E-04
  -11.4399996       4.73166467E-04
  -11.4300003       7.60074705E-04
  -11.4200001       1.05547369E-03
  -11.4099998       1.35788496E-03
  -11.3999996       1.66600791E-03
  -11.3900003       1.97871006E-03
  -11.3800001       2.29499512E-03
  -11.3699999       2.61391490E-03
  -11.3599997       2.93450919E-03
  -11.3500004       3.25575378E-03
  -11.3400002       3.57654481E-03
  -11.3299999       3.89575399E-03
  -11.3199997       4.21230914E-03
  -11.3100004       4.52531455E-03
  -11.3000002       4.83415928E-03
  -11.2900000       5.13861701E-03
  -11.2799997       5.43886842E-03
  -11.2700005       5.73548535E-03
  -11.2600002       6.02931343E-03
  -11.2500000       6.32131239E-03
  -11.2399998       6.61234232E-03
  -11.2299995       6.90294430E-03
  -11.2200003       7.19314255E-03
  -11.2100000       7.48230005E-03
  -11.1999998       7.76905892E-03
  -11.1899996       8.05140007E-03
  -11.1800003       8.32677539E-03
  -11.1700001       8.59237835E-03
  -11.1599998       8.84543639E-03
  -11.1499996       9.08355135E-03
  -11.1400003       9.30499192E-03
  -11.1300001       9.50891897E-03
  -11.1199999       9.69547872E-03
  -11.1099997       9.86575708E-03
  -11.1000004       1.00216083E-02
  -11.0900002       1.01653412E-02
  -11.0799999       1.02994200E-02
  -11.0699997       1.04260873E-02
  -11.0600004       1.05471183E-02
  -11.0500002       1.06636407E-02
  -11.0400000       1.07760699E-02
  -11.0299997       1.08842030E-02
  -11.0200005       1.09873405E-02
  -11.0100002       1.10844886E-02
  -11.0000000       1.11745745E-02
  -10.9899998       1.12566184E-02
  -10.9799995       1.13298977E-02
  -10.9700003       1.13940602E-02
  -10.9600000       1.14492197E-02
  -10.9499998       1.14960326E-02
  -10.9399996       1.15356911E-02
  -10.9300003       1.15699060E-02
  -10.9200001       1.16007468E-02
  -10.9099998       1.16303945E-02
  -10.8999996       1.16607696E-02
  -10.8900003       1.16931275E-02
  -10.8800001       1.17276106E-02
  -10.8699999       1.17629515E-02
  -10.8599997       1.17963981E-02
  -10.8500004       1.18238656E-02
  -10.8400002       1.18404245E-02
  -10.8299999       1.18410084E-02
  -10.8199997       1.18211880E-02
  -10.8100004       1.17779393E-02
  -10.8000002       1.17101138E-02
  -10.7900000       1.16186040E-02
  -10.7799997       1.15060518E-02
  -10.7700005       1.13762273E-02
  -10.7600002       1.12331640E-02
  -10.7500000       1.10802706E-02
  -10.7399998       1.09196138E-02
  -10.7299995       1.07515045E-02
  -10.7200003       1.05745075E-02
  -10.7100000       1.03858281E-02
  -10.6999998       1.01819327E-02
  -10.6899996       9.95931588E-03
  -10.6800003       9.71517898E-03
  -10.6700001       9.44792014E-03
  -10.6599998       9.15735308E-03
  -10.6499996       8.84468574E-03
  -10.6400003       8.51226132E-03
  -10.6300001       8.16323329E-03
  -10.6199999       7.80121423E-03
  -10.6099997       7.42994575E-03
  -10.6000004       7.05308374E-03
  -10.5900002       6.67397724E-03
  -10.5799999       6.29551709E-03
  -10.5699997       5.91996778E-03
  -10.5600004       5.54881524E-03
  -10.5500002       5.18266391E-03
  -10.5400000       4.82125347E-03
  -10.5299997       4.46356880E-03
  -10.5200005       4.10813512E-03
  -10.5100002       3.75340856E-03
  -10.5000000       3.39821586E-03
  -10.4899998       3.04213143E-03
  -10.4799995       2.68568238E-03
  -10.4700003       2.33039493E-03
  -10.4600000       1.97857083E-03
  -10.4499998       1.63293420E-03
  -10.4399996       1.29623129E-03
  -10.4300003       9.70834401E-04
  -10.4200001       6.58531906E-04
  -10.4099998       3.60407197E-04
  -10.3999996       7.69110193E-05
  -10.3900003      -1.92010833E-04
  -10.3800001      -4.46848484E-04
  -10.3699999      -6.88443251E-04
  -10.3599997      -9.18102276E-04
  -10.3500004      -1.13771844E-03
  -10.3400002      -1.34984485E-03
  -10.3299999      -1.55772327E-03
  -10.3199997      -1.76502054E-03
  -10.3100004      -1.97545113E-03
  -10.3000002      -2.19213823E-03
  -10.2900000      -2.41705426E-03
  -10.2799997      -2.65051331E-03
  -10.2700005      -2.89096078E-03
  -10.2600002      -3.13515519E-03
  -10.2500000      -3.37870512E-03
  -10.2399998      -3.61692486E-03
  -10.2299995      -3.84580740E-03
  -10.2200003      -4.06286074E-03
  -10.2100000      -4.26773028E-03
  -10.1999998      -4.46236180E-03
  -10.1899996      -4.65069478E-03
  -10.1800003      -4.83794790E-03
  -10.1700001      -5.02967602E-03
  -10.1599998      -5.23068570E-03
  -10.1499996      -5.44417696E-03
  -10.1400003      -5.67109743E-03
  -10.1300001      -5.90997748E-03
  -10.1199999      -6.15707552E-03
  -10.1099997      -6.40700990E-03
  -10.1000004      -6.65348489E-03
  -10.0900002      -6.89018331E-03
  -10.0799999      -7.11154751E-03
  -10.0699997      -7.31346244E-03
  -10.0600004      -7.49353785E-03
  -10.0500002      -7.65126804E-03
  -10.0400000      -7.78777804E-03
  -10.0299997      -7.90543668E-03
  -10.0200005      -8.00734758E-03
  -10.0100002      -8.09665304E-03
  -10.0000000      -8.17606784E-03
  -9.98999977      -8.24730098E-03
  -9.97999954      -8.31081439E-03
  -9.97000027      -8.36568605E-03
  -9.96000004      -8.40972643E-03
  -9.94999981      -8.43975320E-03
  -9.93999958      -8.45210161E-03
  -9.93000031      -8.44312925E-03
  -9.92000008      -8.40973668E-03
  -9.90999985      -8.34977068E-03
  -9.89999962      -8.26226640E-03
  -9.89000034      -8.14734027E-03
  -9.88000011      -8.00603256E-03
  -9.86999989      -7.83980079E-03
  -9.85999966      -7.65012112E-03
  -9.85000038      -7.43809110E-03
  -9.84000015      -7.20420666E-03
  -9.82999992      -6.94847107E-03
  -9.81999969      -6.67057559E-03
  -9.81000042      -6.37034513E-03
  -9.80000019      -6.04805257E-03
  -9.78999996      -5.70466043E-03
  -9.77999973      -5.34178363E-03
  -9.77000046      -4.96138167E-03
  -9.76000023      -4.56531392E-03
  -9.75000000      -4.15491080E-03
  -9.73999977      -3.73072643E-03
  -9.72999954      -3.29261553E-03
  -9.72000027      -2.84015853E-03
  -9.71000004      -2.37332843E-03
  -9.69999981      -1.89324131E-03
  -9.68999958      -1.40272011E-03
  -9.68000031      -9.06350731E-04
  -9.67000008      -4.10104607E-04
  -9.65999985       7.94997977E-05
  -9.64999962       5.56489162E-04
  -9.64000034       1.01640821E-03
  -9.63000011       1.45693531E-03
  -9.61999989       1.87788485E-03
  -9.60999966       2.28069327E-03
  -9.60000038       2.66745430E-03
  -9.59000015       3.03995446E-03
  -9.57999992       3.39899724E-03
  -9.56999969       3.74421664E-03
  -9.56000042       4.07454884E-03
  -9.55000019       4.38902201E-03
  -9.53999996       4.68768599E-03
  -9.52999973       4.97224508E-03
  -9.52000046       5.24604181E-03
  -9.51000023       5.51349763E-03
  -9.50000000       5.77904051E-03
  -9.48999977       6.04598783E-03
  -9.47999954       6.31567091E-03
  -9.47000027       6.58731721E-03
  -9.46000004       6.85859891E-03
  -9.44999981       7.12674251E-03
  -9.43999958       7.38978339E-03
  -9.43000031       7.64746917E-03
  -9.42000008       7.90148787E-03
  -9.40999985       8.15478805E-03
  -9.39999962       8.41035787E-03
  -9.39000034       8.66979361E-03
  -9.38000011       8.93223193E-03
  -9.36999989       9.19414498E-03
  -9.35999966       9.45009012E-03
  -9.35000038       9.69416555E-03
  -9.34000015       9.92175285E-03
  -9.32999992       1.01307360E-02
  -9.31999969       1.03218611E-02
  -9.31000042       1.04979249E-02
  -9.30000019       1.06619755E-02
  -9.28999996       1.08151976E-02
  -9.27999973       1.09552331E-02
  -9.27000046       1.10755041E-02
  -9.26000023       1.11659924E-02
  -9.25000000       1.12150740E-02
  -9.23999977       1.12120984E-02
  -9.22999954       1.11496383E-02
  -9.22000027       1.10246362E-02
  -9.21000004       1.08383363E-02
  -9.19999981       1.05946064E-02
  -9.18999958       1.02977213E-02
  -9.18000031       9.95004643E-03
  -9.17000008       9.55076702E-03
  -9.15999985       9.09592956E-03
  -9.14999962       8.57986137E-03
  -9.14000034       7.99741969E-03
  -9.13000011       7.34615093E-03
  -9.11999989       6.62749307E-03
  -9.10999966       5.84657863E-03
  -9.10000038       5.01062116E-03
  -9.09000015       4.12655436E-03
  -9.07999992       3.19869211E-03
  -9.06999969       2.22764746E-03
  -9.06000042       1.21061830E-03
  -9.05000019       1.43581550E-04
  -9.03999996      -9.75925010E-04
  -9.02999973      -2.14589573E-03
  -9.02000046      -3.35821859E-03
  -9.01000023      -4.59891371E-03
  -9.00000000      -5.85033698E-03
  -8.98999977      -7.09447358E-03
  -8.97999954      -8.31648987E-03
  -8.97000027      -9.50724632E-03
  -8.96000004      -1.06637478E-02
  -8.94999981      -1.17875654E-02
  -8.93999958      -1.28817419E-02
  -8.93000031      -1.39471795E-02
  -8.92000008      -1.49799082E-02
  -8.90999985      -1.59701332E-02
  -8.89999962      -1.69033930E-02
  -8.89000034      -1.77634154E-02
  -8.88000011      -1.85356028E-02
  -8.86999989      -1.92099679E-02
  -8.85999966      -1.97824743E-02
  -8.85000038      -2.02542655E-02
  -8.84000015      -2.06293259E-02
  -8.82999992      -2.09112763E-02
  -8.81999969      -2.11006552E-02
  -8.81000042      -2.11935472E-02
  -8.80000019      -2.11821347E-02
  -8.78999996      -2.10568197E-02
  -8.77999973      -2.08091345E-02
  -8.77000046      -2.04342715E-02
  -8.76000023      -1.99323073E-02
  -8.75000000      -1.93077158E-02
  -8.73999977      -1.85673311E-02
  -8.72999954      -1.77175738E-02
  -8.72000027      -1.67620555E-02
  -8.71000004      -1.57004297E-02
  -8.69999981      -1.45288808E-02
  -8.68999958      -1.32421646E-02
  -8.68000031      -1.18361907E-02
  -8.67000008      -1.03103817E-02
  -8.65999985      -8.66875798E-03
  -8.64999962      -6.91933930E-03
  -8.64000034      -5.07221883E-03
  -8.63000011      -3.13687720E-03
  -8.61999989      -1.11972564E-03
  -8.60999966       9.77127231E-04
  -8.60000038       3.15549225E-03
  -8.59000015       5.41942334E-03
  -8.57999992       7.77280703E-03
  -8.56999969       1.02169327E-02
  -8.56000042       1.27492948E-02
  -8.55000019       1.53635638E-02
  -8.53999996       1.80509295E-02
  -8.52999973       2.08021048E-02
  -8.52000046       2.36091502E-02
  -8.51000023       2.64666714E-02
  -8.50000000       2.93718074E-02
  -8.48999977       3.23231630E-02
  -8.47999954       3.53195965E-02
  -8.47000027       3.83586735E-02
  -8.46000004       4.14363258E-02
  -8.44999981       4.45471108E-02
  -8.43999958       4.76851128E-02
  -8.43000031       5.08452840E-02
  -8.42000008       5.40241450E-02
  -8.40999985       5.72197065E-02
  -8.39999962       6.04306161E-02
  -8.39000034       6.36547953E-02
  -8.38000011       6.68880045E-02
  -8.36999989       7.01230615E-02
  -8.35999966       7.33500719E-02
  -8.35000038       7.65574500E-02
  -8.34000015       7.97334090E-02
  -8.32999992       8.28676075E-02
  -8.31999969       8.59517753E-02
  -8.31000042       8.89795423E-02
  -8.30000019       9.19455960E-02
  -8.28999996       9.48439613E-02
  -8.27999973       9.76669639E-02
  -8.27000046      0.100404464    
  -8.26000023      0.103044346    
  -8.25000000      0.105573542    
  -8.23999977      0.107979342    
  -8.22999954      0.110250756    
  -8.22000027      0.112378605    
  -8.21000004      0.114354983    
  -8.19999981      0.116172194    
  -8.18999958      0.117821291    
  -8.18000031      0.119291566    
  -8.17000008      0.120570727    
  -8.15999985      0.121646322    
  -8.14999962      0.122507453    
  -8.14000034      0.123147011    
  -8.13000011      0.123562500    
  -8.11999989      0.123755984    
  -8.10999966      0.123732679    
  -8.10000038      0.123498656    
  -8.09000015      0.123058654    
  -8.07999992      0.122414462    
  -8.06999969      0.121564746    
  -8.06000042      0.120506257    
  -8.05000019      0.119235873    
  -8.03999996      0.117752858    
  -8.02999973      0.116060577    
  -8.02000046      0.114166468    
  -8.01000023      0.112081200    
  -8.00000000      0.109816484    
  -7.98999977      0.107382745    
  -7.98000002      0.104787603    
  -7.96999979      0.102035545    
  -7.96000004       9.91290286E-02
  -7.94999981       9.60703567E-02
  -7.94000006       9.28640738E-02
  -7.92999983       8.95186290E-02
  -7.92000008       8.60465989E-02
  -7.90999985       8.24638009E-02
  -7.90000010       7.87872002E-02
  -7.88999987       7.50325620E-02
  -7.88000011       7.12127164E-02
  -7.86999989       6.73370585E-02
  -7.86000013       6.34119809E-02
  -7.84999990       5.94430789E-02
  -7.84000015       5.54372184E-02
  -7.82999992       5.14043383E-02
  -7.82000017       4.73582968E-02
  -7.80999994       4.33161408E-02
  -7.80000019       3.92966419E-02
  -7.78999996       3.53178382E-02
  -7.78000021       3.13950144E-02
  -7.76999998       2.75395587E-02
  -7.76000023       2.37588026E-02
  -7.75000000       2.00569481E-02
  -7.73999977       1.64366309E-02
  -7.73000002       1.29006598E-02
  -7.71999979       9.45322681E-03
  -7.71000004       6.10033842E-03
  -7.69999981       2.84929899E-03
  -7.69000006      -2.91891687E-04
  -7.67999983      -3.31573375E-03
  -7.67000008      -6.21578610E-03
  -7.65999985      -8.98688566E-03
  -7.65000010      -1.16250422E-02
  -7.63999987      -1.41267348E-02
  -7.63000011      -1.64884701E-02
  -7.61999989      -1.87062267E-02
  -7.61000013      -2.07759496E-02
  -7.59999990      -2.26933993E-02
  -7.59000015      -2.44551469E-02
  -7.57999992      -2.60589011E-02
  -7.57000017      -2.75039505E-02
  -7.55999994      -2.87912320E-02
  -7.55000019      -2.99229994E-02
  -7.53999996      -3.09025533E-02
  -7.53000021      -3.17336842E-02
  -7.51999998      -3.24201696E-02
  -7.51000023      -3.29658538E-02
  -7.50000000      -3.33741941E-02
  -7.48999977      -3.36483307E-02
  -7.48000002      -3.37913744E-02
  -7.46999979      -3.38063017E-02
  -7.46000004      -3.36963125E-02
  -7.44999981      -3.34648788E-02
  -7.44000006      -3.31161730E-02