  -16.0000000       0.00000000    
  -15.9899998       0.00000000    
  -15.9799995       0.00000000    
  -15.9700003       0.00000000    
  -15.9600000       0.00000000    
  -15.9499998       0.00000000    
  -15.9399996       0.00000000    
  -15.9300003       0.00000000    
  -15.9200001       0.00000000    
  -15.9099998       0.00000000    
  -15.8999996       0.00000000    
  -15.8900003       0.00000000    
  -15.8800001      -1.40129846E-45
  -15.8699999      -1.54142831E-44
  -15.8599997      -5.88545355E-44
  -15.8500004       2.94272678E-44
  -15.8400002       2.45227231E-43
  -15.8299999      -9.24997116E-42
  -15.8199997      -1.02719381E-40
  -15.8100004      -5.55194452E-40
  -15.8000002      -1.68910835E-39
  -15.7900000      -7.76962545E-40
  -15.7799997       2.44507440E-38
  -15.7700005       1.75142903E-37
  -15.7600002       7.95168675E-37
  -15.7500000       2.82656097E-36
  -15.7399998       8.38660620E-36
  -15.7299995       2.12940586E-35
  -15.7200003       4.65071799E-35
  -15.7100000       8.61525779E-35
  -15.6999998       1.28637274E-34
  -15.6899996       1.28263274E-34
  -15.6800003      -2.03735757E-35
  -15.6700001      -4.91840198E-34
  -15.6599998      -1.47465472E-33
  -15.6499996      -2.97979038E-33
  -15.6400003      -4.46127216E-33
  -15.6300001      -4.32511502E-33
  -15.6199999       3.01537627E-34
  -15.6099997       1.27355732E-32
  -15.6000004       3.37161373E-32
  -15.5900002       5.54804240E-32
  -15.5799999       5.42298508E-32
  -15.5699997      -1.34613646E-32
  -15.5600004      -1.98963257E-31
  -15.5500002      -5.19676272E-31
  -15.5400000      -8.78069077E-31
  -15.5299997      -9.58721626E-31
  -15.5200005      -1.71795208E-31
  -15.5100002       2.22264202E-30
  -15.5000000       6.63665152E-30
  -15.4899998       1.22191257E-29
  -15.4799995       1.56320331E-29
  -15.4700003       1.02292233E-29
  -15.4600000      -1.30164306E-29
  -15.4499998      -6.11037386E-29
  -15.4399996      -1.29965701E-28
  -15.4300003      -1.92035955E-28
  -15.4200001      -1.86179527E-28
  -15.4099998      -2.14541524E-29
  -15.3999996       3.90108473E-28
  -15.3900003       1.06024263E-27
  -15.3800001       1.81661512E-27
  -15.3699999       2.20022821E-27
  -15.3599997       1.45189541E-27
  -15.3500004      -1.29557731E-27
  -15.3400002      -6.51843085E-27
  -15.3299999      -1.35016025E-26
  -15.3199997      -1.94630366E-26
  -15.3100004      -1.91305364E-26
  -15.3000002      -5.55731823E-27
  -15.2900000       2.70457264E-26
  -15.2799997       7.82245998E-26
  -15.2700005       1.34957892E-25
  -15.2600002       1.66943416E-25
  -15.2500000       1.28142159E-25
  -15.2399998      -3.02088460E-26
  -15.2299995      -3.32091977E-25
  -15.2200003      -7.37816674E-25
  -15.2100000      -1.10671919E-24
  -15.1999998      -1.18540659E-24
  -15.1899996      -6.51895325E-25
  -15.1800003       7.59962958E-25
  -15.1700001       3.05685731E-24
  -15.1599998       5.75091354E-24
  -15.1499996       7.69950726E-24
  -15.1400003       7.17341198E-24
  -15.1300001       2.30640801E-24
  -15.1199999      -8.00616116E-24
  -15.1099997      -2.28830768E-23
  -15.1000004      -3.83039143E-23
  -15.0900002      -4.66954064E-23
  -15.0799999      -3.80503934E-23
  -15.0699997      -3.17295495E-24
  -15.0600004       6.10128690E-23
  -15.0500002       1.45257162E-22
  -15.0400000       2.23351210E-22
  -15.0299997       2.52522252E-22
  -15.0200005       1.82256783E-22
  -15.0100002      -2.68221511E-23
  -15.0000000      -3.76180705E-22
  -14.9899998      -8.02141637E-22
  -14.9799995      -1.16083167E-21
  -14.9700003      -1.24053575E-21
  -14.9600000      -8.13734535E-22
  -14.9499998       2.69458906E-22
  -14.9399996       1.96274874E-21
  -14.9300003       3.91794016E-21
  -14.9200001       5.44761320E-21
  -14.9099998       5.61486565E-21
  -14.8999996       3.48753483E-21
  -14.8900003      -1.45606971E-21
  -14.8800001      -8.85669714E-21
  -14.8699999      -1.71037202E-20
  -14.8599997      -2.32802600E-20
  -14.8500004      -2.36255821E-20
  -14.8400002      -1.46095331E-20
  -14.8299999       5.49093921E-21
  -14.8199997       3.48909888E-20
  -14.8100004       6.71018671E-20
  -14.8000002       9.09911534E-20
  -14.7900000       9.27283619E-20
  -14.7799997       5.98064895E-20
  -14.7700005      -1.34030652E-20
  -14.7600002      -1.19979213E-19
  -14.7500000      -2.36815140E-19
  -14.7399998      -3.25407916E-19
  -14.7299995      -3.38880181E-19
  -14.7200003      -2.35492297E-19
  -14.7100000       3.45220436E-21
  -14.6999998       3.56009023E-19
  -14.6899996       7.48981387E-19
  -14.6800003       1.06129620E-18
  -14.6700001       1.14622045E-18
  -14.6599998       8.72424187E-19
  -14.6499996       1.77037279E-19
  -14.6400003      -8.83301508E-19
  -14.6300001      -2.10235501E-18
  -14.6199999      -3.13417597E-18
  -14.6099997      -3.55530830E-18
  -14.6000004      -2.97803384E-18
  -14.5900002      -1.19508387E-18
  -14.5799999       1.68189217E-18
  -14.5699997       5.13946629E-18
  -14.5600004       8.28326423E-18
  -14.5500002       9.99240467E-18
  -14.5400000       9.20276151E-18
  -14.5299997       5.26962606E-18
  -14.5200005      -1.68254916E-18
  -14.5100002      -1.05414905E-17
  -14.5000000      -1.92325746E-17
  -14.4899998      -2.50574183E-17
  -14.4799995      -2.53344461E-17
  -14.4700003      -1.82297984E-17
  -14.4600000      -3.57333836E-18
  -14.4499998       1.65999614E-17
  -14.4399996       3.80290926E-17
  -14.4300003       5.48767236E-17
  -14.4200001       6.10309407E-17
  -14.4099998       5.18326195E-17
  -14.3999996       2.58138932E-17
  -14.3900003      -1.40737767E-17
  -14.3800001      -6.02334526E-17
  -14.3699999      -1.01500865E-16
  -14.3599997      -1.25503853E-16
  -14.3500004      -1.21890093E-16
  -14.3400002      -8.56602037E-17
  -14.3299999      -1.96546253E-17
  -14.3199997       6.46974949E-17
  -14.3100004       1.48916465E-16
  -14.3000002       2.11272463E-16
  -14.2900000       2.32151111E-16
  -14.2799997       1.99705937E-16
  -14.2700005       1.14221758E-16
  -14.2600002      -1.02603855E-17
  -14.2500000      -1.47919653E-16
  -14.2399998      -2.66661139E-16
  -14.2299995      -3.36025435E-16
  -14.2200003      -3.35507050E-16
  -14.2100000      -2.60911215E-16
  -14.1999998      -1.26667001E-16
  -14.1899996       3.70059563E-17
  -14.1800003       1.91739685E-16
  -14.1700001       3.01601169E-16
  -14.1599998       3.43616015E-16
  -14.1499996       3.14903900E-16
  -14.1400003       2.33793746E-16
  -14.1300001       1.33933167E-16
  -14.1199999       5.25975895E-17
  -14.1099997       1.65159844E-17
  -14.1000004       2.98509498E-17
  -14.0900002       6.89611278E-17
  -14.0799999       8.70178917E-17
  -14.0699997       2.87125012E-17
  -14.0600004      -1.48112486E-16
  -14.0500002      -4.50037658E-16
  -14.0400000      -8.32473986E-16
  -14.0299997      -1.19784435E-15
  -14.0200005      -1.41144202E-15
  -14.0100002      -1.33405783E-15
  -14.0000000      -8.65031127E-16
  -13.9899998       1.50929459E-17
  -13.9799995       1.21515357E-15
  -13.9700003       2.52866419E-15
  -13.9600000       3.66030634E-15
  -13.9499998       4.28251049E-15
  -13.9399996       4.11249065E-15
  -13.9300003       2.99300807E-15
  -13.9200001       9.56470345E-16
  -13.9099998      -1.74662852E-15
  -13.8999996      -4.66748019E-15
  -13.8900003      -7.22887902E-15
  -13.8800001      -8.83505254E-15
  -13.8699999      -9.00018162E-15
  -13.8599997      -7.46770674E-15
  -13.8500004      -4.29212431E-15
  -13.8400002       1.38664812E-16
  -13.8299999       5.15009500E-15
  -13.8199997       9.89128907E-15
  -13.8100004       1.34886931E-14
  -13.8000002       1.52120561E-14
  -13.7900000       1.46181065E-14
  -13.7799997       1.16414133E-14
  -13.7700005       6.61340286E-15
  -13.7600002       2.06301359E-16
  -13.7500000      -6.68454982E-15
  -13.7399998      -1.30933777E-14
  -13.7299995      -1.81384770E-14
  -13.7200003      -2.11470669E-14
  -13.7100000      -2.17284652E-14
  -13.6999998      -1.97882296E-14
  -13.6899996      -1.54917938E-14
  -13.6800003      -9.19878289E-15
  -13.6700001      -1.39492403E-15
  -13.6599998       7.35431020E-15
  -13.6499996       1.64153393E-14
  -13.6400003       2.50666831E-14
  -13.6300001       3.24674674E-14
  -13.6199999       3.76455797E-14
  -13.6099997       3.95390236E-14
  -13.6000004       3.71139853E-14
  -13.5900002       2.95625883E-14
  -13.5799999       1.65562280E-14
  -13.5699997      -1.49688160E-15
  -13.5600004      -2.32597263E-14
  -13.5500002      -4.64131263E-14
  -13.5400000      -6.77979062E-14
  -13.5299997      -8.37745604E-14
  -13.5200005      -9.07741493E-14
  -13.5100002      -8.59629276E-14
  -13.5000000      -6.79016169E-14
  -13.4899998      -3.70596464E-14
  -13.4799995       3.94659713E-15
  -13.4700003       5.04809038E-14
  -13.4600000       9.64038081E-14
  -13.4499998       1.34922577E-13
  -13.4399996       1.59643227E-13
  -13.4300003       1.65640152E-13
  -13.4200001       1.50342914E-13
  -13.4099998       1.14065021E-13
  -13.3999996       6.00671653E-14
  -13.3900003      -5.86105041E-15
  -13.3800001      -7.62189452E-14
  -13.3699999      -1.42849721E-13
  -13.3599997      -1.98027697E-13
  -13.3500004      -2.35379587E-13
  -13.3400002      -2.50494639E-13
  -13.3299999      -2.41167031E-13
  -13.3199997      -2.07310718E-13
  -13.3100004      -1.50670112E-13
  -13.3000002      -7.44872032E-14
  -13.2900000       1.67262224E-14
  -13.2799997       1.17230756E-13
  -13.2700005       2.19937878E-13
  -13.2600002       3.16255133E-13
  -13.2500000       3.96103533E-13
  -13.2399998       4.48335135E-13
  -13.2299995       4.61713784E-13
  -13.2200003       4.26494967E-13
  -13.2100000       3.36456530E-13
  -13.1999998       1.91046248E-13
  -13.1899996      -2.82219160E-15
  -13.1800003      -2.29845358E-13
  -13.1700001      -4.66716889E-13
  -13.1599998      -6.84069012E-13
  -13.1499996      -8.49914973E-13
  -13.1400003      -9.34208873E-13
  -13.1300001      -9.13849617E-13
  -13.1199999      -7.77258629E-13
  -13.1099997      -5.27646666E-13
  -13.1000004      -1.84238529E-13
  -13.0900002       2.18951742E-13
  -13.0799999       6.36774054E-13
  -13.0699997       1.01855178E-12
  -13.0600004       1.31480308E-12
  -13.0500002       1.48401018E-12
  -13.0400000       1.49835602E-12
  -13.0299997       1.34754599E-12
  -13.0200005       1.04018443E-12
  -13.0100002       6.02628245E-13
  -13.0000000       7.56685567E-14
  -12.9899998      -4.90284137E-13
  -12.9799995      -1.04067698E-12
  -12.9700003      -1.52215079E-12
  -12.9600000      -1.88713064E-12
  -12.9499998      -2.09735896E-12
  -12.9399996      -2.12635725E-12
  -12.9300003      -1.96102054E-12
  -12.9200001      -1.60264011E-12
  -12.9099998      -1.06755989E-12
  -12.8999996      -3.87492854E-13
  -12.8900003       3.90734347E-13
  -12.8800001       1.20644380E-12
  -12.8699999       1.98788750E-12
  -12.8599997       2.65695148E-12
  -12.8500004       3.13587958E-12
  -12.8400002       3.35566904E-12
  -12.8299999       3.26529927E-12
  -12.8199997       2.84050778E-12
  -12.8100004       2.09062108E-12
  -12.8000002       1.06198318E-12
  -12.7900000      -1.63134033E-13
  -12.7799997      -1.47259863E-12
  -12.7700005      -2.73514935E-12
  -12.7600002      -3.81465389E-12
  -12.7500000      -4.58608368E-12
  -12.7399998      -4.95098233E-12
  -12.7299995      -4.85022049E-12
  -12.7200003      -4.27215208E-12
  -12.7100000      -3.25500868E-12
  -12.6999998      -1.88324139E-12
  -12.6899996      -2.78452093E-13
  -12.6800003       1.41368568E-12
  -12.6700001       3.03861558E-12
  -12.6599998       4.44815322E-12
  -12.6499996       5.51400765E-12
  -12.6400003       6.13828216E-12
  -12.6300001       6.26031041E-12
  -12.6199999       5.85985600E-12
  -12.6099997       4.95717356E-12
  -12.6000004       3.61069833E-12
  -12.5900002       1.91307213E-12
  -12.5799999      -1.40246820E-14
  -12.5699997      -2.02615637E-12
  -12.5600004      -3.96375467E-12
  -12.5500002      -5.66148517E-12
  -12.5400000      -6.95960433E-12
  -12.5299997      -7.71718887E-12
  -12.5200005      -7.82649553E-12
  -12.5100002      -7.22701109E-12
  -12.5000000      -5.91727318E-12
  -12.4899998      -3.96229403E-12
  -12.4799995      -1.49460110E-12
  -12.4700003       1.29227716E-12
  -12.4600000       4.15809748E-12
  -12.4499998       6.83677594E-12
  -12.4399996       9.06148160E-12
  -12.4300003       1.05906612E-11
  -12.4200001       1.12313405E-11
  -12.4099998       1.08564017E-11
  -12.3999996       9.41345960E-12
  -12.3900003       6.92438815E-12
  -12.3800001       3.47622712E-12
  -12.3699999      -7.94372651E-13
  -12.3599997      -5.71989808E-12
  -12.3500004      -1.11204526E-11
  -12.3400002      -1.68186957E-11
  -12.3299999      -2.26491881E-11
  -12.3199997      -2.84615387E-11
  -12.3100004      -3.41183054E-11
  -12.3000002      -3.94896789E-11
  -12.2900000      -4.44480702E-11
  -12.2799997      -4.88650266E-11
  -12.2700005      -5.26127648E-11
  -12.2600002      -5.55707945E-11
  -12.2500000      -5.76365691E-11
  -12.2399998      -5.87381810E-11
  -12.2299995      -5.88456645E-11
  -12.2200003      -5.79776956E-11
  -12.2100000      -5.62010785E-11
  -12.1999998      -5.36219957E-11
  -12.1899996      -5.03690319E-11
  -12.1800003      -4.65705564E-11
  -12.1700001      -4.23296849E-11
  -12.1599998      -3.77011478E-11
  -12.1499996      -3.26737734E-11
  -12.1400003      -2.71619532E-11
  -12.1300001      -2.10073538E-11
  -12.1199999      -1.39911051E-11
  -12.1099997      -5.85469043E-12
  -12.1000004       3.67323403E-12
  -12.0900002       1.48473716E-11
  -12.0799999       2.78770600E-11
  -12.0699997       4.29009397E-11
  -12.0600004       5.99673228E-11
  -12.0500002       7.90209009E-11
  -12.0400000       9.98967714E-11
  -12.0299997       1.22320792E-10
  -12.0200005       1.45916015E-10
  -12.0100002       1.70214898E-10
  -12.0000000       1.94675567E-10
  -11.9899998       2.18702015E-10
  -11.9799995       2.41666714E-10
  -11.9700003       2.62934979E-10
  -11.9600000       2.81889290E-10
  -11.9499998       2.97952968E-10
  -11.9399996       3.10611120E-10
  -11.9300003       3.19429039E-10
  -11.9200001       3.24066496E-10
  -11.9099998       3.24288735E-10
  -11.8999996       3.19973575E-10
  -11.8900003       3.11114828E-10
  -11.8800001       2.97822378E-10
  -11.8699999       2.80317908E-10
  -11.8599997       2.58925797E-10
  -11.8500004       2.34058634E-10
  -11.8400002       2.06195991E-10
  -11.8299999       1.75856954E-10
  -11.8199997       1.43567255E-10
  -11.8100004       1.09822984E-10
  -11.8000002       7.50545667E-11
  -11.7900000       3.95944146E-11
  -11.7799997       3.65370451E-12
  -11.7700005      -3.26896149E-11
  -11.7600002      -6.94881860E-11
  -11.7500000      -1.06908031E-10
  -11.7399998      -1.45198187E-10
  -11.7299995      -1.84650670E-10
  -11.7200003      -2.25555546E-10
  -11.7100000      -2.68155415E-10
  -11.6999998      -3.12604637E-10
  -11.6899996      -3.58936381E-10
  -11.6800003      -4.07039319E-10
  -11.6700001      -4.56644417E-10
  -11.6599998      -5.07322295E-10
  -11.6499996      -5.58487312E-10
  -11.6400003      -6.09410022E-10
  -11.6300001      -6.59235000E-10
  -11.6199999      -7.07005010E-10
  -11.6099997      -7.51690932E-10
  -11.6000004      -7.92228172E-10
  -11.5900002      -8.27559410E-10
  -11.5799999      -8.56681004E-10
  -11.5699997      -8.78692563E-10
  -11.5600004      -8.92843632E-10
  -11.5500002      -8.98574215E-10
  -11.5400000      -8.95544194E-10
  -11.5299997      -8.83646545E-10
  -11.5200005      -8.63003391E-10
  -11.5100002      -8.33944080E-10
  -11.5000000      -7.96967214E-10
  -11.4899998      -7.52690854E-10
  -11.4799995      -7.01795566E-10
  -11.4700003      -6.44967524E-10
  -11.4600000      -5.82843995E-10
  -11.4499998      -5.15969156E-10
  -11.4399996      -4.44760506E-10
  -11.4300003      -3.69489050E-10
  -11.4200001      -2.90270807E-10
  -11.4099998      -2.07072526E-10
  -11.3999996      -1.19727367E-10
  -11.3900003      -2.79599174E-11
  -11.3800001       6.85824245E-11
  -11.3699999       1.70292128E-10
  -11.3599997       2.77563111E-10
  -11.3500004       3.90751959E-10
  -11.3400002       5.10143316E-10
  -11.3299999       6.35920316E-10
  -11.3199997       7.68145658E-10
  -11.3100004       9.06749953E-10
  -11.3000002       1.05153375E-09
  -11.2900000       1.20217603E-09
  -11.2799997       1.35825329E-09
  -11.2700005       1.51926371E-09
  -11.2600002       1.68465464E-09
  -11.2500000       1.85384808E-09
  -11.2399998       2.02627115E-09
  -11.2299995       2.20137708E-09
  -11.2200003       2.37866460E-09
  -11.2100000       2.55769317E-09
  -11.1999998       2.73809087E-09
  -11.1899996       2.91955748E-09
  -11.1800003       3.10186321E-09
  -11.1700001       3.28483507E-09
  -11.1599998       3.46834872E-09
  -11.1499996       3.65231068E-09
  -11.1400003       3.83664300E-09
  -11.1300001       4.02127709E-09
  -11.1199999       4.20614121E-09
  -11.1099997       4.39116521E-09
  -11.1000004       4.57629001E-09
  -11.0900002       4.76147743E-09
  -11.0799999       4.94673058E-09
  -11.0699997       5.13210008E-09
  -11.0600004       5.31769029E-09
  -11.0500002       5.50365664E-09
  -11.0400000       5.69019853E-09
  -11.0299997       5.87753135E-09
  -11.0200005       6.06587003E-09
  -11.0100002       6.25541441E-09
  -11.0000000       6.44633147E-09
  -10.9899998       6.63875355E-09
  -10.9799995       6.83278945E-09
  -10.9700003       7.02853642E-09
  -10.9600000       7.22610283E-09
  -10.9499998       7.42560680E-09
  -10.9399996       7.62718866E-09
  -10.9300003       7.83099896E-09
  -10.9200001       8.03718159E-09
  -10.9099998       8.24584045E-09
  -10.8999996       8.45700932E-09
  -10.8900003       8.67063488E-09
  -10.8800001       8.88656260E-09
  -10.8699999       9.10453934E-09
  -10.8599997       9.32422495E-09
  -10.8500004       9.54524015E-09
  -10.8400002       9.76717462E-09
  -10.8299999       9.98963046E-09
  -10.8199997       1.02122302E-08
  -10.8100004       1.04346194E-08
  -10.8000002       1.06564633E-08
  -10.7900000       1.08774145E-08
  -10.7799997       1.10970992E-08
  -10.7700005       1.13150991E-08
  -10.7600002       1.15309522E-08
  -10.7500000       1.17441505E-08
  -10.7399998       1.19541959E-08
  -10.7299995       1.21606121E-08
  -10.7200003       1.23629889E-08
  -10.7100000       1.25610287E-08
  -10.6999998       1.27545432E-08
  -10.6899996       1.29434712E-08
  -10.6800003       1.31278588E-08
  -10.6700001       1.33078366E-08
  -10.6599998       1.34835840E-08
  -10.6499996       1.36552991E-08
  -10.6400003       1.38231728E-08
  -10.6300001       1.39873890E-08
  -10.6199999       1.41481102E-08
  -10.6099997       1.43054910E-08
  -10.6000004       1.44596832E-08
  -10.5900002       1.46108574E-08
  -10.5799999       1.47591885E-08
  -10.5699997       1.49048525E-08
  -10.5600004       1.50480250E-08
  -10.5500002       1.51888511E-08
  -10.5400000       1.53274282E-08
  -10.5299997       1.54638062E-08
  -10.5200005       1.55979620E-08
  -10.5100002       1.57298441E-08
  -10.5000000       1.58593547E-08
  -10.4899998       1.59863980E-08
  -10.4799995       1.61109011E-08
  -10.4700003       1.62328320E-08
  -10.4600000       1.63522280E-08
  -10.4499998       1.64692082E-08
  -10.4399996       1.65839644E-08
  -10.4300003       1.66967418E-08
  -10.4200001       1.68078262E-08
  -10.4099998       1.69175092E-08
  -10.3999996       1.70260677E-08
  -10.3900003       1.71337362E-08
  -10.3800001       1.72406729E-08
  -10.3699999       1.73469683E-08
  -10.3599997       1.74526367E-08
  -10.3500004       1.75576034E-08
  -10.3400002       1.76617423E-08
  -10.3299999       1.77648936E-08
  -10.3199997       1.78668724E-08
  -10.3100004       1.79675137E-08
  -10.3000002       1.80666895E-08
  -10.2900000       1.81643163E-08
  -10.2799997       1.82603728E-08
  -10.2700005       1.83549247E-08
  -10.2600002       1.84480999E-08
  -10.2500000       1.85400726E-08
  -10.2399998       1.86310682E-08
  -10.2299995       1.87213409E-08
  -10.2200003       1.88111571E-08
  -10.2100000       1.89007725E-08
  -10.1999998       1.89904501E-08
  -10.1899996       1.90804439E-08
  -10.1800003       1.91709919E-08
  -10.1700001       1.92623304E-08
  -10.1599998       1.93546956E-08
  -10.1499996       1.94482990E-08
  -10.1400003       1.95433572E-08
  -10.1300001       1.96400496E-08
  -10.1199999       1.97385130E-08
  -10.1099997       1.98388594E-08
  -10.1000004       1.99411279E-08
  -10.0900002       2.00453183E-08
  -10.0799999       2.01513970E-08
  -10.0699997       2.02592982E-08
  -10.0600004       2.03689670E-08
  -10.0500002       2.04803836E-08
  -10.0400000       2.05935926E-08
  -10.0299997       2.07087272E-08
  -10.0200005       2.08260378E-08
  -10.0100002       2.09458815E-08
  -10.0000000       2.10687539E-08
  -9.98999977       2.11952447E-08
  -9.97999954       2.13260680E-08
  -9.97000027       2.14619913E-08
  -9.96000004       2.16038352E-08
  -9.94999981       2.17524398E-08
  -9.93999958       2.19086349E-08
  -9.93000031       2.20732410E-08
  -9.92000008       2.22470220E-08
  -9.90999985       2.24306813E-08
  -9.89999962       2.26249011E-08
  -9.89000034       2.28302977E-08
  -9.88000011       2.30474537E-08
  -9.86999989       2.32769288E-08
  -9.85999966       2.35192275E-08
  -9.85000038       2.37748434E-08
  -9.84000015       2.40442315E-08
  -9.82999992       2.43278127E-08
  -9.81999969       2.46259528E-08
  -9.81000042       2.49389878E-08
  -9.80000019       2.52672088E-08
  -9.78999996       2.56108983E-08
  -9.77999973       2.59702979E-08
  -9.77000046       2.63456919E-08
  -9.76000023       2.67373697E-08
  -9.75000000       2.71456368E-08
  -9.73999977       2.75707741E-08
  -9.72999954       2.80130585E-08
  -9.72000027       2.84726820E-08
  -9.71000004       2.89497031E-08
  -9.69999981       2.94440472E-08
  -9.68999958       2.99554266E-08
  -9.68000031       3.04833492E-08
  -9.67000008       3.10271844E-08
  -9.65999985       3.15861044E-08
  -9.64999962       3.21591926E-08
  -9.64000034       3.27454970E-08
  -9.63000011       3.33440404E-08
  -9.61999989       3.39538992E-08
  -9.60999966       3.45742102E-08
  -9.60000038       3.52041738E-08
  -9.59000015       3.58430725E-08
  -9.57999992       3.64901958E-08
  -9.56999969       3.71448685E-08
  -9.56000042       3.78063802E-08
  -9.55000019       3.84740382E-08
  -9.53999996       3.91470358E-08
  -9.52999973       3.98245845E-08
  -9.52000046       4.05058387E-08
  -9.51000023       4.11899279E-08
  -9.50000000       4.18760280E-08
  -9.48999977       4.25633182E-08
  -9.47999954       4.32510383E-08
  -9.47000027       4.39385630E-08
  -9.46000004       4.46253452E-08
  -9.44999981       4.53110083E-08
  -9.43999958       4.59953071E-08
  -9.43000031       4.66781387E-08
  -9.42000008       4.73595883E-08
  -9.40999985       4.80398903E-08
  -9.39999962       4.87193716E-08
  -9.39000034       4.93985226E-08
  -9.38000011       5.00778974E-08
  -9.36999989       5.07581355E-08
  -9.35999966       5.14400043E-08
  -9.35000038       5.21242995E-08
  -9.34000015       5.28119557E-08
  -9.32999992       5.35039639E-08
  -9.31999969       5.42015002E-08
  -9.31000042       5.49058505E-08
  -9.30000019       5.56184112E-08
  -9.28999996       5.63407561E-08
  -9.27999973       5.70744838E-08
  -9.27000046       5.78212713E-08
  -9.26000023       5.85828204E-08
  -9.25000000       5.93607510E-08
  -9.23999977       6.01566370E-08
  -9.22999954       6.09720132E-08
  -9.22000027       6.18082581E-08
  -9.21000004       6.26667571E-08
  -9.19999981       6.35487680E-08
  -9.18999958       6.44555627E-08
  -9.18000031       6.53882921E-08
  -9.17000008       6.63480151E-08
  -9.15999985       6.73357761E-08
  -9.14999962       6.83524348E-08
  -9.14000034       6.93986664E-08
  -9.13000011       7.04750036E-08
  -9.11999989       7.15818018E-08
  -9.10999966       7.27192671E-08
  -9.10000038       7.38874562E-08
  -9.09000015       7.50863052E-08
  -9.07999992       7.63156578E-08
  -9.06999969       7.75752227E-08
  -9.06000042       7.88645522E-08
  -9.05000019       8.01830140E-08
  -9.03999996       8.15297980E-08
  -9.02999973       8.29037674E-08
  -9.02000046       8.43035366E-08
  -9.01000023       8.57274429E-08
  -9.00000000       8.71735111E-08
  -8.98999977       8.86396236E-08
  -8.97999954       9.01234927E-08
  -8.97000027       9.16226170E-08
  -8.96000004       9.31345099E-08
  -8.94999981       9.46565564E-08
  -8.93999958       9.61860636E-08
  -8.93000031       9.77202887E-08
  -8.92000008       9.92564537E-08
  -8.90999985       1.00791809E-07
  -8.89999962       1.02323632E-07
  -8.89000034       1.03849132E-07
  -8.88000011       1.05365750E-07
  -8.86999989       1.06870978E-07
  -8.85999966       1.08362457E-07
  -8.85000038       1.09837998E-07
  -8.84000015       1.11295506E-07
  -8.82999992       1.12733062E-07
  -8.81999969       1.14148925E-07
  -8.81000042       1.15541454E-07
  -8.80000019       1.16909312E-07
  -8.78999996       1.18251350E-07
  -8.77999973       1.19566877E-07
  -8.77000046       1.20855461E-07
  -8.76000023       1.22117200E-07
  -8.75000000       1.23352464E-07
  -8.73999977       1.24562106E-07
  -8.72999954       1.25747150E-07
  -8.72000027       1.26908930E-07
  -8.71000004       1.28048796E-07
  -8.69999981       1.29168271E-07
  -8.68999958       1.30268901E-07
  -8.68000031       1.31352209E-07
  -8.67000008       1.32419800E-07
  -8.65999985       1.33473463E-07
  -8.64999962       1.34514949E-07
  -8.64000034       1.35546202E-07
  -8.63000011       1.36569241E-07
  -8.61999989       1.37586227E-07
  -8.60999966       1.38599262E-07
  -8.60000038       1.39610634E-07
  -8.59000015       1.40622404E-07
  -8.57999992       1.41636647E-07
  -8.56999969       1.42655338E-07
  -8.56000042       1.43680452E-07
  -8.55000019       1.44713695E-07
  -8.53999996       1.45756871E-07
  -8.52999973       1.46811544E-07
  -8.52000046       1.47879348E-07
  -8.51000023       1.48961504E-07
  -8.50000000       1.50059378E-07
  -8.48999977       1.51174007E-07
  -8.47999954       1.52306384E-07
  -8.47000027       1.53457293E-07
  -8.46000004       1.54627230E-07
  -8.44999981       1.55816721E-07
  -8.43999958       1.57025994E-07
  -8.43000031       1.58255148E-07
  -8.42000008       1.59504211E-07
  -8.40999985       1.60773055E-07
  -8.39999962       1.62061255E-07
  -8.39000034       1.63368512E-07
  -8.38000011       1.64694185E-07
  -8.36999989       1.66037751E-07
  -8.35999966       1.67398582E-07
  -8.35000038       1.68776026E-07
  -8.34000015       1.70169358E-07
  -8.32999992       1.71577909E-07
  -8.31999969       1.73000743E-07
  -8.31000042       1.74437162E-07
  -8.30000019       1.75886015E-07
  -8.28999996       1.77346337E-07
  -8.27999973       1.78817004E-07
  -8.27000046       1.80296936E-07
  -8.26000023       1.81785012E-07
  -8.25000000       1.83280193E-07
  -8.23999977       1.84781541E-07
  -8.22999954       1.86288219E-07
  -8.22000027       1.87799529E-07
  -8.21000004       1.89314889E-07
  -8.19999981       1.90833788E-07
  -8.18999958       1.92355913E-07
  -8.18000031       1.93880965E-07
  -8.17000008       1.95408930E-07
  -8.15999985       1.96939837E-07
  -8.14999962       1.98474027E-07
  -8.14000034       2.00012224E-07
  -8.13000011       2.01555281E-07
  -8.11999989       2.03104435E-07
  -8.10999966       2.04661134E-07
  -8.10000038       2.06227014E-07
  -8.09000015       2.07803978E-07
  -8.07999992       2.09394031E-07
  -8.06999969       2.10999204E-07
  -8.06000042       2.12621615E-07
  -8.05000019       2.14263579E-07
  -8.03999996       2.15927102E-07
  -8.02999973       2.17614669E-07
  -8.02000046       2.19328712E-07
  -8.01000023       2.21071474E-07
  -8.00000000       2.22845486E-07
  -7.98999977       2.24653249E-07
  -7.98000002       2.26497107E-07
  -7.96999979       2.28379307E-07
  -7.96000004       2.30302078E-07
  -7.94999981       2.32267411E-07
  -7.94000006       2.34277309E-07
  -7.92999983       2.36333463E-07
  -7.92000008       2.38437536E-07
  -7.90999985       2.40591021E-07
  -7.90000010       2.42795011E-07
  -7.88999987       2.45050586E-07
  -7.88000011       2.47358571E-07
  -7.86999989       2.49719562E-07
  -7.86000013       2.52133844E-07
  -7.84999990       2.54601588E-07
  -7.84000015       2.57122565E-07
  -7.82999992       2.59696662E-07
  -7.82000017       2.62323226E-07
  -7.80999994       2.65001717E-07
  -7.80000019       2.67731650E-07
  -7.78999996       2.70512174E-07
  -7.78000021       2.73342721E-07
  -7.76999998       2.76222522E-07
  -7.76000023       2.79150555E-07
  -7.75000000       2.82126251E-07
  -7.73999977       2.85148587E-07
  -7.73000002       2.88216597E-07
  -7.71999979       2.91329201E-07
  -7.71000004       2.94485545E-07
  -7.69999981       2.97684721E-07
  -7.69000006       3.00925876E-07
  -7.67999983       3.04208271E-07
  -7.67000008       3.07531366E-07
  -7.65999985       3.10894762E-07
  -7.65000010       3.14298063E-07
  -7.63999987       3.17741609E-07
  -7.63000011       3.21225230E-07
  -7.61999989       3.24749379E-07
  -7.61000013       3.28314627E-07
  -7.59999990       3.31921399E-07
  -7.59000015       3.35570491E-07
  -7.57999992       3.39262670E-07
  -7.57000017       3.42998817E-07
  -7.55999994       3.46779728E-07
  -7.55000019       3.50606513E-07
  -7.53999996       3.54480250E-07
  -7.53000021       3.58402218E-07
  -7.51999998       3.62373413E-07
  -7.51000023       3.66395312E-07
  -7.50000000       3.70469593E-07
  -7.48999977       3.74597306E-07
  -7.48000002       3.78780214E-07
  -7.46999979       3.83019966E-07
  -7.46000004       3.87318181E-07
  -7.44999981       3.91676735E-07
  -7.44000006       3.96097505E-07