  -16.0000000       0.00000000    
  -15.9899998       0.00000000    
  -15.9799995       0.00000000    
  -15.9700003       0.00000000    
  -15.9600000       0.00000000    
  -15.9499998       0.00000000    
  -15.9399996       0.00000000    
  -15.9300003       0.00000000    
  -15.9200001       0.00000000    
  -15.9099998       0.00000000    
  -15.8999996       0.00000000    
  -15.8900003       2.29676361E-36
  -15.8800001       3.47200825E-35
  -15.8699999       2.52716546E-34
  -15.8599997       1.18349010E-33
  -15.8500004       4.17854446E-33
  -15.8400002       1.35699097E-32
  -15.8299999       5.03444776E-32
  -15.8199997       2.09894461E-31
  -15.8100004       8.20178332E-31
  -15.8000002       2.69199623E-30
  -15.7900000       7.09565555E-30
  -15.7799997       1.42703479E-29
  -15.7700005       1.83471294E-29
  -15.7600002      -2.75788466E-30
  -15.7500000      -9.86007701E-29
  -15.7399998      -3.42964140E-28
  -15.7299995      -7.87841222E-28
  -15.7200003      -1.35220302E-27
  -15.7100000      -1.67591573E-27
  -15.6999998      -1.07836679E-27
  -15.6899996       1.13458064E-27
  -15.6800003       4.84130601E-27
  -15.6700001       8.03548663E-27
  -15.6599998       6.66442866E-27
  -15.6499996      -2.74276806E-27
  -15.6400003      -1.64460674E-26
  -15.6300001      -1.52182115E-26
  -15.6199999       3.67356592E-26
  -15.6099997       1.71189398E-25
  -15.6000004       3.63085878E-25
  -15.5900002       4.58646639E-25
  -15.5799999       1.42590479E-25
  -15.5699997      -9.52515425E-25
  -15.5600004      -2.89987379E-24
  -15.5500002      -4.92895164E-24
  -15.5400000      -4.98414626E-24
  -15.5299997      -3.28971237E-26
  -15.5200005       1.21345416E-23
  -15.5100002       2.94145721E-23
  -15.5000000       4.14895177E-23
  -15.4899998       2.89368001E-23
  -15.4799995      -2.97128310E-23
  -15.4700003      -1.39396291E-22
  -15.4600000      -2.61382763E-22
  -15.4499998      -2.92437982E-22
  -15.4399996      -7.78796492E-23
  -15.4300003       5.10850065E-22
  -15.4200001       1.42418590E-21
  -15.4099998       2.25185361E-21
  -15.3999996       2.13174279E-21
  -15.3900003      -6.35997206E-23
  -15.3800001      -5.09497334E-21
  -15.3699999      -1.22861468E-20
  -15.3599997      -1.83810970E-20
  -15.3500004      -1.71491747E-20
  -15.3400002      -8.57667348E-22
  -15.3299999       3.55074451E-20
  -15.3199997       8.75256673E-20
  -15.3100004       1.34461104E-19
  -15.3000002       1.36984030E-19
  -15.2900000       4.56820575E-20
  -15.2799997      -1.74980882E-19
  -15.2700005      -5.08726055E-19
  -15.2600002      -8.47746080E-19
  -15.2500000      -9.75728602E-19
  -15.2399998      -6.05350366E-19
  -15.2299995       5.04893779E-19
  -15.2200003       2.35811429E-18
  -15.2100000       4.50442898E-18
  -15.1999998       5.91663019E-18
  -15.1899996       5.10659124E-18
  -15.1800003       6.11579708E-19
  -15.1700001      -8.13461822E-18
  -15.1599998      -1.97425397E-17
  -15.1499996      -3.00767205E-17
  -15.1400003      -3.23871352E-17
  -15.1300001      -1.89900717E-17
  -15.1199999       1.52658217E-17
  -15.1099997       6.83150932E-17
  -15.1000004       1.26602719E-16
  -15.0900002       1.63784077E-16
  -15.0799999       1.45171587E-16
  -15.0699997       3.96068569E-17
  -15.0600004      -1.62259947E-16
  -15.0500002      -4.28245379E-16
  -15.0400000      -6.72404876E-16
  -15.0299997      -7.61271073E-16
  -15.0200005      -5.47379054E-16
  -15.0100002       6.89201857E-17
  -15.0000000       1.06143562E-15
  -14.9899998       2.21110116E-15
  -14.9799995       3.08824464E-15
  -14.9700003       3.12193792E-15
  -14.9600000       1.77570505E-15
  -14.9499998      -1.18911589E-15
  -14.9399996      -5.43169364E-15
  -14.9300003      -9.84802517E-15
  -14.9200001      -1.26216600E-14
  -14.9099998      -1.16150020E-14
  -14.8999996      -5.11425576E-15
  -14.8900003       7.20639623E-15
  -14.8800001       2.34002982E-14
  -14.8699999       3.88612279E-14
  -14.8599997       4.68508323E-14
  -14.8500004       4.01796211E-14
  -14.8400002       1.39163981E-14
  -14.8299999      -3.14853836E-14
  -14.8199997      -8.77171464E-14
  -14.8100004      -1.38109359E-13
  -14.8000002      -1.60209411E-13
  -14.7900000      -1.31838185E-13
  -14.7799997      -3.98156172E-14
  -14.7700005       1.10859842E-13
  -14.7600002       2.90732743E-13
  -14.7500000       4.46177410E-13
  -14.7399998       5.08935992E-13
  -14.7299995       4.15185410E-13
  -14.7200003       1.30920462E-13
  -14.7100000      -3.23206441E-13
  -14.6999998      -8.56961474E-13
  -14.6899996      -1.31487085E-12
  -14.6800003      -1.50570539E-12
  -14.6700001      -1.25606600E-12
  -14.6599998      -4.77975136E-13
  -14.6499996       7.68299107E-13
  -14.6400003       2.23995518E-12
  -14.6300001       3.52799409E-12
  -14.6199999       4.13620744E-12
  -14.6099997       3.61722739E-12
  -14.6000004       1.73861327E-12
  -14.5900002      -1.36713720E-12
  -14.5799999      -5.12408041E-12
  -14.5699997      -8.55470122E-12
  -14.5600004      -1.04660187E-11
  -14.5500002      -9.76337847E-12
  -14.5400000      -5.82853557E-12
  -14.5299997       1.14067122E-12
  -14.5200005       9.94868944E-12
  -14.5100002       1.84810101E-11
  -14.5000000       2.40909532E-11
  -14.4899998       2.42574884E-11
  -14.4799995       1.73826613E-11
  -14.4700003       3.51987493E-12
  -14.4600000      -1.52066779E-11
  -14.4499998      -3.46955416E-11
  -14.4399996      -4.95715691E-11
  -14.4300003      -5.44352341E-11
  -14.4200001      -4.54154110E-11
  -14.4099998      -2.16383769E-11
  -14.3999996       1.38338724E-11
  -14.3900003       5.39828252E-11
  -14.3800001       8.89309945E-11
  -14.3699999       1.08075687E-10
  -14.3599997       1.02863724E-10
  -14.3500004       6.95520239E-11
  -14.3400002       1.11800048E-11
  -14.3299999      -6.19422291E-11
  -14.3199997      -1.33635089E-10
  -14.3100004      -1.85091886E-10
  -14.3000002      -1.99397651E-10
  -14.2900000      -1.66314268E-10
  -14.2799997      -8.60859925E-11
  -14.2700005       2.89137412E-11
  -14.2600002       1.55471261E-10
  -14.2500000       2.63862210E-10
  -14.2399998       3.24526461E-10
  -14.2299995       3.15666437E-10
  -14.2200003       2.29898905E-10
  -14.2100000       7.80821727E-11
  -14.1999998      -1.11065053E-10
  -14.1899996      -2.96007108E-10
  -14.1800003      -4.31377989E-10
  -14.1700001      -4.79052964E-10
  -14.1599998      -4.18661134E-10
  -14.1499996      -2.54711668E-10
  -14.1400003      -1.80539039E-11
  -14.1300001       2.39372883E-10
  -14.1199999       4.55879640E-10
  -14.1099997       5.75129167E-10
  -14.1000004       5.61369506E-10
  -14.0900002       4.10713380E-10
  -14.0799999       1.54960933E-10
  -14.0699997      -1.43900461E-10
  -14.0600004      -4.08033440E-10
  -14.0500002      -5.63923797E-10
  -14.0400000      -5.63389446E-10
  -14.0299997      -3.99588390E-10
  -14.0200005      -1.12892917E-10
  -14.0100002       2.16241108E-10
  -14.0000000       4.86893748E-10
  -13.9899998       6.05603123E-10
  -13.9799995       5.15448573E-10
  -13.9700003       2.17894161E-10
  -13.9600000      -2.19975441E-10
  -13.9499998      -6.76885326E-10
  -13.9399996      -1.00654363E-09
  -13.9300003      -1.07828979E-09
  -13.9200001      -8.18721646E-10
  -13.9099998      -2.42120074E-10
  -13.8999996       5.40819667E-10
  -13.8900003       1.34139766E-09
  -13.8800001       1.93663796E-09
  -13.8699999       2.12877871E-09
  -13.8599997       1.80512871E-09
  -13.8500004       9.80834081E-10
  -13.8400002      -1.90030783E-10
  -13.8299999      -1.44208345E-09
  -13.8199997      -2.46144261E-09
  -13.8100004      -2.96941693E-09
  -13.8000002      -2.80489920E-09
  -13.7900000      -1.98108419E-09
  -13.7799997      -6.96888380E-10
  -13.7700005       7.05401682E-10
  -13.7600002       1.82971749E-09
  -13.7500000       2.34164932E-09
  -13.7399998       2.07806439E-09
  -13.7299995       1.11705734E-09
  -13.7200003      -2.17999632E-10
  -13.7100000      -1.43027412E-09
  -13.6999998      -1.98585481E-09
  -13.6899996      -1.48277890E-09
  -13.6800003       1.93246280E-10
  -13.6700001       2.77481504E-09
  -13.6599998       5.61788882E-09
  -13.6499996       7.82014009E-09
  -13.6400003       8.43664960E-09
  -13.6300001       6.74736667E-09
  -13.6199999       2.51000842E-09
  -13.6099997      -3.87329058E-09
  -13.6000004      -1.13337721E-08
  -13.5900002      -1.82857924E-08
  -13.5799999      -2.29343602E-08
  -13.5699997      -2.36835103E-08
  -13.5600004      -1.95556193E-08
  -13.5500002      -1.05185123E-08
  -13.5400000       2.37129116E-09
  -13.5299997       1.70648367E-08
  -13.5200005       3.08585868E-08
  -13.5100002       4.09171648E-08
  -13.5000000       4.48738007E-08
  -13.4899998       4.13744736E-08
  -13.4799995       3.04341050E-08
  -13.4700003       1.35105802E-08
  -13.4600000      -6.73612321E-09
  -13.4499998      -2.69575544E-08
  -13.4399996      -4.37927064E-08
  -13.4300003      -5.45510943E-08
  -13.4200001      -5.77402446E-08
  -13.4099998      -5.33084865E-08
  -13.3999996      -4.25430180E-08
  -13.3900003      -2.76509500E-08
  -13.3800001      -1.11363629E-08
  -13.3699999       4.85445417E-09
  -13.3599997       1.90328286E-08
  -13.3500004       3.11616688E-08
  -13.3400002       4.18746389E-08
  -13.3299999       5.21591446E-08
  -13.3199997       6.26481196E-08
  -13.3100004       7.29399048E-08
  -13.3000002       8.11845808E-08
  -13.2900000       8.41268957E-08
  -13.2799997       7.76874671E-08
  -13.2700005       5.80170614E-08
  -13.2600002       2.28113493E-08
  -13.2500000      -2.74372383E-08
  -13.2399998      -8.86115430E-08
  -13.2299995      -1.52874549E-07
  -13.2200003      -2.09476255E-07
  -13.2100000      -2.46430545E-07
  -13.1999998      -2.52811134E-07
  -13.1899996      -2.21231360E-07
  -13.1800003      -1.49971484E-07
  -13.1700001      -4.42319319E-08
  -13.1599998       8.38708303E-08
  -13.1499996       2.16709623E-07
  -13.1400003       3.33802205E-07
  -13.1300001       4.15280283E-07
  -13.1199999       4.45524734E-07
  -13.1099997       4.16236219E-07
  -13.1000004       3.28285097E-07
  -13.0900002       1.91905045E-07
  -13.0799999       2.51290846E-08
  -13.0699997      -1.49264778E-07
  -13.0600004      -3.07701612E-07
  -13.0500002      -4.29843283E-07
  -13.0400000      -5.01869010E-07
  -13.0299997      -5.18316710E-07
  -13.0200005      -4.82123482E-07
  -13.0100002      -4.02922183E-07
  -13.0000000      -2.94069139E-07
  -12.9899998      -1.69196198E-07
  -12.9799995      -3.92102812E-08
  -12.9700003       8.94417553E-08
  -12.9600000       2.14749164E-07
  -12.9499998       3.37344858E-07
  -12.9399996       4.57451279E-07
  -12.9300003       5.71502198E-07
  -12.9200001       6.69580629E-07
  -12.9099998       7.34721425E-07
  -12.8999996       7.44731040E-07
  -12.8900003       6.76542697E-07
  -12.8800001       5.12401130E-07
  -12.8699999       2.46539486E-07
  -12.8599997      -1.09356392E-07
  -12.8500004      -5.23567053E-07
  -12.8400002      -9.45849592E-07
  -12.8299999      -1.31340641E-06
  -12.8199997      -1.56066585E-06
  -12.8100004      -1.63122718E-06
  -12.8000002      -1.48964000E-06
  -12.7900000      -1.13047361E-06
  -12.7799997      -5.82502082E-07
  -12.7700005       9.32628197E-08
  -12.7600002       8.11703160E-07
  -12.7500000       1.47656806E-06
  -12.7399998       1.99587043E-06
  -12.7299995       2.29670286E-06
  -12.7200003       2.33654305E-06
  -12.7100000       2.10887220E-06
  -12.6999998       1.64218579E-06
  -12.6899996       9.92934588E-07
  -12.6800003       2.34280506E-07
  -12.6700001      -5.56601094E-07
  -12.6599998      -1.30974558E-06
  -12.6499996      -1.96978112E-06
  -12.6400003      -2.49823302E-06
  -12.6300001      -2.87095395E-06
  -12.6199999      -3.07226492E-06
  -12.6099997      -3.08828862E-06
  -12.6000004      -2.90219964E-06
  -12.5900002      -2.49356344E-06
  -12.5799999      -1.84271789E-06
  -12.5699997      -9.39613415E-07
  -12.5600004       2.04974512E-07
  -12.5500002       1.54897202E-06
  -12.5400000       3.01261389E-06
  -12.5299997       4.47886350E-06
  -12.5200005       5.80192227E-06
  -12.5100002       6.82325071E-06
  -12.5000000       7.39265761E-06
  -12.4899998       7.39056259E-06
  -12.4799995       6.74700732E-06
  -12.4700003       5.45341118E-06
  -12.4600000       3.56448663E-06
  -12.4499998       1.18975015E-06
  -12.4399996      -1.52372775E-06
  -12.4300003      -4.41378916E-06
  -12.4200001      -7.32631270E-06
  -12.4099998      -1.01343676E-05
  -12.3999996      -1.27497933E-05
  -12.3900003      -1.51253689E-05
  -12.3800001      -1.72480031E-05
  -12.3699999      -1.91252657E-05
  -12.3599997      -2.07689955E-05
  -12.3500004      -2.21802766E-05
  -12.3400002      -2.33393621E-05
  -12.3299999      -2.42028727E-05
  -12.3199997      -2.47086700E-05
  -12.3100004      -2.47869993E-05
  -12.3000002      -2.43749018E-05
  -12.2900000      -2.34303170E-05
  -12.2799997      -2.19423709E-05
  -12.2700005      -1.99353217E-05
  -12.2600002      -1.74651741E-05
  -12.2500000      -1.46095708E-05
  -12.2399998      -1.14532286E-05
  -12.2299995      -8.07207289E-06
  -12.2200003      -4.51953520E-06
  -12.2100000      -8.18160515E-07
  -12.1999998       3.04158789E-06
  -12.1899996       7.09464848E-06
  -12.1800003       1.13879187E-05
  -12.1700001       1.59623251E-05
  -12.1599998       2.08337678E-05
  -12.1499996       2.59766639E-05
  -12.1400003       3.13131568E-05
  -12.1300001       3.67106149E-05
  -12.1199999       4.19882017E-05
  -12.1099997       4.69318729E-05
  -12.1000004       5.13156665E-05
  -12.0900002       5.49258621E-05
  -12.0799999       5.75842241E-05
  -12.0699997       5.91662792E-05
  -12.0600004       5.96122445E-05
  -12.0500002       5.89287592E-05
  -12.0400000       5.71819764E-05
  -12.0299997       5.44837312E-05
  -12.0200005       5.09740094E-05
  -12.0100002       4.68030703E-05
  -12.0000000       4.21163822E-05
  -11.9899998       3.70445632E-05
  -11.9799995       3.16989899E-05
  -11.9700003       2.61722489E-05
  -11.9600000       2.05416909E-05
  -11.9499998       1.48736217E-05
  -11.9399996       9.22630534E-06
  -11.9300003       3.65057986E-06
  -11.9200001      -1.81166627E-06
  -11.9099998      -7.12997416E-06
  -11.8999996      -1.22867086E-05
  -11.8900003      -1.72757209E-05
  -11.8800001      -2.20973543E-05
  -11.8699999      -2.67501237E-05
  -11.8599997      -3.12212069E-05
  -11.8500004      -3.54784243E-05
  -11.8400002      -3.94671042E-05
  -11.8299999      -4.31138069E-05
  -11.8199997      -4.63376455E-05
  -11.8100004      -4.90674029E-05
  -11.8000002      -5.12606639E-05
  -11.7900000      -5.29199788E-05
  -11.7799997      -5.41009322E-05
  -11.7700005      -5.49087490E-05
  -11.7600002      -5.54822291E-05
  -11.7500000      -5.59674518E-05
  -11.7399998      -5.64864313E-05
  -11.7299995      -5.71075689E-05
  -11.7200003      -5.78251456E-05
  -11.7100000      -5.85531452E-05
  -11.6999998      -5.91356038E-05
  -11.6899996      -5.93713994E-05
  -11.6800003      -5.90482196E-05
  -11.6700001      -5.79776679E-05
  -11.6599998      -5.60233566E-05
  -11.6499996      -5.31156657E-05
  -11.6400003      -4.92503314E-05
  -11.6300001      -4.44725702E-05
  -11.6199999      -3.88524095E-05
  -11.6099997      -3.24592802E-05
  -11.6000004      -2.53444268E-05
  -11.5900002      -1.75372497E-05
  -11.5799999      -9.05784054E-06
  -11.5699997       5.70029997E-08
  -11.5600004       9.72131329E-06
  -11.5500002       1.97706704E-05
  -11.5400000       2.99457333E-05
  -11.5299997       3.98958073E-05
  -11.5200005       4.92048312E-05
  -11.5100002       5.74366677E-05
  -11.5000000       6.41920269E-05
  -11.4899998       6.91655223E-05
  -11.4799995       7.21917313E-05
  -11.4700003       7.32708140E-05
  -11.4600000       7.25690115E-05
  -11.4499998       7.03943952E-05
  -11.4399996       6.71538364E-05
  -11.4300003       6.32998417E-05
  -11.4200001       5.92774377E-05
  -11.4099998       5.54797625E-05
  -11.3999996       5.22178816E-05
  -11.3900003       4.97063520E-05
  -11.3800001       4.80625422E-05
  -11.3699999       4.73154578E-05
  -11.3599997       4.74189255E-05
  -11.3500004       4.82655087E-05
  -11.3400002       4.96989815E-05
  -11.3299999       5.15258507E-05
  -11.3199997       5.35272848E-05
  -11.3100004       5.54735234E-05
  -11.3000002       5.71411838E-05
  -11.2900000       5.83327819E-05
  -11.2799997       5.88952353E-05
  -11.2700005       5.87333598E-05
  -11.2600002       5.78149811E-05
  -11.2500000       5.61653651E-05
  -11.2399998       5.38520544E-05
  -11.2299995       5.09636666E-05
  -11.2200003       4.75883389E-05
  -11.2100000       4.37984054E-05
  -11.1999998       3.96456162E-05
  -11.1899996       3.51689014E-05
  -11.1800003       3.04121659E-05
  -11.1700001       2.54462921E-05
  -11.1599998       2.03875970E-05
  -11.1499996       1.54049339E-05
  -11.1400003       1.07108062E-05
  -11.1300001       6.53580446E-06
  -11.1199999       3.09145821E-06
  -11.1099997       5.30041291E-07
  -11.1000004      -1.08760003E-06
  -11.0900002      -1.80654411E-06
  -11.0799999      -1.76879530E-06
  -11.0699997      -1.18092032E-06
  -11.0600004      -2.64691920E-07
  -11.0500002       7.97697226E-07
  -11.0400000       1.91032177E-06
  -11.0299997       3.08987183E-06
  -11.0200005       4.46404420E-06
  -11.0100002       6.24152381E-06
  -11.0000000       8.66000119E-06
  -10.9899998       1.19244642E-05
  -10.9799995       1.61507578E-05
  -10.9700003       2.13276453E-05
  -10.9600000       2.73063415E-05
  -10.9499998       3.38191021E-05
  -10.9399996       4.05211831E-05
  -10.9300003       4.70451851E-05
  -10.9200001       5.30538819E-05
  -10.9099998       5.82792309E-05
  -10.8999996       6.25400426E-05
  -10.8900003       6.57367054E-05
  -10.8800001       6.78288779E-05
  -10.8699999       6.88059299E-05
  -10.8599997       6.86616186E-05
  -10.8500004       6.73826944E-05
  -10.8400002       6.49554640E-05
  -10.8299999       6.13886805E-05
  -10.8199997       5.67443785E-05
  -10.8100004       5.11656181E-05
  -10.8000002       4.48893588E-05
  -10.7900000       3.82364124E-05
  -10.7799997       3.15766374E-05
  -10.7700005       2.52745685E-05
  -10.7600002       1.96268466E-05
  -10.7500000       1.48061999E-05
  -10.7399998       1.08265967E-05
  -10.7299995       7.53970517E-06
  -10.7200003       4.66617485E-06
  -10.7100000       1.85718500E-06
  -10.6999998      -1.22559459E-06
  -10.6899996      -4.82768519E-06
  -10.6800003      -9.03457840E-06
  -10.6700001      -1.37338420E-05
  -10.6599998      -1.86150955E-05
  -10.6499996      -2.32091188E-05
  -10.6400003      -2.69592838E-05
  -10.6300001      -2.93134763E-05
  -10.6199999      -2.98202594E-05
  -10.6099997      -2.82131259E-05
  -10.6000004      -2.44687526E-05
  -10.5900002      -1.88292961E-05
  -10.5799999      -1.17846248E-05
  -10.5699997      -4.01608622E-06
  -10.5600004       3.69099803E-06
  -10.5500002       1.05541758E-05
  -10.5400000       1.59051924E-05
  -10.5299997       1.92892821E-05
  -10.5200005       2.05368033E-05
  -10.5100002       1.97946101E-05
  -10.5000000       1.75100195E-05
  -10.4899998       1.43670277E-05
  -10.4799995       1.11829322E-05
  -10.4700003       8.78063565E-06
  -10.4600000       7.85768862E-06
  -10.4499998       8.87501392E-06
  -10.4399996       1.19858396E-05
  -10.4300003       1.70184412E-05
  -10.4200001       2.35164298E-05
  -10.4099998       3.08284871E-05
  -10.3999996       3.82293329E-05
  -10.3900003       4.50473090E-05
  -10.3800001       5.07721052E-05
  -10.3699999       5.51220073E-05
  -10.3599997       5.80584892E-05
  -10.3500004       5.97491889E-05
  -10.3400002       6.04917332E-05
  -10.3299999       6.06198337E-05
  -10.3199997       6.04159577E-05
  -10.3100004       6.00518033E-05
  -10.3000002       5.95689016E-05
  -10.2900000       5.89008087E-05
  -10.2799997       5.79264342E-05
  -10.2700005       5.65357695E-05
  -10.2600002       5.46873925E-05
  -10.2500000       5.24396273E-05
  -10.2399998       4.99459165E-05
  -10.2299995       4.74165136E-05
  -10.2200003       4.50582011E-05
  -10.2100000       4.30114742E-05
  -10.1999998       4.13053131E-05
  -10.1899996       3.98452030E-05
  -10.1800003       3.84408741E-05
  -10.1700001       3.68677283E-05
  -10.1599998       3.49462243E-05
  -10.1499996       3.26166592E-05
  -10.1400003       2.99862786E-05
  -10.1300001       2.73324622E-05
  -10.1199999       2.50558787E-05
  -10.1099997       2.35918105E-05
  -10.1000004       2.32995098E-05
  -10.0900002       2.43564573E-05
  -10.0799999       2.66858606E-05
  -10.0699997       2.99381791E-05
  -10.0600004       3.35357618E-05
  -10.0500002       3.67738248E-05
  -10.0400000       3.89569468E-05
  -10.0299997       3.95414863E-05
  -10.0200005       3.82514409E-05
  -10.0100002       3.51415365E-05
  -10.0000000       3.05942012E-05
  -9.98999977       2.52524078E-05
  -9.97999954       1.99057977E-05
  -9.97000027       1.53573710E-05
  -9.96000004       1.23012842E-05
  -9.94999981       1.12363668E-05
  -9.93999958       1.24291246E-05
  -9.93000031       1.59249084E-05
  -9.92000008       2.15938962E-05
  -9.90999985       2.91898232E-05
  -9.89999962       3.84004234E-05
  -9.89000034       4.88749247E-05
  -9.88000011       6.02251821E-05
  -9.86999989       7.20108656E-05
  -9.85999966       8.37249099E-05
  -9.85000038       9.47995359E-05
  -9.84000015       1.04645071E-04
  -9.82999992       1.12722679E-04
  -9.81999969       1.18638265E-04
  -9.81000042       1.22232974E-04
  -9.80000019       1.23642487E-04
  -9.78999996       1.23302409E-04
  -9.77999973       1.21888675E-04
  -9.77000046       1.20201563E-04
  -9.76000023       1.19016055E-04
  -9.75000000       1.18933196E-04
  -9.73999977       1.20267825E-04
  -9.72999954       1.22997852E-04
  -9.72000027       1.26785919E-04
  -9.71000004       1.31063265E-04
  -9.69999981       1.35152251E-04
  -9.68999958       1.38394826E-04
  -9.68000031       1.40257267E-04
  -9.67000008       1.40391436E-04
  -9.65999985       1.38648044E-04
  -9.64999962       1.35052338E-04
  -9.64000034       1.29760898E-04
  -9.63000011       1.23020436E-04
  -9.61999989       1.15142684E-04
  -9.60999966       1.06499436E-04
  -9.60000038       9.75295916E-05
  -9.59000015       8.87446367E-05
  -9.57999992       8.07172109E-05
  -9.56999969       7.40435280E-05
  -9.56000042       6.92812537E-05
  -9.55000019       6.68733555E-05
  -9.53999996       6.70753871E-05
  -9.52999973       6.99049051E-05
  -9.52000046       7.51255138E-05
  -9.51000023       8.22699440E-05
  -9.50000000       9.06971181E-05
  -9.48999977       9.96706585E-05
  -9.47999954       1.08445325E-04
  -9.47000027       1.16348368E-04
  -9.46000004       1.22848680E-04
  -9.44999981       1.27609412E-04
  -9.43999958       1.30522589E-04
  -9.43000031       1.31723093E-04
  -9.42000008       1.31577428E-04
  -9.40999985       1.30642191E-04
  -9.39999962       1.29588210E-04
  -9.39000034       1.29094304E-04
  -9.38000011       1.29723354E-04
  -9.36999989       1.31804467E-04
  -9.35999966       1.35348513E-04
  -9.35000038       1.40023636E-04
  -9.34000015       1.45204685E-04
  -9.32999992       1.50092397E-04
  -9.31999969       1.53878049E-04
  -9.31000042       1.55915070E-04
  -9.30000019       1.55853064E-04
  -9.28999996       1.53699933E-04
  -9.27999973       1.49796469E-04
  -9.27000046       1.44712685E-04
  -9.26000023       1.39099095E-04
  -9.25000000       1.33536902E-04
  -9.23999977       1.28430198E-04
  -9.22999954       1.23966645E-04
  -9.22000027       1.20149554E-04
  -9.21000004       1.16879855E-04
  -9.19999981       1.14051574E-04
  -9.18999958       1.11624024E-04
  -9.18000031       1.09643443E-04
  -9.17000008       1.08212385E-04
  -9.15999985       1.07423512E-04
  -9.14999962       1.07291016E-04
  -9.14000034       1.07712483E-04
  -9.13000011       1.08481574E-04
  -9.11999989       1.09351044E-04
  -9.10999966       1.10122957E-04
  -9.10000038       1.10732683E-04
  -9.09000015       1.11292808E-04
  -9.07999992       1.12078407E-04
  -9.06999969       1.13457987E-04
  -9.06000042       1.15796043E-04
  -9.05000019       1.19363336E-04
  -9.03999996       1.24289043E-04
  -9.02999973       1.30569591E-04
  -9.02000046       1.38125630E-04
  -9.01000023       1.46876962E-04
  -9.00000000       1.56794995E-04
  -8.98999977       1.67902152E-04
  -8.97999954       1.80207498E-04
  -8.97000027       1.93599466E-04
  -8.96000004       2.07739286E-04
  -8.94999981       2.22006289E-04
  -8.93999958       2.35532891E-04
  -8.93000031       2.47338932E-04
  -8.92000008       2.56535248E-04
  -8.90999985       2.62536865E-04
  -8.89999962       2.65214971E-04
  -8.89000034       2.64931208E-04
  -8.88000011       2.62433139E-04
  -8.86999989       2.58637592E-04
  -8.85999966       2.54366692E-04
  -8.85000038       2.50123237E-04
  -8.84000015       2.45978241E-04
  -8.82999992       2.41609465E-04
  -8.81999969       2.36477485E-04
  -8.81000042       2.30077800E-04
  -8.80000019       2.22181814E-04
  -8.78999996       2.12981729E-04
  -8.77999973       2.03089337E-04
  -8.77000046       1.93389744E-04
  -8.76000023       1.84801494E-04
  -8.75000000       1.78028044E-04
  -8.73999977       1.73385459E-04
  -8.72999954       1.70764106E-04
  -8.72000027       1.69730643E-04
  -8.71000004       1.69729523E-04
  -8.69999981       1.70304877E-04
  -8.68999958       1.71263091E-04
  -8.68000031       1.72718588E-04
  -8.67000008       1.75012610E-04
  -8.65999985       1.78543458E-04
  -8.64999962       1.83576936E-04
  -8.64000034       1.90114559E-04
  -8.63000011       1.97868649E-04
  -8.61999989       2.06354482E-04
  -8.60999966       2.15060369E-04
  -8.60000038       2.23630210E-04
  -8.59000015       2.31987011E-04
  -8.57999992       2.40351830E-04
  -8.56999969       2.49153120E-04
  -8.56000042       2.58866290E-04
  -8.55000019       2.69845914E-04
  -8.53999996       2.82216759E-04
  -8.52999973       2.95862090E-04
  -8.52000046       3.10506497E-04
  -8.51000023       3.25852452E-04
  -8.50000000       3.41705862E-04
  -8.48999977       3.58034769E-04
  -8.47999954       3.74932104E-04
  -8.47000027       3.92496906E-04
  -8.46000004       4.10687149E-04
  -8.44999981       4.29213746E-04
  -8.43999958       4.47529776E-04
  -8.43000031       4.64937999E-04
  -8.42000008       4.80784103E-04
  -8.40999985       4.94671054E-04
  -8.39999962       5.06607466E-04
  -8.39000034       5.17026521E-04
  -8.38000011       5.26653021E-04
  -8.36999989       5.36253385E-04
  -8.35999966       5.46348398E-04
  -8.35000038       5.56990213E-04
  -8.34000015       5.67684590E-04
  -8.32999992       5.77493513E-04
  -8.31999969       5.85291593E-04
  -8.31000042       5.90096286E-04
  -8.30000019       5.91364806E-04
  -8.28999996       5.89161937E-04
  -8.27999973       5.84146066E-04
  -8.27000046       5.77380764E-04
  -8.26000023       5.70039207E-04
  -8.25000000       5.63094509E-04
  -8.23999977       5.57092426E-04
  -8.22999954       5.52067708E-04
  -8.22000027       5.47614822E-04
  -8.21000004       5.43068862E-04
  -8.19999981       5.37727145E-04
  -8.18999958       5.31036756E-04
  -8.18000031       5.22693095E-04
  -8.17000008       5.12639061E-04
  -8.15999985       5.00989612E-04
  -8.14999962       4.87930112E-04
  -8.14000034       4.73636435E-04
  -8.13000011       4.58246941E-04
  -8.11999989       4.41889744E-04
  -8.10999966       4.24740079E-04
  -8.10000038       4.07075509E-04
  -8.09000015       3.89300170E-04
  -8.07999992       3.71926581E-04
  -8.06999969       3.55528900E-04
  -8.06000042       3.40687227E-04
  -8.05000019       3.27945483E-04
  -8.03999996       3.17795522E-04
  -8.02999973       3.10672127E-04
  -8.02000046       3.06941365E-04
  -8.01000023       3.06858623E-04
  -8.00000000       3.10491159E-04
  -7.98999977       3.17625963E-04
  -7.98000002       3.27702350E-04
  -7.96999979       3.39817751E-04
  -7.96000004       3.52836738E-04
  -7.94999981       3.65602929E-04
  -7.94000006       3.77203396E-04
  -7.92999983       3.87213338E-04
  -7.92000008       3.95831827E-04
  -7.90999985       4.03849786E-04
  -7.90000010       4.12439811E-04
  -7.88999987       4.22818499E-04
  -7.88000011       4.35884664E-04
  -7.86999989       4.51943313E-04
  -7.86000013       4.70614032E-04
  -7.84999990       4.90954437E-04
  -7.84000015       5.11757273E-04
  -7.82999992       5.31923608E-04
  -7.82000017       5.50782890E-04
  -7.80999994       5.68248914E-04
  -7.80000019       5.84762485E-04
  -7.78999996       6.01045555E-04
  -7.78000021       6.17762620E-04
  -7.76999998       6.35213277E-04
  -7.76000023       6.53171795E-04
  -7.75000000       6.70928333E-04
  -7.73999977       6.87515072E-04
  -7.73000002       7.02027173E-04
  -7.71999979       7.13921385E-04
  -7.71000004       7.23178673E-04
  -7.69999981       7.30279775E-04
  -7.69000006       7.36011134E-04
  -7.67999983       7.41180847E-04
  -7.67000008       7.46357720E-04
  -7.65999985       7.51734013E-04
  -7.65000010       7.57151574E-04
  -7.63999987       7.62274140E-04
  -7.63000011       7.66820449E-04
  -7.61999989       7.70755287E-04
  -7.61000013       7.74358341E-04
  -7.59999990       7.78139976E-04
  -7.59000015       7.82646530E-04
  -7.57999992       7.88239355E-04
  -7.57000017       7.94946565E-04
  -7.55999994       8.02460010E-04
  -7.55000019       8.10278172E-04
  -7.53999996       8.17938824E-04
  -7.53000021       8.25243187E-04
  -7.51999998       8.32367572E-04
  -7.51000023       8.39806511E-04
  -7.50000000       8.48164724E-04
  -7.48999977       8.57876905E-04
  -7.48000002       8.68974254E-04
  -7.46999979       8.81007523E-04
  -7.46000004       8.93174089E-04
  -7.44999981       9.04611952E-04
  -7.44000006       9.14760574E-04