  -16.0000000       0.00000000    
  -15.9899998       0.00000000    
  -15.9799995       0.00000000    
  -15.9700003       0.00000000    
  -15.9600000       0.00000000    
  -15.9499998       0.00000000    
  -15.9399996       0.00000000    
  -15.9300003       0.00000000    
  -15.9200001       0.00000000    
  -15.9099998       0.00000000    
  -15.8999996       0.00000000    
  -15.8900003       0.00000000    
  -15.8800001       1.98045512E-41
  -15.8699999       2.04149848E-39
  -15.8599997       6.50737840E-38
  -15.8500004       1.10470138E-36
  -15.8400002       1.25003651E-35
  -15.8299999       1.05540302E-34
  -15.8199997       7.10378695E-34
  -15.8100004       3.97814986E-33
  -15.8000002       1.90859669E-32
  -15.7900000       8.01158057E-32
  -15.7799997       2.98836548E-31
  -15.7700005       1.00211909E-30
  -15.7600002       3.04773298E-30
  -15.7500000       8.46089462E-30
  -15.7399998       2.15379033E-29
  -15.7299995       5.04098110E-29
  -15.7200003       1.08568727E-28
  -15.7100000       2.14849017E-28
  -15.6999998       3.88844148E-28
  -15.6899996       6.37277219E-28
  -15.6800003       9.26918593E-28
  -15.6700001       1.14369626E-27
  -15.6599998       1.04832508E-27
  -15.6499996       2.56871893E-28
  -15.6400003      -1.70461016E-27
  -15.6300001      -5.21154794E-27
  -15.6199999      -1.01796029E-26
  -15.6099997      -1.55665984E-26
  -15.6000004      -1.89093950E-26
  -15.5900002      -1.62329609E-26
  -15.5799999      -2.78064533E-27
  -15.5699997       2.50603268E-26
  -15.5600004       6.66547344E-26
  -15.5500002       1.13588797E-25
  -15.5400000       1.47380726E-25
  -15.5299997       1.40757980E-25
  -15.5200005       6.46290505E-26
  -15.5100002      -9.87365919E-26
  -15.5000000      -3.38852465E-25
  -15.4899998      -6.02740219E-25
  -15.4799995      -7.92133396E-25
  -15.4700003      -7.80383165E-25
  -15.4600000      -4.51729315E-25
  -15.4499998       2.44534949E-25
  -15.4399996       1.24378752E-24
  -15.4300003       2.34482218E-24
  -15.4200001       3.23733350E-24
  -15.4099998       3.57742307E-24
  -15.3999996       3.07953094E-24
  -15.3900003       1.56794358E-24
  -15.3800001      -1.06475771E-24
  -15.3699999      -4.98733681E-24
  -15.3599997      -1.05300214E-23
  -15.3500004      -1.80080584E-23
  -15.3400002      -2.69716718E-23
  -15.3299999      -3.47561891E-23
  -15.3199997      -3.47139788E-23
  -15.3100004      -1.53459952E-23
  -15.3000002       3.75868966E-23
  -15.2900000       1.33671458E-22
  -15.2799997       2.64231169E-22
  -15.2700005       3.85320788E-22
  -15.2600002       4.06127834E-22
  -15.2500000       1.97769095E-22
  -15.2399998      -3.60623156E-22
  -15.2299995      -1.29006995E-21
  -15.2200003      -2.38946145E-21
  -15.2100000      -3.13585826E-21
  -15.1999998      -2.69970971E-21
  -15.1899996      -1.81268447E-22
  -15.1800003       4.87110668E-21
  -15.1700001       1.17329108E-20
  -15.1599998       1.78480599E-20
  -15.1499996       1.87469532E-20
  -15.1400003       9.12471658E-21
  -15.1300001      -1.45619718E-20
  -15.1199999      -5.02855825E-20
  -15.1099997      -8.67949437E-20
  -15.1000004      -1.02578816E-19
  -15.0900002      -7.03659929E-20
  -15.0799999       3.09513085E-20
  -15.0699997       1.98159220E-19
  -15.0600004       3.85427443E-19
  -15.0500002       4.97044765E-19
  -15.0400000       4.04638790E-19
  -15.0299997      -1.89943873E-21
  -15.0200005      -7.33769226E-19
  -15.0100002      -1.61797758E-18
  -15.0000000      -2.25482569E-18
  -14.9899998      -2.07652464E-18
  -14.9799995      -5.49854715E-19
  -14.9700003       2.48656303E-18
  -14.9600000       6.44566802E-18
  -14.9499998       9.76427156E-18
  -14.9399996       1.00651395E-17
  -14.9300003       4.90103520E-18
  -14.9200001      -6.91849894E-18
  -14.9099998      -2.37450764E-17
  -14.8999996      -3.99538559E-17
  -14.8900003      -4.61921014E-17
  -14.8800001      -3.18423276E-17
  -14.8699999       1.01136338E-17
  -14.8599997       7.68163923E-17
  -14.8500004       1.50247856E-16
  -14.8400002       1.96412925E-16
  -14.8299999       1.72377399E-16
  -14.8199997       4.26183899E-17
  -14.8100004      -1.97744937E-16
  -14.8000002      -5.00396360E-16
  -14.7900000      -7.53865782E-16
  -14.7799997      -7.99135140E-16
  -14.7700005      -4.78828307E-16
  -14.7600002       2.83869090E-16
  -14.7500000       1.39753342E-15
  -14.7399998       2.54375365E-15
  -14.7299995       3.19314417E-15
  -14.7200003       2.73229599E-15
  -14.7100000       7.05351123E-16
  -14.6999998      -2.87856566E-15
  -14.6899996      -7.27984669E-15
  -14.6800003      -1.09522580E-14
  -14.6700001      -1.17971547E-14
  -14.6599998      -7.81201038E-15
  -14.6499996       1.94844725E-15
  -14.6400003       1.63676429E-14
  -14.6300001       3.16477530E-14
  -14.6199999       4.15550942E-14
  -14.6099997       3.88699828E-14
  -14.6000004       1.80197400E-14
  -14.5900002      -2.16558000E-14
  -14.5799999      -7.31091958E-14
  -14.5699997      -1.20694077E-13
  -14.5600004      -1.42495540E-13
  -14.5500002      -1.16444140E-13
  -14.5400000      -2.94470564E-14
  -14.5299997       1.12863637E-13
  -14.5200005       2.79528598E-13
  -14.5100002       4.14983586E-13
  -14.5000000       4.50129354E-13
  -14.4899998       3.23909546E-13
  -14.4799995       1.13373649E-14
  -14.4700003      -4.50448001E-13
  -14.4600000      -9.49318857E-13
  -14.4499998      -1.30920437E-12
  -14.4399996      -1.33082250E-12
  -14.4300003      -8.58522400E-13
  -14.4200001       1.41850981E-13
  -14.4099998       1.51957255E-12
  -14.3999996       2.92010209E-12
  -14.3900003       3.83537776E-12
  -14.3800001       3.73126356E-12
  -14.3699999       2.23431321E-12
  -14.3599997      -6.69075797E-13
  -14.3500004      -4.48986247E-12
  -14.3400002      -8.22287464E-12
  -14.3299999      -1.05146135E-11
  -14.3199997      -1.00166212E-11
  -14.3100004      -5.86354923E-12
  -14.3000002       1.85091309E-12
  -14.2900000       1.17688394E-11
  -14.2799997       2.12981854E-11
  -14.2700005       2.70794429E-11
  -14.2600002       2.58703024E-11
  -14.2500000       1.56800857E-11
  -14.2399998      -3.15331463E-12
  -14.2299995      -2.73253434E-11
  -14.2200003      -5.07147553E-11
  -14.2100000      -6.55093202E-11
  -14.1999998      -6.42274289E-11
  -14.1899996      -4.22328006E-11
  -14.1800003      -6.82666272E-14
  -14.1700001       5.51964481E-11
  -14.1599998       1.10308325E-10
  -14.1499996       1.48218604E-10
  -14.1400003       1.52312413E-10
  -14.1300001       1.11644638E-10
  -14.1199999       2.58170724E-11
  -14.1099997      -9.20872753E-11
  -14.1000004      -2.15898258E-10
  -14.0900002      -3.10780346E-10
  -14.0799999      -3.41326523E-10
  -14.0699997      -2.81796753E-10
  -14.0600004      -1.25982322E-10
  -14.0500002       1.06264136E-10
  -14.0400000       3.68477471E-10
  -14.0299997       5.94495342E-10
  -14.0200005       7.12492898E-10
  -14.0100002       6.63742228E-10
  -14.0000000       4.21819413E-10
  -13.9899998       7.07738902E-12
  -13.9799995      -5.08587394E-10
  -13.9700003      -1.00995534E-09
  -13.9600000      -1.36007994E-09
  -13.9499998      -1.43217049E-09
  -13.9399996      -1.14531773E-09
  -13.9300003      -4.95402053E-10
  -13.9200001       4.27843899E-10
  -13.9099998       1.44481438E-09
  -13.8999996       2.31404140E-09
  -13.8900003       2.78175394E-09
  -13.8800001       2.64443401E-09
  -13.8699999       1.81089121E-09
  -13.8599997       3.47964851E-10
  -13.8500004      -1.50493706E-09
  -13.8400002      -3.36227890E-09
  -13.8299999      -4.76092232E-09
  -13.8199997      -5.26171950E-09
  -13.8100004      -4.56467131E-09
  -13.8000002      -2.61109268E-09
  -13.7900000       3.55593888E-10
  -13.7799997       3.79399978E-09
  -13.7700005       6.94512048E-09
  -13.7600002       8.98268659E-09
  -13.7500000       9.20836030E-09
  -13.7399998       7.24989135E-09
  -13.7299995       3.21176552E-09
  -13.7200003      -2.26874719E-09
  -13.7100000      -8.09180811E-09
  -13.6999998      -1.28950068E-08
  -13.6899996      -1.53536810E-08
  -13.6800003      -1.45200874E-08
  -13.6700001      -1.01198010E-08
  -13.6599998      -2.72095946E-09
  -13.6499996       6.28769570E-09
  -13.6400003       1.49330805E-08
  -13.6300001       2.10782982E-08
  -13.6199999       2.29427126E-08
  -13.6099997       1.95992378E-08
  -13.6000004       1.13132153E-08
  -13.5900002      -3.87078286E-10
  -13.5799999      -1.29614799E-08
  -13.5699997      -2.34042421E-08
  -13.5600004      -2.89745010E-08
  -13.5500002      -2.79366752E-08
  -13.5400000      -2.01122798E-08
  -13.5299997      -7.07158243E-09
  -13.5200005       8.12689116E-09
  -13.5100002       2.16285070E-08
  -13.5000000       2.97629015E-08
  -13.4899998       3.00733305E-08
  -13.4799995       2.21137011E-08
  -13.4700003       7.76457387E-09
  -13.4600000      -9.07605902E-09
  -13.4499998      -2.34128201E-08
  -13.4399996      -3.04968673E-08
  -13.4300003      -2.72632672E-08
  -13.4200001      -1.34658293E-08
  -13.4099998       7.85477283E-09
  -13.3999996       3.07930250E-08
  -13.3900003       4.78971707E-08
  -13.3800001       5.21387093E-08
  -13.3699999       3.90759034E-08
  -13.3599997       8.63275229E-09
  -13.3500004      -3.40609674E-08
  -13.3400002      -7.91519028E-08
  -13.3299999      -1.13943564E-07
  -13.3199997      -1.25891532E-07
  -13.3100004      -1.06084656E-07
  -13.3000002      -5.23649817E-08
  -13.2900000       2.88084703E-08
  -13.2799997       1.22435196E-07
  -13.2700005       2.07288693E-07
  -13.2600002       2.60232213E-07
  -13.2500000       2.61745924E-07
  -13.2399998       2.01447676E-07
  -13.2299995       8.22222432E-08
  -13.2200003      -7.83000331E-08
  -13.2100000      -2.49669029E-07
  -13.1999998      -3.93970083E-07
  -13.1899996      -4.73781256E-07
  -13.1800003      -4.61142861E-07
  -13.1700001      -3.45495067E-07
  -13.1599998      -1.38513542E-07
  -13.1499996       1.25723389E-07
  -13.1400003       3.95854869E-07
  -13.1300001       6.13057693E-07
  -13.1199999       7.23755704E-07
  -13.1099997       6.92509900E-07
  -13.1000004       5.12035115E-07
  -13.0900002       2.07650515E-07
  -13.0799999      -1.65430009E-07
  -13.0699997      -5.32022682E-07
  -13.0600004      -8.12403016E-07
  -13.0500002      -9.40087205E-07
  -13.0400000      -8.77916023E-07
  -13.0299997      -6.28538771E-07
  -13.0200005      -2.36371861E-07
  -13.0100002       2.20024461E-07
  -13.0000000       6.43987050E-07
  -12.9899998       9.41945189E-07
  -12.9799995       1.04503897E-06
  -12.9700003       9.26031362E-07
  -12.9600000       6.07237553E-07
  -12.9499998       1.57100388E-07
  -12.9399996      -3.24333683E-07
  -12.9300003      -7.28056591E-07
  -12.9200001      -9.61767000E-07
  -12.9099998      -9.72434918E-07
  -12.8999996      -7.60155444E-07
  -12.8900003      -3.79452104E-07
  -12.8800001       7.28407059E-08
  -12.8699999       4.80729625E-07
  -12.8599997       7.38032497E-07
  -12.8500004       7.76173465E-07
  -12.8400002       5.83780150E-07
  -12.8299999       2.12647066E-07
  -12.8199997      -2.32232125E-07
  -12.8100004      -6.17059868E-07
  -12.8000002      -8.12849635E-07
  -12.7900000      -7.30401439E-07
  -12.7799997      -3.47920491E-07
  -12.7700005       2.76118726E-07
  -12.7600002       1.00924751E-06
  -12.7500000       1.67024803E-06
  -12.7399998       2.06863956E-06
  -12.7299995       2.04983439E-06
  -12.7200003       1.53547637E-06
  -12.7100000       5.49110212E-07
  -12.6999998      -7.79917400E-07
  -12.6899996      -2.23631400E-06
  -12.6800003      -3.55907741E-06
  -12.6700001      -4.49358322E-06
  -12.6599998      -4.84384782E-06
  -12.6499996      -4.51293363E-06
  -12.6400003      -3.52186498E-06
  -12.6300001      -2.00246063E-06
  -12.6199999      -1.65766281E-07
  -12.6099997       1.74607283E-06
  -12.6000004       3.51257381E-06
  -12.5900002       4.97858673E-06
  -12.5799999       6.07775564E-06
  -12.5699997       6.82904420E-06
  -12.5600004       7.30699048E-06
  -12.5500002       7.59333216E-06
  -12.5400000       7.72296335E-06
  -12.5299997       7.64012748E-06
  -12.5200005       7.17866260E-06
  -12.5100002       6.07603261E-06
  -12.5000000       4.02251089E-06
  -12.4899998       7.38749179E-07
  -12.4799995      -3.93227538E-06
  -12.4700003      -9.93817321E-06
  -12.4600000      -1.69542582E-05
  -12.4499998      -2.43611375E-05
  -12.4399996      -3.12719530E-05
  -12.4300003      -3.66094682E-05
  -12.4200001      -3.92237780E-05
  -12.4099998      -3.80334932E-05
  -12.3999996      -3.21683656E-05
  -12.3900003      -2.10913186E-05
  -12.3800001      -4.67958535E-06
  -12.3699999       1.67473081E-05
  -12.3599997       4.24576610E-05
  -12.3500004       7.13887712E-05
  -12.3400002       1.02267841E-04
  -12.3299999       1.33748952E-04
  -12.3199997       1.64547164E-04
  -12.3100004       1.93544896E-04
  -12.3000002       2.19855690E-04
  -12.2900000       2.42835435E-04
  -12.2799997       2.62043701E-04
  -12.2700005       2.77169427E-04
  -12.2600002       2.87931907E-04
  -12.2500000       2.93989695E-04
  -12.2399998       2.94878730E-04
  -12.2299995       2.89993681E-04
  -12.2200003       2.78626278E-04
  -12.2100000       2.60054949E-04
  -12.1999998       2.33656945E-04
  -12.1899996       1.99043337E-04
  -12.1800003       1.56151335E-04
  -12.1700001       1.05302373E-04
  -12.1599998       4.71742096E-05
  -12.1499996      -1.72831060E-05
  -12.1400003      -8.69934665E-05
  -12.1300001      -1.60919051E-04
  -12.1199999      -2.38211782E-04
  -12.1099997      -3.18301696E-04
  -12.1000004      -4.00903518E-04
  -12.0900002      -4.85925266E-04
  -12.0799999      -5.73288416E-04
  -12.0699997      -6.62705861E-04
  -12.0600004      -7.53457076E-04
  -12.0500002      -8.44223599E-04
  -12.0400000      -9.33029747E-04
  -12.0299997      -1.01731136E-03
  -12.0200005      -1.09411741E-03
  -12.0100002      -1.16040662E-03
  -12.0000000      -1.21338491E-03
  -11.9899998      -1.25082559E-03
  -11.9799995      -1.27129594E-03
  -11.9700003      -1.27425184E-03
  -11.9600000      -1.25998654E-03
  -11.9499998      -1.22944196E-03
  -11.9399996      -1.18393323E-03
  -11.9300003      -1.12483837E-03
  -11.9200001      -1.05332467E-03
  -11.9099998      -9.70160007E-04
  -11.8999996      -8.75636935E-04
  -11.8900003      -7.69608945E-04
  -11.8800001      -6.51628128E-04
  -11.8699999      -5.21114154E-04
  -11.8599997      -3.77553835E-04
  -11.8500004      -2.20650312E-04
  -11.8400002      -5.04323652E-05
  -11.8299999       1.32695292E-04
  -11.8199997       3.27953050E-04
  -11.8100004       5.34198538E-04
  -11.8000002       7.49959785E-04
  -11.7900000       9.73455783E-04
  -11.7799997       1.20261777E-03
  -11.7700005       1.43512199E-03
  -11.7600002       1.66843180E-03
  -11.7500000       1.89987733E-03
  -11.7399998       2.12675706E-03
  -11.7299995       2.34644930E-03
  -11.7200003       2.55652284E-03
  -11.7100000       2.75479187E-03
  -11.6999998       2.93933367E-03
  -11.6899996       3.10842786E-03
  -11.6800003       3.26046441E-03
  -11.6700001       3.39382607E-03
  -11.6599998       3.50680551E-03
  -11.6499996       3.59756942E-03
  -11.6400003       3.66422744E-03
  -11.6300001       3.70495021E-03
  -11.6199999       3.71815800E-03
  -11.6099997       3.70269362E-03
  -11.6000004       3.65794078E-03
  -11.5900002       3.58384894E-03
  -11.5799999       3.48081440E-03
  -11.5699997       3.34946834E-03
  -11.5600004       3.19039449E-03
  -11.5500002       3.00384290E-03
  -11.5400000       2.78953998E-03
  -11.5299997       2.54663359E-03
  -11.5200005       2.27380218E-03
  -11.5100002       1.96954887E-03
  -11.5000000       1.63257448E-03
  -11.4899998       1.26221147E-03
  -11.4799995       8.58754967E-04
  -11.4700003       4.23679536E-04
  -11.4600000      -4.03667000E-05
  -11.4499998      -5.29756537E-04
  -11.4399996      -1.04025693E-03
  -11.4300003      -1.56747340E-03
  -11.4200001      -2.10731151E-03
  -11.4099998      -2.65634130E-03
  -11.3999996      -3.21200513E-03
  -11.3900003      -3.77264246E-03
  -11.3800001      -4.33735736E-03
  -11.3699999      -4.90575004E-03
  -11.3599997      -5.47760446E-03
  -11.3500004      -6.05258672E-03
  -11.3400002      -6.63002441E-03
  -11.3299999      -7.20879389E-03
  -11.3199997      -7.78731657E-03
  -11.3100004      -8.36364925E-03
  -11.3000002      -8.93564243E-03
  -11.2900000      -9.50110704E-03
  -11.2799997      -1.00579709E-02
  -11.2700005      -1.06043899E-02
  -11.2600002      -1.11388136E-02
  -11.2500000      -1.16600096E-02
  -11.2399998      -1.21670309E-02
  -11.2299995      -1.26591846E-02
  -11.2200003      -1.31359287E-02
  -11.2100000      -1.35968123E-02
  -11.1999998      -1.40413595E-02
  -11.1899996      -1.44689772E-02
  -11.1800003      -1.48788812E-02
  -11.1700001      -1.52700488E-02
  -11.1599998      -1.56412628E-02
  -11.1499996      -1.59911867E-02
  -11.1400003      -1.63185522E-02
  -11.1300001      -1.66223850E-02
  -11.1199999      -1.69022027E-02
  -11.1099997      -1.71582252E-02
  -11.1000004      -1.73914265E-02
  -11.0900002      -1.76034700E-02
  -11.0799999      -1.77964773E-02
  -11.0699997      -1.79726519E-02
  -11.0600004      -1.81338340E-02
  -11.0500002      -1.82810407E-02
  -11.0400000      -1.84141006E-02
  -11.0299997      -1.85315181E-02
  -11.0200005      -1.86304841E-02
  -11.0100002      -1.87072307E-02
  -11.0000000      -1.87575184E-02
  -10.9899998      -1.87773332E-02
  -10.9799995      -1.87634807E-02
  -10.9700003      -1.87141746E-02
  -10.9600000      -1.86293554E-02
  -10.9499998      -1.85106862E-02
  -10.9399996      -1.83612537E-02
  -10.9300003      -1.81850102E-02
  -10.9200001      -1.79860201E-02
  -10.9099998      -1.77676547E-02
  -10.8999996      -1.75319649E-02
  -10.8900003      -1.72792766E-02
  -10.8800001      -1.70081574E-02
  -10.8699999      -1.67157333E-02
  -10.8599997      -1.63983405E-02
  -10.8500004      -1.60523169E-02
  -10.8400002      -1.56748146E-02
  -10.8299999      -1.52643630E-02
  -10.8199997      -1.48211271E-02
  -10.8100004      -1.43467793E-02
  -10.8000002      -1.38439825E-02
  -10.7900000      -1.33156432E-02
  -10.7799997      -1.27641661E-02
  -10.7700005      -1.21908868E-02
  -10.7600002      -1.15958191E-02
  -10.7500000      -1.09779248E-02
  -10.7399998      -1.03356363E-02
  -10.7299995      -9.66770388E-03
  -10.7200003      -8.97398312E-03
  -10.7100000      -8.25599674E-03
  -10.6999998      -7.51707237E-03
  -10.6899996      -6.76197512E-03
  -10.6800003      -5.99614019E-03
  -10.6700001      -5.22467494E-03
  -10.6599998      -4.45133122E-03
  -10.6499996      -3.67784663E-03
  -10.6400003      -2.90364446E-03
  -10.6300001      -2.12617754E-03
  -10.6199999      -1.34164933E-03
  -10.6099997      -5.46095951E-04
  -10.6000004       2.63575494E-04
  -10.5900002       1.08866952E-03
  -10.5799999       1.92824926E-03
  -10.5699997       2.77907634E-03
  -10.5600004       3.63606703E-03
  -10.5500002       4.49299719E-03
  -10.5400000       5.34338690E-03
  -10.5299997       6.18132344E-03
  -10.5200005       7.00210361E-03
  -10.5100002       7.80259585E-03
  -10.5000000       8.58131517E-03
  -10.4899998       9.33817588E-03
  -10.4799995       1.00740502E-02
  -10.4700003       1.07901655E-02
  -10.4600000       1.14874355E-02
  -10.4499998       1.21658687E-02
  -10.4399996       1.28241060E-02
  -10.4300003       1.34592922E-02
  -10.4200001       1.40671730E-02
  -10.4099998       1.46427099E-02
  -10.3999996       1.51808495E-02
  -10.3900003       1.56775117E-02
  -10.3800001       1.61305387E-02
  -10.3699999       1.65402777E-02
  -10.3599997       1.69096943E-02
  -10.3500004       1.72438752E-02
  -10.3400002       1.75489634E-02
  -10.3299999       1.78307574E-02
  -10.3199997       1.80932321E-02
  -10.3100004       1.83374342E-02
  -10.3000002       1.85609926E-02
  -10.2900000       1.87584702E-02
  -10.2799997       1.89223941E-02
  -10.2700005       1.90449413E-02
  -10.2600002       1.91196594E-02
  -10.2500000       1.91429611E-02
  -10.2399998       1.91149991E-02
  -10.2299995       1.90396570E-02
  -10.2200003       1.89237930E-02
  -10.2100000       1.87758598E-02
  -10.1999998       1.86043978E-02
  -10.1899996       1.84166376E-02
  -10.1800003       1.82177052E-02
  -10.1700001       1.80103630E-02
  -10.1599998       1.77955329E-02
  -10.1499996       1.75730493E-02
  -10.1400003       1.73426978E-02
  -10.1300001       1.71049014E-02
  -10.1199999       1.68611705E-02
  -10.1099997       1.66139845E-02
  -10.1000004       1.63663514E-02
  -10.0900002       1.61212310E-02
  -10.0799999       1.58809554E-02
  -10.0699997       1.56469364E-02
  -10.0600004       1.54197216E-02
  -10.0500002       1.51993511E-02
  -10.0400000       1.49858836E-02
  -10.0299997       1.47799654E-02
  -10.0200005       1.45832291E-02
  -10.0100002       1.43983960E-02
  -10.0000000       1.42290769E-02
  -9.98999977       1.40793351E-02
  -9.97999954       1.39531065E-02
  -9.97000027       1.38536599E-02
  -9.96000004       1.37832137E-02
  -9.94999981       1.37427012E-02
  -9.93999958       1.37318056E-02
  -9.93000031       1.37491282E-02
  -9.92000008       1.37924664E-02
  -9.90999985       1.38590904E-02
  -9.89999962       1.39459735E-02
  -9.89000034       1.40500246E-02
  -9.88000011       1.41682997E-02
  -9.86999989       1.42981615E-02
  -9.85999966       1.44375628E-02
  -9.85000038       1.45852603E-02
  -9.84000015       1.47410696E-02
  -9.82999992       1.49060097E-02
  -9.81999969       1.50823295E-02
  -9.81000042       1.52733373E-02
  -9.80000019       1.54830618E-02
  -9.78999996       1.57157741E-02
  -9.77999973       1.59755386E-02
  -9.77000046       1.62657723E-02
  -9.76000023       1.65890288E-02
  -9.75000000       1.69470441E-02
  -9.73999977       1.73408967E-02
  -9.72999954       1.77714508E-02
  -9.72000027       1.82397142E-02
  -9.71000004       1.87471323E-02
  -9.69999981       1.92956608E-02
  -9.68999958       1.98876243E-02
  -9.68000031       2.05253493E-02
  -9.67000008       2.12105978E-02
  -9.65999985       2.19441392E-02
  -9.64999962       2.27253549E-02
  -9.64000034       2.35520229E-02
  -9.63000011       2.44203135E-02
  -9.61999989       2.53249928E-02
  -9.60999966       2.62595452E-02
  -9.60000038       2.72163823E-02
  -9.59000015       2.81869303E-02
  -9.57999992       2.91617066E-02
  -9.56999969       3.01304292E-02
  -9.56000042       3.10822446E-02
  -9.55000019       3.20061594E-02
  -9.53999996       3.28916721E-02
  -9.52999973       3.37294638E-02
  -9.52000046       3.45119722E-02
  -9.51000023       3.52337211E-02
  -9.50000000       3.58911492E-02
  -9.48999977       3.64820436E-02
  -9.47999954       3.70045416E-02
  -9.47000027       3.74560878E-02
  -9.46000004       3.78326327E-02
  -9.44999981       3.81283313E-02
  -9.43999958       3.83359268E-02
  -9.43000031       3.84478234E-02
  -9.42000008       3.84575278E-02
  -9.40999985       3.83611582E-02
  -9.39999962       3.81584764E-02
  -9.39000034       3.78533341E-02
  -9.38000011       3.74531522E-02
  -9.36999989       3.69679071E-02
  -9.35999966       3.64086181E-02
  -9.35000038       3.57860774E-02
  -9.34000015       3.51101421E-02
  -9.32999992       3.43896486E-02
  -9.31999969       3.36332209E-02
  -9.31000042       3.28504443E-02
  -9.30000019       3.20531093E-02
  -9.28999996       3.12559791E-02
  -9.27999973       3.04768886E-02
  -9.27000046       2.97360104E-02
  -9.26000023       2.90544126E-02
  -9.25000000       2.84525659E-02
  -9.23999977       2.79489048E-02
  -9.22999954       2.75590345E-02
  -9.22000027       2.72955857E-02
  -9.21000004       2.71688346E-02
  -9.19999981       2.71874480E-02
  -9.18999958       2.73593981E-02
  -9.18000031       2.76922379E-02
  -9.17000008       2.81931255E-02
  -9.15999985       2.88681947E-02
  -9.14999962       2.97216680E-02
  -9.14000034       3.07552926E-02
  -9.13000011       3.19680870E-02
  -9.11999989       3.33565548E-02
  -9.10999966       3.49154994E-02
  -9.10000038       3.66388522E-02
  -9.09000015       3.85205075E-02
  -9.07999992       4.05543521E-02
  -9.06999969       4.27339524E-02
  -9.06000042       4.50513959E-02
  -9.05000019       4.74961437E-02
  -9.03999996       5.00540063E-02
  -9.02999973       5.27064912E-02
  -9.02000046       5.54312877E-02
  -9.01000023       5.82033843E-02
  -9.00000000       6.09964281E-02
  -8.98999977       6.37847483E-02
  -8.97999954       6.65445477E-02
  -8.97000027       6.92545772E-02
  -8.96000004       7.18963444E-02
  -8.94999981       7.44533688E-02
  -8.93999958       7.69105330E-02
  -8.93000031       7.92533606E-02
  -8.92000008       8.14677253E-02
  -8.90999985       8.35401341E-02
  -8.89999962       8.54581222E-02
  -8.89000034       8.72109160E-02
  -8.88000011       8.87897313E-02
  -8.86999989       9.01875421E-02
  -8.85999966       9.13982764E-02
  -8.85000038       9.24158916E-02
  -8.84000015       9.32331830E-02
  -8.82999992       9.38411132E-02
  -8.81999969       9.42288041E-02
  -8.81000042       9.43844393E-02
  -8.80000019       9.42965597E-02
  -8.78999996       9.39556733E-02
  -8.77999973       9.33557749E-02
  -8.77000046       9.24950391E-02
  -8.76000023       9.13757905E-02
  -8.75000000       9.00034085E-02
  -8.73999977       8.83851424E-02
  -8.72999954       8.65282938E-02
  -8.72000027       8.44393671E-02
  -8.71000004       8.21236596E-02
  -8.69999981       7.95854479E-02
  -8.68999958       7.68294111E-02
  -8.68000031       7.38615766E-02
  -8.67000008       7.06905797E-02
  -8.65999985       6.73281699E-02
  -8.64999962       6.37887940E-02
  -8.64000034       6.00887015E-02
  -8.63000011       5.62448464E-02
  -8.61999989       5.22734374E-02
  -8.60999966       4.81895134E-02
  -8.60000038       4.40066531E-02
  -8.59000015       3.97375822E-02
  -8.57999992       3.53953652E-02
  -8.56999969       3.09942272E-02
  -8.56000042       2.65501216E-02
  -8.55000019       2.20807306E-02
  -8.53999996       1.76043697E-02
  -8.52999973       1.31389275E-02
  -8.52000046       8.69990326E-03
  -8.51000023       4.29956242E-03
  -8.50000000      -5.39947614E-05
  -8.48999977      -4.35638567E-03
  -8.47999954      -8.60613398E-03
  -8.47000027      -1.28034223E-02
  -8.46000004      -1.69484504E-02
  -8.44999981      -2.10408773E-02
  -8.43999958      -2.50790901E-02
  -8.43000031      -2.90607102E-02
  -8.42000008      -3.29833291E-02
  -8.40999985      -3.68451029E-02
  -8.39999962      -4.06455807E-02
  -8.39000034      -4.43856008E-02
  -8.38000011      -4.80669364E-02
  -8.36999989      -5.16914055E-02
  -8.35999966      -5.52600846E-02
  -8.35000038      -5.87722547E-02
  -8.34000015      -6.22252077E-02
  -8.32999992      -6.56143129E-02
  -8.31999969      -6.89335689E-02
  -8.31000042      -7.21759871E-02
  -8.30000019      -7.53348246E-02
  -8.28999996      -7.84034356E-02
  -8.27999973      -8.13758969E-02
  -8.27000046      -8.42464119E-02
  -8.26000023      -8.70093331E-02
  -8.25000000      -8.96589011E-02
  -8.23999977      -9.21890065E-02
  -8.22999954      -9.45937634E-02
  -8.22000027      -9.68672112E-02
  -8.21000004      -9.90040153E-02
  -8.19999981     -0.100999460    
  -8.18999958     -0.102849312    
  -8.18000031     -0.104549684    
  -8.17000008     -0.106096581    
  -8.15999985     -0.107485630    
  -8.14999962     -0.108711898    
  -8.14000034     -0.109769933    
  -8.13000011     -0.110654004    
  -8.11999989     -0.111358069    
  -8.10999966     -0.111876383    
  -8.10000038     -0.112202838    
  -8.09000015     -0.112331375    
  -8.07999992     -0.112255685    
  -8.06999969     -0.111969076    
  -8.06000042     -0.111464798    
  -8.05000019     -0.110736422    
  -8.03999996     -0.109778456    
  -8.02999973     -0.108586527    
  -8.02000046     -0.107157916    
  -8.01000023     -0.105491206    
  -8.00000000     -0.103585705    
  -7.98999977     -0.101440467    
  -7.98000002      -9.90539342E-02
  -7.96999979      -9.64235142E-02
  -7.96000004      -9.35459659E-02
  -7.94999981      -9.04182568E-02
  -7.94000006      -8.70386884E-02
  -7.92999983      -8.34080428E-02
  -7.92000008      -7.95297697E-02
  -7.90999985      -7.54099116E-02
  -7.90000010      -7.10560828E-02
  -7.88999987      -6.64755851E-02
  -7.88000011      -6.16746433E-02
  -7.86999989      -5.66577539E-02
  -7.86000013      -5.14280535E-02
  -7.84999990      -4.59891930E-02
  -7.84000015      -4.03475873E-02
  -7.82999992      -3.45147252E-02
  -7.82000017      -2.85082608E-02
  -7.80999994      -2.23522000E-02
  -7.80000019      -1.60747115E-02
  -7.78999996      -9.70534887E-03
  -7.78000021      -3.27154924E-03
  -7.76999998       3.20426119E-03
  -7.76000023       9.70570743E-03
  -7.75000000       1.62220038E-02
  -7.73999977       2.27455180E-02
  -7.73000002       2.92682964E-02
  -7.71999979       3.57789770E-02
  -7.71000004       4.22609746E-02
  -7.69999981       4.86919321E-02
  -7.69000006       5.50465062E-02
  -7.67999983       6.12988248E-02
  -7.67000008       6.74265996E-02
  -7.65999985       7.34131783E-02
  -7.65000010       7.92485699E-02
  -7.63999987       8.49281028E-02
  -7.63000011       9.04497206E-02
  -7.61999989       9.58106890E-02
  -7.61000013      0.101005726    
  -7.59999990      0.106025591    
  -7.59000015      0.110859312    
  -7.57999992      0.115496643    
  -7.57000017      0.119931951    
  -7.55999994      0.124166951    
  -7.55000019      0.128211632    
  -7.53999996      0.132082880    
  -7.53000021      0.135801226    
  -7.51999998      0.139385790    
  -7.51000023      0.142851263    
  -7.50000000      0.146204501    
  -7.48999977      0.149445251    
  -7.48000002      0.152568743    
  -7.46999979      0.155569449    
  -7.46000004      0.158445433    
  -7.44999981      0.161201254    
  -7.44000006      0.163848460    