  -16.0000000       0.00000000    
  -15.9899998       0.00000000    
  -15.9799995       0.00000000    
  -15.9700003       0.00000000    
  -15.9600000       0.00000000    
  -15.9499998       0.00000000    
  -15.9399996       0.00000000    
  -15.9300003       0.00000000    
  -15.9200001       0.00000000    
  -15.9099998       0.00000000    
  -15.8999996       0.00000000    
  -15.8900003       0.00000000    
  -15.8800001       6.16571324E-44
  -15.8699999       1.25976732E-42
  -15.8599997       1.31035419E-41
  -15.8500004       9.16056832E-41
  -15.8400002       4.83652560E-40
  -15.8299999       2.05341513E-39
  -15.8199997       7.28281156E-39
  -15.8100004       2.20869357E-38
  -15.8000002       5.79100715E-38
  -15.7900000       1.30585760E-37
  -15.7799997       2.43560516E-37
  -15.7700005       3.20314991E-37
  -15.7600002       1.32247823E-39
  -15.7500000      -1.86405322E-36
  -15.7399998      -8.29079882E-36
  -15.7299995      -2.60086964E-35
  -15.7200003      -6.77565275E-35
  -15.7100000      -1.53048458E-34
  -15.6999998      -3.02190417E-34
  -15.6899996      -5.14016818E-34
  -15.6800003      -7.15935064E-34
  -15.6700001      -6.83808757E-34
  -15.6599998       3.81114468E-35
  -15.6499996       2.12052459E-33
  -15.6400003       6.15075876E-33
  -15.6300001       1.18220011E-32
  -15.6199999       1.65165229E-32
  -15.6099997       1.37046126E-32
  -15.6000004      -7.40447271E-33
  -15.5900002      -5.82355653E-32
  -15.5799999      -1.39896993E-31
  -15.5699997      -2.23440740E-31
  -15.5600004      -2.26545691E-31
  -15.5500002      -4.36943997E-33
  -15.5400000       6.12531674E-31
  -15.5299997       1.69348299E-30
  -15.5200005       2.97758079E-30
  -15.5100002       3.59088209E-30
  -15.5000000       1.89251976E-30
  -15.4899998      -4.21711777E-30
  -15.4799995      -1.61238704E-29
  -15.4700003      -3.22492335E-29
  -15.4600000      -4.51408609E-29
  -15.4499998      -3.94504420E-29
  -15.4399996       6.33334012E-30
  -15.4300003       1.10855420E-28
  -15.4200001       2.71354333E-28
  -15.4099998       4.38125855E-28
  -15.3999996       4.93017555E-28
  -15.3900003       2.53192452E-28
  -15.3800001      -4.72466052E-28
  -15.3699999      -1.75408037E-27
  -15.3599997      -3.34839908E-27
  -15.3500004      -4.50923178E-27
  -15.3400002      -3.93706149E-27
  -15.3299999      -5.45114971E-29
  -15.3199997       8.23113184E-27
  -15.3100004       2.02786279E-26
  -15.3000002       3.23021870E-26
  -15.2900000       3.65594567E-26
  -15.2799997       2.22635668E-26
  -15.2700005      -2.06628140E-26
  -15.2600002      -9.45979564E-26
  -15.2500000      -1.85253235E-25
  -15.2399998      -2.54378282E-25
  -15.2299995      -2.40116539E-25
  -15.2200003      -7.17773691E-26
  -15.2100000       2.96774329E-25
  -15.1999998       8.38185617E-25
  -15.1899996       1.40191627E-24
  -15.1800003       1.69155819E-24
  -15.1700001       1.30489466E-24
  -15.1599998      -1.33337720E-25
  -15.1499996      -2.74316065E-24
  -15.1400003      -6.11303698E-24
  -15.1300001      -9.08670654E-24
  -15.1199999      -9.77718939E-24
  -15.1099997      -5.97719632E-24
  -15.1000004       3.94542550E-24
  -15.0900002       1.97652602E-23
  -15.0799999       3.81001642E-23
  -15.0699997       5.17438322E-23
  -15.0600004       5.04242447E-23
  -15.0500002       2.36300334E-23
  -15.0400000      -3.44307903E-23
  -15.0299997      -1.18678570E-22
  -15.0200005      -2.07973408E-22
  -15.0100002      -2.64029498E-22
  -15.0000000      -2.37687527E-22
  -14.9899998      -8.44453574E-23
  -14.9799995       2.11971166E-22
  -14.9700003       6.13714448E-22
  -14.9600000       1.01096556E-21
  -14.9499998       1.22522948E-21
  -14.9399996       1.04530012E-21
  -14.9300003       2.99726174E-22
  -14.9200001      -1.04431976E-21
  -14.9099998      -2.78335532E-21
  -14.8999996      -4.42406888E-21
  -14.8900003      -5.22226828E-21
  -14.8800001      -4.35006408E-21
  -14.8699999      -1.19237015E-21
  -14.8599997       4.28007846E-21
  -14.8500004       1.11742302E-20
  -14.8400002       1.75325454E-20
  -14.8299999       2.05455815E-20
  -14.8199997       1.72176368E-20
  -14.8100004       5.45103380E-21
  -14.8000002      -1.46706459E-20
  -14.7900000      -3.98069005E-20
  -14.7799997      -6.30144317E-20
  -14.7700005      -7.46175655E-20
  -14.7600002      -6.45386800E-20
  -14.7500000      -2.58835008E-20
  -14.7399998       4.09958208E-20
  -14.7299995       1.25268671E-19
  -14.7200003       2.04800174E-19
  -14.7100000       2.49095645E-19
  -14.6999998       2.26570095E-19
  -14.6899996       1.15340591E-19
  -14.6800003      -8.48748378E-20
  -14.6700001      -3.43558714E-19
  -14.6599998      -5.97262091E-19
  -14.6499996      -7.58107412E-19
  -14.6400003      -7.34117831E-19
  -14.6300001      -4.58864848E-19
  -14.6199999       7.62683014E-20
  -14.6099997       7.97280825E-19
  -14.6000004       1.54135553E-18
  -14.5900002       2.07801811E-18
  -14.5799999       2.16017555E-18
  -14.5699997       1.59834838E-18
  -14.5600004       3.41421202E-19
  -14.5500002      -1.46040412E-18
  -14.5400000      -3.43669763E-18
  -14.5299997      -5.04201697E-18
  -14.5200005      -5.67060765E-18
  -14.5100002      -4.82510416E-18
  -14.5000000      -2.30178577E-18
  -14.4899998       1.66104867E-18
  -14.4799995       6.32838167E-18
  -14.4700003       1.05502313E-17
  -14.4600000       1.29911288E-17
  -14.4499998       1.24756083E-17
  -14.4399996       8.37379667E-18
  -14.4300003       9.20218993E-19
  -14.4200001      -8.64613017E-18
  -14.4099998      -1.82038415E-17
  -14.3999996      -2.51555005E-17
  -14.3900003      -2.70596156E-17
  -14.3800001      -2.23485226E-17
  -14.3699999      -1.09388416E-17
  -14.3599997       5.46524848E-18
  -14.3500004       2.35209734E-17
  -14.3400002       3.88849864E-17
  -14.3299999       4.72379190E-17
  -14.3199997       4.54603476E-17
  -14.3100004       3.26426149E-17
  -14.3000002       1.06114129E-17
  -14.2900000      -1.62459265E-17
  -14.2799997      -4.18984053E-17
  -14.2700005      -6.01502117E-17
  -14.2600002      -6.63085846E-17
  -14.2500000      -5.85631234E-17
  -14.2399998      -3.86311941E-17
  -14.2299995      -1.14003281E-17
  -14.2200003       1.64145903E-17
  -14.2100000       3.82641840E-17
  -14.1999998       4.98200990E-17
  -14.1899996       5.04138029E-17
  -14.1800003       4.32993978E-17
  -14.1700001       3.45058988E-17
  -14.1599998       3.04976132E-17
  -14.1499996       3.53103386E-17
  -14.1400003       4.81280349E-17
  -14.1300001       6.22829414E-17
  -14.1199999       6.63521803E-17
  -14.1099997       4.74302253E-17
  -14.1000004      -4.07450806E-18
  -14.0900002      -8.94217646E-17
  -14.0799999      -1.97956947E-16
  -14.0699997      -3.06506919E-16
  -14.0600004      -3.82675642E-16
  -14.0500002      -3.91937577E-16
  -14.0400000      -3.07250667E-16
  -14.0299997      -1.18906181E-16
  -14.0200005       1.58168408E-16
  -14.0100002       4.82215592E-16
  -14.0000000       7.89149045E-16
  -13.9899998       1.00375861E-15
  -13.9799995       1.05584213E-15
  -13.9700003       8.97929569E-16
  -13.9600000       5.20405925E-16
  -13.9499998      -4.00218038E-17
  -13.9399996      -7.01387855E-16
  -13.9300003      -1.34789687E-15
  -13.9200001      -1.85015586E-15
  -13.9099998      -2.09044407E-15
  -13.8999996      -1.98781184E-15
  -13.8900003      -1.51754349E-15
  -13.8800001      -7.20524606E-16
  -13.8699999       2.99863454E-16
  -13.8599997       1.39303674E-15
  -13.8500004       2.38579090E-15
  -13.8400002       3.11134260E-15
  -13.8299999       3.43716928E-15
  -13.8199997       3.28648572E-15
  -13.8100004       2.64979604E-15
  -13.8000002       1.58523974E-15
  -13.7900000       2.08829779E-16
  -13.7799997      -1.32245242E-15
  -13.7700005      -2.83081863E-15
  -13.7600002      -4.13738198E-15
  -13.7500000      -5.07880913E-15
  -13.7399998      -5.51996633E-15
  -13.7299995      -5.36319366E-15
  -13.7200003      -4.55591578E-15
  -13.7100000      -3.09835864E-15
  -13.6999998      -1.05220942E-15
  -13.6899996       1.45064620E-15
  -13.6800003       4.20215840E-15
  -13.6700001       6.91929526E-15
  -13.6599998       9.25721800E-15
  -13.6499996       1.08381474E-14
  -13.6400003       1.12968954E-14
  -13.6300001       1.03400082E-14
  -13.6199999       7.81091432E-15
  -13.6099997       3.74964333E-15
  -13.6000004      -1.56657537E-15
  -13.5900002      -7.61482620E-15
  -13.5799999      -1.36595261E-14
  -13.5699997      -1.88296847E-14
  -13.5600004      -2.22346301E-14
  -13.5500002      -2.31035436E-14
  -13.5400000      -2.09271348E-14
  -13.5299997      -1.55758737E-14
  -13.5200005      -7.37052326E-15
  -13.5100002       2.91319703E-15
  -13.5000000       1.41132706E-14
  -13.4899998       2.48178993E-14
  -13.4799995       3.35513613E-14
  -13.4700003       3.89808052E-14
  -13.4600000       4.01107607E-14
  -13.4499998       3.64338856E-14
  -13.4399996       2.80144052E-14
  -13.4300003       1.54931660E-14
  -13.4200001       1.73896096E-17
  -13.4099998      -1.68891814E-14
  -13.3999996      -3.34916184E-14
  -13.3900003      -4.80186163E-14
  -13.3800001      -5.88246289E-14
  -13.3699999      -6.45260822E-14
  -13.3599997      -6.41081901E-14
  -13.3500004      -5.70078856E-14
  -13.3400002      -4.31815093E-14
  -13.3299999      -2.31636609E-14
  -13.3199997       1.88475059E-15
  -13.3100004       3.01526348E-14
  -13.3000002       5.92025547E-14
  -13.2900000       8.60711987E-14
  -13.2799997       1.07471391E-13
  -13.2700005       1.20105626E-13
  -13.2600002       1.21078318E-13
  -13.2500000       1.08365716E-13
  -13.2399998       8.12752033E-14
  -13.2299995       4.08092817E-14
  -13.2200003      -1.01524810E-14
  -13.2100000      -6.69248660E-14
  -13.1999998      -1.23376610E-13
  -13.1899996      -1.72566253E-13
  -13.1800003      -2.07589547E-13
  -13.1700001      -2.22527319E-13
  -13.1599998      -2.13353030E-13
  -13.1499996      -1.78654319E-13
  -13.1400003      -1.20041848E-13
  -13.1300001      -4.21666249E-14
  -13.1199999       4.76735723E-14
  -13.1099997       1.40292075E-13
  -13.1000004       2.25632162E-13
  -13.0900002       2.93905552E-13
  -13.0799999       3.36699174E-13
  -13.0699997       3.47911532E-13
  -13.0600004       3.24419717E-13
  -13.0500002       2.66422762E-13
  -13.0400000       1.77458729E-13
  -13.0299997       6.41289661E-14
  -13.0200005      -6.44138470E-14
  -13.0100002      -1.97154820E-13
  -13.0000000      -3.22031057E-13
  -12.9899998      -4.26834105E-13
  -12.9799995      -5.00173958E-13
  -12.9700003      -5.32475756E-13
  -12.9600000      -5.16967166E-13
  -12.9499998      -4.50584231E-13
  -12.9399996      -3.34697385E-13
  -12.9300003      -1.75538227E-13
  -12.9200001       1.57920264E-14
  -12.9099998       2.23829405E-13
  -12.8999996       4.29807231E-13
  -12.8900003       6.13234669E-13
  -12.8800001       7.53873201E-13
  -12.8699999       8.33911933E-13
  -12.8599997       8.40091668E-13
  -12.8500004       7.65507774E-13
  -12.8400002       6.10845142E-13
  -12.8299999       3.84863555E-13
  -12.8199997       1.04037621E-13
  -12.8100004      -2.08635870E-13
  -12.8000002      -5.25555402E-13
  -12.7900000      -8.16968400E-13
  -12.7799997      -1.05371430E-12
  -12.7700005      -1.20999955E-12
  -12.7600002      -1.26594698E-12
  -12.7500000      -1.20969565E-12
  -12.7399998      -1.03887688E-12
  -12.7299995      -7.61334572E-13
  -12.7200003      -3.95014967E-13
  -12.7100000       3.29991229E-14
  -12.6999998       4.88284272E-13
  -12.6899996       9.31622401E-13
  -12.6800003       1.32215278E-12
  -12.6700001       1.62093136E-12
  -12.6599998       1.79462326E-12
  -12.6499996       1.81900957E-12
  -12.6400003       1.68195481E-12
  -12.6300001       1.38548309E-12
  -12.6199999       9.46645431E-13
  -12.6099997       3.96970298E-13
  -12.6000004      -2.19596029E-13
  -12.5900002      -8.50174694E-13
  -12.5799999      -1.43760329E-12
  -12.5699997      -1.92582690E-12
  -12.5600004      -2.26547253E-12
  -12.5500002      -2.41900141E-12
  -12.5400000      -2.36483749E-12
  -12.5299997      -2.09997839E-12
  -12.5200005      -1.64075849E-12
  -12.5100002      -1.02166615E-12
  -12.5000000      -2.92344274E-13
  -12.4899998       4.86866244E-13
  -12.4799995       1.25032710E-12
  -12.4700003       1.93283952E-12
  -12.4600000       2.47511191E-12
  -12.4499998       2.82843931E-12
  -12.4399996       2.95822134E-12
  -12.4300003       2.84613305E-12
  -12.4200001       2.49092110E-12
  -12.4099998       1.90796099E-12
  -12.3999996       1.12778992E-12
  -12.3900003       1.93861501E-13
  -12.3800001      -8.40259015E-13
  -12.3699999      -1.91408217E-12
  -12.3599997      -2.96365254E-12
  -12.3500004      -3.92521215E-12
  -12.3400002      -4.73897744E-12
  -12.3299999      -5.35293077E-12
  -12.3199997      -5.72642324E-12
  -12.3100004      -5.83332297E-12
  -12.3000002      -5.66439430E-12
  -12.2900000      -5.22854980E-12
  -12.2799997      -4.55272191E-12
  -12.2700005      -3.68019504E-12
  -12.2600002      -2.66740709E-12
  -12.2500000      -1.57947050E-12
  -12.2399998      -4.84846809E-13
  -12.2299995       5.50275862E-13
  -12.2200003       1.46733591E-12
  -12.2100000       2.21987641E-12
  -12.1999998       2.77680266E-12
  -12.1899996       3.12417496E-12
  -12.1800003       3.26555428E-12
  -12.1700001       3.22113560E-12
  -12.1599998       3.02587989E-12
  -12.1499996       2.72701566E-12
  -12.1400003       2.38117447E-12
  -12.1300001       2.05118800E-12
  -12.1199999       1.80262446E-12
  -12.1099997       1.69998152E-12
  -12.1000004       1.80241857E-12
  -12.0900002       2.15914222E-12
  -12.0799999       2.80458903E-12
  -12.0699997       3.75387395E-12
  -12.0600004       4.99904458E-12
  -12.0500002       6.50691827E-12
  -12.0400000       8.21891687E-12
  -12.0299997       1.00533895E-11
  -12.0200005       1.19103989E-11
  -12.0100002       1.36785748E-11
  -12.0000000       1.52432685E-11
  -11.9899998       1.64951976E-11
  -11.9799995       1.73384120E-11
  -11.9700003       1.76968787E-11
  -11.9600000       1.75190175E-11
  -11.9499998       1.67800548E-11
  -11.9399996       1.54824886E-11
  -11.9300003       1.36550554E-11
  -11.9200001       1.13506843E-11
  -11.9099998       8.64391284E-12
  -11.8999996       5.62816894E-12
  -11.8900003       2.41247061E-12
  -11.8800001      -8.82420005E-13
  -11.8699999      -4.12902698E-12
  -11.8599997      -7.19949794E-12
  -11.8500004      -9.97353502E-12
  -11.8400002      -1.23472265E-11
  -11.8299999      -1.42423269E-11
  -11.8199997      -1.56144785E-11
  -11.8100004      -1.64593582E-11
  -11.8000002      -1.68154293E-11
  -11.7900000      -1.67625254E-11
  -11.7799997      -1.64160786E-11
  -11.7700005      -1.59174531E-11
  -11.7600002      -1.54212164E-11
  -11.7500000      -1.50810822E-11
  -11.7399998      -1.50359308E-11
  -11.7299995      -1.53974073E-11
  -11.7200003      -1.62404985E-11
  -11.7100000      -1.75974200E-11
  -11.6999998      -1.94554043E-11
  -11.6899996      -2.17577345E-11
  -11.6800003      -2.44077883E-11
  -11.6700001      -2.72752012E-11
  -11.6599998      -3.02038013E-11
  -11.6499996      -3.30207077E-11
  -11.6400003      -3.55461043E-11
  -11.6300001      -3.76037430E-11
  -11.6199999      -3.90316217E-11
  -11.6099997      -3.96923223E-11
  -11.6000004      -3.94824902E-11
  -11.5900002      -3.83404350E-11
  -11.5799999      -3.62512104E-11
  -11.5699997      -3.32481091E-11
  -11.5600004      -2.94106024E-11
  -11.5500002      -2.48580202E-11
  -11.5400000      -1.97404020E-11
  -11.5299997      -1.42271386E-11
  -11.5200005      -8.49419580E-12
  -11.5100002      -2.71248323E-12
  -11.5000000       2.96281272E-12
  -11.4899998       8.40016164E-12
  -11.4799995       1.34968616E-11
  -11.4700003       1.81818709E-11
  -11.4600000       2.24164697E-11
  -11.4499998       2.61933374E-11
  -11.4399996       2.95353013E-11
  -11.4300003       3.24923422E-11
  -11.4200001       3.51390063E-11
  -11.4099998       3.75702455E-11
  -11.3999996       3.98961524E-11
  -11.3900003       4.22353368E-11
  -11.3800001       4.47067453E-11
  -11.3699999       4.74206681E-11
  -11.3599997       5.04696736E-11
  -11.3500004       5.39204410E-11
  -11.3400002       5.78073006E-11
  -11.3299999       6.21290797E-11
  -11.3199997       6.68485475E-11
  -11.3100004       7.18957949E-11
  -11.3000002       7.71738021E-11
  -11.2900000       8.25663288E-11
  -11.2799997       8.79471218E-11
  -11.2700005       9.31887970E-11
  -11.2600002       9.81717138E-11
  -11.2500000       1.02792157E-10
  -11.2399998       1.06968247E-10
  -11.2299995       1.10644729E-10
  -11.2200003       1.13796195E-10
  -11.2100000       1.16426757E-10
  -11.1999998       1.18568530E-10
  -11.1899996       1.20276913E-10
  -11.1800003       1.21624086E-10
  -11.1700001       1.22690594E-10
  -11.1599998       1.23556082E-10
  -11.1499996       1.24291369E-10
  -11.1400003       1.24951230E-10
  -11.1300001       1.25570956E-10
  -11.1199999       1.26164981E-10
  -11.1099997       1.26730307E-10
  -11.1000004       1.27249863E-10
  -11.0900002       1.27699434E-10
  -11.0799999       1.28053720E-10
  -11.0699997       1.28291322E-10
  -11.0600004       1.28397237E-10
  -11.0500002       1.28365651E-10
  -11.0400000       1.28199118E-10
  -11.0299997       1.27907546E-10
  -11.0200005       1.27507782E-10
  -11.0100002       1.27020977E-10
  -11.0000000       1.26476676E-10
  -10.9899998       1.25908436E-10
  -10.9799995       1.25354768E-10
  -10.9700003       1.24858998E-10
  -10.9600000       1.24465382E-10
  -10.9499998       1.24215263E-10
  -10.9399996       1.24142654E-10
  -10.9300003       1.24270302E-10
  -10.9200001       1.24605160E-10
  -10.9099998       1.25140912E-10
  -10.8999996       1.25854660E-10
  -10.8900003       1.26713917E-10
  -10.8800001       1.27677063E-10
  -10.8699999       1.28700689E-10
  -10.8599997       1.29739108E-10
  -10.8500004       1.30746178E-10
  -10.8400002       1.31671049E-10
  -10.8299999       1.32455463E-10
  -10.8199997       1.33034889E-10
  -10.8100004       1.33330028E-10
  -10.8000002       1.33255976E-10
  -10.7900000       1.32725192E-10
  -10.7799997       1.31655381E-10
  -10.7700005       1.29983732E-10
  -10.7600002       1.27677910E-10
  -10.7500000       1.24741426E-10
  -10.7399998       1.21220700E-10
  -10.7299995       1.17203705E-10
  -10.7200003       1.12813134E-10
  -10.7100000       1.08191754E-10
  -10.6999998       1.03491930E-10
  -10.6899996       9.88586227E-11
  -10.6800003       9.44156003E-11
  -10.6700001       9.02554351E-11
  -10.6599998       8.64380165E-11
  -10.6499996       8.29887964E-11
  -10.6400003       7.98978037E-11
  -10.6300001       7.71339242E-11
  -10.6199999       7.46462198E-11
  -10.6099997       7.23734475E-11
  -10.6000004       7.02502986E-11
  -10.5900002       6.82093271E-11
  -10.5799999       6.61862995E-11
  -10.5699997       6.41208128E-11
  -10.5600004       6.19552812E-11
  -10.5500002       5.96448585E-11
  -10.5400000       5.71485394E-11
  -10.5299997       5.44367884E-11
  -10.5200005       5.14951658E-11
  -10.5100002       4.83237200E-11
  -10.5000000       4.49369882E-11
  -10.4899998       4.13644952E-11
  -10.4799995       3.76554933E-11
  -10.4700003       3.38644737E-11
  -10.4600000       3.00600204E-11
  -10.4499998       2.63134740E-11
  -10.4399996       2.26967143E-11
  -10.4300003       1.92786308E-11
  -10.4200001       1.61206447E-11
  -10.4099998       1.32697204E-11
  -10.3999996       1.07555735E-11
  -10.3900003       8.58137866E-12
  -10.3800001       6.72735609E-12
  -10.3699999       5.14228720E-12
  -10.3599997       3.74578233E-12
  -10.3500004       2.43587594E-12
  -10.3400002       1.09652424E-12
  -10.3299999      -3.94301453E-13
  -10.3199997      -2.14511048E-12
  -10.3100004      -4.24282441E-12
  -10.3000002      -6.74088649E-12
  -10.2900000      -9.65149662E-12
  -10.2799997      -1.29442655E-11
  -10.2700005      -1.65485958E-11
  -10.2600002      -2.03611138E-11
  -10.2500000      -2.42610602E-11
  -10.2399998      -2.81125991E-11
  -10.2299995      -3.17852585E-11
  -10.2200003      -3.51595038E-11
  -10.2100000      -3.81278412E-11
  -10.1999998      -4.06154589E-11
  -10.1899996      -4.25689831E-11
  -10.1800003      -4.39729815E-11
  -10.1700001      -4.48385322E-11
  -10.1599998      -4.52137702E-11
  -10.1499996      -4.51823266E-11
  -10.1400003      -4.48527188E-11
  -10.1300001      -4.43536978E-11
  -10.1199999      -4.38269074E-11
  -10.1099997      -4.34043530E-11
  -10.1000004      -4.32049431E-11
  -10.0900002      -4.33096822E-11
  -10.0799999      -4.37690509E-11
  -10.0699997      -4.45918684E-11
  -10.0600004      -4.57442972E-11
  -10.0500002      -4.71677905E-11
  -10.0400000      -4.87845077E-11
  -10.0299997      -5.05103563E-11
  -10.0200005      -5.22597798E-11
  -10.0100002      -5.39633824E-11
  -10.0000000      -5.55631097E-11
  -9.98999977      -5.70100564E-11
  -9.97999954      -5.82614026E-11
  -9.97000027      -5.92835295E-11
  -9.96000004      -6.00370448E-11
  -9.94999981      -6.04849157E-11
  -9.93999958      -6.05840031E-11
  -9.93000031      -6.02911332E-11
  -9.92000008      -5.95698144E-11
  -9.90999985      -5.83846652E-11
  -9.89999962      -5.67073992E-11
  -9.89000034      -5.45273826E-11
  -9.88000011      -5.18485394E-11
  -9.86999989      -4.86856076E-11
  -9.85999966      -4.50697292E-11
  -9.85000038      -4.10482516E-11
  -9.84000015      -3.66732408E-11
  -9.82999992      -3.20016166E-11
  -9.81999969      -2.70831083E-11
  -9.81000042      -2.19521467E-11
  -9.80000019      -1.66237354E-11
  -9.78999996      -1.10920370E-11
  -9.77999973      -5.32634136E-12
  -9.77000046       7.14629256E-13
  -9.76000023       7.08871069E-12
  -9.75000000       1.38490235E-11
  -9.73999977       2.10262710E-11
  -9.72999954       2.86351706E-11
  -9.72000027       3.66565424E-11
  -9.71000004       4.50470113E-11
  -9.69999981       5.37462574E-11
  -9.68999958       6.26699595E-11
  -9.68000031       7.17474968E-11
  -9.67000008       8.09020559E-11
  -9.65999985       9.00551717E-11
  -9.64999962       9.91386626E-11
  -9.64000034       1.08081551E-10
  -9.63000011       1.16798168E-10
  -9.61999989       1.25186653E-10
  -9.60999966       1.33129882E-10
  -9.60000038       1.40492104E-10
  -9.59000015       1.47132972E-10
  -9.57999992       1.52920426E-10
  -9.56999969       1.57729579E-10
  -9.56000042       1.61475860E-10
  -9.55000019       1.64098027E-10
  -9.53999996       1.65569405E-10
  -9.52999973       1.65883182E-10
  -9.52000046       1.65045408E-10
  -9.51000023       1.63068947E-10
  -9.50000000       1.59954439E-10
  -9.48999977       1.55704991E-10
  -9.47999954       1.50319687E-10
  -9.47000027       1.43817375E-10
  -9.46000004       1.36226391E-10
  -9.44999981       1.27621289E-10
  -9.43999958       1.18119028E-10
  -9.43000031       1.07858784E-10
  -9.42000008       9.70292180E-11
  -9.40999985       8.58007831E-11
  -9.39999962       7.43408390E-11
  -9.39000034       6.27891489E-11
  -9.38000011       5.12322303E-11
  -9.36999989       3.97327934E-11
  -9.35999966       2.83087026E-11
  -9.35000038       1.69767238E-11
  -9.34000015       5.76919935E-12
  -9.32999992      -5.25310871E-12
  -9.31999969      -1.59946396E-11
  -9.31000042      -2.63198543E-11
  -9.30000019      -3.60772905E-11
  -9.28999996      -4.50916735E-11
  -9.27999973      -5.32116018E-11
  -9.27000046      -6.03117695E-11
  -9.26000023      -6.63012839E-11
  -9.25000000      -7.11045389E-11
  -9.23999977      -7.46639139E-11
  -9.22999954      -7.69341257E-11
  -9.22000027      -7.78690376E-11
  -9.21000004      -7.74079342E-11
  -9.19999981      -7.55050675E-11
  -9.18999958      -7.21050650E-11
  -9.18000031      -6.71897954E-11
  -9.17000008      -6.07821918E-11
  -9.15999985      -5.29375155E-11
  -9.14999962      -4.37486783E-11
  -9.14000034      -3.33318963E-11
  -9.13000011      -2.17974683E-11
  -9.11999989      -9.25193776E-12
  -9.10999966       4.22448361E-12
  -9.10000038       1.85770982E-11
  -9.09000015       3.37520879E-11
  -9.07999992       4.96987972E-11
  -9.06999969       6.63075428E-11
  -9.06000042       8.34491226E-11
  -9.05000019       1.00927683E-10
  -9.03999996       1.18507357E-10
  -9.02999973       1.35910921E-10
  -9.02000046       1.52885843E-10
  -9.01000023       1.69134803E-10
  -9.00000000       1.84443696E-10
  -8.98999977       1.98565081E-10
  -8.97999954       2.11295745E-10
  -8.97000027       2.22419971E-10
  -8.96000004       2.31715439E-10
  -8.94999981       2.38947639E-10
  -8.93999958       2.43853771E-10
  -8.93000031       2.46182602E-10
  -8.92000008       2.45713200E-10
  -8.90999985       2.42255660E-10
  -8.89999962       2.35653691E-10
  -8.89000034       2.25845800E-10
  -8.88000011       2.12787593E-10
  -8.86999989       1.96481220E-10
  -8.85999966       1.76955089E-10
  -8.85000038       1.54273830E-10
  -8.84000015       1.28475217E-10
  -8.82999992       9.96041791E-11
  -8.81999969       6.77356851E-11
  -8.81000042       3.29708899E-11
  -8.80000019      -4.55078510E-12
  -8.78999996      -4.46718114E-11
  -8.77999973      -8.71632280E-11
  -8.77000046      -1.31775216E-10
  -8.76000023      -1.78248874E-10
  -8.75000000      -2.26297842E-10
  -8.73999977      -2.75645590E-10
  -8.72999954      -3.26049882E-10
  -8.72000027      -3.77269938E-10
  -8.71000004      -4.29122682E-10
  -8.69999981      -4.81409745E-10
  -8.68999958      -5.33979416E-10
  -8.68000031      -5.86697024E-10
  -8.67000008      -6.39462705E-10
  -8.65999985      -6.92125024E-10
  -8.64999962      -7.44585449E-10
  -8.64000034      -7.96686384E-10
  -8.63000011      -8.48276338E-10
  -8.61999989      -8.99166464E-10
  -8.60999966      -9.49098689E-10
  -8.60000038      -9.97805949E-10
  -8.59000015      -1.04507369E-09
  -8.57999992      -1.09062392E-09
  -8.56999969      -1.13424492E-09
  -8.56000042      -1.17576815E-09
  -8.55000019      -1.21513821E-09
  -8.53999996      -1.25232391E-09
  -8.52999973      -1.28736022E-09
  -8.52000046      -1.32033251E-09
  -8.51000023      -1.35130596E-09
  -8.50000000      -1.38031431E-09
  -8.48999977      -1.40741818E-09
  -8.47999954      -1.43260537E-09
  -8.47000027      -1.45588586E-09
  -8.46000004      -1.47727031E-09
  -8.44999981      -1.49680190E-09
  -8.43999958      -1.51452551E-09
  -8.43000031      -1.53059532E-09
  -8.42000008      -1.54516178E-09
  -8.40999985      -1.55840685E-09
  -8.39999962      -1.57057234E-09
  -8.39000034      -1.58184366E-09
  -8.38000011      -1.59241376E-09
  -8.36999989      -1.60244318E-09
  -8.35999966      -1.61209091E-09
  -8.35000038      -1.62153568E-09
  -8.34000015      -1.63091007E-09
  -8.32999992      -1.64037006E-09
  -8.31999969      -1.65005742E-09
  -8.31000042      -1.66014780E-09
  -8.30000019      -1.67076952E-09
  -8.28999996      -1.68198488E-09
  -8.27999973      -1.69387149E-09
  -8.27000046      -1.70646253E-09
  -8.26000023      -1.71975290E-09
  -8.25000000      -1.73375458E-09
  -8.23999977      -1.74845383E-09
  -8.22999954      -1.76386628E-09
  -8.22000027      -1.78007076E-09
  -8.21000004      -1.79717918E-09
  -8.19999981      -1.81525761E-09
  -8.18999958      -1.83440818E-09
  -8.18000031      -1.85460158E-09
  -8.17000008      -1.87581461E-09
  -8.15999985      -1.89788274E-09
  -8.14999962      -1.92059546E-09
  -8.14000034      -1.94379735E-09
  -8.13000011      -1.96722261E-09
  -8.11999989      -1.99069294E-09
  -8.10999966      -2.01402894E-09
  -8.10000038      -2.03714445E-09
  -8.09000015      -2.06003392E-09
  -8.07999992      -2.08265893E-09
  -8.06999969      -2.10504236E-09
  -8.06000042      -2.12712625E-09
  -8.05000019      -2.14886509E-09
  -8.03999996      -2.17012985E-09
  -8.02999973      -2.19076512E-09
  -8.02000046      -2.21063057E-09
  -8.01000023      -2.22954055E-09
  -8.00000000      -2.24744201E-09
  -7.98999977      -2.26432184E-09
  -7.98000002      -2.28017871E-09
  -7.96999979      -2.29513608E-09
  -7.96000004      -2.30930364E-09
  -7.94999981      -2.32282971E-09
  -7.94000006      -2.33583908E-09
  -7.92999983      -2.34844189E-09
  -7.92000008      -2.36064346E-09
  -7.90999985      -2.37254394E-09
  -7.90000010      -2.38417863E-09
  -7.88999987      -2.39557574E-09
  -7.88000011      -2.40672637E-09
  -7.86999989      -2.41777598E-09
  -7.86000013      -2.42865950E-09
  -7.84999990      -2.43946974E-09
  -7.84000015      -2.45030529E-09
  -7.82999992      -2.46121479E-09
  -7.82000017      -2.47234166E-09
  -7.80999994      -2.48379051E-09
  -7.80000019      -2.49569609E-09
  -7.78999996      -2.50828780E-09
  -7.78000021      -2.52173837E-09
  -7.76999998      -2.53625654E-09
  -7.76000023      -2.55209764E-09
  -7.75000000      -2.56940158E-09
  -7.73999977      -2.58835864E-09
  -7.73000002      -2.60903898E-09
  -7.71999979      -2.63159161E-09
  -7.71000004      -2.65595279E-09
  -7.69999981      -2.68226374E-09
  -7.69000006      -2.71053957E-09
  -7.67999983      -2.74084799E-09
  -7.67000008      -2.77324097E-09
  -7.65999985      -2.80771162E-09
  -7.65000010      -2.84422508E-09
  -7.63999987      -2.88280244E-09
  -7.63000011      -2.92321412E-09
  -7.61999989      -2.96521718E-09
  -7.61000013      -3.00861647E-09
  -7.59999990      -3.05303405E-09
  -7.59000015      -3.09825099E-09
  -7.57999992      -3.14396420E-09
  -7.57000017      -3.18991544E-09
  -7.55999994      -3.23602833E-09
  -7.55000019      -3.28218075E-09
  -7.53999996      -3.32838912E-09
  -7.53000021      -3.37457218E-09
  -7.51999998      -3.42074613E-09
  -7.51000023      -3.46684614E-09
  -7.50000000      -3.51280827E-09
  -7.48999977      -3.55856389E-09
  -7.48000002      -3.60402308E-09
  -7.46999979      -3.64901132E-09
  -7.46000004      -3.69342468E-09
  -7.44999981      -3.73710218E-09
  -7.44000006      -3.77992304E-09