  -16.0000000       0.00000000    
  -15.9899998       0.00000000    
  -15.9799995       0.00000000    
  -15.9700003       0.00000000    
  -15.9600000       0.00000000    
  -15.9499998       0.00000000    
  -15.9399996       0.00000000    
  -15.9300003       0.00000000    
  -15.9200001       0.00000000    
  -15.9099998       0.00000000    
  -15.8999996       0.00000000    
  -15.8900003       0.00000000    
  -15.8800001       0.00000000    
  -15.8699999      -1.40129846E-45
  -15.8599997      -2.94272678E-44
  -15.8500004      -5.10072641E-43
  -15.8400002      -5.81678993E-42
  -15.8299999      -5.00417695E-41
  -15.8199997      -3.44245783E-40
  -15.8100004      -1.96479841E-39
  -15.8000002      -9.54213769E-39
  -15.7900000      -4.01430167E-38
  -15.7799997      -1.48127472E-37
  -15.7700005      -4.83252865E-37
  -15.7600002      -1.39867138E-36
  -15.7500000      -3.58316636E-36
  -15.7399998      -8.03168210E-36
  -15.7299995      -1.52650971E-35
  -15.7200003      -2.24379989E-35
  -15.7100000      -1.58968650E-35
  -15.6999998       4.40147903E-35
  -15.6899996       2.47876448E-34
  -15.6800003       7.67505425E-34
  -15.6700001       1.87213271E-33
  -15.6599998       3.88496218E-33
  -15.6499996       7.00427272E-33
  -15.6400003       1.08990631E-32
  -15.6300001       1.40337833E-32
  -15.6199999       1.28371771E-32
  -15.6099997       1.14166950E-33
  -15.6000004      -2.92505724E-32
  -15.5900002      -8.56791384E-32
  -15.5799999      -1.68363047E-31
  -15.5699997      -2.60892884E-31
  -15.5600004      -3.20201981E-31
  -15.5500002      -2.72474865E-31
  -15.5400000      -2.47782219E-32
  -15.5299997       4.97926665E-31
  -15.5200005       1.28807746E-30
  -15.5100002       2.17759144E-30
  -15.5000000       2.78486705E-30
  -15.4899998       2.54426743E-30
  -15.4799995       8.73018589E-31
  -15.4700003      -2.51425020E-30
  -15.4600000      -7.22381866E-30
  -15.4499998      -1.19256870E-29
  -15.4399996      -1.44759741E-29
  -15.4300003      -1.25999498E-29
  -15.4200001      -5.04376941E-30
  -15.4099998       7.32115712E-30
  -15.3999996       2.13105457E-29
  -15.3900003       3.29386502E-29
  -15.3800001       4.05390769E-29
  -15.3699999       4.77606221E-29
  -15.3599997       6.30006953E-29
  -15.3500004       9.15886638E-29
  -15.3400002       1.20032103E-28
  -15.3299999       9.87177041E-29
  -15.3199997      -6.12380662E-29
  -15.3100004      -4.55472176E-28
  -15.3000002      -1.10312443E-27
  -15.2900000      -1.82417748E-27
  -15.2799997      -2.13452645E-27
  -15.2700005      -1.26465554E-27
  -15.2600002       1.57559115E-27
  -15.2500000       6.62373068E-27
  -15.2399998       1.27869877E-26
  -15.2299995       1.70168930E-26
  -15.2200003       1.44301996E-26
  -15.2100000      -1.88129315E-28
  -15.1999998      -2.92230379E-26
  -15.1899996      -6.79967039E-26
  -15.1800003      -1.01280329E-25
  -15.1700001      -1.03450689E-25
  -15.1599998      -4.53147496E-26
  -15.1499996       9.10730424E-26
  -15.1400003       2.92156781E-25
  -15.1300001       4.95100444E-25
  -15.1199999       5.85044787E-25
  -15.1099997       4.20578825E-25
  -15.1000004      -1.06142467E-25
  -15.0900002      -9.83582542E-25
  -15.0799999      -1.99937763E-24
  -15.0699997      -2.71191900E-24
  -15.0600004      -2.52741686E-24
  -15.0500002      -9.11873508E-25
  -15.0400000       2.28692670E-24
  -15.0299997       6.50784017E-24
  -15.0200005       1.03044025E-23
  -15.0100002       1.15220235E-23
  -15.0000000       7.94611070E-24
  -14.9899998      -1.62918394E-24
  -14.9799995      -1.62073682E-23
  -14.9700003      -3.17999455E-23
  -14.9600000      -4.16612306E-23
  -14.9499998      -3.79962333E-23
  -14.9399996      -1.51004038E-23
  -14.9300003       2.68358489E-23
  -14.9200001       7.87442533E-23
  -14.9099998       1.22357325E-22
  -14.8999996       1.34021018E-22
  -14.8900003       9.28635824E-23
  -14.8800001      -8.40404840E-24
  -14.8699999      -1.53805296E-22
  -14.8599997      -3.00457252E-22
  -14.8500004      -3.85309883E-22
  -14.8400002      -3.43774551E-22
  -14.8299999      -1.37078290E-22
  -14.8199997       2.19949667E-22
  -14.8100004       6.42399854E-22
  -14.8000002       9.81497961E-22
  -14.7900000       1.05957767E-21
  -14.7799997       7.30224634E-22
  -14.7700005      -5.11933525E-23
  -14.7600002      -1.17007212E-21
  -14.7500000      -2.33365160E-21
  -14.7399998      -3.10931275E-21
  -14.7299995      -3.02415616E-21
  -14.7200003      -1.71171962E-21
  -14.7100000       9.24355250E-22
  -14.6999998       4.56936590E-21
  -14.6899996       8.42059685E-21
  -14.6800003       1.12126982E-20
  -14.6700001       1.13798533E-20
  -14.6599998       7.38477932E-21
  -14.6499996      -1.76944959E-21
  -14.6400003      -1.58688914E-20
  -14.6300001      -3.27691477E-20
  -14.6199999      -4.78671132E-20
  -14.6099997      -5.41486517E-20
  -14.6000004      -4.32740022E-20
  -14.5900002      -8.05901876E-21
  -14.5799999       5.36777985E-20
  -14.5699997       1.34630960E-19
  -14.5600004       2.14491151E-19
  -14.5500002       2.59729155E-19
  -14.5400000       2.29109720E-19
  -14.5299997       8.63398199E-20
  -14.5200005      -1.81135028E-19
  -14.5100002      -5.41654202E-19
  -14.5000000      -9.05248781E-19
  -14.4899998      -1.12607571E-18
  -14.4799995      -1.03023246E-18
  -14.4700003      -4.71785202E-19
  -14.4600000       5.90867985E-19
  -14.4499998       2.01934454E-18
  -14.4399996       3.45255592E-18
  -14.4300003       4.33237128E-18
  -14.4200001       4.02296520E-18
  -14.4099998       2.02314978E-18
  -14.3999996      -1.76756606E-18
  -14.3900003      -6.80962832E-18
  -14.3800001      -1.18191363E-17
  -14.3699999      -1.49039633E-17
  -14.3599997      -1.39990244E-17
  -14.3500004      -7.56839738E-18
  -14.3400002       4.57644374E-18
  -14.3299999       2.06038895E-17
  -14.3199997       3.64529198E-17
  -14.3100004       4.63630167E-17
  -14.3000002       4.42538352E-17
  -14.2900000       2.57920358E-17
  -14.2799997      -9.33757210E-18
  -14.2700005      -5.57036593E-17
  -14.2600002      -1.01779055E-16
  -14.2500000      -1.31621694E-16
  -14.2399998      -1.28747632E-16
  -14.2299995      -8.16332437E-17
  -14.2200003       1.04963694E-17
  -14.2100000       1.33506805E-16
  -14.1999998       2.57829682E-16
  -14.1899996       3.42998157E-16
  -14.1800003       3.47400637E-16
  -14.1700001       2.41679940E-16
  -14.1599998       2.24621276E-17
  -14.1499996      -2.78053494E-16
  -14.1400003      -5.91108189E-16
  -14.1300001      -8.21969666E-16
  -14.1199999      -8.72133710E-16
  -14.1099997      -6.69401721E-16
  -14.1000004      -1.98477647E-16
  -14.0900002       4.77510748E-16
  -14.0799999       1.21390632E-15
  -14.0699997       1.80586895E-15
  -14.0600004       2.03412972E-15
  -14.0500002       1.72748759E-15
  -14.0400000       8.27265792E-16
  -14.0299997      -5.65360558E-16
  -14.0200005      -2.17771451E-15
  -14.0100002      -3.60189622E-15
  -14.0000000      -4.37977782E-15
  -13.9899998      -4.12322764E-15
  -13.9799995      -2.64266783E-15
  -13.9700003      -4.86146751E-17
  -13.9600000       3.20901058E-15
  -13.9499998       6.38874558E-15
  -13.9399996       8.59797056E-15
  -13.9300003       9.00615574E-15
  -13.9200001       7.08690232E-15
  -13.9099998       2.82779175E-15
  -13.8999996      -3.15608309E-15
  -13.8900003      -9.65523455E-15
  -13.8800001      -1.50656922E-14
  -13.8699999      -1.77346964E-14
  -13.8599997      -1.63880580E-14
  -13.8500004      -1.05411895E-14
  -13.8400002      -7.82038733E-16
  -13.8299999       1.11728669E-14
  -13.8199997       2.27063648E-14
  -13.8100004       3.08058700E-14
  -13.8000002       3.27652571E-14
  -13.7900000       2.69368658E-14
  -13.7799997       1.33472809E-14
  -13.7700005      -6.00763920E-15
  -13.7600002      -2.73228536E-14
  -13.7500000      -4.56390737E-14
  -13.7399998      -5.59096768E-14
  -13.7299995      -5.42739783E-14
  -13.7200003      -3.92397296E-14
  -13.7100000      -1.24491261E-14
  -13.6999998       2.12448331E-14
  -13.6899996       5.45280340E-14
  -13.6800003       7.91398197E-14
  -13.6700001       8.78733867E-14
  -13.6599998       7.66028408E-14
  -13.6499996       4.57920106E-14
  -13.6400003       9.90382897E-16
  -13.6300001      -4.79792733E-14
  -13.6199999      -8.91197177E-14
  -13.6099997      -1.11254674E-13
  -13.6000004      -1.07210024E-13
  -13.5900002      -7.62984849E-14
  -13.5799999      -2.52806758E-14
  -13.5699997       3.27156887E-14
  -13.5600004       8.13203197E-14
  -13.5500002       1.05479163E-13
  -13.5400000       9.63007953E-14
  -13.5299997       5.47528230E-14
  -13.5200005      -7.13833713E-15
  -13.5100002      -6.84128454E-14
  -13.5000000      -1.04587644E-13
  -13.4899998      -9.52866394E-14
  -13.4799995      -3.21260623E-14
  -13.4700003       7.55879734E-14
  -13.4600000       1.99623833E-13
  -13.4499998       2.97429372E-13
  -13.4399996       3.22462082E-13
  -13.4300003       2.38360303E-13
  -13.4200001       3.34972528E-14
  -13.4099998      -2.68413655E-13
  -13.3999996      -6.05776497E-13
  -13.3900003      -8.87284278E-13
  -13.3800001      -1.01091748E-12
  -13.3699999      -8.90792106E-13
  -13.3599997      -4.85996334E-13
  -13.3500004       1.76268234E-13
  -13.3400002       9.90968592E-13
  -13.3299999       1.78459526E-12
  -13.3199997       2.34520194E-12
  -13.3100004       2.46946257E-12
  -13.3000002       2.01778936E-12
  -13.2900000       9.64606650E-13
  -13.2799997      -5.70339674E-13
  -13.2700005      -2.32154118E-12
  -13.2600002      -3.91425434E-12
  -13.2500000      -4.93570289E-12
  -13.2399998      -5.02936798E-12
  -13.2299995      -3.99276185E-12
  -13.2200003      -1.85481817E-12
  -13.2100000       1.08996351E-12
  -13.1999998       4.30644669E-12
  -13.1899996       7.10647860E-12
  -13.1800003       8.78778213E-12
  -13.1700001       8.79807251E-12
  -13.1599998       6.88809600E-12
  -13.1499996       3.21452283E-12
  -13.1400003      -1.63968633E-12
  -13.1300001      -6.74409747E-12
  -13.1199999      -1.09932905E-11
  -13.1099997      -1.33435884E-11
  -13.1000004      -1.30648495E-11
  -13.0900002      -9.94801203E-12
  -13.0799999      -4.41253457E-12
  -13.0699997       2.52433079E-12
  -13.0600004       9.42488448E-12
  -13.0500002       1.47281857E-11
  -13.0400000       1.71076729E-11
  -13.0299997       1.58083199E-11
  -13.0200005       1.08788100E-11
  -13.0100002       3.23142359E-12
  -13.0000000      -5.50176484E-12
  -12.9899998      -1.33005733E-11
  -12.9799995      -1.82124628E-11
  -12.9700003      -1.88319499E-11
  -12.9600000      -1.46886565E-11
  -12.9499998      -6.44146021E-12
  -12.9399996       4.18461446E-12
  -12.9300003       1.47241004E-11
  -12.9200001       2.25011277E-11
  -12.9099998       2.52516983E-11
  -12.8999996       2.16961310E-11
  -12.8900003       1.19226738E-11
  -12.8800001      -2.51976174E-12
  -12.8699999      -1.88580297E-11
  -12.8599997      -3.36229170E-11
  -12.8500004      -4.33615643E-11
  -12.8400002      -4.53803245E-11
  -12.8299999      -3.83530048E-11
  -12.8199997      -2.26572979E-11
  -12.8100004      -3.62664055E-13
  -12.8000002       2.51276777E-11
  -12.7900000       4.97002405E-11
  -12.7799997       6.92814764E-11
  -12.7700005       8.05513087E-11
  -12.7600002       8.14720930E-11
  -12.7500000       7.15348752E-11
  -12.7399998       5.16966331E-11
  -12.7299995       2.40570983E-11
  -12.7200003      -8.61724581E-12
  -12.7100000      -4.33855868E-11
  -12.6999998      -7.75133083E-11
  -12.6899996      -1.08654134E-10
  -12.6800003      -1.34812092E-10
  -12.6700001      -1.54130000E-10
  -12.6599998      -1.64608646E-10
  -12.6499996      -1.63889582E-10
  -12.6400003      -1.49228227E-10
  -12.6300001      -1.17744106E-10
  -12.6199999      -6.69670847E-11
  -12.6099997       4.37846894E-12
  -12.6000004       9.54821083E-11
  -12.5900002       2.02629691E-10
  -12.5799999       3.18658322E-10
  -12.5699997       4.32860664E-10
  -12.5600004       5.31456601E-10
  -12.5500002       5.98666894E-10
  -12.5400000       6.18319229E-10
  -12.5299997       5.75824555E-10
  -12.5200005       4.60285393E-10
  -12.5100002       2.66459022E-10
  -12.5000000      -3.69100670E-12
  -12.4899998      -3.40065032E-10
  -12.4799995      -7.24231508E-10
  -12.4700003      -1.12995291E-09
  -12.4600000      -1.52430257E-09
  -12.4499998      -1.86914484E-09
  -12.4399996      -2.12271711E-09
  -12.4300003      -2.24107377E-09
  -12.4200001      -2.17924678E-09
  -12.4099998      -1.89213667E-09
  -12.3999996      -1.33528721E-09
  -12.3900003      -4.65853911E-10
  -12.3800001       7.55879526E-10
  -12.3699999       2.36412889E-09
  -12.3599997       4.38420011E-09
  -12.3500004       6.82816026E-09
  -12.3400002       9.68995639E-09
  -12.3299999       1.29406335E-08
  -12.3199997       1.65244920E-08
  -12.3100004       2.03569961E-08
  -12.3000002       2.43251552E-08
  -12.2900000       2.82906374E-08
  -12.2799997       3.20956346E-08
  -12.2700005       3.55708174E-08
  -12.2600002       3.85444672E-08
  -12.2500000       4.08517167E-08
  -12.2399998       4.23428013E-08
  -12.2299995       4.28893578E-08
  -12.2200003       4.23884394E-08
  -12.2100000       4.07643839E-08
  -12.1999998       3.79688530E-08
  -12.1899996       3.39798909E-08
  -12.1800003       2.88008195E-08
  -12.1700001       2.24594014E-08
  -12.1599998       1.50078190E-08
  -12.1499996       6.52289822E-09
  -12.1400003      -2.89370838E-09
  -12.1300001      -1.31163453E-08
  -12.1199999      -2.39976465E-08
  -12.1099997      -3.53729313E-08
  -12.1000004      -4.70664290E-08
  -12.0900002      -5.88988698E-08
  -12.0799999      -7.06951511E-08
  -12.0699997      -8.22911730E-08
  -12.0600004      -9.35384321E-08
  -12.0500002      -1.04305848E-07
  -12.0400000      -1.14478517E-07
  -12.0299997      -1.23954194E-07
  -12.0200005      -1.32638007E-07
  -12.0100002      -1.40437379E-07
  -12.0000000      -1.47257751E-07
  -11.9899998      -1.53000443E-07
  -11.9799995      -1.57562638E-07
  -11.9700003      -1.60839193E-07
  -11.9600000      -1.62725669E-07
  -11.9499998      -1.63121058E-07
  -11.9399996      -1.61929876E-07
  -11.9300003      -1.59062793E-07
  -11.9200001      -1.54436037E-07
  -11.9099998      -1.47970653E-07
  -11.8999996      -1.39591947E-07
  -11.8900003      -1.29232063E-07
  -11.8800001      -1.16834137E-07
  -11.8699999      -1.02360161E-07
  -11.8599997      -8.58007425E-08
  -11.8500004      -6.71855389E-08
  -11.8400002      -4.65917047E-08
  -11.8299999      -2.41491378E-08
  -11.8199997      -3.96694795E-11
  -11.8100004       2.55093902E-08
  -11.8000002       5.22374819E-08
  -11.7900000       7.98668580E-08
  -11.7799997       1.08120283E-07
  -11.7700005       1.36736034E-07
  -11.7600002       1.65479477E-07
  -11.7500000       1.94147844E-07
  -11.7399998       2.22568218E-07
  -11.7299995       2.50589295E-07
  -11.7200003       2.78068768E-07
  -11.7100000       3.04859441E-07
  -11.6999998       3.30796013E-07
  -11.6899996       3.55685842E-07
  -11.6800003       3.79303970E-07
  -11.6700001       4.01394772E-07
  -11.6599998       4.21677782E-07
  -11.6499996       4.39857814E-07
  -11.6400003       4.55636865E-07
  -11.6300001       4.68726427E-07
  -11.6199999       4.78858510E-07
  -11.6099997       4.85794828E-07
  -11.6000004       4.89332706E-07
  -11.5900002       4.89308320E-07
  -11.5799999       4.85597184E-07
  -11.5699997       4.78112668E-07
  -11.5600004       4.66800856E-07
  -11.5500002       4.51635856E-07
  -11.5400000       4.32612694E-07
  -11.5299997       4.09739954E-07
  -11.5200005       3.83033381E-07
  -11.5100002       3.52510114E-07
  -11.5000000       3.18184732E-07
  -11.4899998       2.80068804E-07
  -11.4799995       2.38172007E-07
  -11.4700003       1.92505709E-07
  -11.4600000       1.43088997E-07
  -11.4499998       8.99558614E-08
  -11.4399996       3.31612000E-08
  -11.4300003      -2.72117600E-08
  -11.4200001      -9.10457985E-08
  -11.4099998      -1.58186367E-07
  -11.3999996      -2.28437486E-07
  -11.3900003      -3.01562295E-07
  -11.3800001      -3.77285062E-07
  -11.3699999      -4.55297169E-07
  -11.3599997      -5.35265883E-07
  -11.3500004      -6.16849263E-07
  -11.3400002      -6.99712928E-07
  -11.3299999      -7.83550547E-07
  -11.3199997      -8.68101438E-07
  -11.3100004      -9.53164999E-07
  -11.3000002      -1.03860941E-06
  -11.2900000      -1.12436783E-06
  -11.2799997      -1.21042467E-06
  -11.2700005      -1.29679290E-06
  -11.2600002      -1.38348400E-06
  -11.2500000      -1.47047854E-06
  -11.2399998      -1.55769874E-06
  -11.2299995      -1.64499443E-06
  -11.2200003      -1.73213903E-06
  -11.2100000      -1.81884366E-06
  -11.1999998      -1.90477601E-06
  -11.1899996      -1.98959424E-06
  -11.1800003      -2.07297535E-06
  -11.1700001      -2.15463956E-06
  -11.1599998      -2.23436723E-06
  -11.1499996      -2.31200556E-06
  -11.1400003      -2.38746088E-06
  -11.1300001      -2.46068907E-06
  -11.1199999      -2.53168764E-06
  -11.1099997      -2.60047477E-06
  -11.1000004      -2.66709117E-06
  -11.0900002      -2.73159230E-06
  -11.0799999      -2.79404708E-06
  -11.0699997      -2.85453348E-06
  -11.0600004      -2.91313540E-06
  -11.0500002      -2.96993176E-06
  -11.0400000      -3.02499097E-06
  -11.0299997      -3.07834853E-06
  -11.0200005      -3.13001624E-06
  -11.0100002      -3.17997728E-06
  -11.0000000      -3.22820779E-06
  -10.9899998      -3.27469456E-06
  -10.9799995      -3.31945762E-06
  -10.9700003      -3.36257426E-06
  -10.9600000      -3.40418205E-06
  -10.9499998      -3.44447540E-06
  -10.9399996      -3.48368098E-06
  -10.9300003      -3.52202255E-06
  -10.9200001      -3.55967359E-06
  -10.9099998      -3.59673299E-06
  -10.8999996      -3.63319896E-06
  -10.8900003      -3.66896779E-06
  -10.8800001      -3.70384805E-06
  -10.8699999      -3.73758894E-06
  -10.8599997      -3.76992489E-06
  -10.8500004      -3.80060101E-06
  -10.8400002      -3.82940516E-06
  -10.8299999      -3.85616431E-06
  -10.8199997      -3.88074841E-06
  -10.8100004      -3.90306786E-06
  -10.8000002      -3.92304719E-06
  -10.7900000      -3.94062317E-06
  -10.7799997      -3.95574716E-06
  -10.7700005      -3.96839050E-06
  -10.7600002      -3.97855274E-06
  -10.7500000      -3.98626298E-06
  -10.7399998      -3.99157989E-06
  -10.7299995      -3.99457940E-06
  -10.7200003      -3.99533110E-06
  -10.7100000      -3.99386954E-06
  -10.6999998      -3.99018927E-06
  -10.6899996      -3.98422799E-06
  -10.6800003      -3.97588747E-06
  -10.6700001      -3.96507903E-06
  -10.6599998      -3.95171674E-06
  -10.6499996      -3.93579876E-06
  -10.6400003      -3.91740650E-06
  -10.6300001      -3.89672232E-06
  -10.6199999      -3.87400632E-06
  -10.6099997      -3.84958685E-06
  -10.6000004      -3.82381177E-06
  -10.5900002      -3.79701419E-06
  -10.5799999      -3.76949424E-06
  -10.5699997      -3.74151659E-06
  -10.5600004      -3.71329907E-06
  -10.5500002      -3.68502219E-06
  -10.5400000      -3.65683036E-06
  -10.5299997      -3.62883043E-06
  -10.5200005      -3.60108834E-06
  -10.5100002      -3.57361091E-06
  -10.5000000      -3.54634494E-06
  -10.4899998      -3.51919402E-06
  -10.4799995      -3.49203219E-06
  -10.4700003      -3.46477327E-06
  -10.4600000      -3.43741635E-06
  -10.4499998      -3.41009422E-06
  -10.4399996      -3.38310974E-06
  -10.4300003      -3.35692880E-06
  -10.4200001      -3.33212620E-06
  -10.4099998      -3.30932812E-06
  -10.3999996      -3.28908504E-06
  -10.3900003      -3.27180055E-06
  -10.3800001      -3.25765450E-06
  -10.3699999      -3.24658640E-06
  -10.3599997      -3.23830500E-06
  -10.3500004      -3.23237964E-06
  -10.3400002      -3.22830169E-06
  -10.3299999      -3.22562551E-06
  -10.3199997      -3.22401115E-06
  -10.3100004      -3.22328265E-06
  -10.3000002      -3.22345045E-06
  -10.2900000      -3.22465462E-06
  -10.2799997      -3.22713481E-06
  -10.2700005      -3.23116501E-06
  -10.2600002      -3.23699510E-06
  -10.2500000      -3.24486382E-06
  -10.2399998      -3.25492897E-06
  -10.2299995      -3.26729742E-06
  -10.2200003      -3.28205056E-06
  -10.2100000      -3.29923273E-06
  -10.1999998      -3.31885894E-06
  -10.1899996      -3.34090032E-06
  -10.1800003      -3.36528228E-06
  -10.1700001      -3.39186909E-06
  -10.1599998      -3.42048111E-06
  -10.1499996      -3.45089347E-06
  -10.1400003      -3.48288950E-06
  -10.1300001      -3.51626500E-06
  -10.1199999      -3.55089014E-06
  -10.1099997      -3.58673037E-06
  -10.1000004      -3.62383912E-06
  -10.0900002      -3.66237123E-06
  -10.0799999      -3.70258113E-06
  -10.0699997      -3.74475940E-06
  -10.0600004      -3.78924528E-06
  -10.0500002      -3.83641463E-06
  -10.0400000      -3.88660419E-06
  -10.0299997      -3.94015024E-06
  -10.0200005      -3.99733199E-06
  -10.0100002      -4.05836909E-06
  -10.0000000      -4.12340160E-06
  -9.98999977      -4.19244543E-06
  -9.97999954      -4.26541828E-06
  -9.97000027      -4.34213734E-06
  -9.96000004      -4.42233568E-06
  -9.94999981      -4.50572179E-06
  -9.93999958      -4.59202647E-06
  -9.93000031      -4.68105100E-06
  -9.92000008      -4.77270805E-06
  -9.90999985      -4.86703902E-06
  -9.89999962      -4.96418443E-06
  -9.89000034      -5.06437573E-06
  -9.88000011      -5.16785076E-06
  -9.86999989      -5.27481234E-06
  -9.85999966      -5.38537688E-06
  -9.85000038      -5.49955439E-06
  -9.84000015      -5.61723982E-06
  -9.82999992      -5.73825810E-06
  -9.81999969      -5.86240230E-06
  -9.81000042      -5.98950101E-06
  -9.80000019      -6.11944961E-06
  -9.78999996      -6.25223629E-06
  -9.77999973      -6.38795245E-06
  -9.77000046      -6.52676408E-06
  -9.76000023      -6.66890583E-06
  -9.75000000      -6.81459915E-06
  -9.73999977      -6.96404641E-06
  -9.72999954      -7.11743041E-06
  -9.72000027      -7.27486895E-06
  -9.71000004      -7.43643523E-06
  -9.69999981      -7.60217335E-06
  -9.68999958      -7.77210153E-06
  -9.68000031      -7.94621155E-06
  -9.67000008      -8.12448889E-06
  -9.65999985      -8.30687713E-06
  -9.64999962      -8.49329172E-06
  -9.64000034      -8.68365896E-06
  -9.63000011      -8.87784063E-06
  -9.61999989      -9.07573576E-06
  -9.60999966      -9.27724523E-06
  -9.60000038      -9.48224897E-06
  -9.59000015      -9.69064422E-06
  -9.57999992      -9.90232274E-06
  -9.56999969      -1.01170372E-05
  -9.56000042      -1.03344255E-05
  -9.55000019      -1.05539930E-05
  -9.53999996      -1.07750575E-05
  -9.52999973      -1.09968023E-05
  -9.52000046      -1.12182834E-05
  -9.51000023      -1.14385548E-05
  -9.50000000      -1.16567562E-05
  -9.48999977      -1.18720864E-05
  -9.47999954      -1.20838986E-05
  -9.47000027      -1.22916827E-05
  -9.46000004      -1.24950020E-05
  -9.44999981      -1.26934829E-05
  -9.43999958      -1.28867268E-05
  -9.43000031      -1.30743738E-05
  -9.42000008      -1.32560954E-05
  -9.40999985      -1.34316388E-05
  -9.39999962      -1.36009712E-05
  -9.39000034      -1.37642983E-05
  -9.38000011      -1.39221447E-05
  -9.36999989      -1.40753218E-05
  -9.35999966      -1.42248291E-05
  -9.35000038      -1.43717625E-05
  -9.34000015      -1.45172362E-05
  -9.32999992      -1.46622069E-05
  -9.31999969      -1.48075060E-05
  -9.31000042      -1.49538109E-05
  -9.30000019      -1.51017757E-05
  -9.28999996      -1.52520788E-05
  -9.27999973      -1.54055342E-05
  -9.27000046      -1.55631806E-05
  -9.26000023      -1.57262075E-05
  -9.25000000      -1.58959283E-05
  -9.23999977      -1.60736836E-05
  -9.22999954      -1.62607212E-05
  -9.22000027      -1.64580888E-05
  -9.21000004      -1.66666323E-05
  -9.19999981      -1.68870174E-05
  -9.18999958      -1.71197626E-05
  -9.18000031      -1.73653334E-05
  -9.17000008      -1.76241319E-05
  -9.15999985      -1.78965984E-05
  -9.14999962      -1.81830110E-05
  -9.14000034      -1.84835117E-05
  -9.13000011      -1.87979385E-05
  -9.11999989      -1.91258951E-05
  -9.10999966      -1.94666209E-05
  -9.10000038      -1.98192192E-05
  -9.09000015      -2.01827206E-05
  -9.07999992      -2.05560737E-05
  -9.06999969      -2.09384125E-05
  -9.06000042      -2.13289659E-05
  -9.05000019      -2.17269917E-05
  -9.03999996      -2.21316441E-05
  -9.02999973      -2.25419517E-05
  -9.02000046      -2.29567795E-05
  -9.01000023      -2.33747614E-05
  -9.00000000      -2.37944496E-05
  -8.98999977      -2.42144542E-05
  -8.97999954      -2.46335494E-05
  -8.97000027      -2.50508620E-05
  -8.96000004      -2.54658244E-05
  -8.94999981      -2.58781183E-05
  -8.93999958      -2.62875255E-05
  -8.93000031      -2.66937332E-05
  -8.92000008      -2.70962137E-05
  -8.90999985      -2.74942049E-05
  -8.89999962      -2.78866264E-05
  -8.89000034      -2.82724159E-05
  -8.88000011      -2.86505747E-05
  -8.86999989      -2.90203243E-05
  -8.85999966      -2.93812664E-05
  -8.85000038      -2.97333245E-05
  -8.84000015      -3.00765732E-05
  -8.82999992      -3.04110945E-05
  -8.81999969      -3.07367773E-05
  -8.81000042      -3.10533251E-05
  -8.80000019      -3.13601013E-05
  -8.78999996      -3.16564765E-05
  -8.77999973      -3.19418032E-05
  -8.77000046      -3.22156557E-05
  -8.76000023      -3.24780922E-05
  -8.75000000      -3.27295311E-05
  -8.73999977      -3.29706709E-05
  -8.72999954      -3.32025156E-05
  -8.72000027      -3.34259385E-05
  -8.71000004      -3.36416670E-05
  -8.69999981      -3.38500940E-05
  -8.68999958      -3.40515471E-05
  -8.68000031      -3.42463027E-05
  -8.67000008      -3.44346845E-05
  -8.65999985      -3.46172819E-05
  -8.64999962      -3.47949972E-05
  -8.64000034      -3.49689872E-05
  -8.63000011      -3.51407034E-05
  -8.61999989      -3.53116375E-05
  -8.60999966      -3.54831245E-05
  -8.60000038      -3.56566488E-05
  -8.59000015      -3.58334801E-05
  -8.57999992      -3.60148879E-05
  -8.56999969      -3.62022984E-05
  -8.56000042      -3.63972395E-05
  -8.55000019      -3.66012027E-05
  -8.53999996      -3.68156288E-05
  -8.52999973      -3.70418384E-05
  -8.52000046      -3.72807917E-05
  -8.51000023      -3.75328927E-05
  -8.50000000      -3.77982324E-05
  -8.48999977      -3.80765196E-05
  -8.47999954      -3.83673250E-05
  -8.47000027      -3.86701759E-05
  -8.46000004      -3.89848465E-05
  -8.44999981      -3.93110640E-05
  -8.43999958      -3.96489595E-05
  -8.43000031      -3.99984456E-05
  -8.42000008      -4.03594095E-05
  -8.40999985      -4.07315347E-05
  -8.39999962      -4.11141082E-05
  -8.39000034      -4.15062641E-05
  -8.38000011      -4.19070857E-05
  -8.36999989      -4.23156343E-05
  -8.35999966      -4.27311206E-05
  -8.35000038      -4.31528970E-05
  -8.34000015      -4.35804468E-05
  -8.32999992      -4.40133772E-05
  -8.31999969      -4.44510915E-05
  -8.31000042      -4.48928695E-05
  -8.30000019      -4.53377215E-05
  -8.28999996      -4.57845963E-05
  -8.27999973      -4.62324315E-05
  -8.27000046      -4.66803249E-05
  -8.26000023      -4.71275962E-05
  -8.25000000      -4.75736633E-05
  -8.23999977      -4.80182352E-05
  -8.22999954      -4.84610500E-05
  -8.22000027      -4.89018785E-05
  -8.21000004      -4.93402549E-05
  -8.19999981      -4.97754882E-05
  -8.18999958      -5.02068469E-05
  -8.18000031      -5.06337783E-05
  -8.17000008      -5.10557438E-05
  -8.15999985      -5.14724852E-05
  -8.14999962      -5.18841480E-05
  -8.14000034      -5.22910195E-05
  -8.13000011      -5.26934782E-05
  -8.11999989      -5.30919533E-05
  -8.10999966      -5.34867577E-05
  -8.10000038      -5.38780296E-05
  -8.09000015      -5.42658272E-05
  -8.07999992      -5.46503870E-05
  -8.06999969      -5.50319091E-05
  -8.06000042      -5.54110593E-05
  -8.05000019      -5.57887106E-05
  -8.03999996      -5.61659290E-05
  -8.02999973      -5.65441369E-05
  -8.02000046      -5.69244985E-05
  -8.01000023      -5.73084180E-05
  -8.00000000      -5.76968159E-05
  -7.98999977      -5.80909473E-05
  -7.98000002      -5.84917761E-05
  -7.96999979      -5.89003539E-05
  -7.96000004      -5.93178338E-05
  -7.94999981      -5.97455364E-05
  -7.94000006      -6.01848697E-05
  -7.92999983      -6.06370922E-05
  -7.92000008      -6.11033392E-05
  -7.90999985      -6.15845056E-05
  -7.90000010      -6.20812207E-05
  -7.88999987      -6.25941539E-05
  -7.88000011      -6.31232688E-05
  -7.86999989      -6.36690529E-05
  -7.86000013      -6.42316736E-05
  -7.84999990      -6.48114437E-05
  -7.84000015      -6.54085161E-05
  -7.82999992      -6.60229998E-05
  -7.82000017      -6.66549313E-05
  -7.80999994      -6.73041577E-05
  -7.80000019      -6.79701698E-05
  -7.78999996      -6.86526619E-05
  -7.78000021      -6.93511538E-05
  -7.76999998      -7.00650417E-05
  -7.76000023      -7.07940490E-05
  -7.75000000      -7.15378119E-05
  -7.73999977      -7.22962432E-05
  -7.73000002      -7.30689280E-05
  -7.71999979      -7.38558083E-05
  -7.71000004      -7.46565274E-05
  -7.69999981      -7.54708453E-05
  -7.69000006      -7.62983909E-05
  -7.67999983      -7.71390114E-05
  -7.67000008      -7.79926413E-05
  -7.65999985      -7.88591497E-05
  -7.65000010      -7.97385874E-05
  -7.63999987      -8.06310200E-05
  -7.63000011      -8.15366875E-05
  -7.61999989      -8.24554591E-05
  -7.61000013      -8.33876547E-05
  -7.59999990      -8.43331800E-05
  -7.59000015      -8.52925587E-05
  -7.57999992      -8.62662855E-05
  -7.57000017      -8.72550227E-05
  -7.55999994      -8.82594759E-05
  -7.55000019      -8.92807293E-05
  -7.53999996      -9.03192777E-05
  -7.53000021      -9.13758195E-05
  -7.51999998      -9.24505730E-05
  -7.51000023      -9.35437274E-05
  -7.50000000      -9.46553700E-05
  -7.48999977      -9.57853044E-05
  -7.48000002      -9.69341345E-05
  -7.46999979      -9.81018238E-05
  -7.46000004      -9.92890054E-05
  -7.44999981      -1.00496305E-04
  -7.44000006      -1.01723977E-04