  -16.0000000       0.00000000    
  -15.9899998       0.00000000    
  -15.9799995       0.00000000    
  -15.9700003       0.00000000    
  -15.9600000       0.00000000    
  -15.9499998       0.00000000    
  -15.9399996       0.00000000    
  -15.9300003       0.00000000    
  -15.9200001       0.00000000    
  -15.9099998       0.00000000    
  -15.8999996       0.00000000    
  -15.8900003       0.00000000    
  -15.8800001       1.68286136E-40
  -15.8699999       5.52539131E-39
  -15.8599997       8.85342051E-38
  -15.8500004       9.35543445E-37
  -15.8400002       7.38392258E-36
  -15.8299999       4.65818450E-35
  -15.8199997       2.44975479E-34
  -15.8100004       1.10467265E-33
  -15.8000002       4.35629390E-33
  -15.7900000       1.52377951E-32
  -15.7799997       4.77607116E-32
  -15.7700005       1.35096157E-31
  -15.7600002       3.46384684E-31
  -15.7500000       8.06467366E-31
  -15.7399998       1.70270959E-30
  -15.7299995       3.24119076E-30
  -15.7200003       5.48803405E-30
  -15.7100000       8.02042918E-30
  -15.6999998       9.35576067E-30
  -15.6899996       6.27757204E-30
  -15.6800003      -6.53542660E-30
  -15.6700001      -3.57986171E-29
  -15.6599998      -8.67934774E-29
  -15.6499996      -1.57616638E-28
  -15.6400003      -2.30853278E-28
  -15.6300001      -2.65319937E-28
  -15.6199999      -1.93565938E-28
  -15.6099997       6.67571073E-29
  -15.6000004       5.80014458E-28
  -15.5900002       1.33635772E-27
  -15.5799999       2.18254798E-27
  -15.5699997       2.76708447E-27
  -15.5600004       2.54250139E-27
  -15.5500002       8.73058422E-28
  -15.5400000      -2.71850597E-27
  -15.5299997      -8.17228621E-27
  -15.5200005      -1.44549963E-26
  -15.5100002      -1.92263167E-26
  -15.5000000      -1.88547340E-26
  -15.4899998      -9.08621777E-27
  -15.4799995       1.33602238E-26
  -15.4700003       4.81967790E-26
  -15.4600000       8.83718039E-26
  -15.4499998       1.17472938E-25
  -15.4399996       1.09909315E-25
  -15.4300003       3.67439762E-26
  -15.4200001      -1.20444910E-25
  -15.4099998      -3.48051003E-25
  -15.3999996      -5.77278550E-25
  -15.3900003      -6.72929118E-25
  -15.3800001      -4.53871566E-25
  -15.3699999       2.36402779E-25
  -15.3599997       1.40629386E-24
  -15.3500004       2.76987701E-24
  -15.3400002       3.65265831E-24
  -15.3299999       3.06019557E-24
  -15.3199997       1.60217080E-26
  -15.3100004      -5.80358105E-24
  -15.3000002      -1.32776776E-23
  -15.2900000      -1.92546511E-23
  -15.2799997      -1.87188489E-23
  -15.2700005      -6.25200824E-24
  -15.2600002       2.10129700E-23
  -15.2500000       5.94938700E-23
  -15.2399998       9.58778704E-23
  -15.2299995       1.06903565E-22
  -15.2200003       6.47931157E-23
  -15.2100000      -5.03280068E-23
  -15.1999998      -2.32651716E-22
  -15.1899996      -4.33460110E-22
  -15.1800003      -5.54550284E-22
  -15.1700001      -4.64139099E-22
  -15.1599998      -4.36172239E-23
  -15.1499996       7.37018532E-22
  -15.1400003       1.73435157E-21
  -15.1300001       2.57606075E-21
  -15.1199999       2.68660912E-21
  -15.1099997       1.44133637E-21
  -15.1000004      -1.53681191E-21
  -15.0900002      -5.98859740E-21
  -15.0799999      -1.06751277E-20
  -15.0699997      -1.32957869E-20
  -15.0600004      -1.09069233E-20
  -15.0500002      -9.94809693E-22
  -15.0400000       1.68756429E-20
  -15.0299997       3.92800963E-20
  -15.0200005       5.78679465E-20
  -15.0100002       6.01076479E-20
  -15.0000000       3.27932426E-20
  -14.9899998      -3.15086214E-20
  -14.9799995      -1.26331327E-19
  -14.9700003      -2.24585378E-19
  -14.9600000      -2.77829340E-19
  -14.9499998      -2.26257679E-19
  -14.9399996      -2.18184396E-20
  -14.9300003       3.38386922E-19
  -14.9200001       7.78755960E-19
  -14.9099998       1.12946736E-18
  -14.8999996       1.14891882E-18
  -14.8900003       5.98930359E-19
  -14.8800001      -6.30375009E-19
  -14.8699999      -2.37718163E-18
  -14.8599997      -4.10784882E-18
  -14.8500004      -4.94043837E-18
  -14.8400002      -3.86139780E-18
  -14.8299999      -1.50868826E-19
  -14.8199997       6.06467773E-18
  -14.8100004       1.33305805E-17
  -14.8000002       1.87404484E-17
  -14.7900000       1.84578571E-17
  -14.7799997       9.02448258E-18
  -14.7700005      -1.07095405E-17
  -14.7600002      -3.76055497E-17
  -14.7500000      -6.31470077E-17
  -14.7399998      -7.43033183E-17
  -14.7299995      -5.70823775E-17
  -14.7200003      -2.63235527E-18
  -14.7100000       8.55539408E-17
  -14.6999998       1.86129217E-16
  -14.6899996       2.59642518E-16
  -14.6800003       2.56615381E-16
  -14.6700001       1.34786288E-16
  -14.6599998      -1.17454671E-16
  -14.6499996      -4.58894869E-16
  -14.6400003      -7.85433429E-16
  -14.6300001      -9.43130317E-16
  -14.6199999      -7.70597753E-16
  -14.6099997      -1.66895997E-16
  -14.6000004       8.32313209E-16
  -14.5900002       1.99999090E-15
  -14.5799999       2.91920207E-15
  -14.5699997       3.06813058E-15
  -14.5600004       1.99255988E-15
  -14.5500002      -4.66413610E-16
  -14.5400000      -3.96089759E-15
  -14.5299997      -7.53898032E-15
  -14.5200005      -9.75656848E-15
  -14.5100002      -9.04781367E-15
  -14.5000000      -4.31709612E-15
  -14.4899998       4.39388643E-15
  -14.4799995       1.54065434E-14
  -14.4700003       2.53525940E-14
  -14.4600000       2.97843991E-14
  -14.4499998       2.44858014E-14
  -14.4399996       7.25258493E-15
  -14.4300003      -2.03746220E-14
  -14.4200001      -5.21351591E-14
  -14.4099998      -7.75274078E-14
  -14.3999996      -8.41417932E-14
  -14.3900003      -6.16753014E-14
  -14.3800001      -6.72975300E-15
  -14.3699999       7.31548950E-14
  -14.3599997       1.58075105E-13
  -14.3500004       2.18478393E-13
  -14.3400002       2.22538567E-13
  -14.3299999       1.47131615E-13
  -14.3199997      -1.03874793E-14
  -14.3100004      -2.23704722E-13
  -14.3000002      -4.36672210E-13
  -14.2900000      -5.73019876E-13
  -14.2799997      -5.56757385E-13
  -14.2700005      -3.39488447E-13
  -14.2600002       7.29070057E-14
  -14.2500000       6.04013747E-13
  -14.2399998       1.11024330E-12
  -14.2299995       1.40893536E-12
  -14.2200003       1.32913298E-12
  -14.2100000       7.74318598E-13
  -14.1999998      -2.21052899E-13
  -14.1899996      -1.46266983E-12
  -14.1800003      -2.61332058E-12
  -14.1700001      -3.26337351E-12
  -14.1599998      -3.04633597E-12
  -14.1499996      -1.77331901E-12
  -14.1400003       4.53422483E-13
  -14.1300001       3.19151194E-12
  -14.1199999       5.70782874E-12
  -14.1099997       7.13630240E-12
  -14.1000004       6.72099702E-12
  -14.0900002       4.08748209E-12
  -14.0799999      -5.38016084E-13
  -14.0699997      -6.24519924E-12
  -14.0600004      -1.15519998E-11
  -14.0500002      -1.47244404E-11
  -14.0400000      -1.42525679E-11
  -14.0299997      -9.36991283E-12
  -14.0200005      -4.64877811E-13
  -14.0100002       1.07676038E-11
  -14.0000000       2.15382677E-11
  -13.9899998       2.85541434E-11
  -13.9799995       2.88894672E-11
  -13.9700003       2.09334494E-11
  -13.9600000       5.14700435E-12
  -13.9499998      -1.56354218E-11
  -13.9399996      -3.65383557E-11
  -13.9300003      -5.16390715E-11
  -13.9200001      -5.54591061E-11
  -13.9099998      -4.46154641E-11
  -13.8999996      -1.91850702E-11
  -13.8900003       1.66600553E-11
  -13.8800001       5.50579894E-11
  -13.8699999       8.59704530E-11
  -13.8599997       9.95704144E-11
  -13.8500004       8.89845073E-11
  -13.8400002       5.26873926E-11
  -13.8299999      -4.17074144E-12
  -13.8199997      -7.00398212E-11
  -13.8100004      -1.29027192E-10
  -13.8000002      -1.64453950E-10
  -13.7900000      -1.63176334E-10
  -13.7799997      -1.19622465E-10
  -13.7700005      -3.84181922E-11
  -13.7600002       6.53049836E-11
  -13.7500000       1.68334888E-10
  -13.7399998       2.44275239E-10
  -13.7299995       2.69959888E-10
  -13.7200003       2.31896266E-10
  -13.7100000       1.31041442E-10
  -13.6999998      -1.55611166E-11
  -13.6899996      -1.77120069E-10
  -13.6800003      -3.15294651E-10
  -13.6700001      -3.93100302E-10
  -13.6599998      -3.84511201E-10
  -13.6499996      -2.82322055E-10
  -13.6400003      -1.02003544E-10
  -13.6300001       1.19910651E-10
  -13.6199999       3.33070599E-10
  -13.6099997       4.84869422E-10
  -13.6000004       5.33693256E-10
  -13.5900002       4.60500443E-10
  -13.5799999       2.75476975E-10
  -13.5699997       1.75214183E-11
  -13.5600004      -2.53942284E-10
  -13.5500002      -4.73260875E-10
  -13.5400000      -5.85542947E-10
  -13.5299997      -5.61853009E-10
  -13.5200005      -4.08203055E-10
  -13.5100002      -1.65297678E-10
  -13.5000000       1.01635422E-10
  -13.4899998       3.20756033E-10
  -13.4799995       4.34598801E-10
  -13.4700003       4.18082874E-10
  -13.4600000       2.87754542E-10
  -13.4499998       9.85275680E-11
  -13.4399996      -7.23902535E-11
  -13.4300003      -1.50711679E-10
  -13.4200001      -9.24045146E-11
  -13.4099998       9.55416649E-11
  -13.3999996       3.48794493E-10
  -13.3900003       5.58300683E-10
  -13.3800001       6.01040162E-10
  -13.3699999       3.82148424E-10
  -13.3599997      -1.23196744E-10
  -13.3500004      -8.41836045E-10
  -13.3400002      -1.60065416E-09
  -13.3299999      -2.15684204E-09
  -13.3199997      -2.25798158E-09
  -13.3100004      -1.71993819E-09
  -13.3000002      -5.02634157E-10
  -13.2900000       1.23974220E-09
  -13.2799997       3.15479975E-09
  -13.2700005       4.74576733E-09
  -13.2600002       5.48008439E-09
  -13.2500000       4.93329111E-09
  -13.2399998       2.93477354E-09
  -13.2299995      -3.25664051E-10
  -13.2200003      -4.26864233E-09
  -13.2100000      -7.99769406E-09
  -13.1999998      -1.04744302E-08
  -13.1899996      -1.07690035E-08
  -13.1800003      -8.33265545E-09
  -13.1700001      -3.22272564E-09
  -13.1599998       3.78983867E-09
  -13.1499996       1.12816423E-08
  -13.1400003       1.74221899E-08
  -13.1300001       2.03721431E-08
  -13.1199999       1.87569782E-08
  -13.1099997       1.21050112E-08
  -13.1000004       1.12912579E-09
  -13.0900002      -1.22473693E-08
  -13.0799999      -2.51694985E-08
  -13.0699997      -3.44104336E-08
  -13.0600004      -3.71123257E-08
  -13.0500002      -3.15457847E-08
  -13.0400000      -1.76973742E-08
  -13.0299997       2.48733811E-09
  -13.0200005       2.53120156E-08
  -13.0100002       4.59931755E-08
  -13.0000000       5.96663270E-08
  -12.9899998       6.25207264E-08
  -12.9799995       5.27911688E-08
  -12.9700003       3.13444382E-08
  -12.9600000       1.67586178E-09
  -12.9499998      -3.07314281E-08
  -12.9399996      -5.95702119E-08
  -12.9300003      -7.91334358E-08
  -12.9200001      -8.56470308E-08
  -12.9099998      -7.81566598E-08
  -12.8999996      -5.87100004E-08
  -12.8900003      -3.17523252E-08
  -12.8800001      -2.86843616E-09
  -12.8699999       2.27983534E-08
  -12.8599997       4.20001669E-08
  -12.8500004       5.42602798E-08
  -12.8400002       6.18527807E-08
  -12.8299999       6.88097970E-08
  -12.8199997       7.91736028E-08
  -12.8100004       9.49735863E-08
  -12.8000002       1.14562475E-07
  -12.7900000       1.31928928E-07
  -12.7799997       1.37400662E-07
  -12.7700005       1.19795899E-07
  -12.7600002       6.96559539E-08
  -12.7500000      -1.71909367E-08
  -12.7399998      -1.36706632E-07
  -12.7299995      -2.75311919E-07
  -12.7200003      -4.10810458E-07
  -12.7100000      -5.15714248E-07
  -12.6999998      -5.62497803E-07
  -12.6899996      -5.29732802E-07
  -12.6800003      -4.07692198E-07
  -12.6700001      -2.01982672E-07
  -12.6599998       6.58898998E-08
  -12.6499996       3.61447064E-07
  -12.6400003       6.43238479E-07
  -12.6300001       8.70687870E-07
  -12.6199999       1.01199419E-06
  -12.6099997       1.05016329E-06
  -12.6000004       9.85603265E-07
  -12.5900002       8.34509251E-07
  -12.5799999       6.23323956E-07
  -12.5699997       3.80617450E-07
  -12.5600004       1.28507722E-07
  -12.5500002      -1.23975923E-07
  -12.5400000      -3.83527890E-07
  -12.5299997      -6.70034410E-07
  -12.5200005      -1.00899058E-06
  -12.5100002      -1.42030535E-06
  -12.5000000      -1.90601963E-06
  -12.4899998      -2.43996192E-06
  -12.4799995      -2.96219400E-06
  -12.4700003      -3.38020914E-06
  -12.4600000      -3.57747649E-06
  -12.4499998      -3.42835756E-06
  -12.4399996      -2.81700659E-06
  -12.4300003      -1.65697929E-06
  -12.4200001       9.19829475E-08
  -12.4099998       2.41300631E-06
  -12.3999996       5.22892788E-06
  -12.3900003       8.40745088E-06
  -12.3800001       1.17736690E-05
  -12.3699999       1.51279055E-05
  -12.3599997       1.82659751E-05
  -12.3500004       2.09989430E-05
  -12.3400002       2.31696558E-05
  -12.3299999       2.46641303E-05
  -12.3199997       2.54167426E-05
  -12.3100004       2.54091156E-05
  -12.3000002       2.46635082E-05
  -12.2900000       2.32322163E-05
  -12.2799997       2.11848783E-05
  -12.2700005       1.85959634E-05
  -12.2600002       1.55345824E-05
  -12.2500000       1.20584255E-05
  -12.2399998       8.21296089E-06
  -12.2299995       4.03599734E-06
  -12.2200003      -4.33345718E-07
  -12.2100000      -5.14345447E-06
  -12.1999998      -1.00198013E-05
  -12.1899996      -1.49584785E-05
  -12.1800003      -1.98264843E-05
  -12.1700001      -2.44701314E-05
  -12.1599998      -2.87312378E-05
  -12.1499996      -3.24684588E-05
  -12.1400003      -3.55795819E-05
  -12.1300001      -3.80194906E-05
  -12.1199999      -3.98090233E-05
  -12.1099997      -4.10314315E-05
  -12.1000004      -4.18159289E-05
  -12.0900002      -4.23110323E-05
  -12.0799999      -4.26530059E-05
  -12.0699997      -4.29364773E-05
  -12.0600004      -4.31943117E-05
  -12.0500002      -4.33916757E-05
  -12.0400000      -4.34360700E-05
  -12.0299997      -4.32009911E-05
  -12.0200005      -4.25570979E-05
  -12.0100002      -4.14028727E-05
  -12.0000000      -3.96863834E-05
  -11.9899998      -3.74121519E-05
  -11.9799995      -3.46312336E-05
  -11.9700003      -3.14171593E-05
  -11.9600000      -2.78349380E-05
  -11.9499998      -2.39124292E-05
  -11.9399996      -1.96235524E-05
  -11.9300003      -1.48897198E-05
  -11.9200001      -9.60106718E-06
  -11.9099998      -3.65353185E-06
  -11.8999996       3.00731222E-06
  -11.8900003       1.03471266E-05
  -11.8800001       1.82196418E-05
  -11.8699999       2.63671900E-05
  -11.8599997       3.44469299E-05
  -11.8500004       4.20782308E-05
  -11.8400002       4.89013437E-05
  -11.8299999       5.46341435E-05
  -11.8199997       5.91144671E-05
  -11.8100004       6.23187152E-05
  -11.8000002       6.43536841E-05
  -11.7900000       6.54249379E-05
  -11.7799997       6.57904020E-05
  -11.7700005       6.57109122E-05
  -11.7600002       6.54087635E-05
  -11.7500000       6.50420698E-05
  -11.7399998       6.46971821E-05
  -11.7299995       6.43961757E-05
  -11.7200003       6.41124207E-05
  -11.7100000       6.37860285E-05
  -11.6999998       6.33328673E-05
  -11.6899996       6.26449837E-05
  -11.6800003       6.15851022E-05
  -11.6700001       5.99818159E-05
  -11.6599998       5.76336497E-05
  -11.6499996       5.43279930E-05
  -11.6400003       4.98762383E-05
  -11.6300001       4.41602569E-05
  -11.6199999       3.71792703E-05
  -11.6099997       2.90832977E-05
  -11.6000004       2.01798830E-05
  -11.5900002       1.09063494E-05
  -11.5799999       1.76786284E-06
  -11.5699997      -6.74858120E-06
  -11.5600004      -1.42663421E-05
  -11.5500002      -2.05957858E-05
  -11.5400000      -2.57754564E-05
  -11.5299997      -3.00650081E-05
  -11.5200005      -3.38884238E-05
  -11.5100002      -3.77382239E-05
  -11.5000000      -4.20617107E-05
  -11.4899998      -4.71552230E-05
  -11.4799995      -5.30912184E-05
  -11.4700003      -5.96954014E-05
  -11.4600000      -6.65791304E-05
  -11.4499998      -7.32188055E-05
  -11.4399996      -7.90631821E-05
  -11.4300003      -8.36430554E-05
  -11.4200001      -8.66583505E-05
  -11.4099998      -8.80242733E-05
  -11.3999996      -8.78686988E-05
  -11.3900003      -8.64855028E-05
  -11.3800001      -8.42584122E-05
  -11.3699999      -8.15760213E-05
  -11.3599997      -7.87583922E-05
  -11.3500004      -7.60109979E-05
  -11.3400002      -7.34130081E-05
  -11.3299999      -7.09378073E-05
  -11.3199997      -6.84954648E-05
  -11.3100004      -6.59832949E-05
  -11.3000002      -6.33299205E-05
  -11.2900000      -6.05222995E-05
  -11.2799997      -5.76107268E-05
  -11.2700005      -5.46933188E-05
  -11.2600002      -5.18859997E-05
  -11.2500000      -4.92873151E-05
  -11.2399998      -4.69470287E-05
  -11.2299995      -4.48461651E-05
  -11.2200003      -4.28927124E-05
  -11.2100000      -4.09341847E-05
  -11.1999998      -3.87850960E-05
  -11.1899996      -3.62649771E-05
  -11.1800003      -3.32409218E-05
  -11.1700001      -2.96673952E-05
  -11.1599998      -2.56157364E-05
  -11.1499996      -2.12860359E-05
  -11.1400003      -1.69961331E-05
  -11.1300001      -1.31456582E-05
  -11.1199999      -1.01576425E-05
  -11.1099997      -8.40583107E-06
  -11.1000004      -8.14005489E-06
  -11.0900002      -9.42499355E-06
  -11.0799999      -1.21067369E-05
  -11.0699997      -1.58172970E-05
  -11.0600004      -2.00196773E-05
  -11.0500002      -2.40872323E-05
  -11.0400000      -2.74029335E-05
  -11.0299997      -2.94590136E-05
  -11.0200005      -2.99372350E-05
  -11.0100002      -2.87543062E-05
  -11.0000000      -2.60652414E-05
  -10.9899998      -2.22269500E-05
  -10.9799995      -1.77326747E-05
  -10.9700003      -1.31326160E-05
  -10.9600000      -8.95645917E-06
  -10.9499998      -5.64955917E-06
  -10.9399996      -3.52861821E-06
  -10.9300003      -2.75672232E-06
  -10.9200001      -3.33385947E-06
  -10.9099998      -5.09879965E-06
  -10.8999996      -7.74036198E-06
  -10.8900003      -1.08198092E-05
  -10.8800001      -1.38081896E-05
  -10.8699999      -1.61417629E-05
  -10.8599997      -1.72941654E-05
  -10.8500004      -1.68573151E-05
  -10.8400002      -1.46162511E-05
  -10.8299999      -1.05995987E-05
  -10.8199997      -5.08936637E-06
  -10.8100004       1.41839337E-06
  -10.8000002       8.29819601E-06
  -10.7900000       1.49082043E-05
  -10.7799997       2.07059111E-05
  -10.7700005       2.53382677E-05
  -10.7600002       2.86848554E-05
  -10.7500000       3.08461204E-05
  -10.7399998       3.20848958E-05
  -10.7299995       3.27432062E-05
  -10.7200003       3.31623669E-05
  -10.7100000       3.36305966E-05
  -10.6999998       3.43697975E-05
  -10.6899996       3.55563643E-05
  -10.6800003       3.73559524E-05
  -10.6700001       3.99453093E-05
  -10.6599998       4.34987269E-05
  -10.6499996       4.81316347E-05
  -10.6400003       5.38143831E-05
  -10.6300001       6.02873042E-05
  -10.6199999       6.70170411E-05
  -10.6099997       7.32277258E-05
  -10.6000004       7.80203991E-05
  -10.5900002       8.05649470E-05
  -10.5799999       8.03198855E-05
  -10.5699997       7.72184649E-05
  -10.5600004       7.17591101E-05
  -10.5500002       6.49604117E-05
  -10.5400000       5.81764689E-05
  -10.5299997       5.28093333E-05
  -10.5200005       4.99889320E-05
  -10.5100002       5.03041047E-05
  -10.5000000       5.36580301E-05
  -10.4899998       5.92881552E-05
  -10.4799995       6.59450816E-05
  -10.4700003       7.21804608E-05
  -10.4600000       7.66646990E-05
  -10.4499998       7.84497897E-05
  -10.4399996       7.71133418E-05
  -10.4300003       7.27579973E-05
  -10.4200001       6.58855643E-05
  -10.4099998       5.72002064E-05
  -10.3999996       4.74107219E-05
  -10.3900003       3.70934067E-05
  -10.3800001       2.66478364E-05
  -10.3699999       1.63407040E-05
  -10.3599997       6.39948530E-06
  -10.3500004      -2.89843479E-06
  -10.3400002      -1.11902418E-05
  -10.3299999      -1.80698462E-05
  -10.3199997      -2.31977683E-05
  -10.3100004      -2.64378923E-05
  -10.3000002      -2.79651031E-05
  -10.2900000      -2.82941091E-05
  -10.2799997      -2.82055189E-05
  -10.2700005      -2.85814494E-05
  -10.2600002      -3.01962573E-05
  -10.2500000      -3.35258956E-05
  -10.2399998      -3.86355423E-05
  -10.2299995      -4.51797350E-05
  -10.2200003      -5.25122523E-05
  -10.2100000      -5.98665029E-05
  -10.1999998      -6.65453044E-05
  -10.1899996      -7.20589160E-05
  -10.1800003      -7.61720003E-05
  -10.1700001      -7.88559628E-05
  -10.1599998      -8.01788919E-05
  -10.1499996      -8.01879723E-05
  -10.1400003      -7.88403850E-05
  -10.1300001      -7.60170296E-05
  -10.1199999      -7.16171999E-05
  -10.1099997      -6.56961929E-05
  -10.1000004      -5.85842790E-05
  -10.0900002      -5.09263482E-05
  -10.0799999      -4.36059636E-05
  -10.0699997      -3.75596101E-05
  -10.0600004      -3.35298246E-05
  -10.0500002      -3.18353959E-05
  -10.0400000      -3.22397173E-05
  -10.0299997      -3.39724247E-05
  -10.0200005      -3.59120531E-05
  -10.0100002      -3.68838519E-05
  -10.0000000      -3.59854312E-05
  -9.98999977      -3.28390415E-05
  -9.97999954      -2.76885621E-05
  -9.97000027      -2.13069234E-05
  -9.96000004      -1.47403416E-05
  -9.94999981      -8.96991332E-06
  -9.93999958      -4.59969260E-06
  -9.93000031      -1.67377914E-06
  -9.92000008       3.16019907E-07
  -9.90999985       2.23238089E-06
  -9.89999962       4.96845814E-06
  -9.89000034       9.10460949E-06
  -9.88000011       1.46619032E-05
  -9.86999989       2.10386370E-05
  -9.85999966       2.71579756E-05
  -9.85000038       3.17860431E-05
  -9.84000015       3.39232356E-05
  -9.82999992       3.31455340E-05
  -9.81999969       2.97862371E-05
  -9.81000042       2.48973411E-05
  -9.80000019       1.99984861E-05
  -9.78999996       1.66880000E-05
  -9.77999973       1.62334400E-05
  -9.77000046       1.92650041E-05
  -9.76000023       2.56619751E-05
  -9.75000000       3.46612360E-05
  -9.73999977       4.51473425E-05
  -9.72999954       5.60287554E-05
  -9.72000027       6.65799525E-05
  -9.71000004       7.66447993E-05
  -9.69999981       8.66433402E-05
  -9.68999958       9.73890928E-05
  -9.68000031       1.09784094E-04
  -9.67000008       1.24494560E-04
  -9.65999985       1.41711338E-04
  -9.64999962       1.61065895E-04
  -9.64000034       1.81716605E-04
  -9.63000011       2.02562471E-04
  -9.61999989       2.22500777E-04
  -9.60999966       2.40635360E-04
  -9.60000038       2.56367086E-04
  -9.59000015       2.69346754E-04
  -9.57999992       2.79326603E-04
  -9.56999969       2.85986142E-04
  -9.56000042       2.88820796E-04
  -9.55000019       2.87157047E-04
  -9.53999996       2.80307198E-04
  -9.52999973       2.67818308E-04
  -9.52000046       2.49723002E-04
  -9.51000023       2.26686374E-04
  -9.50000000       1.99970294E-04
  -9.48999977       1.71193547E-04
  -9.47999954       1.41941797E-04
  -9.47000027       1.13341048E-04
  -9.46000004       8.57353079E-05
  -9.44999981       5.85877424E-05
  -9.43999958       3.06596849E-05
  -9.43000031       4.31568850E-07
  -9.42000008      -3.33530479E-05
  -9.40999985      -7.11895336E-05
  -9.39999962      -1.12524547E-04
  -9.39000034      -1.55781774E-04
  -9.38000011      -1.98705879E-04
  -9.36999989      -2.38923269E-04
  -9.35999966      -2.74544174E-04
  -9.35000038      -3.04608839E-04
  -9.34000015      -3.29229195E-04
  -9.32999992      -3.49374313E-04
  -9.31999969      -3.66368360E-04
  -9.31000042      -3.81268561E-04
  -9.30000019      -3.94335511E-04
  -9.28999996      -4.04782913E-04
  -9.27999973      -4.10901092E-04
  -9.27000046      -4.10523469E-04
  -9.26000023      -4.01686935E-04
  -9.25000000      -3.83267616E-04
  -9.23999977      -3.55376193E-04
  -9.22999954      -3.19378480E-04
  -9.22000027      -2.77528627E-04
  -9.21000004      -2.32338440E-04
  -9.19999981      -1.85892262E-04
  -9.18999958      -1.39338532E-04
  -9.18000031      -9.27262663E-05
  -9.17000008      -4.52331369E-05
  -9.15999985       4.30309046E-06
  -9.14999962       5.67464631E-05
  -9.14000034       1.12148715E-04
  -9.13000011       1.69547333E-04
  -9.11999989       2.27147320E-04
  -9.10999966       2.82821828E-04
  -9.10000038       3.34749580E-04
  -9.09000015       3.81954043E-04
  -9.07999992       4.24544938E-04
  -9.06999969       4.63566859E-04
  -9.06000042       5.00502356E-04
  -9.05000019       5.36603271E-04
  -9.03999996       5.72288525E-04
  -9.02999973       6.06827671E-04
  -9.02000046       6.38430240E-04
  -9.01000023       6.64716412E-04
  -9.00000000       6.83412014E-04
  -8.98999977       6.93026755E-04
  -8.97999954       6.93282927E-04
  -8.97000027       6.85147825E-04
  -8.96000004       6.70466223E-04
  -8.94999981       6.51325914E-04
  -8.93999958       6.29386865E-04
  -8.93000031       6.05410081E-04
  -8.92000008       5.79146959E-04
  -8.90999985       5.49617049E-04
  -8.89999962       5.15659980E-04
  -8.89000034       4.76546847E-04
  -8.88000011       4.32419649E-04
  -8.86999989       3.84391227E-04
  -8.85999966       3.34268290E-04
  -8.85000038       2.84001115E-04
  -8.84000015       2.35066327E-04
  -8.82999992       1.88016711E-04
  -8.81999969       1.42371136E-04
  -8.81000042       9.68935201E-05
  -8.80000019       5.01639770E-05
  -8.78999996       1.23836196E-06
  -8.77999973      -4.98467343E-05
  -8.77000046      -1.01908154E-04
  -8.76000023      -1.52859240E-04
  -8.75000000      -2.00278562E-04
  -8.73999977      -2.42107504E-04
  -8.72999954      -2.77231244E-04
  -8.72000027      -3.05739901E-04
  -8.71000004      -3.28781898E-04
  -8.69999981      -3.48066125E-04
  -8.68999958      -3.65196349E-04
  -8.68000031      -3.81076388E-04
  -8.67000008      -3.95598006E-04
  -8.65999985      -4.07718471E-04
  -8.64999962      -4.15892864E-04
  -8.64000034      -4.18699346E-04
  -8.63000011      -4.15428687E-04
  -8.61999989      -4.06423991E-04
  -8.60999966      -3.93049995E-04
  -8.60000038      -3.77305376E-04
  -8.59000015      -3.61217215E-04
  -8.57999992      -3.46234010E-04
  -8.56999969      -3.32827098E-04
  -8.56000042      -3.20434454E-04
  -8.55000019      -3.07754322E-04
  -8.53999996      -2.93275516E-04
  -8.52999973      -2.75849568E-04
  -8.52000046      -2.55106279E-04
  -8.51000023      -2.31574886E-04
  -8.50000000      -2.06488359E-04
  -8.48999977      -1.81359806E-04
  -8.47999954      -1.57499890E-04
  -8.47000027      -1.35657130E-04
  -8.46000004      -1.15908442E-04
  -8.44999981      -9.78277531E-05
  -8.43999958      -8.08559198E-05
  -8.43000031      -6.47189227E-05
  -8.42000008      -4.97271139E-05
  -8.40999985      -3.68349974E-05
  -8.39999962      -2.74318409E-05
  -8.39000034      -2.29348352E-05
  -8.38000011      -2.43275354E-05
  -8.36999989      -3.18073726E-05
  -8.35999966      -4.46646191E-05
  -8.35000038      -6.14330638E-05
  -8.34000015      -8.02571158E-05
  -8.32999992      -9.93476933E-05
  -8.31999969      -1.17374111E-04
  -8.31000042      -1.33668320E-04
  -8.30000019      -1.48190782E-04
  -8.28999996      -1.61292483E-04
  -8.27999973      -1.73377222E-04
  -8.27000046      -1.84596967E-04
  -8.26000023      -1.94692693E-04
  -8.25000000      -2.03033298E-04
  -8.23999977      -2.08829413E-04
  -8.22999954      -2.11434715E-04
  -8.22000027      -2.10619328E-04
  -8.21000004      -2.06711207E-04
  -8.19999981      -2.00554176E-04
  -8.18999958      -1.93294225E-04
  -8.18000031      -1.86067438E-04
  -8.17000008      -1.79691371E-04
  -8.15999985      -1.74457105E-04
  -8.14999962      -1.70080981E-04
  -8.14000034      -1.65819045E-04
  -8.13000011      -1.60696218E-04
  -8.11999989      -1.53770568E-04
  -8.10999966      -1.44351114E-04
  -8.10000038      -1.32112051E-04
  -8.09000015      -1.17087373E-04
  -8.07999992      -9.95692826E-05
  -8.06999969      -7.99602349E-05
  -8.06000042      -5.86345559E-05
  -8.05000019      -3.58509205E-05
  -8.03999996      -1.17311320E-05
  -8.02999973       1.37041980E-05
  -8.02000046       4.04709863E-05
  -8.01000023       6.85579798E-05
  -8.00000000       9.78865573E-05
  -7.98999977       1.28300191E-04
  -7.98000002       1.59577132E-04
  -7.96999979       1.91451967E-04
  -7.96000004       2.23634488E-04
  -7.94999981       2.55819061E-04
  -7.94000006       2.87688803E-04
  -7.92999983       3.18921549E-04
  -7.92000008       3.49202659E-04
  -7.90999985       3.78245633E-04
  -7.90000010       4.05811879E-04
  -7.88999987       4.31719265E-04
  -7.88000011       4.55831090E-04
  -7.86999989       4.78026021E-04
  -7.86000013       4.98160487E-04
  -7.84999990       5.16041007E-04
  -7.84000015       5.31422906E-04
  -7.82999992       5.44044946E-04
  -7.82000017       5.53687045E-04
  -7.80999994       5.60231099E-04
  -7.80000019       5.63691428E-04
  -7.78999996       5.64192247E-04
  -7.78000021       5.61885070E-04
  -7.76999998       5.56826766E-04
  -7.76000023       5.48861164E-04
  -7.75000000       5.37555548E-04
  -7.73999977       5.22235874E-04
  -7.73000002       5.02133393E-04
  -7.71999979       4.76617512E-04
  -7.71000004       4.45452402E-04
  -7.69999981       4.08996799E-04
  -7.69000006       3.68271925E-04
  -7.67999983       3.24856548E-04
  -7.67000008       2.80621258E-04
  -7.65999985       2.37366999E-04
  -7.65000010       1.96469191E-04
  -7.63999987       1.58632436E-04
  -7.63000011       1.23836769E-04
  -7.61999989       9.14920311E-05
  -7.61000013       6.07551556E-05
  -7.59999990       3.09099341E-05
  -7.59000015       1.68582631E-06
  -7.57999992      -2.65900690E-05
  -7.57000017      -5.30587604E-05
  -7.55999994      -7.65916047E-05
  -7.55000019      -9.61601909E-05
  -7.53999996      -1.11186804E-04
  -7.53000021      -1.21751327E-04
  -7.51999998      -1.28578744E-04
  -7.51000023      -1.32805566E-04
  -7.50000000      -1.35599417E-04
  -7.48999977      -1.37762661E-04
  -7.48000002      -1.39457901E-04
  -7.46999979      -1.40156713E-04
  -7.46000004      -1.38837771E-04
  -7.44999981      -1.34373913E-04
  -7.44000006      -1.25978593E-04