  -16.0000000       0.00000000    
  -15.9899998       0.00000000    
  -15.9799995       0.00000000    
  -15.9700003       0.00000000    
  -15.9600000       0.00000000    
  -15.9499998       0.00000000    
  -15.9399996       0.00000000    
  -15.9300003       0.00000000    
  -15.9200001       0.00000000    
  -15.9099998       0.00000000    
  -15.8999996       0.00000000    
  -15.8900003       0.00000000    
  -15.8800001      -0.00000000    
  -15.8699999      -0.00000000    
  -15.8599997       0.00000000    
  -15.8500004       0.00000000    
  -15.8400002      -1.96181785E-44
  -15.8299999      -2.97075274E-43
  -15.8199997      -2.67227617E-42
  -15.8100004      -1.77166165E-41
  -15.8000002      -9.49295632E-41
  -15.7900000      -4.31056223E-40
  -15.7799997      -1.70717810E-39
  -15.7700005      -6.00958477E-39
  -15.7600002      -1.90465706E-38
  -15.7500000      -5.48256847E-38
  -15.7399998      -1.44137291E-37
  -15.7299995      -3.47115418E-37
  -15.7200003      -7.66020232E-37
  -15.7100000      -1.54506245E-36
  -15.6999998      -2.82907335E-36
  -15.6899996      -4.63734028E-36
  -15.6800003      -6.60890489E-36
  -15.6700001      -7.61920225E-36
  -15.6599998      -5.38494256E-36
  -15.6499996       3.63317653E-36
  -15.6400003       2.35234844E-35
  -15.6300001       5.68830556E-35
  -15.6199999       1.01319210E-34
  -15.6099997       1.45364673E-34
  -15.6000004       1.66069239E-34
  -15.5900002       1.31495137E-34
  -15.5799999       1.05322263E-35
  -15.5699997      -2.11231720E-34
  -15.5600004      -5.16751862E-34
  -15.5500002      -8.55339464E-34
  -15.5400000      -1.16052370E-33
  -15.5299997      -1.37764861E-33
  -15.5200005      -1.46294726E-33
  -15.5100002      -1.29862408E-33
  -15.5000000      -4.99816111E-34
  -15.4899998       1.79603433E-33
  -15.4799995       6.87967032E-33
  -15.4700003       1.57294266E-32
  -15.4600000       2.72460606E-32
  -15.4499998       3.57258565E-32
  -15.4399996       2.90034717E-32
  -15.4300003      -9.95324201E-33
  -15.4200001      -9.47254725E-32
  -15.4099998      -2.19017285E-31
  -15.3999996      -3.36150947E-31
  -15.3900003      -3.46858149E-31
  -15.3800001      -1.15239965E-31
  -15.3699999       4.67728215E-31
  -15.3599997       1.37041520E-30
  -15.3500004       2.29014944E-30
  -15.3400002       2.58771652E-30
  -15.3299999       1.40208979E-30
  -15.3199997      -1.95842287E-30
  -15.3100004      -7.36088017E-30
  -15.3000002      -1.31417079E-29
  -15.2900000      -1.57969273E-29
  -15.2799997      -1.06441454E-29
  -15.2700005       6.12587496E-30
  -15.2600002       3.41698431E-29
  -15.2500000       6.56061114E-29
  -15.2399998       8.36480968E-29
  -15.2299995       6.58011359E-29
  -15.2200003      -6.74014994E-30
  -15.2100000      -1.34524473E-28
  -15.1999998      -2.85190238E-28
  -15.1899996      -3.87701494E-28
  -15.1800003      -3.45616025E-28
  -15.1700001      -7.52777223E-29
  -15.1599998       4.36045369E-28
  -15.1499996       1.07249222E-27
  -15.1400003       1.56659658E-27
  -15.1300001       1.54781973E-27
  -15.1199999       6.82245757E-28
  -15.1099997      -1.11693460E-27
  -15.1000004      -3.48230436E-27
  -15.0900002      -5.50750521E-27
  -15.0799999      -5.90850617E-27
  -15.0699997      -3.49143712E-27
  -15.0600004       2.14768807E-27
  -15.0500002       9.93948024E-27
  -15.0400000       1.70584700E-26
  -15.0299997       1.94270572E-26
  -15.0200005       1.31807441E-26
  -15.0100002      -3.15715616E-27
  -15.0000000      -2.65691743E-26
  -14.9899998      -4.86760089E-26
  -14.9799995      -5.72501381E-26
  -14.9700003      -4.05951427E-26
  -14.9600000       5.99343428E-27
  -14.9499998       7.39911470E-26
  -14.9399996       1.39033000E-25
  -14.9300003       1.65203226E-25
  -14.9200001       1.17602743E-25
  -14.9099998      -1.90042509E-26
  -14.8999996      -2.21895676E-25
  -14.8900003      -4.21926150E-25
  -14.8800001      -5.14119486E-25
  -14.8699999      -3.91559073E-25
  -14.8599997       2.62775211E-27
  -14.8500004       6.21692898E-25
  -14.8400002       1.28508626E-24
  -14.8299999       1.69702499E-24
  -14.8199997       1.52773041E-24
  -14.8100004       5.48448099E-25
  -14.8000002      -1.21693963E-24
  -14.7900000      -3.38391431E-24
  -14.7799997      -5.20857758E-24
  -14.7700005      -5.74261472E-24
  -14.7600002      -4.13841046E-24
  -14.7500000      -3.72632716E-26
  -14.7399998       6.08381363E-24
  -14.7299995       1.27570452E-23
  -14.7200003       1.76858497E-23
  -14.7100000       1.82692439E-23
  -14.6999998       1.24168237E-23
  -14.6899996      -5.37213981E-25
  -14.6800003      -1.90926348E-23
  -14.6700001      -3.92946984E-23
  -14.6599998      -5.51057776E-23
  -14.6499996      -5.95070724E-23
  -14.6400003      -4.62353207E-23
  -14.6300001      -1.19020620E-23
  -14.6199999       4.18884794E-23
  -14.6099997       1.06915593E-22
  -14.6000004       1.67802730E-22
  -14.5900002       2.03221197E-22
  -14.5799999       1.89454880E-22
  -14.5699997       1.06654020E-22
  -14.5600004      -5.25938078E-23
  -14.5500002      -2.73901720E-22
  -14.5400000      -5.13900546E-22
  -14.5299997      -6.99408875E-22
  -14.5200005      -7.37326553E-22
  -14.5100002      -5.37945431E-22
  -14.5000000      -5.03531683E-23
  -14.4899998       6.97333906E-22
  -14.4799995       1.56651832E-21
  -14.4700003       2.30308792E-21
  -14.4600000       2.57503102E-21
  -14.4499998       2.05978413E-21
  -14.4399996       5.71497237E-22
  -14.4300003      -1.80292799E-21
  -14.4200001      -4.60881086E-21
  -14.4099998      -7.02636051E-21
  -14.3999996      -8.01448025E-21
  -14.3900003      -6.60236420E-21
  -14.3800001      -2.28003894E-21
  -14.3699999       4.62042936E-21
  -14.3599997       1.27023277E-20
  -14.3500004       1.95882977E-20
  -14.3400002       2.23994597E-20
  -14.3299999       1.86017346E-20
  -14.3199997       7.04234593E-21
  -14.3100004      -1.11358067E-20
  -14.3000002      -3.20798898E-20
  -14.2900000      -4.96364655E-20
  -14.2799997      -5.67151669E-20
  -14.2700005      -4.74334218E-20
  -14.2600002      -1.95300525E-20
  -14.2500000       2.37186964E-20
  -14.2399998       7.29042289E-20
  -14.2299995       1.13810113E-19
  -14.2200003       1.30752582E-19
  -14.2100000       1.11359448E-19
  -14.1999998       5.15505323E-20
  -14.1899996      -4.09052962E-20
  -14.1800003      -1.45816562E-19
  -14.1700001      -2.33909074E-19
  -14.1599998      -2.73915147E-19
  -14.1499996      -2.41961496E-19
  -14.1400003      -1.30714997E-19
  -14.1300001       4.47195714E-20
  -14.1199999       2.46702042E-19
  -14.1099997       4.21942349E-19
  -14.1000004       5.14518439E-19
  -14.0900002       4.82055012E-19
  -14.0799999       3.10581970E-19
  -14.0699997       2.32914076E-20
  -14.0600004      -3.20412133E-19
  -14.0500002      -6.36640851E-19
  -14.0400000      -8.37428140E-19
  -14.0299997      -8.54732861E-19
  -14.0200005      -6.61345324E-19
  -14.0100002      -2.82211614E-19
  -14.0000000       2.07927150E-19
  -13.9899998       7.00884764E-19
  -13.9799995       1.08145469E-18
  -13.9700003       1.25668794E-18
  -13.9600000       1.17963648E-18
  -13.9499998       8.60627092E-19
  -13.9399996       3.62734518E-19
  -13.9300003      -2.16828234E-19
  -13.9200001      -7.73285970E-19
  -13.9099998      -1.22009564E-18
  -13.8999996      -1.50547285E-18
  -13.8900003      -1.61453155E-18
  -13.8800001      -1.55700093E-18
  -13.8699999      -1.34629166E-18
  -13.8599997      -9.79396218E-19
  -13.8500004      -4.28195938E-19
  -13.8400002       3.50225971E-19
  -13.8299999       1.38279835E-18
  -13.8199997       2.63570370E-18
  -13.8100004       3.96955911E-18
  -13.8000002       5.11325459E-18
  -13.7900000       5.67527295E-18
  -13.7799997       5.20540169E-18
  -13.7700005       3.30846147E-18
  -13.7600002      -2.04390345E-19
  -13.7500000      -5.15803071E-18
  -13.7399998      -1.08956081E-17
  -13.7299995      -1.62532007E-17
  -13.7200003      -1.96734652E-17
  -13.7100000      -1.94822359E-17
  -13.6999998      -1.43132769E-17
  -13.6899996      -3.61579754E-18
  -13.6800003       1.18721089E-17
  -13.6700001       2.98368481E-17
  -13.6599998       4.64462774E-17
  -13.6499996       5.68631085E-17
  -13.6400003       5.62322211E-17
  -13.6300001       4.10235129E-17
  -13.6199999       1.04620977E-17
  -13.6099997      -3.23417098E-17
  -13.6000004      -7.99918328E-17
  -13.5900002      -1.21488969E-16
  -13.5799999      -1.44141966E-16
  -13.5699997      -1.36536854E-16
  -13.5600004      -9.20299709E-17
  -13.5500002      -1.19211558E-17
  -13.5400000       9.26839597E-17
  -13.5299997       2.01211750E-16
  -13.5200005       2.86654955E-16
  -13.5100002       3.21159636E-16
  -13.5000000       2.83260047E-16
  -13.4899998       1.65167031E-16
  -13.4799995      -2.18865919E-17
  -13.4700003      -2.46165880E-16
  -13.4600000      -4.59105092E-16
  -13.4499998      -6.04290933E-16
  -13.4399996      -6.30487068E-16
  -13.4300003      -5.06062375E-16
  -13.4200001      -2.31257200E-16
  -13.4099998       1.55412599E-16
  -13.3999996       5.79468474E-16
  -13.3900003       9.42570111E-16
  -13.3800001       1.14308155E-15
  -13.3699999       1.10130578E-15
  -13.3599997       7.83651854E-16
  -13.3500004       2.19323644E-16
  -13.3400002      -4.96089145E-16
  -13.3299999      -1.21323441E-15
  -13.3199997      -1.75730389E-15
  -13.3100004      -1.96735980E-15
  -13.3000002      -1.73846429E-15
  -13.2900000      -1.05641420E-15
  -13.2799997      -1.52192183E-17
  -13.2700005       1.18960536E-15
  -13.2600002       2.29381075E-15
  -13.2500000       3.01877524E-15
  -13.2399998       3.13703861E-15
  -13.2299995       2.53431495E-15
  -13.2200003       1.25234266E-15
  -13.2100000      -5.00433047E-16
  -13.1999998      -2.37698007E-15
  -13.1899996      -3.95652690E-15
  -13.1800003      -4.83485348E-15
  -13.1700001      -4.72123290E-15
  -13.1599998      -3.51961460E-15
  -13.1499996      -1.37302071E-15
  -13.1400003       1.34323438E-15
  -13.1300001       4.08295673E-15
  -13.1199999       6.23610855E-15
  -13.1099997       7.26075795E-15
  -13.1000004       6.81167718E-15
  -13.0900002       4.83591057E-15
  -13.0799999       1.61082278E-15
  -13.0699997      -2.28830991E-15
  -13.0600004      -6.08906448E-15
  -13.0500002      -8.97332474E-15
  -13.0400000      -1.02496298E-14
  -13.0299997      -9.51014797E-15
  -13.0200005      -6.73769139E-15
  -13.0100002      -2.33729954E-15
  -13.0000000       2.91835906E-15
  -12.9899998       8.02282079E-15
  -12.9799995       1.19255115E-14
  -12.9700003       1.37416188E-14
  -12.9600000       1.29412142E-14
  -12.9499998       9.47933630E-15
  -12.9399996       3.83848100E-15
  -12.9300003      -3.02944637E-15
  -12.9200001      -9.85630069E-15
  -12.9099998      -1.52825242E-14
  -12.8999996      -1.81157223E-14
  -12.8900003      -1.75762386E-14
  -12.8800001      -1.34819964E-14
  -12.8699999      -6.33268852E-15
  -12.8599997       2.73136764E-15
  -12.8500004       1.20985943E-14
  -12.8400002       1.99619492E-14
  -12.8299999       2.46563261E-14
  -12.8199997       2.49956492E-14
  -12.8100004       2.05413553E-14
  -12.8000002       1.17417698E-14
  -12.7900000      -9.73057553E-17
  -12.7799997      -1.30168152E-14
  -12.7700005      -2.47521357E-14
  -12.7600002      -3.31582770E-14
  -12.7500000      -3.66233567E-14
  -12.7399998      -3.43794986E-14
  -12.7299995      -2.66382392E-14
  -12.7200003      -1.45167251E-14
  -12.7100000       2.27429511E-16
  -12.6999998       1.55857027E-14
  -12.6899996       2.97111274E-14
  -12.6800003       4.12414955E-14
  -12.6700001       4.94443387E-14
  -12.6599998       5.41434539E-14
  -12.6499996       5.54516794E-14
  -12.6400003       5.34005078E-14
  -12.6300001       4.75995281E-14
  -12.6199999       3.70667073E-14
  -12.6099997       2.03362260E-14
  -12.6000004      -4.12260676E-15
  -12.5900002      -3.72339082E-14
  -12.5799999      -7.85400933E-14
  -12.5699997      -1.25531990E-13
  -12.5600004      -1.73303510E-13
  -12.5500002      -2.14701344E-13
  -12.5400000      -2.41039583E-13
  -12.5299997      -2.43320229E-13
  -12.5200005      -2.13773389E-13
  -12.5100002      -1.47437320E-13
  -12.5000000      -4.34710929E-14
  -12.4899998       9.40622160E-14
  -12.4799995       2.56095655E-13
  -12.4700003       4.29147684E-13
  -12.4600000       5.96456098E-13
  -12.4499998       7.39398234E-13
  -12.4399996       8.38907015E-13
  -12.4300003       8.76619036E-13
  -12.4200001       8.35612016E-13
  -12.4099998       7.00718129E-13
  -12.3999996       4.58554852E-13
  -12.3900003       9.75030061E-14
  -12.3800001      -3.92128495E-13
  -12.3699999      -1.01757155E-12
  -12.3599997      -1.78264684E-12
  -12.3500004      -2.68648732E-12
  -12.3400002      -3.72217101E-12
  -12.3299999      -4.87553487E-12
  -12.3199997      -6.12444080E-12
  -12.3100004      -7.43863911E-12
  -12.3000002      -8.78027165E-12
  -12.2900000      -1.01048813E-11
  -12.2799997      -1.13627449E-11
  -12.2700005      -1.25003358E-11
  -12.2600002      -1.34618584E-11
  -12.2500000      -1.41909609E-11
  -12.2399998      -1.46326926E-11
  -12.2299995      -1.47360648E-11
  -12.2200003      -1.44571854E-11
  -12.2100000      -1.37629109E-11
  -12.1999998      -1.26345158E-11
  -12.1899996      -1.10706912E-11
  -12.1800003      -9.08881304E-12
  -12.1700001      -6.72385411E-12
  -12.1599998      -4.02444744E-12
  -12.1499996      -1.04623591E-12
  -12.1400003       2.15630443E-12
  -12.1300001       5.53801189E-12
  -12.1199999       9.06923928E-12
  -12.1099997       1.27378785E-11
  -12.1000004       1.65463511E-11
  -12.0900002       2.05032658E-11
  -12.0799999       2.46111621E-11
  -12.0699997       2.88528455E-11
  -12.0600004       3.31797610E-11
  -12.0500002       3.75056548E-11
  -12.0400000       4.17083694E-11
  -12.0299997       4.56403769E-11
  -12.0200005       4.91469331E-11
  -12.0100002       5.20889443E-11
  -12.0000000       5.43652207E-11
  -11.9899998       5.59293584E-11
  -11.9799995       5.67964911E-11
  -11.9700003       5.70374303E-11
  -11.9600000       5.67602632E-11
  -11.9499998       5.60825171E-11
  -11.9399996       5.50995326E-11
  -11.9300003       5.38553924E-11
  -11.9200001       5.23241520E-11
  -11.9099998       5.04048053E-11
  -11.8999996       4.79335946E-11
  -11.8900003       4.47108357E-11
  -11.8800001       4.05381735E-11
  -11.8699999       3.52586779E-11
  -11.8599997       2.87915438E-11
  -11.8500004       2.11545659E-11
  -11.8400002       1.24693441E-11
  -11.8299999       2.94770154E-12
  -11.8199997      -7.13740872E-12
  -11.8100004      -1.74916071E-11
  -11.8000002      -2.78412449E-11
  -11.7900000      -3.79702172E-11
  -11.7799997      -4.77450961E-11
  -11.7700005      -5.71237294E-11
  -11.7600002      -6.61476082E-11
  -11.7500000      -7.49197648E-11
  -11.7399998      -8.35731415E-11
  -11.7299995      -9.22361562E-11
  -11.7200003      -1.01001194E-10
  -11.7100000      -1.09900887E-10
  -11.6999998      -1.18895616E-10
  -11.6899996      -1.27872227E-10
  -11.6800003      -1.36653258E-10
  -11.6700001      -1.45013224E-10
  -11.6599998      -1.52700172E-10
  -11.6499996      -1.59457433E-10
  -11.6400003      -1.65045103E-10
  -11.6300001      -1.69258038E-10
  -11.6199999      -1.71939823E-10
  -11.6099997      -1.72992412E-10
  -11.6000004      -1.72379874E-10
  -11.5900002      -1.70126094E-10
  -11.5799999      -1.66307024E-10
  -11.5699997      -1.61036059E-10
  -11.5600004      -1.54445623E-10
  -11.5500002      -1.46665777E-10
  -11.5400000      -1.37803310E-10
  -11.5299997      -1.27926295E-10
  -11.5200005      -1.17054907E-10
  -11.5100002      -1.05162747E-10
  -11.5000000      -9.21870358E-11
  -11.4899998      -7.80474643E-11
  -11.4799995      -6.26673435E-11
  -11.4700003      -4.59935354E-11
  -11.4600000      -2.80105591E-11
  -11.4499998      -8.74477747E-12
  -11.4399996       1.17411861E-11
  -11.4300003       3.33613137E-11
  -11.4200001       5.60214340E-11
  -11.4099998       7.96320995E-11
  -11.3999996       1.04113551E-10
  -11.3900003       1.29389791E-10
  -11.3800001       1.55375032E-10
  -11.3699999       1.81953827E-10
  -11.3599997       2.08966372E-10
  -11.3500004       2.36203057E-10
  -11.3400002       2.63416983E-10
  -11.3299999       2.90353991E-10
  -11.3199997       3.16798004E-10
  -11.3100004       3.42623097E-10
  -11.3000002       3.67837955E-10
  -11.2900000       3.92612193E-10
  -11.2799997       4.17272522E-10
  -11.2700005       4.42263282E-10
  -11.2600002       4.68075911E-10
  -11.2500000       4.95156360E-10
  -11.2399998       5.23807109E-10
  -11.2299995       5.54105983E-10
  -11.2200003       5.85854976E-10
  -11.2100000       6.18577634E-10
  -11.1999998       6.51566190E-10
  -11.1899996       6.83975210E-10
  -11.1800003       7.14946824E-10
  -11.1700001       7.43743622E-10
  -11.1599998       7.69871500E-10
  -11.1499996       7.93165478E-10
  -11.1400003       8.13822398E-10
  -11.1300001       8.32374891E-10
  -11.1199999       8.49612769E-10
  -11.1099997       8.66455796E-10
  -11.1000004       8.83808915E-10
  -11.0900002       9.02415698E-10
  -11.0799999       9.22742494E-10
  -11.0699997       9.44901268E-10
  -11.0600004       9.68637615E-10
  -11.0500002       9.93370053E-10
  -11.0400000       1.01828901E-09
  -11.0299997       1.04248521E-09
  -11.0200005       1.06509723E-09
  -11.0100002       1.08544196E-09
  -11.0000000       1.10312115E-09
  -10.9899998       1.11808074E-09
  -10.9799995       1.13061205E-09
  -10.9700003       1.14129983E-09
  -10.9600000       1.15093457E-09
  -10.9499998       1.16039367E-09
  -10.9399996       1.17051557E-09
  -10.9300003       1.18197763E-09
  -10.9200001       1.19521393E-09
  -10.9099998       1.21035593E-09
  -10.8999996       1.22722121E-09
  -10.8900003       1.24534805E-09
  -10.8800001       1.26404953E-09
  -10.8699999       1.28250632E-09
  -10.8599997       1.29986943E-09
  -10.8500004       1.31536115E-09
  -10.8400002       1.32836731E-09
  -10.8299999       1.33850331E-09
  -10.8199997       1.34566014E-09
  -10.8100004       1.35000289E-09
  -10.8000002       1.35193834E-09
  -10.7900000       1.35204348E-09
  -10.7799997       1.35098466E-09
  -10.7700005       1.34940215E-09
  -10.7600002       1.34781319E-09
  -10.7500000       1.34654299E-09
  -10.7399998       1.34566236E-09
  -10.7299995       1.34497791E-09
  -10.7200003       1.34407196E-09
  -10.7100000       1.34235767E-09
  -10.6999998       1.33915845E-09
  -10.6899996       1.33380562E-09
  -10.6800003       1.32572819E-09
  -10.6700001       1.31450861E-09
  -10.6599998       1.29993838E-09
  -10.6499996       1.28203970E-09
  -10.6400003       1.26104882E-09
  -10.6300001       1.23740851E-09
  -10.6199999       1.21170740E-09
  -10.6099997       1.18465493E-09
  -10.6000004       1.15700594E-09
  -10.5900002       1.12949028E-09
  -10.5799999       1.10275522E-09
  -10.5699997       1.07730225E-09
  -10.5600004       1.05342990E-09
  -10.5500002       1.03121245E-09
  -10.5400000       1.01050446E-09
  -10.5299997       9.90967530E-10
  -10.5200005       9.72134373E-10
  -10.5100002       9.53483847E-10
  -10.5000000       9.34535782E-10
  -10.4899998       9.14913645E-10
  -10.4799995       8.94389784E-10
  -10.4700003       8.72911021E-10
  -10.4600000       8.50562121E-10
  -10.4499998       8.27531044E-10
  -10.4399996       8.04047717E-10
  -10.4300003       7.80342568E-10
  -10.4200001       7.56623375E-10
  -10.4099998       7.33067052E-10
  -10.3999996       7.09843684E-10
  -10.3900003       6.87140345E-10
  -10.3800001       6.65167865E-10
  -10.3699999       6.44161946E-10
  -10.3599997       6.24341356E-10
  -10.3500004       6.05838879E-10
  -10.3400002       5.88627647E-10
  -10.3299999       5.72468739E-10
  -10.3199997       5.56899471E-10
  -10.3100004       5.41281631E-10
  -10.3000002       5.24886357E-10
  -10.2900000       5.07059672E-10
  -10.2799997       4.87367535E-10
  -10.2700005       4.65717465E-10
  -10.2600002       4.42421294E-10
  -10.2500000       4.18170054E-10
  -10.2399998       3.93891531E-10
  -10.2299995       3.70565301E-10
  -10.2200003       3.49003521E-10
  -10.2100000       3.29649225E-10
  -10.1999998       3.12461362E-10
  -10.1899996       2.96895786E-10
  -10.1800003       2.82033980E-10
  -10.1700001       2.66743960E-10
  -10.1599998       2.49967713E-10
  -10.1499996       2.30924321E-10
  -10.1400003       2.09286949E-10
  -10.1300001       1.85235813E-10
  -10.1199999       1.59403851E-10
  -10.1099997       1.32725289E-10
  -10.1000004       1.06240530E-10
  -10.0900002       8.08823147E-11
  -10.0799999       5.73304494E-11
  -10.0699997       3.59343284E-11
  -10.0600004       1.67208799E-11
  -10.0500002      -5.18282032E-13
  -10.0400000      -1.61115010E-11
  -10.0299997      -3.03926710E-11
  -10.0200005      -4.36270430E-11
  -10.0100002      -5.59696976E-11
  -10.0000000      -6.74662617E-11
  -9.98999977      -7.80824502E-11
  -9.97999954      -8.77240017E-11
  -9.97000027      -9.62505214E-11
  -9.96000004      -1.03457715E-10
  -9.94999981      -1.09065576E-10
  -9.93999958      -1.12691065E-10
  -9.93000031      -1.13885880E-10
  -9.92000008      -1.12184553E-10
  -9.90999985      -1.07196203E-10
  -9.89999962      -9.86956558E-11
  -9.89000034      -8.67085848E-11
  -9.88000011      -7.15210113E-11
  -9.86999989      -5.36520862E-11
  -9.85999966      -3.37386438E-11
  -9.85000038      -1.24045531E-11
  -9.84000015       9.86589716E-12
  -9.82999992       3.28141229E-11
  -9.81999969       5.64268909E-11
  -9.81000042       8.08723088E-11
  -9.80000019       1.06398342E-10
  -9.78999996       1.33227832E-10
  -9.77999973       1.61476985E-10
  -9.77000046       1.91145627E-10
  -9.76000023       2.22163510E-10
  -9.75000000       2.54476606E-10
  -9.73999977       2.88129631E-10
  -9.72999954       3.23312821E-10
  -9.72000027       3.60313279E-10
  -9.71000004       3.99425493E-10
  -9.69999981       4.40791736E-10
  -9.68999958       4.84273566E-10
  -9.68000031       5.29392974E-10
  -9.67000008       5.75354042E-10
  -9.65999985       6.21189933E-10
  -9.64999962       6.65964006E-10
  -9.64000034       7.08979153E-10
  -9.63000011       7.49925122E-10
  -9.61999989       7.88897281E-10
  -9.60999966       8.26311519E-10
  -9.60000038       8.62709293E-10
  -9.59000015       8.98537134E-10
  -9.57999992       9.33989996E-10
  -9.56999969       9.68942593E-10
  -9.56000042       1.00302899E-09
  -9.55000019       1.03582065E-09
  -9.53999996       1.06703979E-09
  -9.52999973       1.09673515E-09
  -9.52000046       1.12533904E-09
  -9.51000023       1.15359267E-09
  -9.50000000       1.18234245E-09
  -9.48999977       1.21230070E-09
  -9.47999954       1.24383392E-09
  -9.47000027       1.27687727E-09
  -9.46000004       1.31099798E-09
  -9.44999981       1.34558609E-09
  -9.43999958       1.38010670E-09
  -9.43000031       1.41433398E-09
  -9.42000008       1.44846213E-09
  -9.40999985       1.48305557E-09
  -9.39999962       1.51886459E-09
  -9.39000034       1.55654911E-09
  -9.38000011       1.59643099E-09
  -9.36999989       1.63835401E-09
  -9.35999966       1.68169967E-09
  -9.35000038       1.72556236E-09
  -9.34000015       1.76899695E-09
  -9.32999992       1.81127258E-09
  -9.31999969       1.85200777E-09
  -9.31000042       1.89115634E-09
  -9.30000019       1.92883198E-09
  -9.28999996       1.96504768E-09
  -9.27999973       1.99945549E-09
  -9.27000046       2.03121320E-09
  -9.26000023       2.05900585E-09
  -9.25000000       2.08124118E-09
  -9.23999977       2.09635131E-09
  -9.22999954       2.10309015E-09
  -9.22000027       2.10075402E-09
  -9.21000004       2.08919437E-09
  -9.19999981       2.06871298E-09
  -9.18999958       2.03980122E-09
  -9.18000031       2.00288874E-09
  -9.17000008       1.95816674E-09
  -9.15999985       1.90555904E-09
  -9.14999962       1.84485860E-09
  -9.14000034       1.77594695E-09
  -9.13000011       1.69901782E-09
  -9.11999989       1.61469993E-09
  -9.10999966       1.52399471E-09
  -9.10000038       1.42810141E-09
  -9.09000015       1.32811229E-09
  -9.07999992       1.22474875E-09
  -9.06999969       1.11818432E-09
  -9.06000042       1.00809638E-09
  -9.05000019       8.93877361E-10
  -9.03999996       7.74955045E-10
  -9.02999973       6.51143139E-10
  -9.02000046       5.22860477E-10
  -9.01000023       3.91172816E-10
  -9.00000000       2.57617400E-10
  -8.98999977       1.23923344E-10
  -8.97999954      -8.31964879E-12
  -8.97000027      -1.37881748E-10
  -8.96000004      -2.63953220E-10
  -8.94999981      -3.86029764E-10
  -8.93999958      -5.03642239E-10
  -8.93000031      -6.16086016E-10
  -8.92000008      -7.22225446E-10
  -8.90999985      -8.20460311E-10
  -8.89999962      -9.08887687E-10
  -8.89000034      -9.85598603E-10
  -8.88000011      -1.04898146E-09
  -8.86999989      -1.09798259E-09
  -8.85999966      -1.13216281E-09
  -8.85000038      -1.15160581E-09
  -8.84000015      -1.15664189E-09
  -8.82999992      -1.14756837E-09
  -8.81999969      -1.12437859E-09
  -8.81000042      -1.08665399E-09
  -8.80000019      -1.03362763E-09
  -8.78999996      -9.64348934E-10
  -8.77999973      -8.77949879E-10
  -8.77000046      -7.73850595E-10
  -8.76000023      -6.51877441E-10
  -8.75000000      -5.12248743E-10
  -8.73999977      -3.55445090E-10
  -8.72999954      -1.82054302E-10
  -8.72000027       7.37711368E-12
  -8.71000004       2.12392479E-10
  -8.69999981       4.32595626E-10
  -8.68999958       6.67550237E-10
  -8.68000031       9.16667409E-10
  -8.67000008       1.17914845E-09
  -8.65999985       1.45402068E-09
  -8.64999962       1.74025339E-09
  -8.64000034       2.03693773E-09
  -8.63000011       2.34344633E-09
  -8.61999989       2.65953903E-09
  -8.60999966       2.98536151E-09
  -8.60000038       3.32134631E-09
  -8.59000015       3.66806252E-09
  -8.57999992       4.02603684E-09
  -8.56999969       4.39564340E-09
  -8.56000042       4.77705386E-09
  -8.55000019       5.17024112E-09
  -8.53999996       5.57503865E-09
  -8.52999973       5.99118799E-09
  -8.52000046       6.41834319E-09
  -8.51000023       6.85602375E-09
  -8.50000000       7.30356797E-09
  -8.48999977       7.76005926E-09
  -8.47999954       8.22431812E-09
  -8.47000027       8.69497185E-09
  -8.46000004       9.17055587E-09
  -8.44999981       9.64966240E-09
  -8.43999958       1.01310622E-08
  -8.43000031       1.06137348E-08
  -8.42000008       1.10968514E-08
  -8.40999985       1.15796670E-08
  -8.39999962       1.20613990E-08
  -8.39000034       1.25411219E-08
  -8.38000011       1.30177691E-08
  -8.36999989       1.34901983E-08
  -8.35999966       1.39573109E-08
  -8.35000038       1.44182239E-08
  -8.34000015       1.48723167E-08
  -8.32999992       1.53192730E-08
  -8.31999969       1.57589319E-08
  -8.31000042       1.61911320E-08
  -8.30000019       1.66154823E-08
  -8.28999996       1.70312351E-08
  -8.27999973       1.74372587E-08
  -8.27000046       1.78320789E-08
  -8.26000023       1.82140543E-08
  -8.25000000       1.85815878E-08
  -8.23999977       1.89332159E-08
  -8.22999954       1.92676826E-08
  -8.22000027       1.95838812E-08
  -8.21000004       1.98807228E-08
  -8.19999981       2.01569907E-08
  -8.18999958       2.04112780E-08
  -8.18000031       2.06420570E-08
  -8.17000008       2.08477733E-08
  -8.15999985       2.10270006E-08
  -8.14999962       2.11787370E-08
  -8.14000034       2.13024016E-08
  -8.13000011       2.13978613E-08
  -8.11999989       2.14653024E-08
  -8.10999966       2.15050679E-08
  -8.10000038       2.15173976E-08
  -8.09000015       2.15024318E-08
  -8.07999992       2.14601066E-08
  -8.06999969       2.13903064E-08
  -8.06000042       2.12930598E-08
  -8.05000019       2.11687503E-08
  -8.03999996       2.10181650E-08
  -8.02999973       2.08424531E-08
  -8.02000046       2.06430233E-08
  -8.01000023       2.04212736E-08
  -8.00000000       2.01783994E-08
  -7.98999977       1.99151913E-08
  -7.98000002       1.96321466E-08
  -7.96999979       1.93295833E-08
  -7.96000004       1.90076861E-08
  -7.94999981       1.86670359E-08
  -7.94000006       1.83084676E-08
  -7.92999983       1.79333082E-08
  -7.92000008       1.75431190E-08
  -7.90999985       1.71396604E-08
  -7.90000010       1.67245631E-08
  -7.88999987       1.62992073E-08
  -7.88000011       1.58647531E-08
  -7.86999989       1.54220228E-08
  -7.86000013       1.49719472E-08
  -7.84999990       1.45154946E-08
  -7.84000015       1.40540193E-08
  -7.82999992       1.35891343E-08
  -7.82000017       1.31228619E-08
  -7.80999994       1.26573241E-08
  -7.80000019       1.21946186E-08
  -7.78999996       1.17367192E-08
  -7.78000021       1.12853922E-08
  -7.76999998       1.08421210E-08
  -7.76000023       1.04082556E-08
  -7.75000000       9.98508920E-09
  -7.73999977       9.57400559E-09
  -7.73000002       9.17645870E-09
  -7.71999979       8.79388828E-09
  -7.71000004       8.42770298E-09
  -7.69999981       8.07911427E-09
  -7.69000006       7.74896058E-09
  -7.67999983       7.43786899E-09
  -7.67000008       7.14614901E-09
  -7.65999985       6.87391966E-09
  -7.65000010       6.62127997E-09
  -7.63999987       6.38854081E-09
  -7.63000011       6.17609563E-09
  -7.61999989       5.98453420E-09
  -7.61000013       5.81446047E-09
  -7.59999990       5.66634295E-09
  -7.59000015       5.54037305E-09
  -7.57999992       5.43634560E-09
  -7.57000017       5.35351630E-09
  -7.55999994       5.29077493E-09
  -7.55000019       5.24665289E-09
  -7.53999996       5.21978860E-09
  -7.53000021       5.20895638E-09
  -7.51999998       5.21323695E-09
  -7.51000023       5.23229282E-09
  -7.50000000       5.26613242E-09
  -7.48999977       5.31515765E-09
  -7.48000002       5.37991918E-09
  -7.46999979       5.46098633E-09
  -7.46000004       5.55874413E-09
  -7.44999981       5.67327874E-09
  -7.44000006       5.80434012E-09