  -16.0000000       0.00000000    
  -15.9899998       0.00000000    
  -15.9799995       0.00000000    
  -15.9700003       0.00000000    
  -15.9600000       0.00000000    
  -15.9499998       0.00000000    
  -15.9399996       0.00000000    
  -15.9300003       0.00000000    
  -15.9200001       0.00000000    
  -15.9099998       0.00000000    
  -15.8999996       0.00000000    
  -15.8900003       0.00000000    
  -15.8800001       1.35920346E-40
  -15.8699999       5.01077986E-39
  -15.8599997       8.52827835E-38
  -15.8500004       9.33981973E-37
  -15.8400002       7.54934988E-36
  -15.8299999       4.84971661E-35
  -15.8199997       2.59129281E-34
  -15.8100004       1.18693338E-33
  -15.8000002       4.75979740E-33
  -15.7900000       1.69656132E-32
  -15.7799997       5.43441500E-32
  -15.7700005       1.57689382E-31
  -15.7600002       4.16803213E-31
  -15.7500000       1.00699119E-30
  -15.7399998       2.22664002E-30
  -15.7299995       4.50084110E-30
  -15.7200003       8.27881976E-30
  -15.7100000       1.37173111E-29
  -15.6999998       2.00461351E-29
  -15.6899996       2.46183033E-29
  -15.6800003       2.19173656E-29
  -15.6700001       3.23275240E-30
  -15.6599998      -4.18183458E-29
  -15.6499996      -1.20593223E-28
  -15.6400003      -2.28896942E-28
  -15.6300001      -3.39930993E-28
  -15.6199999      -3.95227691E-28
  -15.6099997      -3.05546017E-28
  -15.6000004       2.87148932E-29
  -15.5900002       6.71129578E-28
  -15.5799999       1.58029736E-27
  -15.5699997       2.53775764E-27
  -15.5600004       3.10955699E-27
  -15.5500002       2.68819433E-27
  -15.5400000       6.54346688E-28
  -15.5299997      -3.33279673E-27
  -15.5200005      -8.95957941E-27
  -15.5100002      -1.49013930E-26
  -15.5000000      -1.86481510E-26
  -15.4899998      -1.67132478E-26
  -15.4799995      -5.43560601E-27
  -15.4700003       1.74637981E-26
  -15.4600000       5.05745136E-26
  -15.4499998       8.61215782E-26
  -15.4399996       1.07983287E-25
  -15.4300003       9.23597978E-26
  -15.4200001       1.37343395E-26
  -15.4099998      -1.41658452E-25
  -15.3999996      -3.55346462E-25
  -15.3900003      -5.55292158E-25
  -15.3800001      -6.07622134E-25
  -15.3699999      -3.41323622E-25
  -15.3599997       3.76507631E-25
  -15.3500004       1.51522066E-24
  -15.3400002       2.74167483E-24
  -15.3299999       3.35101171E-24
  -15.3199997       2.38272439E-24
  -15.3100004      -9.81149202E-25
  -15.3000002      -6.74370445E-24
  -15.2900000      -1.33506741E-23
  -15.2799997      -1.73137708E-23
  -15.2700005      -1.37754362E-23
  -15.2600002       1.53859569E-24
  -15.2500000       2.90709759E-23
  -15.2399998       6.19100310E-23
  -15.2299995       8.40374280E-23
  -15.2200003       7.29119964E-23
  -15.2100000       8.23655588E-24
  -15.1999998      -1.13709112E-22
  -15.1899996      -2.64759668E-22
  -15.1800003      -3.77282333E-22
  -15.1700001      -3.54799343E-22
  -15.1599998      -1.07913496E-22
  -15.1499996       3.87517229E-22
  -15.1400003       1.02858475E-21
  -15.1300001       1.55384788E-21
  -15.1199999       1.58183661E-21
  -15.1099997       7.45426552E-22
  -15.1000004      -1.09021910E-21
  -15.0900002      -3.59474034E-21
  -15.0799999      -5.84674441E-21
  -15.0699997      -6.45505739E-21
  -15.0600004      -4.01703745E-21
  -15.0500002       2.12785750E-21
  -15.0400000       1.10800673E-20
  -15.0299997       1.99030819E-20
  -15.0200005       2.39483505E-20
  -15.0100002       1.82775961E-20
  -15.0000000       5.82399282E-23
  -14.9899998      -2.87819950E-20
  -14.9799995      -5.98885032E-20
  -14.9700003      -7.92054646E-20
  -14.9600000      -7.09935774E-20
  -14.9499998      -2.47915820E-20
  -14.9399996       5.67359369E-20
  -14.9300003       1.52621440E-19
  -14.9200001       2.25028489E-19
  -14.9099998       2.29737990E-19
  -14.8999996       1.34623309E-19
  -14.8900003      -5.95803655E-20
  -14.8800001      -3.05749115E-19
  -14.8699999      -5.14184619E-19
  -14.8599997      -5.79371570E-19
  -14.8500004      -4.25606345E-19
  -14.8400002      -5.55195161E-20
  -14.8299999       4.23314228E-19
  -14.8199997       8.17696160E-19
  -14.8100004       9.23553668E-19
  -14.8000002       6.38447982E-19
  -14.7900000       6.36583724E-20
  -14.7799997      -4.70972911E-19
  -14.7700005      -5.15541351E-19
  -14.7600002       2.51109726E-19
  -14.7500000       1.70620818E-18
  -14.7399998       3.05907769E-18
  -14.7299995       2.91635077E-18
  -14.7200003      -2.15991269E-19
  -14.7100000      -7.01126973E-18
  -14.6999998      -1.62530783E-17
  -14.6899996      -2.41453723E-17
  -14.6800003      -2.46461690E-17
  -14.6700001      -1.13075912E-17
  -14.6599998       1.94090106E-17
  -14.6499996       6.41780651E-17
  -14.6400003       1.09886107E-16
  -14.6300001       1.33878904E-16
  -14.6199999       1.09183970E-16
  -14.6099997       1.50909193E-17
  -14.6000004      -1.48917736E-16
  -14.5900002      -3.50627965E-16
  -14.5799999      -5.20657706E-16
  -14.5699997      -5.62702198E-16
  -14.5600004      -3.81815718E-16
  -14.5500002       7.23438399E-17
  -14.5400000       7.58668617E-16
  -14.5299997       1.51293870E-15
  -14.5200005       2.05293131E-15
  -14.5100002       2.03668310E-15
  -14.5000000       1.17554409E-15
  -14.4899998      -6.18721622E-16
  -14.4799995      -3.09765942E-15
  -14.4700003      -5.61197402E-15
  -14.4600000      -7.17949446E-15
  -14.4499998      -6.71876021E-15
  -14.4399996      -3.43011667E-15
  -14.4300003       2.76060383E-15
  -14.4200001       1.08422496E-14
  -14.4099998       1.86190988E-14
  -14.3999996       2.30225537E-14
  -14.3900003       2.08890302E-14
  -14.3800001       1.01047227E-14
  -14.3699999      -9.16111957E-15
  -14.3599997      -3.35577852E-14
  -14.3500004      -5.64562130E-14
  -14.3400002      -6.90079775E-14
  -14.3299999      -6.24297706E-14
  -14.3199997      -3.11648765E-14
  -14.3100004       2.38722853E-14
  -14.3000002       9.30887041E-14
  -14.2900000       1.58208136E-13
  -14.2799997       1.95285099E-13
  -14.2700005       1.80797231E-13
  -14.2600002       9.98299479E-14
  -14.2500000      -4.56940936E-14
  -14.2399998      -2.31519068E-13
  -14.2299995      -4.11101193E-13
  -14.2200003      -5.23094643E-13
  -14.2100000      -5.06339924E-13
  -14.1999998      -3.19947383E-13
  -14.1899996       3.64019829E-14
  -14.1800003       5.08478730E-13
  -14.1700001       9.86448445E-13
  -14.1599998       1.32127805E-12
  -14.1499996       1.35897142E-12
  -14.1400003       9.87444935E-13
  -14.1300001       1.85213973E-13
  -14.1199999      -9.42824269E-13
  -14.1099997      -2.15766597E-12
  -14.1000004      -3.11751796E-12
  -14.0900002      -3.45029083E-12
  -14.0799999      -2.85737211E-12
  -14.0699997      -1.22623754E-12
  -14.0600004       1.27969228E-12
  -14.0500002       4.18771528E-12
  -14.0400000       6.76524895E-12
  -14.0299997       8.16071863E-12
  -14.0200005       7.61962021E-12
  -14.0100002       4.73268646E-12
  -14.0000000      -3.48234218E-13
  -13.9899998      -6.79855608E-12
  -13.9799995      -1.31740417E-11
  -13.9700003      -1.76566487E-11
  -13.9600000      -1.84721839E-11
  -13.9499998      -1.44038574E-11
  -13.9399996      -5.27894785E-12
  -13.9300003       7.71657044E-12
  -13.9200001       2.20270555E-11
  -13.9099998       3.40960073E-11
  -13.8999996       4.01017622E-11
  -13.8900003       3.69401176E-11
  -13.8800001       2.32377017E-11
  -13.8699999       1.22832720E-13
  -13.8599997      -2.85119844E-11
  -13.8500004      -5.64379203E-11
  -13.8400002      -7.62382379E-11
  -13.8299999      -8.10164297E-11
  -13.8199997      -6.63167021E-11
  -13.8100004      -3.17846131E-11
  -13.8000002       1.79267261E-11
  -13.7900000       7.33879693E-11
  -13.7799997       1.21911911E-10
  -13.7700005       1.50190069E-10
  -13.7600002       1.47552776E-10
  -13.7500000       1.09108750E-10
  -13.7399998       3.79295415E-11
  -13.7299995      -5.44358794E-11
  -13.7200003      -1.49504450E-10
  -13.7100000      -2.25367142E-10
  -13.6999998      -2.61542926E-10
  -13.6899996      -2.44126358E-10
  -13.6800003      -1.69960546E-10
  -13.6700001      -4.86625566E-11
  -13.6599998       9.82551956E-11
  -13.6499996       2.41255238E-10
  -13.6400003       3.48959528E-10
  -13.6300001       3.95296823E-10
  -13.6199999       3.65888847E-10
  -13.6099997       2.61998673E-10
  -13.6000004       1.00884016E-10
  -13.5900002      -8.77292891E-11
  -13.5799999      -2.68298134E-10
  -13.5699997      -4.07579165E-10
  -13.5600004      -4.82049567E-10
  -13.5500002      -4.82562768E-10
  -13.5400000      -4.14894286E-10
  -13.5299997      -2.96034502E-10
  -13.5200005      -1.47445292E-10
  -13.5100002       1.23972100E-11
  -13.5000000       1.73402723E-10
  -13.4899998       3.34878680E-10
  -13.4799995       5.01165887E-10
  -13.4700003       6.72836897E-10
  -13.4600000       8.36381575E-10
  -13.4499998       9.56660307E-10
  -13.4399996       9.76544734E-10
  -13.4300003       8.26752222E-10
  -13.4200001       4.46039455E-10
  -13.4099998      -1.91762287E-10
  -13.3999996      -1.05089926E-09
  -13.3900003      -2.01622119E-09
  -13.3800001      -2.89407542E-09
  -13.3699999      -3.43746631E-09
  -13.3599997      -3.39565975E-09
  -13.3500004      -2.58115085E-09
  -13.3400002      -9.39910816E-10
  -13.3299999       1.39380452E-09
  -13.3199997       4.07724920E-09
  -13.3100004       6.58790889E-09
  -13.3000002       8.30565572E-09
  -13.2900000       8.63969341E-09
  -13.2799997       7.17808080E-09
  -13.2700005       3.82712884E-09
  -13.2600002      -1.09603648E-09
  -13.2500000      -6.84989887E-09
  -13.2399998      -1.23525892E-08
  -13.2299995      -1.63617688E-08
  -13.2200003      -1.77250747E-08
  -13.2100000      -1.56548730E-08
  -13.1999998      -9.96775551E-09
  -13.1899996      -1.22806820E-09
  -13.1800003       9.25211285E-09
  -13.1700001       1.95785681E-08
  -13.1599998       2.75934084E-08
  -13.1499996       3.12978052E-08
  -13.1400003       2.93002937E-08
  -13.1300001       2.11960280E-08
  -13.1199999       7.78521780E-09
  -13.1099997      -8.93739127E-09
  -13.1000004      -2.60485553E-08
  -13.0900002      -4.01921874E-08
  -13.0799999      -4.82255693E-08
  -13.0699997      -4.78947051E-08
  -13.0600004      -3.83967453E-08
  -13.0500002      -2.06950705E-08
  -13.0400000       2.50829379E-09
  -13.0299997       2.71737761E-08
  -13.0200005       4.86500475E-08
  -13.0100002       6.25971381E-08
  -13.0000000       6.59207799E-08
  -12.9899998       5.75085259E-08
  -12.9799995       3.85815326E-08
  -12.9700003       1.25461748E-08
  -12.9600000      -1.56633106E-08
  -12.9499998      -4.06374170E-08
  -12.9399996      -5.77160080E-08
  -12.9300003      -6.40948272E-08
  -12.9200001      -5.95227512E-08
  -12.9099998      -4.63733443E-08
  -12.8999996      -2.90156166E-08
  -12.8900003      -1.25893251E-08
  -12.8800001      -1.46623447E-09
  -12.8699999       2.19786322E-09
  -12.8599997      -6.13324003E-10
  -12.8500004      -5.72343550E-09
  -12.8400002      -6.72870026E-09
  -12.8299999       3.14026982E-09
  -12.8199997       2.86590378E-08
  -12.8100004       7.03602794E-08
  -12.8000002       1.23074486E-07
  -12.7900000       1.75833463E-07
  -12.7799997       2.13428095E-07
  -12.7700005       2.19505964E-07
  -12.7600002       1.80657992E-07
  -12.7500000       9.05904329E-08
  -12.7399998      -4.66839403E-08
  -12.7299995      -2.15606036E-07
  -12.7200003      -3.90385935E-07
  -12.7100000      -5.38914264E-07
  -12.6999998      -6.28662690E-07
  -12.6899996      -6.33407581E-07
  -12.6800003      -5.39287726E-07
  -12.6700001      -3.48731760E-07
  -12.6599998      -8.11891283E-08
  -12.6499996       2.29702835E-07
  -12.6400003       5.42036389E-07
  -12.6300001       8.13373276E-07
  -12.6199999       1.00853708E-06
  -12.6099997       1.10560063E-06
  -12.6000004       1.09860548E-06
  -12.5900002       9.96349399E-07
  -12.5799999       8.17591399E-07
  -12.5699997       5.84011957E-07
  -12.5600004       3.12939335E-07
  -12.5500002       1.20372636E-08
  -12.5400000      -3.22262309E-07
  -12.5299997      -7.01718648E-07
  -12.5200005      -1.13899796E-06
  -12.5100002      -1.63773791E-06
  -12.5000000      -2.18246169E-06
  -12.4899998      -2.73116575E-06
  -12.4799995      -3.21302377E-06
  -12.4700003      -3.53263135E-06
  -12.4600000      -3.58075226E-06
  -12.4499998      -3.24999064E-06
  -12.4399996      -2.45256911E-06
  -12.4300003      -1.13674491E-06
  -12.4200001       7.01460237E-07
  -12.4099998       3.01362729E-06
  -12.3999996       5.70237671E-06
  -12.3900003       8.63213245E-06
  -12.3800001       1.16450274E-05
  -12.3699999       1.45787590E-05
  -12.3599997       1.72830478E-05
  -12.3500004       1.96318397E-05
  -12.3400002       2.15296313E-05
  -12.3299999       2.29116795E-05
  -12.3199997       2.37392615E-05
  -12.3100004       2.39921537E-05
  -12.3000002       2.36607848E-05
  -12.2900000       2.27403179E-05
  -12.2799997       2.12280647E-05
  -12.2700005       1.91245781E-05
  -12.2600002       1.64378580E-05
  -12.2500000       1.31891220E-05
  -12.2399998       9.41860344E-06
  -12.2299995       5.18965271E-06
  -12.2200003       5.90179582E-07
  -12.2100000      -4.26910356E-06
  -12.1999998      -9.25951736E-06
  -12.1899996      -1.42417057E-05
  -12.1800003      -1.90745995E-05
  -12.1700001      -2.36252017E-05
  -12.1599998      -2.77782638E-05
  -12.1499996      -3.14449680E-05
  -12.1400003      -3.45697044E-05
  -12.1300001      -3.71338174E-05
  -12.1199999      -3.91555186E-05
  -12.1099997      -4.06852341E-05
  -12.1000004      -4.17962256E-05
  -12.0900002      -4.25715589E-05
  -12.0799999      -4.30889304E-05
  -12.0699997      -4.34061585E-05
  -12.0600004      -4.35500624E-05
  -12.0500002      -4.35114853E-05
  -12.0400000      -4.32477500E-05
  -12.0299997      -4.26923871E-05
  -12.0200005      -4.17701194E-05
  -12.0100002      -4.04133934E-05
  -12.0000000      -3.85764652E-05
  -11.9899998      -3.62430619E-05
  -11.9799995      -3.34255710E-05
  -11.9700003      -3.01559958E-05
  -11.9600000      -2.64714508E-05
  -11.9499998      -2.23986935E-05
  -11.9399996      -1.79432645E-05
  -11.9300003      -1.30873113E-05
  -11.9200001      -7.79832772E-06
  -11.9099998      -2.04748267E-06
  -11.8999996       4.16686316E-06
  -11.8900003       1.07969454E-05
  -11.8800001       1.77315924E-05
  -11.8699999       2.47957178E-05
  -11.8599997       3.17651757E-05
  -11.8500004       3.83947990E-05
  -11.8400002       4.44535435E-05
  -11.8299999       4.97585752E-05
  -11.8199997       5.41999616E-05
  -11.8100004       5.77501669E-05
  -11.8000002       6.04565066E-05
  -11.7900000       6.24195309E-05
  -11.7799997       6.37639241E-05
  -11.7700005       6.46104454E-05
  -11.7600002       6.50563816E-05
  -11.7500000       6.51688824E-05
  -11.7399998       6.49907524E-05
  -11.7299995       6.45538385E-05
  -11.7200003       6.38921410E-05
  -11.7100000       6.30470167E-05
  -11.6999998       6.20593710E-05
  -11.6899996       6.09490271E-05
  -11.6800003       5.96872051E-05
  -11.6700001       5.81719432E-05
  -11.6599998       5.62184214E-05
  -11.6499996       5.35725958E-05
  -11.6400003       4.99513772E-05
  -11.6300001       4.51040141E-05
  -11.6199999       3.88818116E-05
  -11.6099997       3.12985649E-05
  -11.6000004       2.25635195E-05
  -11.5900002       1.30739627E-05
  -11.5799999       3.36379981E-06
  -11.5699997      -5.98432734E-06
  -11.5600004      -1.44453779E-05
  -11.5500002      -2.16525768E-05
  -11.5400000      -2.74680715E-05
  -11.5299997      -3.20054387E-05
  -11.5200005      -3.55973207E-05
  -11.5100002      -3.87147484E-05
  -11.5000000      -4.18571217E-05
  -11.4899998      -4.54386900E-05
  -11.4799995      -4.96986650E-05
  -11.4700003      -5.46551855E-05
  -11.4600000      -6.01125976E-05
  -11.4499998      -6.57173805E-05
  -11.4399996      -7.10463864E-05
  -11.4300003      -7.57038943E-05
  -11.4200001      -7.94029038E-05
  -11.4099998      -8.20121277E-05
  -11.3999996      -8.35599858E-05
  -11.3900003      -8.41989895E-05
  -11.3800001      -8.41437068E-05
  -11.3699999      -8.36013278E-05
  -11.3599997      -8.27139229E-05
  -11.3500004      -8.15267267E-05
  -11.3400002      -7.99885238E-05
  -11.3299999      -7.79811235E-05
  -11.3199997      -7.53678833E-05
  -11.3100004      -7.20474272E-05
  -11.3000002      -6.79983059E-05
  -11.2900000      -6.33050513E-05
  -11.2799997      -5.81599015E-05
  -11.2700005      -5.28414457E-05
  -11.2600002      -4.76751302E-05
  -11.2500000      -4.29834145E-05
  -11.2399998      -3.90345631E-05
  -11.2299995      -3.59981423E-05
  -11.2200003      -3.39144608E-05
  -11.2100000      -3.26831978E-05
  -11.1999998      -3.20749641E-05
  -11.1899996      -3.17661033E-05
  -11.1800003      -3.13941273E-05
  -11.1700001      -3.06263209E-05
  -11.1599998      -2.92299974E-05
  -11.1499996      -2.71300305E-05
  -11.1400003      -2.44390249E-05
  -11.1300001      -2.14494012E-05
  -11.1199999      -1.85837071E-05
  -11.1099997      -1.63097357E-05
  -11.1000004      -1.50364276E-05
  -11.0900002      -1.50138649E-05
  -11.0799999      -1.62618235E-05
  -11.0699997      -1.85465724E-05
  -11.0600004      -2.14144184E-05
  -11.0500002      -2.42765600E-05
  -11.0400000      -2.65262497E-05
  -11.0299997      -2.76605642E-05
  -11.0200005      -2.73776404E-05
  -11.0100002      -2.56271851E-05
  -11.0000000      -2.26047396E-05
  -10.9899998      -1.86955658E-05
  -10.9799995      -1.43868501E-05
  -10.9700003      -1.01734722E-05
  -10.9600000      -6.48115019E-06
  -10.9499998      -3.62188553E-06
  -10.9399996      -1.78403809E-06
  -10.9300003      -1.04729281E-06
  -10.9200001      -1.40573593E-06
  -10.9099998      -2.78278867E-06
  -10.8999996      -5.02912781E-06
  -10.8900003      -7.90619742E-06
  -10.8800001      -1.10686015E-05
  -10.8699999      -1.40638867E-05
  -10.8599997      -1.63654786E-05
  -10.8500004      -1.74438610E-05
  -10.8400002      -1.68661663E-05
  -10.8299999      -1.44003689E-05
  -10.8199997      -1.00930592E-05
  -10.8100004      -4.29250122E-06
  -10.8000002       2.39802057E-06
  -10.7900000       9.23192056E-06
  -10.7799997       1.54713489E-05
  -10.7700005       2.05409306E-05
  -10.7600002       2.41427279E-05
  -10.7500000       2.63022575E-05
  -10.7399998       2.73357509E-05
  -10.7299995       2.77520903E-05
  -10.7200003       2.81213324E-05
  -10.7100000       2.89495474E-05
  -10.6999998       3.05936774E-05
  -10.6899996       3.32331801E-05
  -10.6800003       3.68933033E-05
  -10.6700001       4.14965325E-05
  -10.6599998       4.69102888E-05
  -10.6499996       5.29648169E-05
  -10.6400003       5.94316334E-05
  -10.6300001       6.59754005E-05
  -10.6199999       7.21096294E-05
  -10.6099997       7.71928098E-05
  -10.6000004       8.04923475E-05
  -10.5900002       8.13200095E-05
  -10.5799999       7.92138089E-05
  -10.5699997       7.41163167E-05
  -10.5600004       6.64895779E-05
  -10.5500002       5.73164689E-05
  -10.5400000       4.79671035E-05
  -10.5299997       3.99488490E-05
  -10.5200005       3.45955596E-05
  -10.5100002       3.27754096E-05
  -10.5000000       3.46961970E-05
  -10.4899998       3.98625380E-05
  -10.4799995       4.71970343E-05
  -10.4700003       5.52908568E-05
  -10.4600000       6.27125482E-05
  -10.4499998       6.82898972E-05
  -10.4399996       7.12920810E-05
  -10.4300003       7.14742418E-05
  -10.4200001       6.89920562E-05
  -10.4099998       6.42342711E-05
  -10.3999996       5.76428683E-05
  -10.3900003       4.95874592E-05
  -10.3800001       4.03326412E-05
  -10.3699999       3.00973024E-05
  -10.3599997       1.91659929E-05
  -10.3500004       7.99035024E-06
  -10.3400002      -2.77933691E-06
  -10.3299999      -1.23656928E-05
  -10.3199997      -2.00312788E-05
  -10.3100004      -2.52926075E-05
  -10.3000002      -2.81076791E-05
  -10.2900000      -2.89644104E-05
  -10.2799997      -2.88247320E-05
  -10.2700005      -2.89246673E-05
  -10.2600002      -3.04790337E-05
  -10.2500000      -3.43733482E-05
  -10.2399998      -4.09331478E-05
  -10.2299995      -4.98392328E-05
  -10.2200003      -6.02123764E-05
  -10.2100000      -7.08386142E-05
  -10.1999998      -8.04638476E-05
  -10.1899996      -8.80679436E-05
  -10.1800003      -9.30404058E-05
  -10.1700001      -9.52168411E-05
  -10.1599998      -9.47847293E-05
  -10.1499996      -9.21109822E-05
  -10.1400003      -8.75667392E-05
  -10.1300001      -8.14191080E-05
  -10.1199999      -7.38283998E-05
  -10.1099997      -6.49436042E-05
  -10.1000004      -5.50469704E-05
  -10.0900002      -4.46750419E-05
  -10.0799999      -3.46491943E-05
  -10.0699997      -2.59801873E-05
  -10.0600004      -1.96594392E-05
  -10.0500002      -1.63961849E-05
  -10.0400000      -1.63866225E-05
  -10.0299997      -1.91994568E-05
  -10.0200005      -2.38289758E-05
  -10.0100002      -2.89146283E-05
  -10.0000000      -3.30700568E-05
  -9.98999977      -3.52264069E-05
  -9.97999954      -3.48860885E-05
  -9.97000027      -3.22094529E-05
  -9.96000004      -2.79089491E-05
  -9.94999981      -2.29866964E-05
  -9.93999958      -1.84020791E-05
  -9.93000031      -1.47773508E-05
  -9.92000008      -1.22359452E-05
  -9.90999985      -1.04224237E-05
  -9.89999962      -8.69126052E-06
  -9.89000034      -6.39398559E-06
  -9.88000011      -3.16054275E-06
  -9.86999989       9.27900999E-07
  -9.85999966       5.34016408E-06
  -9.85000038       9.27614383E-06
  -9.84000015       1.19696360E-05
  -9.82999992       1.30102417E-05
  -9.81999969       1.25700517E-05
  -9.81000042       1.14485747E-05
  -9.80000019       1.09064968E-05
  -9.78999996       1.23291575E-05
  -9.77999973       1.68188635E-05
  -9.77000046       2.48436554E-05
  -9.76000023       3.60578742E-05
  -9.75000000       4.93596162E-05
  -9.73999977       6.31769508E-05
  -9.72999954       7.59035975E-05
  -9.72000027       8.63550013E-05
  -9.71000004       9.41070466E-05
  -9.69999981       9.96139497E-05
  -9.68999958       1.04068415E-04
  -9.68000031       1.09046632E-04
  -9.67000008       1.16046234E-04
  -9.65999985       1.26057334E-04
  -9.64999962       1.39294119E-04
  -9.64000034       1.55161208E-04
  -9.63000011       1.72453292E-04
  -9.61999989       1.89711936E-04
  -9.60999966       2.05615637E-04
  -9.60000038       2.19273468E-04
  -9.59000015       2.30330217E-04
  -9.57999992       2.38860506E-04
  -9.56999969       2.45104457E-04
  -9.56000042       2.49155884E-04
  -9.55000019       2.50729354E-04
  -9.53999996       2.49106030E-04
  -9.52999973       2.43289629E-04
  -9.52000046       2.32326813E-04
  -9.51000023       2.15679014E-04
  -9.50000000       1.93506596E-04
  -9.48999977       1.66748621E-04
  -9.47999954       1.36950810E-04
  -9.47000027       1.05879357E-04
  -9.46000004       7.50424006E-05
  -9.44999981       4.52781242E-05
  -9.43999958       1.65560632E-05
  -9.43000031      -1.19285314E-05
  -9.42000008      -4.13881498E-05
  -9.40999985      -7.29204839E-05
  -9.39999962      -1.07006264E-04
  -9.39000034      -1.43205267E-04
  -9.38000011      -1.80163726E-04
  -9.36999989      -2.15942375E-04
  -9.35999966      -2.48560245E-04
  -9.35000038      -2.76568870E-04
  -9.34000015      -2.99454492E-04
  -9.32999992      -3.17718950E-04
  -9.31999969      -3.32599535E-04
  -9.31000042      -3.45515466E-04
  -9.30000019      -3.57429177E-04
  -9.28999996      -3.68348730E-04
  -9.27999973      -3.77155608E-04
  -9.27000046      -3.81832797E-04
  -9.26000023      -3.80030338E-04
  -9.25000000      -3.69783054E-04
  -9.23999977      -3.50138464E-04
  -9.22999954      -3.21476255E-04
  -9.22000027      -2.85407034E-04
  -9.21000004      -2.44281051E-04
  -9.19999981      -2.00477676E-04
  -9.18999958      -1.55721762E-04
  -9.18000031      -1.10668414E-04
  -9.17000008      -6.48986170E-05
  -9.15999985      -1.73236840E-05
  -9.14999962       3.31540941E-05
  -9.14000034       8.69719443E-05
  -9.13000011       1.43480589E-04
  -9.11999989       2.00929542E-04
  -9.10999966       2.56880274E-04
  -9.10000038       3.08906281E-04
  -9.09000015       3.55330092E-04
  -9.07999992       3.95725219E-04
  -9.06999969       4.30992222E-04
  -9.06000042       4.62966069E-04
  -9.05000019       4.93682746E-04
  -9.03999996       5.24556846E-04
  -9.02999973       5.55760285E-04
  -9.02000046       5.86023263E-04
  -9.01000023       6.12933189E-04
  -9.00000000       6.33631367E-04
  -8.98999977       6.45666267E-04
  -8.97999954       6.47711626E-04
  -8.97000027       6.39905571E-04
  -8.96000004       6.23705448E-04
  -8.94999981       6.01329142E-04
  -8.93999958       5.74994832E-04
  -8.93000031       5.46241121E-04
  -8.92000008       5.15566673E-04
  -8.90999985       4.82506643E-04
  -8.89999962       4.46091464E-04
  -8.89000034       4.05495550E-04
  -8.88000011       3.60610255E-04
  -8.86999989       3.12314049E-04
  -8.85999966       2.62331072E-04
  -8.85000038       2.12733328E-04
  -8.84000015       1.65281584E-04
  -8.82999992       1.20866243E-04
  -8.81999969       7.92725186E-05
  -8.81000042       3.93711016E-05
  -8.80000019      -3.28199775E-07
  -8.78999996      -4.09677996E-05
  -8.77999973      -8.27498734E-05
  -8.77000046      -1.24695434E-04
  -8.76000023      -1.64860190E-04
  -8.75000000      -2.00942624E-04
  -8.73999977      -2.31067199E-04
  -8.72999954      -2.54455081E-04
  -8.72000027      -2.71728990E-04
  -8.71000004      -2.84729409E-04
  -8.69999981      -2.95898004E-04
  -8.68999958      -3.07443581E-04
  -8.68000031      -3.20588471E-04
  -8.67000008      -3.35166871E-04
  -8.65999985      -3.49719747E-04
  -8.64999962      -3.62050458E-04
  -8.64000034      -3.70038731E-04
  -8.63000011      -3.72417388E-04
  -8.61999989      -3.69231449E-04
  -8.60999966      -3.61817423E-04
  -8.60000038      -3.52316740E-04
  -8.59000015      -3.42906336E-04
  -8.57999992      -3.35030112E-04
  -8.56999969      -3.28910217E-04
  -8.56000042      -3.23510409E-04
  -8.55000019      -3.16955819E-04
  -8.53999996      -3.07247363E-04
  -8.52999973      -2.93005141E-04
  -8.52000046      -2.73971789E-04
  -8.51000023      -2.51102931E-04
  -8.50000000      -2.26228120E-04
  -8.48999977      -2.01424569E-04
  -8.47999954      -1.78348695E-04
  -8.47000027      -1.57776260E-04
  -8.46000004      -1.39515483E-04
  -8.44999981      -1.22709447E-04
  -8.43999958      -1.06394793E-04
  -8.43000031      -9.00865853E-05
  -8.42000008      -7.41527838E-05
  -8.40999985      -5.98263614E-05
  -8.39999962      -4.88430596E-05
  -8.39000034      -4.28387357E-05
  -8.38000011      -4.27337545E-05
  -8.36999989      -4.83371296E-05
  -8.35999966      -5.83243127E-05
  -8.35000038      -7.06028586E-05
  -8.34000015      -8.29397104E-05
  -8.32999992      -9.36280921E-05
  -8.31999969      -1.01960315E-04
  -8.31000042      -1.08346459E-04
  -8.30000019      -1.14047929E-04
  -8.28999996      -1.20633224E-04
  -8.27999973      -1.29357068E-04
  -8.27000046      -1.40685050E-04
  -8.26000023      -1.54122332E-04
  -8.25000000      -1.68391183E-04
  -8.23999977      -1.81872645E-04
  -8.22999954      -1.93139422E-04
  -8.22000027      -2.01381976E-04
  -8.21000004      -2.06581331E-04
  -8.19999981      -2.09383536E-04
  -8.18999958      -2.10741506E-04
  -8.18000031      -2.11474413E-04
  -8.17000008      -2.11914914E-04
  -8.15999985      -2.11772611E-04
  -8.14999962      -2.10254017E-04
  -8.14000034      -2.06380137E-04
  -8.13000011      -1.99370945E-04
  -8.11999989      -1.88947219E-04
  -8.10999966      -1.75437584E-04
  -8.10000038      -1.59656556E-04
  -8.09000015      -1.42606485E-04
  -8.07999992      -1.25120016E-04
  -8.06999969      -1.07575885E-04
  -8.06000042      -8.97889113E-05
  -8.05000019      -7.11076427E-05
  -8.03999996      -5.06760807E-05
  -8.02999973      -2.77614636E-05
  -8.02000046      -2.03132959E-06
  -8.01000023       2.63099737E-05
  -8.00000000       5.65619594E-05
  -7.98999977       8.77177372E-05
  -7.98000002       1.18729964E-04
  -7.96999979       1.48760635E-04
  -7.96000004       1.77341004E-04
  -7.94999981       2.04405311E-04
  -7.94000006       2.30208185E-04
  -7.92999983       2.55169987E-04
  -7.92000008       2.79705797E-04
  -7.90999985       3.04087298E-04
  -7.90000010       3.28362104E-04
  -7.88999987       3.52331437E-04
  -7.88000011       3.75572505E-04
  -7.86999989       3.97487282E-04
  -7.86000013       4.17366944E-04
  -7.84999990       4.34471614E-04
  -7.84000015       4.48126200E-04
  -7.82999992       4.57829010E-04
  -7.82000017       4.63353528E-04
  -7.80999994       4.64813609E-04
  -7.80000019       4.62657452E-04
  -7.78999996       4.57570713E-04
  -7.78000021       4.50294407E-04
  -7.76999998       4.41401236E-04
  -7.76000023       4.31096414E-04
  -7.75000000       4.19115997E-04
  -7.73999977       4.04772727E-04
  -7.73000002       3.87156557E-04
  -7.71999979       3.65440501E-04
  -7.71000004       3.39202204E-04
  -7.69999981       3.08653805E-04
  -7.69000006       2.74696853E-04
  -7.67999983       2.38769513E-04
  -7.67000008       2.02523137E-04
  -7.65999985       1.67426668E-04
  -7.65000010       1.34423783E-04
  -7.63999987       1.03757520E-04
  -7.63000011       7.50218751E-05
  -7.61999989       4.74255030E-05
  -7.61000013       2.01786243E-05
  -7.59999990      -7.12816018E-06
  -7.59000015      -3.42848252E-05
  -7.57999992      -6.04464913E-05
  -7.57000017      -8.43503294E-05
  -7.55999994      -1.04691091E-04
  -7.55000019      -1.20529265E-04
  -7.53999996      -1.31589564E-04
  -7.53000021      -1.38347546E-04
  -7.51999998      -1.41872457E-04
  -7.51000023      -1.43477941E-04
  -7.50000000      -1.44299818E-04
  -7.48999977      -1.44943304E-04
  -7.48000002      -1.45319878E-04
  -7.46999979      -1.44730075E-04
  -7.46000004      -1.42162244E-04
  -7.44999981      -1.36706309E-04
  -7.44000006      -1.27939158E-04