  -16.0000000       0.00000000    
  -15.9899998       0.00000000    
  -15.9799995       0.00000000    
  -15.9700003       0.00000000    
  -15.9600000       0.00000000    
  -15.9499998       0.00000000    
  -15.9399996       0.00000000    
  -15.9300003       0.00000000    
  -15.9200001       0.00000000    
  -15.9099998       0.00000000    
  -15.8999996       0.00000000    
  -15.8900003      -9.07200626E-42
  -15.8800001      -2.84146895E-40
  -15.8699999      -4.95691535E-39
  -15.8599997      -5.92488217E-38
  -15.8500004      -5.26391289E-37
  -15.8400002      -3.66516254E-36
  -15.8299999      -2.07916726E-35
  -15.8199997      -9.89213738E-35
  -15.8100004      -4.03387876E-34
  -15.8000002      -1.43280299E-33
  -15.7900000      -4.48448156E-33
  -15.7799997      -1.24616272E-32
  -15.7700005      -3.08477724E-32
  -15.7600002      -6.78861800E-32
  -15.7500000      -1.31400967E-31
  -15.7399998      -2.17316391E-31
  -15.7299995      -2.82766224E-31
  -15.7200003      -1.97546387E-31
  -15.7100000       3.23238777E-31
  -15.6999998       1.77817200E-30
  -15.6899996       4.85857657E-30
  -15.6800003       1.02175549E-29
  -15.6700001       1.78579296E-29
  -15.6599998       2.60162441E-29
  -15.6499996       2.96671994E-29
  -15.6400003       1.93204914E-29
  -15.6300001      -1.84005378E-29
  -15.6199999      -9.61695664E-29
  -15.6099997      -2.15294484E-28
  -15.6000004      -3.49203960E-28
  -15.5900002      -4.26679524E-28
  -15.5799999      -3.28311881E-28
  -15.5699997       8.37166839E-29
  -15.5600004       8.84710587E-28
  -15.5500002       1.95831022E-27
  -15.5400000       2.86601718E-27
  -15.5299997       2.81952889E-27
  -15.5200005       8.96492463E-28
  -15.5100002      -3.39984683E-27
  -15.5000000      -9.30697634E-27
  -15.4899998      -1.40681756E-26
  -15.4799995      -1.29961229E-26
  -15.4700003      -1.14018673E-27
  -15.4600000       2.30778238E-26
  -15.4499998       5.30935991E-26
  -15.4399996       7.09026394E-26
  -15.4300003       4.93537051E-26
  -15.4200001      -3.60513594E-26
  -15.4099998      -1.85383336E-25
  -15.3999996      -3.49244278E-25
  -15.3900003      -4.16157457E-25
  -15.3800001      -2.33840460E-25
  -15.3699999       3.18905452E-25
  -15.3599997       1.21418286E-24
  -15.3500004       2.15244563E-24
  -15.3400002       2.51745000E-24
  -15.3299999       1.50908194E-24
  -15.3199997      -1.48057842E-24
  -15.3100004      -6.29132310E-24
  -15.3000002      -1.14314489E-23
  -15.2900000      -1.39049419E-23
  -15.2799997      -9.85824564E-24
  -15.2700005       3.70844774E-24
  -15.2600002       2.64000964E-23
  -15.2500000       5.19831884E-23
  -15.2399998       6.75987847E-23
  -15.2299995       5.63343306E-23
  -15.2200003       4.08111194E-24
  -15.2100000      -9.02564413E-23
  -15.1999998      -2.04723996E-22
  -15.1899996      -2.90281830E-22
  -15.1800003      -2.79120269E-22
  -15.1700001      -1.08984921E-22
  -15.1599998       2.39252097E-22
  -15.1499996       7.02480106E-22
  -15.1400003       1.11456822E-21
  -15.1300001       1.22639088E-21
  -15.1199999       7.81581019E-22
  -15.1099997      -3.56739789E-22
  -15.1000004      -2.06162631E-21
  -15.0900002      -3.84206411E-21
  -15.0799999      -4.86240796E-21
  -15.0699997      -4.14209844E-21
  -15.0600004      -9.43957068E-22
  -15.0500002       4.72542717E-21
  -15.0400000       1.16751462E-20
  -15.0299997       1.73891960E-20
  -15.0200005       1.84213591E-20
  -15.0100002       1.14488881E-20
  -15.0000000      -5.12093704E-21
  -14.9899998      -2.94052465E-20
  -14.9799995      -5.48703926E-20
  -14.9700003      -7.05838904E-20
  -14.9600000      -6.36026023E-20
  -14.9499998      -2.36589326E-20
  -14.9399996       5.06303585E-20
  -14.9300003       1.45948626E-19
  -14.9200001       2.31725653E-19
  -14.9099998       2.63926579E-19
  -14.8999996       1.97190397E-19
  -14.8900003       4.66430507E-21
  -14.8800001      -2.99090389E-19
  -14.8699999      -6.40945809E-19
  -14.8599997      -8.89186898E-19
  -14.8500004      -8.80650188E-19
  -14.8400002      -4.78038274E-19
  -14.8299999       3.52229014E-19
  -14.8199997       1.46680588E-18
  -14.8100004       2.51440572E-18
  -14.8000002       2.98577563E-18
  -14.7900000       2.36625540E-18
  -14.7799997       3.74790650E-19
  -14.7700005      -2.77824656E-18
  -14.7600002      -6.22922795E-18
  -14.7500000      -8.52694668E-18
  -14.7399998      -8.01811066E-18
  -14.7299995      -3.53756238E-18
  -14.7200003       4.77098504E-18
  -14.7100000       1.48377508E-17
  -14.6999998       2.26679913E-17
  -14.6899996       2.32934722E-17
  -14.6800003       1.27134327E-17
  -14.6700001      -9.60750677E-18
  -14.6599998      -3.86251094E-17
  -14.6499996      -6.32411342E-17
  -14.6400003      -6.85820938E-17
  -14.6300001      -4.13792999E-17
  -14.6199999       2.25467779E-17
  -14.6099997       1.11258889E-16
  -14.6000004       1.93818767E-16
  -14.5900002       2.25159198E-16
  -14.5799999       1.60456045E-16
  -14.5699997      -2.29164632E-17
  -14.5600004      -3.02400318E-16
  -14.5500002      -5.96642597E-16
  -14.5400000      -7.72554770E-16
  -14.5299997      -6.80376462E-16
  -14.5200005      -2.14724718E-16
  -14.5100002       6.13397173E-16
  -14.5000000       1.62111984E-15
  -14.4899998       2.44815752E-15
  -14.4799995       2.62823651E-15
  -14.4700003       1.74307300E-15
  -14.4600000      -3.69556399E-16
  -14.4499998      -3.41925919E-15
  -14.4399996      -6.56899462E-15
  -14.4300003      -8.53166059E-15
  -14.4200001      -7.90351196E-15
  -14.4099998      -3.70000339E-15
  -14.3999996       4.04094559E-15
  -14.3900003       1.38105791E-14
  -14.3800001       2.25889033E-14
  -14.3699999       2.64045598E-14
  -14.3599997       2.15207457E-14
  -14.3500004       6.02982003E-15
  -14.3400002      -1.86153617E-14
  -14.3299999      -4.67694460E-14
  -14.3199997      -6.90718709E-14
  -14.3100004      -7.45645882E-14
  -14.3000002      -5.42662127E-14
  -14.2900000      -5.38114695E-15
  -14.2799997       6.52316539E-14
  -14.2700005       1.39930249E-13
  -14.2600002       1.92792166E-13
  -14.2500000       1.96130994E-13
  -14.2399998       1.30035997E-13
  -14.2299995      -7.52823995E-15
  -14.2200003      -1.93582373E-13
  -14.2100000      -3.79574600E-13
  -14.1999998      -4.99842192E-13
  -14.1899996      -4.89049990E-13
  -14.1800003      -3.05336702E-13
  -14.1700001       4.71991424E-14
  -14.1599998       5.04801658E-13
  -14.1499996       9.46702460E-13
  -14.1400003       1.21824859E-12
  -14.1300001       1.17280643E-12
  -14.1199999       7.23737693E-13
  -14.1099997      -1.08193219E-13
  -14.1000004      -1.16931324E-12
  -14.0900002      -2.18420811E-12
  -14.0799999      -2.81023945E-12
  -14.0699997      -2.72950412E-12
  -14.0600004      -1.75841210E-12
  -14.0500002       5.58486329E-14
  -14.0400000       2.38649096E-12
  -14.0299997       4.65392828E-12
  -14.0200005       6.13911309E-12
  -14.0100002       6.16967978E-12
  -14.0000000       4.33903651E-12
  -13.9899998       6.98788737E-13
  -13.9799995      -4.14085910E-12
  -13.9700003      -9.05500848E-12
  -13.9600000      -1.26127086E-11
  -13.9499998      -1.34258576E-11
  -13.9399996      -1.05666500E-11
  -13.9300003      -3.94621445E-12
  -13.9200001       5.46458495E-12
  -13.9099998       1.56701041E-11
  -13.8999996       2.39853710E-11
  -13.8900003       2.76398644E-11
  -13.8800001       2.45348047E-11
  -13.8699999       1.39733797E-11
  -13.8599997      -2.84543352E-12
  -13.8500004      -2.27531050E-11
  -13.8400002      -4.10620357E-11
  -13.8299999      -5.25203665E-11
  -13.8199997      -5.26101697E-11
  -13.8100004      -3.89046920E-11
  -13.8000002      -1.21313740E-11
  -13.7900000       2.33998099E-11
  -13.7799997       6.02357192E-11
  -13.7700005       8.91322294E-11
  -13.7600002       1.01129279E-10
  -13.7500000       8.99329083E-11
  -13.7399998       5.40331946E-11
  -13.7299995      -2.04679264E-12
  -13.7200003      -6.78504614E-11
  -13.7100000      -1.28644317E-10
  -13.6999998      -1.68463174E-10
  -13.6899996      -1.73980885E-10
  -13.6800003      -1.38327766E-10
  -13.6700001      -6.38477882E-11
  -13.6599998       3.70978595E-11
  -13.6499996       1.43791465E-10
  -13.6400003       2.31222028E-10
  -13.6300001       2.75832690E-10
  -13.6199999       2.61675959E-10
  -13.6099997       1.85402402E-10
  -13.6000004       5.85998819E-11
  -13.5900002      -9.34895703E-11
  -13.5799999      -2.36986958E-10
  -13.5699997      -3.37232769E-10
  -13.5600004      -3.67678638E-10
  -13.5500002      -3.17499194E-10
  -13.5400000      -1.95664110E-10
  -13.5299997      -2.99377814E-11
  -13.5200005       1.39466549E-10
  -13.5100002       2.70346107E-10
  -13.5000000       3.30483918E-10
  -13.4899998       3.07758680E-10
  -13.4799995       2.15116078E-10
  -13.4700003       8.82183354E-11
  -13.4600000      -2.44864164E-11
  -13.4499998      -7.72425388E-11
  -13.4399996      -4.39267997E-11
  -13.4300003       6.87946922E-11
  -13.4200001       2.17097881E-10
  -13.4099998       3.27622846E-10
  -13.3999996       3.17174481E-10
  -13.3900003       1.20827279E-10
  -13.3800001      -2.78641638E-10
  -13.3699999      -8.29067315E-10
  -13.3599997      -1.40375078E-09
  -13.3500004      -1.81870663E-09
  -13.3400002      -1.87284499E-09
  -13.3299999      -1.40498091E-09
  -13.3199997      -3.55155155E-10
  -13.3100004       1.18654908E-09
  -13.3000002       2.96098746E-09
  -13.2900000       4.56381732E-09
  -13.2799997       5.51641088E-09
  -13.2700005       5.37592593E-09
  -13.2600002       3.86395804E-09
  -13.2500000       9.83284454E-10
  -13.2399998      -2.91160029E-09
  -13.2299995      -7.11984471E-09
  -13.2200003      -1.06914353E-08
  -13.2100000      -1.26112170E-08
  -13.1999998      -1.20405232E-08
  -13.1899996      -8.56578186E-09
  -13.1800003      -2.39106446E-09
  -13.1700001       5.58651614E-09
  -13.1599998       1.38610989E-08
  -13.1499996       2.05711910E-08
  -13.1400003       2.38883811E-08
  -13.1300001       2.24673080E-08
  -13.1199999       1.58532192E-08
  -13.1099997       4.73669148E-09
  -13.1000004      -9.03385811E-09
  -13.0900002      -2.27232988E-08
  -13.0799999      -3.32391679E-08
  -13.0699997      -3.78237601E-08
  -13.0600004      -3.47573668E-08
  -13.0500002      -2.38970834E-08
  -13.0400000      -6.89415414E-09
  -13.0299997       1.30049083E-08
  -13.0200005       3.15728172E-08
  -13.0100002       4.45238193E-08
  -13.0000000       4.85441340E-08
  -12.9899998       4.21804529E-08
  -12.9799995       2.63466031E-08
  -12.9700003       4.28220304E-09
  -12.9600000      -1.90770528E-08
  -12.9499998      -3.82087606E-08
  -12.9399996      -4.83491718E-08
  -12.9300003      -4.67472496E-08
  -12.9200001      -3.34955530E-08
  -12.9099998      -1.16881012E-08
  -12.8999996       1.31882860E-08
  -12.8900003       3.45295668E-08
  -12.8800001       4.62740566E-08
  -12.8699999       4.45402897E-08
  -12.8599997       2.88121402E-08
  -12.8500004       2.32703368E-09
  -12.8400002      -2.84930461E-08
  -12.8299999      -5.54884210E-08
  -12.8199997      -7.07715060E-08
  -12.8100004      -6.88150479E-08
  -12.8000002      -4.80805404E-08
  -12.7900000      -1.17312835E-08
  -12.7799997       3.28183596E-08
  -12.7700005       7.54809975E-08
  -12.7600002       1.05871884E-07
  -12.7500000       1.15925900E-07
  -12.7399998       1.02101055E-07
  -12.7299995       6.65774849E-08
  -12.7200003       1.70767489E-08
  -12.7100000      -3.47493980E-08
  -12.6999998      -7.60556205E-08
  -12.6899996      -9.60604112E-08
  -12.6800003      -8.90492728E-08
  -12.6700001      -5.63597098E-08
  -12.6599998      -6.77763312E-09
  -12.6499996       4.48841568E-08
  -12.6400003       8.08430087E-08
  -12.6300001       8.44652632E-08
  -12.6199999       4.45941026E-08
  -12.6099997      -4.08686205E-08
  -12.6000004      -1.62976093E-07
  -12.5900002      -3.01903555E-07
  -12.5799999      -4.29405105E-07
  -12.5699997      -5.13232692E-07
  -12.5600004      -5.22779374E-07
  -12.5500002      -4.34940233E-07
  -12.5400000      -2.39109028E-07
  -12.5299997       5.96349281E-08
  -12.5200005       4.39769479E-07
  -12.5100002       8.65170762E-07
  -12.5000000       1.28923500E-06
  -12.4899998       1.66052803E-06
  -12.4799995       1.92891684E-06
  -12.4700003       2.05104243E-06
  -12.4600000       1.99413466E-06
  -12.4499998       1.73750664E-06
  -12.4399996       1.27157023E-06
  -12.4300003       5.94776623E-07
  -12.4200001      -2.90610217E-07
  -12.4099998      -1.38263806E-06
  -12.3999996      -2.68233748E-06
  -12.3900003      -4.19380513E-06
  -12.3800001      -5.92108790E-06
  -12.3699999      -7.86199598E-06
  -12.3599997      -9.99982694E-06
  -12.3500004      -1.22947076E-05
  -12.3400002      -1.46767252E-05
  -12.3299999      -1.70430394E-05
  -12.3199997      -1.92606385E-05
  -12.3100004      -2.11754395E-05
  -12.3000002      -2.26271495E-05
  -12.2900000      -2.34678828E-05
  -12.2799997      -2.35814950E-05
  -12.2700005      -2.29000361E-05
  -12.2600002      -2.14138818E-05
  -12.2500000      -1.91732943E-05
  -12.2399998      -1.62805572E-05
  -12.2299995      -1.28740858E-05
  -12.2200003      -9.10750350E-06
  -12.2100000      -5.12802444E-06
  -12.1999998      -1.05873869E-06
  -12.1899996       3.01147929E-06
  -12.1800003       7.02844955E-06
  -12.1700001       1.09639632E-05
  -12.1599998       1.48005884E-05
  -12.1499996       1.85145109E-05
  -12.1400003       2.20616002E-05
  -12.1300001       2.53711059E-05
  -12.1199999       2.83495810E-05
  -12.1099997       3.08948438E-05
  -12.1000004       3.29169088E-05
  -12.0900002       3.43608081E-05
  -12.0799999       3.52250099E-05
  -12.0699997       3.55701668E-05
  -12.0600004       3.55146003E-05
  -12.0500002       3.52164898E-05
  -12.0400000       3.48458634E-05
  -12.0299997       3.45520966E-05
  -12.0200005       3.44340988E-05
  -12.0100002       3.45199078E-05
  -12.0000000       3.47601526E-05
  -11.9899998       3.50367336E-05
  -11.9799995       3.51844828E-05
  -11.9700003       3.50206683E-05
  -11.9600000       3.43754364E-05
  -11.9499998       3.31170158E-05
  -11.9399996       3.11665681E-05
  -11.9300003       2.85013757E-05
  -11.9200001       2.51473557E-05
  -11.9099998       2.11651277E-05
  -11.8999996       1.66345708E-05
  -11.8900003       1.16425645E-05
  -11.8800001       6.27678173E-06
  -11.8699999       6.25912378E-07
  -11.8599997      -5.21588163E-06
  -11.8500004      -1.11439122E-05
  -11.8400002      -1.70411913E-05
  -11.8299999      -2.27825003E-05
  -11.8199997      -2.82445744E-05
  -11.8100004      -3.33201788E-05
  -11.8000002      -3.79319172E-05
  -11.7900000      -4.20410179E-05
  -11.7799997      -4.56474809E-05
  -11.7700005      -4.87802135E-05
  -11.7600002      -5.14792118E-05
  -11.7500000      -5.37743581E-05
  -11.7399998      -5.56671657E-05
  -11.7299995      -5.71217060E-05
  -11.7200003      -5.80685046E-05
  -11.7100000      -5.84218214E-05
  -11.6999998      -5.81065688E-05
  -11.6899996      -5.70879674E-05
  -11.6800003      -5.53951868E-05
  -11.6700001      -5.31314654E-05
  -11.6599998      -5.04658783E-05
  -11.6499996      -4.76067798E-05
  -11.6400003      -4.47619423E-05
  -11.6300001      -4.20942706E-05
  -11.6199999      -3.96838441E-05
  -11.6099997      -3.75062737E-05
  -11.6000004      -3.54336480E-05
  -11.5900002      -3.32593190E-05
  -11.5799999      -3.07418632E-05
  -11.5699997      -2.76588034E-05
  -11.5600004      -2.38581797E-05
  -11.5500002      -1.92962179E-05
  -11.5400000      -1.40522989E-05
  -11.5299997      -8.31754369E-06
  -11.5200005      -2.35918355E-06
  -11.5100002       3.53173436E-06
  -11.5000000       9.09818937E-06
  -11.4899998       1.41682867E-05
  -11.4799995       1.86888647E-05
  -11.4700003       2.27346827E-05
  -11.4600000       2.64913815E-05
  -11.4499998       3.02156877E-05
  -11.4399996       3.41811283E-05
  -11.4300003       3.86201391E-05
  -11.4200001       4.36741066E-05
  -11.4099998       4.93612933E-05
  -11.3999996       5.55688312E-05
  -11.3900003       6.20702776E-05
  -11.3800001       6.85649575E-05
  -11.3699999       7.47309095E-05
  -11.3599997       8.02803042E-05
  -11.3500004       8.50055585E-05
  -11.3400002       8.88065333E-05
  -11.3299999       9.16926219E-05
  -11.3199997       9.37600707E-05
  -11.3100004       9.51500406E-05
  -11.3000002       9.59982499E-05
  -11.2900000       9.63893690E-05
  -11.2799997       9.63285493E-05
  -11.2700005       9.57389639E-05
  -11.2600002       9.44868298E-05
  -11.2500000       9.24289780E-05
  -11.2399998       8.94701589E-05
  -11.2299995       8.56144325E-05
  -11.2200003       8.09947815E-05
  -11.2100000       7.58698079E-05
  -11.1999998       7.05851126E-05
  -11.1899996       6.55057956E-05
  -11.1800003       6.09358394E-05
  -11.1700001       5.70443008E-05
  -11.1599998       5.38184249E-05
  -11.1499996       5.10576283E-05
  -11.1400003       4.84122502E-05
  -11.1300001       4.54600158E-05
  -11.1199999       4.18025738E-05
  -11.1099997       3.71595415E-05
  -11.1000004       3.14379758E-05
  -11.0900002       2.47615972E-05
  -11.0799999       1.74548932E-05
  -11.0699997       9.98832274E-06
  -11.0600004       2.90053822E-06
  -11.0500002      -3.28250985E-06
  -11.0400000      -8.11385144E-06
  -11.0299997      -1.12657672E-05
  -11.0200005      -1.25428987E-05
  -11.0100002      -1.18750895E-05
  -11.0000000      -9.30282567E-06
  -10.9899998      -4.96662597E-06
  -10.9799995       8.92803143E-07
  -10.9700003       7.92626179E-06
  -10.9600000       1.56697606E-05
  -10.9499998       2.35549778E-05
  -10.9399996       3.09489624E-05
  -10.9300003       3.72277973E-05
  -10.9200001       4.18763266E-05
  -10.9099998       4.45941841E-05
  -10.8999996       4.53801840E-05
  -10.8900003       4.45673577E-05
  -10.8800001       4.27895648E-05
  -10.8699999       4.08771521E-05
  -10.8599997       3.96981268E-05
  -10.8500004       3.99782330E-05
  -10.8400002       4.21417099E-05
  -10.8299999       4.62125245E-05
  -10.8199997       5.18024608E-05
  -10.8100004       5.81912282E-05
  -10.8000002       6.44803513E-05
  -10.7900000       6.97844080E-05
  -10.7799997       7.34136702E-05
  -10.7700005       7.50055842E-05
  -10.7600002       7.45773214E-05
  -10.7500000       7.24915953E-05
  -10.7399998       6.93512047E-05
  -10.7299995       6.58521749E-05
  -10.7200003       6.26339606E-05
  -10.7100000       6.01595930E-05
  -10.6999998       5.86480528E-05
  -10.6899996       5.80641281E-05
  -10.6800003       5.81567328E-05
  -10.6700001       5.85279122E-05
  -10.6599998       5.87124778E-05
  -10.6499996       5.82527937E-05
  -10.6400003       5.67611823E-05
  -10.6300001       5.39691719E-05
  -10.6199999       4.97660112E-05
  -10.6099997       4.42279452E-05
  -10.6000004       3.76348689E-05
  -10.5900002       3.04660080E-05
  -10.5799999       2.33647061E-05
  -10.5699997       1.70661842E-05
  -10.5600004       1.22912688E-05
  -10.5500002       9.62141075E-06
  -10.5400000       9.38125140E-06
  -10.5299997       1.15594412E-05
  -10.5200005       1.57938412E-05
  -10.5100002       2.14336269E-05
  -10.5000000       2.76700739E-05
  -10.4899998       3.37082638E-05
  -10.4799995       3.89371053E-05
  -10.4700003       4.30519685E-05
  -10.4600000       4.60957090E-05
  -10.4499998       4.84047669E-05
  -10.4399996       5.04739146E-05
  -10.4300003       5.27779011E-05
  -10.4200001       5.56012819E-05
  -10.4099998       5.89279116E-05
  -10.3999996       6.24239619E-05
  -10.3900003       6.55235926E-05
  -10.3800001       6.75946576E-05
  -10.3699999       6.81393285E-05
  -10.3599997       6.69721558E-05
  -10.3500004       6.43225721E-05
  -10.3400002       6.08292103E-05
  -10.3299999       5.74219375E-05
  -10.3199997       5.51166340E-05
  -10.3100004       5.47732161E-05
  -10.3000002       5.68757314E-05
  -10.2900000       6.13897573E-05
  -10.2799997       6.77344578E-05
  -10.2700005       7.48780294E-05
  -10.2600002       8.15387029E-05
  -10.2500000       8.64481408E-05
  -10.2399998       8.86217385E-05
  -10.2299995       8.75774931E-05
  -10.2200003       8.34576276E-05
  -10.2100000       7.70247279E-05
  -10.1999998       6.95315757E-05
  -10.1899996       6.24870736E-05
  -10.1800003       5.73631187E-05
  -10.1700001       5.52990641E-05
  -10.1599998       5.68642135E-05
  -10.1499996       6.19292477E-05
  -10.1400003       6.96773932E-05
  -10.1300001       7.87599565E-05
  -10.1199999       8.75695114E-05
  -10.1099997       9.45773645E-05
  -10.1000004       9.86635132E-05
  -10.0900002       9.93651338E-05
  -10.0799999       9.69826360E-05
  -10.0699997       9.25128770E-05
  -10.0600004       8.74183461E-05
  -10.0500002       8.32807200E-05
  -10.0400000       8.14199302E-05
  -10.0299997       8.25708412E-05
  -10.0200005       8.67007038E-05
  -10.0100002       9.30180468E-05
  -10.0000000       1.00174882E-04
  -9.98999977       1.06616695E-04
  -9.97999954       1.10992049E-04
  -9.97000027       1.12515860E-04
  -9.96000004       1.11190078E-04
  -9.94999981       1.07820400E-04
  -9.93999958       1.03820850E-04
  -9.93000031       1.00855032E-04
  -9.92000008       1.00406127E-04
  -9.90999985       1.03389728E-04
  -9.89999962       1.09911511E-04
  -9.89000034       1.19233729E-04
  -9.88000011       1.29958993E-04
  -9.86999989       1.40380027E-04
  -9.85999966       1.48901701E-04
  -9.85000038       1.54422392E-04
  -9.84000015       1.56576425E-04
  -9.82999992       1.55780101E-04
  -9.81999969       1.53080182E-04
  -9.81000042       1.49857937E-04
  -9.80000019       1.47479761E-04
  -9.78999996       1.46994615E-04
  -9.77999973       1.48959181E-04
  -9.77000046       1.53427420E-04
  -9.76000023       1.60089956E-04
  -9.75000000       1.68502753E-04
  -9.73999977       1.78321163E-04
  -9.72999954       1.89459184E-04
  -9.72000027       2.02125782E-04
  -9.71000004       2.16732966E-04
  -9.69999981       2.33716448E-04
  -9.68999958       2.53339036E-04
  -9.68000031       2.75550090E-04
  -9.67000008       2.99951207E-04
  -9.65999985       3.25879082E-04
  -9.64999962       3.52568866E-04
  -9.64000034       3.79334786E-04
  -9.63000011       4.05693805E-04
  -9.61999989       4.31383203E-04
  -9.60999966       4.56262089E-04
  -9.60000038       4.80136136E-04
  -9.59000015       5.02576819E-04
  -9.57999992       5.22818009E-04
  -9.56999969       5.39785775E-04
  -9.56000042       5.52273123E-04
  -9.55000019       5.59212582E-04
  -9.53999996       5.59959852E-04
  -9.52999973       5.54483267E-04
  -9.52000046       5.43385220E-04
  -9.51000023       5.27727883E-04
  -9.50000000       5.08711615E-04
  -9.48999977       4.87305631E-04
  -9.47999954       4.63956269E-04
  -9.47000027       4.38479416E-04
  -9.46000004       4.10181441E-04
  -9.44999981       3.78175551E-04
  -9.43999958       3.41787498E-04
  -9.43000031       3.00909363E-04
  -9.42000008       2.56169442E-04
  -9.40999985       2.08853351E-04
  -9.39999962       1.60594180E-04
  -9.39000034       1.12939728E-04
  -9.38000011       6.69548608E-05
  -9.36999989       2.30095193E-05
  -9.35999966      -1.91566687E-05
  -9.35000038      -6.01055108E-05
  -9.34000015      -1.00217927E-04
  -9.32999992      -1.39235286E-04
  -9.31999969      -1.76007510E-04
  -9.31000042      -2.08563157E-04
  -9.30000019      -2.34507388E-04
  -9.28999996      -2.51631544E-04
  -9.27999973      -2.58533692E-04
  -9.27000046      -2.55031831E-04
  -9.26000023      -2.42208043E-04
  -9.25000000      -2.22051516E-04
  -9.23999977      -1.96804584E-04
  -9.22999954      -1.68225815E-04
  -9.22000027      -1.37025854E-04
  -9.21000004      -1.02678459E-04
  -9.19999981      -6.36845944E-05
  -9.18999958      -1.82093245E-05
  -9.18000031       3.51232666E-05
  -9.17000008       9.65569780E-05
  -9.15999985       1.64891695E-04
  -9.14999962       2.37655462E-04
  -9.14000034       3.11715266E-04
  -9.13000011       3.84120212E-04
  -9.11999989       4.52890992E-04
  -9.10999966       5.17480541E-04
  -9.10000038       5.78744570E-04
  -9.09000015       6.38430240E-04
  -9.07999992       6.98364922E-04
  -9.06999969       7.59628252E-04
  -9.06000042       8.22000206E-04
  -9.05000019       8.83879547E-04
  -9.03999996       9.42695362E-04
  -9.02999973       9.95656592E-04
  -9.02000046       1.04057125E-03
  -9.01000023       1.07643940E-03
  -9.00000000       1.10360712E-03
  -8.98999977       1.12344406E-03
  -8.97999954       1.13767188E-03
  -8.97000027       1.14760641E-03
  -8.96000004       1.15360622E-03
  -8.94999981       1.15493895E-03
  -8.93999958       1.15011609E-03
  -8.93000031       1.13757572E-03
  -8.92000008       1.11643935E-03
  -8.90999985       1.08705473E-03
  -8.89999962       1.05109764E-03
  -8.89000034       1.01117580E-03
  -8.88000011       9.70055058E-04
  -8.86999989       9.29795264E-04
  -8.85999966       8.91096308E-04
  -8.85000038       8.53111153E-04
  -8.84000015       8.13806080E-04
  -8.82999992       7.70750688E-04
  -8.81999969       7.22065102E-04
  -8.81000042       6.67190528E-04
  -8.80000019       6.07208873E-04
  -8.78999996       5.44595998E-04
  -8.77999973       4.82497388E-04
  -8.77000046       4.23784222E-04
  -8.76000023       3.70224210E-04
  -8.75000000       3.22064065E-04
  -8.73999977       2.78159539E-04
  -8.72999954       2.36603242E-04
  -8.72000027       1.95613349E-04
  -8.71000004       1.54353504E-04
  -8.69999981       1.13390830E-04
  -8.68999958       7.46219957E-05
  -8.68000031       4.06998661E-05
  -8.67000008       1.41689743E-05
  -8.65999985      -3.37885194E-06
  -8.64999962      -1.18269800E-05
  -8.64000034      -1.25510232E-05
  -8.63000011      -7.93118488E-06
  -8.61999989      -5.37468566E-07
  -8.60999966       7.72128351E-06
  -8.60000038       1.61877615E-05
  -8.59000015       2.55900704E-05
  -8.57999992       3.76875651E-05
  -8.56999969       5.45711155E-05
  -8.56000042       7.78741232E-05
  -8.55000019       1.08172848E-04
  -8.53999996       1.44777281E-04
  -8.52999973       1.85962912E-04
  -8.52000046       2.29542042E-04
  -8.51000023       2.73552985E-04
  -8.50000000       3.16818594E-04
  -8.48999977       3.59180849E-04
  -8.47999954       4.01343248E-04
  -8.47000027       4.44399775E-04
  -8.46000004       4.89228172E-04
  -8.44999981       5.35968342E-04
  -8.43999958       5.83771558E-04
  -8.43000031       6.30891591E-04
  -8.42000008       6.75081916E-04
  -8.40999985       7.14152178E-04
  -8.39999962       7.46499980E-04
  -8.39000034       7.71456806E-04
  -8.38000011       7.89355603E-04
  -8.36999989       8.01331131E-04
  -8.35999966       8.08944518E-04
  -8.35000038       8.13761028E-04
  -8.34000015       8.17014778E-04
  -8.32999992       8.19437380E-04
  -8.31999969       8.21269117E-04
  -8.31000042       8.22404108E-04
  -8.30000019       8.22599395E-04
  -8.28999996       8.21667782E-04
  -8.27999973       8.19596811E-04
  -8.27000046       8.16586195E-04
  -8.26000023       8.13004794E-04
  -8.25000000       8.09305755E-04
  -8.23999977       8.05928139E-04
  -8.22999954       8.03205126E-04
  -8.22000027       8.01290502E-04
  -8.21000004       8.00114358E-04
  -8.19999981       7.99373083E-04
  -8.18999958       7.98565801E-04
  -8.18000031       7.97088316E-04
  -8.17000008       7.94379390E-04
  -8.15999985       7.90097110E-04
  -8.14999962       7.84278149E-04
  -8.14000034       7.77426176E-04
  -8.13000011       7.70482584E-04
  -8.11999989       7.64663448E-04
  -8.10999966       7.61196308E-04
  -8.10000038       7.61023199E-04
  -8.09000015       7.64572585E-04
  -8.07999992       7.71682651E-04
  -8.06999969       7.81712239E-04
  -8.06000042       7.93819549E-04
  -8.05000019       8.07315751E-04
  -8.03999996       8.21974943E-04
  -8.02999973       8.38178326E-04
  -8.02000046       8.56831262E-04
  -8.01000023       8.79074563E-04
  -8.00000000       9.05882451E-04
  -7.98999977       9.37690551E-04
  -7.98000002       9.74203052E-04
  -7.96999979       1.01445662E-03
  -7.96000004       1.05712819E-03
  -7.94999981       1.10098708E-03
  -7.94000006       1.14532432E-03
  -7.92999983       1.19019195E-03
  -7.92000008       1.23634737E-03
  -7.90999985       1.28490780E-03
  -7.90000010       1.33682590E-03
  -7.88999987       1.39236369E-03
  -7.88000011       1.45077286E-03
  -7.86999989       1.51030102E-03
  -7.86000013       1.56855001E-03
  -7.84999990       1.62308023E-03
  -7.84000015       1.67205511E-03
  -7.82999992       1.71471469E-03
  -7.82000017       1.75150053E-03
  -7.80999994       1.78379146E-03
  -7.80000019       1.81332440E-03
  -7.78999996       1.84150005E-03
  -7.78000021       1.86881062E-03
  -7.76999998       1.89458090E-03
  -7.76000023       1.91712182E-03
  -7.75000000       1.93423813E-03
  -7.73999977       1.94392796E-03
  -7.73000002       1.94503705E-03
  -7.71999979       1.93764817E-03
  -7.71000004       1.92309532E-03
  -7.69999981       1.90359040E-03
  -7.69000006       1.88160699E-03
  -7.67999983       1.85922580E-03
  -7.67000008       1.83765602E-03
  -7.65999985       1.81708473E-03
  -7.65000010       1.79687224E-03
  -7.63999987       1.77602330E-03
  -7.63000011       1.75374153E-03
  -7.61999989       1.72988581E-03
  -7.61000013       1.70515780E-03
  -7.59999990       1.68097962E-03
  -7.59000015       1.65910251E-03
  -7.57999992       1.64108118E-03
  -7.57000017       1.62781449E-03
  -7.55999994       1.61928660E-03
  -7.55000019       1.61459553E-03
  -7.53999996       1.61226583E-03
  -7.53000021       1.61072484E-03
  -7.51999998       1.60880235E-03
  -7.51000023       1.60607882E-03
  -7.50000000       1.60299835E-03
  -7.48999977       1.60069426E-03
  -7.48000002       1.60061743E-03
  -7.46999979       1.60405796E-03
  -7.46000004       1.61174522E-03
  -7.44999981       1.62362272E-03
  -7.44000006       1.63888221E-03