  -16.0000000       0.00000000    
  -15.9899998       0.00000000    
  -15.9799995       0.00000000    
  -15.9700003       0.00000000    
  -15.9600000       0.00000000    
  -15.9499998       0.00000000    
  -15.9399996       0.00000000    
  -15.9300003       0.00000000    
  -15.9200001       0.00000000    
  -15.9099998       0.00000000    
  -15.8999996       0.00000000    
  -15.8900003       0.00000000    
  -15.8800001       3.22298647E-44
  -15.8699999       7.52497275E-43
  -15.8599997       8.90104785E-42
  -15.8500004       7.23266189E-41
  -15.8400002       4.53554070E-40
  -15.8299999       2.33678010E-39
  -15.8199997       1.02690024E-38
  -15.8100004       3.93889976E-38
  -15.8000002       1.33685488E-37
  -15.7900000       4.04142907E-37
  -15.7799997       1.08865734E-36
  -15.7700005       2.59492620E-36
  -15.7600002       5.36936353E-36
  -15.7500000       9.19475139E-36
  -15.7399998       1.11872775E-35
  -15.7299995       1.60211059E-36
  -15.7200003      -4.27564431E-35
  -15.7100000      -1.65112462E-34
  -15.6999998      -4.27502546E-34
  -15.6899996      -8.86913059E-34
  -15.6800003      -1.53048327E-33
  -15.6700001      -2.16260636E-33
  -15.6599998      -2.27530009E-33
  -15.6499996      -1.00164865E-33
  -15.6400003       2.67799268E-33
  -15.6300001       9.31133761E-33
  -15.6199999       1.79504115E-32
  -15.6099997       2.51758182E-32
  -15.6000004       2.51608336E-32
  -15.5900002       1.19823407E-32
  -15.5799999      -1.54459311E-32
  -15.5699997      -4.78667001E-32
  -15.5600004      -6.51356760E-32
  -15.5500002      -4.81555749E-32
  -15.5400000      -6.63207007E-33
  -15.5299997      -1.13291795E-32
  -15.5200005      -1.95718881E-31
  -15.5100002      -6.73028632E-31
  -15.5000000      -1.33009386E-30
  -15.4899998      -1.54384181E-30
  -15.4799995      -2.97893808E-32
  -15.4700003       4.78544014E-30
  -15.4600000       1.34396989E-29
  -15.4499998       2.30905820E-29
  -15.4399996       2.50322308E-29
  -15.4300003       4.37942025E-30
  -15.4200001      -5.46057051E-29
  -15.4099998      -1.54592519E-28
  -15.3999996      -2.63666454E-28
  -15.3900003      -2.95435487E-28
  -15.3800001      -1.10579964E-28
  -15.3699999       4.33554756E-28
  -15.3599997       1.36612846E-27
  -15.3500004       2.43184747E-27
  -15.3400002       2.93885181E-27
  -15.3299999       1.76956947E-27
  -15.3199997      -2.26217959E-27
  -15.3100004      -9.58276719E-27
  -15.3000002      -1.86510738E-26
  -15.2900000      -2.48464869E-26
  -15.2799997      -2.03689340E-26
  -15.2700005       3.69185671E-27
  -15.2600002       5.22943228E-26
  -15.2500000       1.18812350E-25
  -15.2399998       1.77443278E-25
  -15.2299995       1.80820466E-25
  -15.2200003       6.95395802E-26
  -15.2100000      -2.01113050E-25
  -15.1999998      -6.18123943E-25
  -15.1899996      -1.06356051E-24
  -15.1800003      -1.28906853E-24
  -15.1700001      -9.47584650E-25
  -15.1599998       2.86034259E-25
  -15.1499996       2.50017493E-24
  -15.1400003       5.28411220E-24
  -15.1300001       7.53239102E-24
  -15.1199999       7.48610540E-24
  -15.1099997       3.18363140E-24
  -15.1000004      -6.60156395E-24
  -15.0900002      -2.10720651E-23
  -15.0799999      -3.62055759E-23
  -15.0699997      -4.43717188E-23
  -15.0600004      -3.56054862E-23
  -15.0500002      -1.11012303E-24
  -15.0400000       6.12072380E-23
  -15.0299997       1.40584669E-22
  -15.0200005       2.09401146E-22
  -15.0100002       2.24929841E-22
  -15.0000000       1.40031545E-22
  -14.9899998      -7.63773740E-23
  -14.9799995      -4.12607322E-22
  -14.9700003      -7.90243040E-22
  -14.9600000      -1.05659227E-21
  -14.9499998      -1.00806407E-21
  -14.9399996      -4.53392769E-22
  -14.9300003       6.87856266E-22
  -14.9200001       2.27574451E-21
  -14.9099998       3.87388108E-21
  -14.8999996       4.76289950E-21
  -14.8900003       4.09195101E-21
  -14.8800001       1.18206159E-21
  -14.8699999      -4.06581162E-21
  -14.8599997      -1.07799761E-20
  -14.8500004      -1.69284257E-20
  -14.8400002      -1.95290783E-20
  -14.8299999      -1.53928667E-20
  -14.8199997      -2.37301598E-21
  -14.8100004       1.91400256E-20
  -14.8000002       4.49837587E-20
  -14.7900000       6.69107755E-20
  -14.7799997       7.38143925E-20
  -14.7700005       5.47804820E-20
  -14.7600002       3.63777070E-21
  -14.7500000      -7.61038734E-20
  -14.7399998      -1.67744629E-19
  -14.7299995      -2.41435202E-19
  -14.7200003      -2.59469213E-19
  -14.7100000      -1.87229165E-19
  -14.6999998      -8.12611086E-21
  -14.6899996       2.61469517E-19
  -14.6800003       5.63117212E-19
  -14.6700001       7.99158629E-19
  -14.6599998       8.51755942E-19
  -14.6499996       6.17961975E-19
  -14.6400003       5.44909300E-20
  -14.6300001      -7.80474014E-19
  -14.6199999      -1.70524607E-18
  -14.6099997      -2.42867693E-18
  -14.6000004      -2.60977220E-18
  -14.5900002      -1.95937374E-18
  -14.5799999      -3.63651345E-19
  -14.5699997       2.00654082E-18
  -14.5600004       4.64489583E-18
  -14.5500002       6.75744646E-18
  -14.5400000       7.42847977E-18
  -14.5299997       5.88935101E-18
  -14.5200005       1.83347788E-18
  -14.5100002      -4.31509230E-18
  -14.5000000      -1.12877190E-17
  -14.4899998      -1.71030428E-17
  -14.4799995      -1.94817677E-17
  -14.4700003      -1.64971909E-17
  -14.4600000      -7.31933164E-18
  -14.4499998       7.16528083E-18
  -14.4399996       2.41014407E-17
  -14.4300003       3.89748843E-17
  -14.4200001       4.65492846E-17
  -14.4099998       4.23088358E-17
  -14.3999996       2.40845828E-17
  -14.3900003      -6.60642106E-18
  -14.3800001      -4.40151539E-17
  -14.3699999      -7.87931157E-17
  -14.3599997      -9.99112154E-17
  -14.3500004      -9.75899746E-17
  -14.3400002      -6.65770477E-17
  -14.3299999      -8.83554129E-18
  -14.3199997       6.53291631E-17
  -14.3100004       1.38413720E-16
  -14.3000002       1.89293308E-16
  -14.2900000       1.98671141E-16
  -14.2799997       1.55140688E-16
  -14.2700005       6.01473993E-17
  -14.2600002      -6.98757646E-17
  -14.2500000      -2.05399494E-16
  -14.2399998      -3.09917576E-16
  -14.2299995      -3.49241637E-16
  -14.2200003      -3.01757182E-16
  -14.2100000      -1.66739931E-16
  -14.1999998       3.20844831E-17
  -14.1899996       2.49584584E-16
  -14.1800003       4.29016709E-16
  -14.1700001       5.16690680E-16
  -14.1599998       4.77855649E-16
  -14.1499996       3.09229230E-16
  -14.1400003       4.39302951E-17
  -14.1300001      -2.53727316E-16
  -14.1199999      -5.03396392E-16
  -14.1099997      -6.30563619E-16
  -14.1000004      -5.89373942E-16
  -14.0900002      -3.79585560E-16
  -14.0799999      -5.17157984E-17
  -14.0699997       3.02727114E-16
  -14.0600004       5.74844627E-16
  -14.0500002       6.70292164E-16
  -14.0400000       5.40773203E-16
  -14.0299997       2.05259946E-16
  -14.0200005      -2.47010742E-16
  -14.0100002      -6.75166045E-16
  -14.0000000      -9.24153603E-16
  -13.9899998      -8.72079923E-16
  -13.9799995      -4.74270158E-16
  -13.9700003       2.09868678E-16
  -13.9600000       1.01776895E-15
  -13.9499998       1.71605593E-15
  -13.9399996       2.05910639E-15
  -13.9300003       1.86018155E-15
  -13.9200001       1.05607718E-15
  -13.9099998      -2.54236277E-16
  -13.8999996      -1.81143650E-15
  -13.8900003      -3.24277903E-15
  -13.8800001      -4.14662396E-15
  -13.8699999      -4.19576288E-15
  -13.8599997      -3.23357708E-15
  -13.8500004      -1.33642466E-15
  -13.8400002       1.17777337E-15
  -13.8299999       3.80216912E-15
  -13.8199997       5.94664648E-15
  -13.8100004       7.07369581E-15
  -13.8000002       6.83212921E-15
  -13.7900000       5.15459782E-15
  -13.7799997       2.29208492E-15
  -13.7700005      -1.22687185E-15
  -13.7600002      -4.70579657E-15
  -13.7500000      -7.43455810E-15
  -13.7399998      -8.85169505E-15
  -13.7299995      -8.67474732E-15
  -13.7200003      -6.96527940E-15
  -13.7100000      -4.11100707E-15
  -13.6999998      -7.28100469E-16
  -13.6899996       2.49253018E-15
  -13.6800003       4.95595335E-15
  -13.6700001       6.30646099E-15
  -13.6599998       6.50477978E-15
  -13.6499996       5.81722196E-15
  -13.6400003       4.71773126E-15
  -13.6300001       3.72782165E-15
  -13.6199999       3.23787047E-15
  -13.6099997       3.36117560E-15
  -13.6000004       3.86661138E-15
  -13.5900002       4.21724152E-15
  -13.5799999       3.71475278E-15
  -13.5699997       1.71963517E-15
  -13.5600004      -2.10762719E-15
  -13.5500002      -7.61138640E-15
  -13.5400000      -1.40542680E-14
  -13.5299997      -2.01800534E-14
  -13.5200005      -2.44317438E-14
  -13.5100002      -2.52900440E-14
  -13.5000000      -2.16612701E-14
  -13.4899998      -1.32222749E-14
  -13.4799995      -6.29659888E-16
  -13.4700003       1.44756813E-14
  -13.4600000       2.96936378E-14
  -13.4499998       4.22899596E-14
  -13.4399996       4.97391875E-14
  -13.4300003       5.02667196E-14
  -13.4200001       4.32617029E-14
  -13.4099998       2.94546763E-14
  -13.3999996       1.08049827E-14
  -13.3900003      -9.88802376E-15
  -13.3800001      -2.95652276E-14
  -13.3699999      -4.55414752E-14
  -13.3599997      -5.60338587E-14
  -13.3500004      -6.04460533E-14
  -13.3400002      -5.93292912E-14
  -13.3299999      -5.40263465E-14
  -13.3199997      -4.60954381E-14
  -13.3100004      -3.66826761E-14
  -13.3000002      -2.60416925E-14
  -13.2900000      -1.33755481E-14
  -13.2799997       2.90112236E-15
  -13.2700005       2.44971398E-14
  -13.2600002       5.23202731E-14
  -13.2500000       8.55395466E-14
  -13.2399998       1.20929417E-13
  -13.2299995       1.52764398E-13
  -13.2200003       1.73428031E-13
  -13.2100000       1.74734671E-13
  -13.1999998       1.49770645E-13
  -13.1899996       9.48921456E-14
  -13.1800003       1.14133514E-14
  -13.1700001      -9.34801282E-14
  -13.1599998      -2.06943485E-13
  -13.1499996      -3.11943315E-13
  -13.1400003      -3.89846819E-13
  -13.1300001      -4.23713826E-13
  -13.1199999      -4.01673974E-13
  -13.1099997      -3.19687988E-13
  -13.1000004      -1.83067483E-13
  -13.0900002      -6.34612161E-15
  -13.0799999       1.88572750E-13
  -13.0699997       3.75705028E-13
  -13.0600004       5.29106706E-13
  -13.0500002       6.27032226E-13
  -13.0400000       6.55316404E-13
  -13.0299997       6.09337938E-13
  -13.0200005       4.94237843E-13
  -13.0100002       3.23453287E-13
  -13.0000000       1.16002057E-13
  -12.9899998      -1.06795547E-13
  -12.9799995      -3.24388736E-13
  -12.9700003      -5.19211410E-13
  -12.9600000      -6.77679484E-13
  -12.9499998      -7.89975832E-13
  -12.9399996      -8.48994377E-13
  -12.9300003      -8.49064146E-13
  -12.9200001      -7.85129557E-13
  -12.9099998      -6.52924383E-13
  -12.8999996      -4.50345653E-13
  -12.8900003      -1.79820636E-13
  -12.8800001       1.48936608E-13
  -12.8699999       5.16641905E-13
  -12.8599997       8.93543106E-13
  -12.8500004       1.24060950E-12
  -12.8400002       1.51309770E-12
  -12.8299999       1.66623909E-12
  -12.8199997       1.66225020E-12
  -12.8100004       1.47746626E-12
  -12.8000002       1.10822105E-12
  -12.7900000       5.74219437E-13
  -12.7799997      -8.14578101E-14
  -12.7700005      -7.95991203E-13
  -12.7600002      -1.49370826E-12
  -12.7500000      -2.09523002E-12
  -12.7399998      -2.52748170E-12
  -12.7299995      -2.73303060E-12
  -12.7200003      -2.67736679E-12
  -12.7100000      -2.35314069E-12
  -12.6999998      -1.78091905E-12
  -12.6899996      -1.00661027E-12
  -12.6800003      -9.62063884E-14
  -12.6700001       8.71194826E-13
  -12.6599998       1.81101922E-12
  -12.6499996       2.64056312E-12
  -12.6400003       3.28539756E-12
  -12.6300001       3.68450929E-12
  -12.6199999       3.79420280E-12
  -12.6099997       3.59096390E-12
  -12.6000004       3.07353665E-12
  -12.5900002       2.26436534E-12
  -12.5799999       1.21028545E-12
  -12.5699997      -1.78952210E-14
  -12.5600004      -1.32749389E-12
  -12.5500002      -2.60834366E-12
  -12.5400000      -3.73991029E-12
  -12.5299997      -4.60121264E-12
  -12.5200005      -5.08303469E-12
  -12.5100002      -5.10134209E-12
  -12.5000000      -4.61026052E-12
  -12.4899998      -3.61265098E-12
  -12.4799995      -2.16632940E-12
  -12.4700003      -3.84321996E-13
  -12.4600000       1.57166662E-12
  -12.4499998       3.50443828E-12
  -12.4399996       5.19992860E-12
  -12.4300003       6.44905050E-12
  -12.4200001       7.06989762E-12
  -12.4099998       6.92717975E-12
  -12.3999996       5.94616934E-12
  -12.3900003       4.11922059E-12
  -12.3800001       1.50403702E-12
  -12.3699999      -1.78560498E-12
  -12.3599997      -5.59490171E-12
  -12.3500004      -9.74615093E-12
  -12.3400002      -1.40567957E-11
  -12.3299999      -1.83546442E-11
  -12.3199997      -2.24883202E-11
  -12.3100004      -2.63319540E-11
  -12.3000002      -2.97848274E-11
  -12.2900000      -3.27672577E-11
  -12.2799997      -3.52152578E-11
  -12.2700005      -3.70759673E-11
  -12.2600002      -3.83057162E-11
  -12.2500000      -3.88714824E-11
  -12.2399998      -3.87551484E-11
  -12.2299995      -3.79590838E-11
  -12.2200003      -3.65107944E-11
  -12.2100000      -3.44643376E-11
  -12.1999998      -3.18968671E-11
  -12.1899996      -2.88995078E-11
  -12.1800003      -2.55637438E-11
  -12.1700001      -2.19650288E-11
  -12.1599998      -1.81468972E-11
  -12.1499996      -1.41085806E-11
  -12.1400003      -9.79895418E-12
  -12.1300001      -5.11841351E-12
  -12.1199999       7.13702304E-14
  -12.1099997       5.93093803E-12
  -12.1000004       1.26226312E-11
  -12.0900002       2.02892477E-11
  -12.0799999       2.90348908E-11
  -12.0699997       3.89104929E-11
  -12.0600004       4.99052882E-11
  -12.0500002       6.19442969E-11
  -12.0400000       7.48910239E-11
  -12.0299997       8.85539975E-11
  -12.0200005       1.02695553E-10
  -12.0100002       1.17041585E-10
  -12.0000000       1.31291394E-10
  -11.9899998       1.45127604E-10
  -11.9799995       1.58226002E-10
  -11.9700003       1.70265788E-10
  -11.9600000       1.80940027E-10
  -11.9499998       1.89966168E-10
  -11.9399996       1.97095729E-10
  -11.9300003       2.02122818E-10
  -11.9200001       2.04889786E-10
  -11.9099998       2.05290618E-10
  -11.8999996       2.03271081E-10
  -11.8900003       1.98826761E-10
  -11.8800001       1.91999430E-10
  -11.8699999       1.82872606E-10
  -11.8599997       1.71566900E-10
  -11.8500004       1.58235300E-10
  -11.8400002       1.43057788E-10
  -11.8299999       1.26234773E-10
  -11.8199997       1.07977974E-10
  -11.8100004       8.84986945E-11
  -11.8000002       6.79933540E-11
  -11.7900000       4.66272056E-11
  -11.7799997       2.45180699E-11
  -11.7700005       1.72270943E-12
  -11.7600002      -2.17716418E-11
  -11.7500000      -4.60486788E-11
  -11.7399998      -7.12555501E-11
  -11.7299995      -9.75867720E-11
  -11.7200003      -1.25260496E-10
  -11.7100000      -1.54489185E-10
  -11.6999998      -1.85447893E-10
  -11.6899996      -2.18242882E-10
  -11.6800003      -2.52884019E-10
  -11.6700001      -2.89263252E-10
  -11.6599998      -3.27140204E-10
  -11.6499996      -3.66137592E-10
  -11.6400003      -4.05745132E-10
  -11.6300001      -4.45333409E-10
  -11.6199999      -4.84176255E-10
  -11.6099997      -5.21481691E-10
  -11.6000004      -5.56428570E-10
  -11.5900002      -5.88207927E-10
  -11.5799999      -6.16064977E-10
  -11.5699997      -6.39338915E-10
  -11.5600004      -6.57494559E-10
  -11.5500002      -6.70146327E-10
  -11.5400000      -6.77066792E-10
  -11.5299997      -6.78182066E-10
  -11.5200005      -6.73553879E-10
  -11.5100002      -6.63351096E-10
  -11.5000000      -6.47813914E-10
  -11.4899998      -6.27216334E-10
  -11.4799995      -6.01831307E-10
  -11.4700003      -5.71902192E-10
  -11.4600000      -5.37620726E-10
  -11.4499998      -4.99115249E-10
  -11.4399996      -4.56444244E-10
  -11.4300003      -4.09594636E-10
  -11.4200001      -3.58483632E-10
  -11.4099998      -3.02961184E-10
  -11.3999996      -2.42813991E-10
  -11.3900003      -1.77771603E-10
  -11.3800001      -1.07516586E-10
  -11.3699999      -3.17000107E-11
  -11.3599997       5.00362356E-11
  -11.3500004       1.38032197E-10
  -11.3400002       2.32578512E-10
  -11.3299999       3.33886169E-10
  -11.3199997       4.42060721E-10
  -11.3100004       5.57084712E-10
  -11.3000002       6.78812340E-10
  -11.2900000       8.06976319E-10
  -11.2799997       9.41205225E-10
  -11.2700005       1.08104814E-09
  -11.2600002       1.22600485E-09
  -11.2500000       1.37555156E-09
  -11.2399998       1.52916613E-09
  -11.2299995       1.68634517E-09
  -11.2200003       1.84661453E-09
  -11.2100000       2.00953498E-09
  -11.1999998       2.17470664E-09
  -11.1899996       2.34176900E-09
  -11.1800003       2.51040011E-09
  -11.1700001       2.68031730E-09
  -11.1599998       2.85127766E-09
  -11.1499996       3.02307201E-09
  -11.1400003       3.19551852E-09
  -11.1300001       3.36844930E-09
  -11.1199999       3.54169893E-09
  -11.1099997       3.71509001E-09
  -11.1000004       3.88841936E-09
  -11.0900002       4.06146317E-09
  -11.0799999       4.23397051E-09
  -11.0699997       4.40569226E-09
  -11.0600004       4.57639171E-09
  -11.0500002       4.74587525E-09
  -11.0400000       4.91402119E-09
  -11.0299997       5.08078335E-09
  -11.0200005       5.24620525E-09
  -11.0100002       5.41040723E-09
  -11.0000000       5.57356783E-09
  -10.9899998       5.73588910E-09
  -10.9799995       5.89756732E-09
  -10.9700003       6.05875794E-09
  -10.9600000       6.21955953E-09
  -10.9499998       6.37998987E-09
  -10.9399996       6.53999699E-09
  -10.9300003       6.69945166E-09
  -10.9200001       6.85817447E-09
  -10.9099998       7.01593894E-09
  -10.8999996       7.17249593E-09
  -10.8900003       7.32757899E-09
  -10.8800001       7.48092877E-09
  -10.8699999       7.63229657E-09
  -10.8599997       7.78145015E-09
  -10.8500004       7.92820298E-09
  -10.8400002       8.07240674E-09
  -10.8299999       8.21396995E-09
  -10.8199997       8.35284997E-09
  -10.8100004       8.48905302E-09
  -10.8000002       8.62260841E-09
  -10.7900000       8.75355077E-09
  -10.7799997       8.88188989E-09
  -10.7700005       9.00759378E-09
  -10.7600002       9.13057541E-09
  -10.7500000       9.25069088E-09
  -10.7399998       9.36776612E-09
  -10.7299995       9.48162349E-09
  -10.7200003       9.59212265E-09
  -10.7100000       9.69920055E-09
  -10.6999998       9.80288739E-09
  -10.6899996       9.90332349E-09
  -10.6800003       1.00007416E-08
  -10.6700001       1.00954445E-08
  -10.6599998       1.01877644E-08
  -10.6499996       1.02780122E-08
  -10.6400003       1.03664508E-08
  -10.6300001       1.04532614E-08
  -10.6199999       1.05385505E-08
  -10.6099997       1.06223510E-08
  -10.6000004       1.07046381E-08
  -10.5900002       1.07853628E-08
  -10.5799999       1.08644898E-08
  -10.5699997       1.09419913E-08
  -10.5600004       1.10178657E-08
  -10.5500002       1.10921370E-08
  -10.5400000       1.11648397E-08
  -10.5299997       1.12360006E-08
  -10.5200005       1.13056178E-08
  -10.5100002       1.13736629E-08
  -10.5000000       1.14400782E-08
  -10.4899998       1.15047687E-08
  -10.4799995       1.15676269E-08
  -10.4700003       1.16285488E-08
  -10.4600000       1.16874235E-08
  -10.4499998       1.17441958E-08
  -10.4399996       1.17988490E-08
  -10.4300003       1.18514292E-08
  -10.4200001       1.19020713E-08
  -10.4099998       1.19509957E-08
  -10.3999996       1.19985035E-08
  -10.3900003       1.20449890E-08
  -10.3800001       1.20909123E-08
  -10.3699999       1.21367636E-08
  -10.3599997       1.21830341E-08
  -10.3500004       1.22301733E-08
  -10.3400002       1.22785311E-08
  -10.3299999       1.23283286E-08
  -10.3199997       1.23796360E-08
  -10.3100004       1.24323885E-08
  -10.3000002       1.24863986E-08
  -10.2900000       1.25414088E-08
  -10.2799997       1.25971695E-08
  -10.2700005       1.26535014E-08
  -10.2600002       1.27103412E-08
  -10.2500000       1.27677842E-08
  -10.2399998       1.28260904E-08
  -10.2299995       1.28856437E-08
  -10.2200003       1.29469058E-08
  -10.2100000       1.30103324E-08
  -10.1999998       1.30763285E-08
  -10.1899996       1.31451667E-08
  -10.1800003       1.32169964E-08
  -10.1700001       1.32918059E-08
  -10.1599998       1.33694851E-08
  -10.1499996       1.34498430E-08
  -10.1400003       1.35326781E-08
  -10.1300001       1.36178127E-08
  -10.1199999       1.37051099E-08
  -10.1099997       1.37944811E-08
  -10.1000004       1.38858711E-08
  -10.0900002       1.39792435E-08
  -10.0799999       1.40745646E-08
  -10.0699997       1.41717900E-08
  -10.0600004       1.42708938E-08
  -10.0500002       1.43718761E-08
  -10.0400000       1.44748027E-08
  -10.0299997       1.45798245E-08
  -10.0200005       1.46872026E-08
  -10.0100002       1.47972807E-08
  -10.0000000       1.49104782E-08
  -9.98999977       1.50272541E-08
  -9.97999954       1.51480624E-08
  -9.97000027       1.52733488E-08
  -9.96000004       1.54035256E-08
  -9.94999981       1.55389746E-08
  -9.93999958       1.56800954E-08
  -9.93000031       1.58273217E-08
  -9.92000008       1.59811329E-08
  -9.90999985       1.61420850E-08
  -9.89999962       1.63107661E-08
  -9.89000034       1.64878209E-08
  -9.88000011       1.66738587E-08
  -9.86999989       1.68694516E-08
  -9.85999966       1.70750774E-08
  -9.85000038       1.72911481E-08
  -9.84000015       1.75179800E-08
  -9.82999992       1.77558572E-08
  -9.81999969       1.80050197E-08
  -9.81000042       1.82657356E-08
  -9.80000019       1.85382998E-08
  -9.78999996       1.88230604E-08
  -9.77999973       1.91204066E-08
  -9.77000046       1.94307450E-08
  -9.76000023       1.97544843E-08
  -9.75000000       2.00920027E-08
  -9.73999977       2.04436184E-08
  -9.72999954       2.08096083E-08
  -9.72000027       2.11901394E-08
  -9.71000004       2.15852758E-08
  -9.69999981       2.19949960E-08
  -9.68999958       2.24191332E-08
  -9.68000031       2.28574155E-08
  -9.67000008       2.33094219E-08
  -9.65999985       2.37745965E-08
  -9.64999962       2.42522944E-08
  -9.64000034       2.47417926E-08
  -9.63000011       2.52423238E-08
  -9.61999989       2.57530992E-08
  -9.60999966       2.62733924E-08
  -9.60000038       2.68024820E-08
  -9.59000015       2.73397269E-08
  -9.57999992       2.78845107E-08
  -9.56999969       2.84362329E-08
  -9.56000042       2.89942879E-08
  -9.55000019       2.95580254E-08
  -9.53999996       3.01267278E-08
  -9.52999973       3.06996064E-08
  -9.52000046       3.12757891E-08
  -9.51000023       3.18543520E-08
  -9.50000000       3.24343219E-08
  -9.48999977       3.30147287E-08
  -9.47999954       3.35945778E-08
  -9.47000027       3.41729240E-08
  -9.46000004       3.47488829E-08
  -9.44999981       3.53216620E-08
  -9.43999958       3.58905581E-08
  -9.43000031       3.64549848E-08
  -9.42000008       3.70144910E-08
  -9.40999985       3.75688352E-08
  -9.39999962       3.81179071E-08
  -9.39000034       3.86618169E-08
  -9.38000011       3.92008594E-08
  -9.36999989       3.97355215E-08
  -9.35999966       4.02664604E-08
  -9.35000038       4.07945180E-08
  -9.34000015       4.13206394E-08
  -9.32999992       4.18459010E-08
  -9.31999969       4.23714432E-08
  -9.31000042       4.28984812E-08
  -9.30000019       4.34283010E-08
  -9.28999996       4.39622596E-08
  -9.27999973       4.45017854E-08
  -9.27000046       4.50483633E-08
  -9.26000023       4.56035494E-08
  -9.25000000       4.61689709E-08
  -9.23999977       4.67462584E-08
  -9.22999954       4.73370783E-08
  -9.22000027       4.79430078E-08
  -9.21000004       4.85656066E-08
  -9.19999981       4.92062533E-08
  -9.18999958       4.98662125E-08
  -9.18000031       5.05465714E-08
  -9.17000008       5.12483069E-08
  -9.15999985       5.19722327E-08
  -9.14999962       5.27190807E-08
  -9.14000034       5.34894120E-08
  -9.13000011       5.42837348E-08
  -9.11999989       5.51024080E-08
  -9.10999966       5.59456730E-08
  -9.10000038       5.68135832E-08
  -9.09000015       5.77060355E-08
  -9.07999992       5.86227138E-08
  -9.06999969       5.95630780E-08
  -9.06000042       6.05264106E-08
  -9.05000019       6.15117557E-08
  -9.03999996       6.25180050E-08
  -9.02999973       6.35439221E-08
  -9.02000046       6.45880149E-08
  -9.01000023       6.56488126E-08
  -9.00000000       6.67245814E-08
  -8.98999977       6.78134953E-08
  -8.97999954       6.89136286E-08
  -8.97000027       7.00230061E-08
  -8.96000004       7.11395458E-08
  -8.94999981       7.22612015E-08
  -8.93999958       7.33859054E-08
  -8.93000031       7.45116111E-08
  -8.92000008       7.56363363E-08
  -8.90999985       7.67580772E-08
  -8.89999962       7.78748301E-08
  -8.89000034       7.89845913E-08
  -8.88000011       8.00853854E-08
  -8.86999989       8.11752656E-08
  -8.85999966       8.22523845E-08
  -8.85000038       8.33150153E-08
  -8.84000015       8.43617372E-08
  -8.82999992       8.53913136E-08
  -8.81999969       8.64027641E-08
  -8.81000042       8.73952999E-08
  -8.80000019       8.83683953E-08
  -8.78999996       8.93215173E-08
  -8.77999973       9.02543604E-08
  -8.77000046       9.11665694E-08
  -8.76000023       9.20578955E-08
  -8.75000000       9.29282322E-08
  -8.73999977       9.37776719E-08
  -8.72999954       9.46065697E-08
  -8.72000027       9.54155226E-08
  -8.71000004       9.62055253E-08
  -8.69999981       9.69776863E-08
  -8.68999958       9.77332064E-08
  -8.68000031       9.84733646E-08
  -8.67000008       9.91993829E-08
  -8.65999985       9.99123984E-08
  -8.64999962       1.00613441E-07
  -8.64000034       1.01303606E-07
  -8.63000011       1.01983908E-07
  -8.61999989       1.02655605E-07
  -8.60999966       1.03319991E-07
  -8.60000038       1.03978607E-07
  -8.59000015       1.04633074E-07
  -8.57999992       1.05285011E-07
  -8.56999969       1.05936138E-07
  -8.56000042       1.06588047E-07
  -8.55000019       1.07242300E-07
  -8.53999996       1.07900348E-07
  -8.52999973       1.08563675E-07
  -8.52000046       1.09233596E-07
  -8.51000023       1.09911575E-07
  -8.50000000       1.10598883E-07
  -8.48999977       1.11296892E-07
  -8.47999954       1.12006745E-07
  -8.47000027       1.12729474E-07
  -8.46000004       1.13466022E-07
  -8.44999981       1.14217144E-07
  -8.43999958       1.14983621E-07
  -8.43000031       1.15766092E-07
  -8.42000008       1.16565204E-07
  -8.40999985       1.17381482E-07
  -8.39999962       1.18215489E-07
  -8.39000034       1.19067572E-07
  -8.38000011       1.19937937E-07
  -8.36999989       1.20826328E-07
  -8.35999966       1.21732512E-07
  -8.35000038       1.22655749E-07
  -8.34000015       1.23595456E-07
  -8.32999992       1.24550780E-07
  -8.31999969       1.25521140E-07
  -8.31000042       1.26505981E-07
  -8.30000019       1.27504919E-07
  -8.28999996       1.28517641E-07
  -8.27999973       1.29543835E-07
  -8.27000046       1.30583260E-07
  -8.26000023       1.31635389E-07
  -8.25000000       1.32699753E-07
  -8.23999977       1.33775700E-07
  -8.22999954       1.34862574E-07
  -8.22000027       1.35959723E-07
  -8.21000004       1.37066721E-07
  -8.19999981       1.38183211E-07
  -8.18999958       1.39309080E-07
  -8.18000031       1.40444342E-07
  -8.17000008       1.41589240E-07
  -8.15999985       1.42744170E-07
  -8.14999962       1.43909631E-07
  -8.14000034       1.45086418E-07
  -8.13000011       1.46275468E-07
  -8.11999989       1.47477877E-07
  -8.10999966       1.48695065E-07
  -8.10000038       1.49928411E-07
  -8.09000015       1.51179535E-07
  -8.07999992       1.52449942E-07
  -8.06999969       1.53741084E-07
  -8.06000042       1.55054352E-07
  -8.05000019       1.56391110E-07
  -8.03999996       1.57752652E-07
  -8.02999973       1.59140228E-07
  -8.02000046       1.60555217E-07
  -8.01000023       1.61999125E-07
  -8.00000000       1.63473459E-07
  -7.98999977       1.64979738E-07
  -7.98000002       1.66519385E-07
  -7.96999979       1.68093834E-07
  -7.96000004       1.69704236E-07
  -7.94999981       1.71351587E-07
  -7.94000006       1.73036966E-07
  -7.92999983       1.74761212E-07
  -7.92000008       1.76525120E-07
  -7.90999985       1.78329302E-07
  -7.90000010       1.80174339E-07
  -7.88999987       1.82060546E-07
  -7.88000011       1.83987950E-07
  -7.86999989       1.85956495E-07
  -7.86000013       1.87965597E-07
  -7.84999990       1.90014660E-07
  -7.84000015       1.92103016E-07
  -7.82999992       1.94229983E-07
  -7.82000017       1.96395035E-07
  -7.80999994       1.98597604E-07
  -7.80000019       2.00837633E-07
  -7.78999996       2.03114709E-07
  -7.78000021       2.05428734E-07
  -7.76999998       2.07779451E-07
  -7.76000023       2.10166405E-07
  -7.75000000       2.12589129E-07
  -7.73999977       2.15047109E-07
  -7.73000002       2.17539707E-07
  -7.71999979       2.20066298E-07
  -7.71000004       2.22626468E-07
  -7.69999981       2.25219779E-07
  -7.69000006       2.27846016E-07
  -7.67999983       2.30504995E-07
  -7.67000008       2.33196573E-07
  -7.65999985       2.35920794E-07
  -7.65000010       2.38677586E-07
  -7.63999987       2.41467120E-07
  -7.63000011       2.44289538E-07
  -7.61999989       2.47144953E-07
  -7.61000013       2.50033509E-07
  -7.59999990       2.52955346E-07
  -7.59000015       2.55910521E-07
  -7.57999992       2.58899206E-07
  -7.57000017       2.61921201E-07
  -7.55999994       2.64976762E-07
  -7.55000019       2.68065975E-07
  -7.53999996       2.71189151E-07
  -7.53000021       2.74346689E-07
  -7.51999998       2.77539158E-07
  -7.51000023       2.80767210E-07
  -7.50000000       2.84031415E-07
  -7.48999977       2.87332398E-07
  -7.48000002       2.90670698E-07
  -7.46999979       2.94047027E-07
  -7.46000004       2.97462094E-07
  -7.44999981       3.00916753E-07
  -7.44000006       3.04412055E-07