  -16.0000000       0.00000000    
  -15.9899998       0.00000000    
  -15.9799995       0.00000000    
  -15.9700003       0.00000000    
  -15.9600000       0.00000000    
  -15.9499998       0.00000000    
  -15.9399996       0.00000000    
  -15.9300003       0.00000000    
  -15.9200001       0.00000000    
  -15.9099998       0.00000000    
  -15.8999996       0.00000000    
  -15.8900003       3.54528511E-43
  -15.8800001       3.12517584E-41
  -15.8699999       7.31758058E-40
  -15.8599997       1.00357381E-38
  -15.8500004       9.83525990E-38
  -15.8400002       7.49976508E-37
  -15.8299999       4.66040893E-36
  -15.8199997       2.43058683E-35
  -15.8100004       1.08618146E-34
  -15.8000002       4.22304794E-34
  -15.7900000       1.44476888E-33
  -15.7799997       4.38457226E-33
  -15.7700005       1.18631059E-32
  -15.7600002       2.86656963E-32
  -15.7500000       6.17015398E-32
  -15.7399998       1.17192355E-31
  -15.7299995       1.91939725E-31
  -15.7200003       2.55660241E-31
  -15.7100000       2.25253329E-31
  -15.6999998      -5.78123756E-32
  -15.6899996      -8.18273655E-31
  -15.6800003      -2.25741747E-30
  -15.6700001      -4.32576768E-30
  -15.6599998      -6.32673629E-30
  -15.6499996      -6.40753507E-30
  -15.6400003      -1.16376658E-30
  -15.6300001       1.41705667E-29
  -15.6199999       4.42186835E-29
  -15.6099997       8.98092550E-29
  -15.6000004       1.41702222E-28
  -15.5900002       1.72503499E-28
  -15.5799999       1.30253266E-28
  -15.5699997      -5.87890296E-29
  -15.5600004      -4.66603474E-28
  -15.5500002      -1.10724794E-27
  -15.5400000      -1.84587443E-27
  -15.5299997      -2.29685442E-27
  -15.5200005      -1.77841238E-27
  -15.5100002       5.62305003E-28
  -15.5000000       5.32724664E-27
  -15.4899998       1.21005685E-26
  -15.4799995       1.85096150E-26
  -15.4700003       1.96424501E-26
  -15.4600000       8.70920389E-27
  -15.4499998      -2.00975458E-26
  -15.4399996      -6.62065874E-26
  -15.4300003      -1.15989830E-25
  -15.4200001      -1.38438926E-25
  -15.4099998      -8.90066398E-26
  -15.3999996       7.25218381E-26
  -15.3900003       3.48580033E-25
  -15.3800001       6.63174360E-25
  -15.3699999       8.36207055E-25
  -15.3599997       6.06243451E-25
  -15.3500004      -2.66619652E-25
  -15.3400002      -1.81239412E-24
  -15.3299999      -3.62705070E-24
  -15.3199997      -4.73430060E-24
  -15.3100004      -3.70924685E-24
  -15.3000002       7.77319426E-25
  -15.2900000       8.97622342E-24
  -15.2799997       1.89003184E-23
  -15.2700005       2.56011743E-23
  -15.2600002       2.17483666E-23
  -15.2500000       2.80430216E-25
  -15.2399998      -4.07854372E-23
  -15.2299995      -9.26184613E-23
  -15.2200003      -1.31790258E-22
  -15.2100000      -1.22504558E-22
  -15.1999998      -2.85057917E-23
  -15.1899996       1.64694290E-22
  -15.1800003       4.22529476E-22
  -15.1700001       6.41711916E-22
  -15.1599998       6.56456724E-22
  -15.1499996       2.87756768E-22
  -15.1400003      -5.59546739E-22
  -15.1300001      -1.77219892E-21
  -15.1199999      -2.92916731E-21
  -15.1099997      -3.30621122E-21
  -15.1000004      -2.06242723E-21
  -15.0900002       1.36045715E-21
  -15.0799999       6.69636714E-21
  -15.0699997       1.23769589E-20
  -15.0600004       1.54410015E-20
  -15.0500002       1.21714530E-20
  -15.0400000      -3.65691278E-22
  -15.0299997      -2.20936662E-20
  -15.0200005      -4.77652407E-20
  -15.0100002      -6.61322563E-20
  -15.0000000      -6.18555645E-20
  -14.9899998      -2.10305065E-20
  -14.9799995       6.01942757E-20
  -14.9700003       1.66498197E-19
  -14.9600000       2.58417014E-19
  -14.9499998       2.77052669E-19
  -14.9399996       1.62453219E-19
  -14.9300003      -1.15096806E-19
  -14.9200001      -5.19105517E-19
  -14.9099998      -9.22363458E-19
  -14.8999996      -1.11440585E-18
  -14.8900003      -8.57666251E-19
  -14.8800001       6.04830748E-21
  -14.8699999       1.42263216E-18
  -14.8599997       3.01902457E-18
  -14.8500004       4.09465570E-18
  -14.8400002       3.77620730E-18
  -14.8299999       1.35637303E-18
  -14.8199997      -3.24481468E-18
  -14.8100004      -9.05720088E-18
  -14.8000002      -1.39138909E-17
  -14.7900000      -1.48189754E-17
  -14.7799997      -8.94812885E-18
  -14.7700005       4.84798646E-18
  -14.7600002       2.44934747E-17
  -14.7500000       4.38301632E-17
  -14.7399998       5.32707888E-17
  -14.7299995       4.24971617E-17
  -14.7200003       5.03716556E-18
  -14.7100000      -5.64502659E-17
  -14.6999998      -1.26335546E-16
  -14.6899996      -1.76252455E-16
  -14.6800003      -1.71502652E-16
  -14.6700001      -8.39165599E-17
  -14.6599998       9.14397478E-17
  -14.6499996       3.21490588E-16
  -14.6400003       5.30185874E-16
  -14.6300001       6.10719437E-16
  -14.6199999       4.58146992E-16
  -14.6099997       1.79001918E-17
  -14.6000004      -6.63777263E-16
  -14.5900002      -1.40922258E-15
  -14.5799999      -1.92205540E-15
  -14.5699997      -1.85871999E-15
  -14.5600004      -9.55751002E-16
  -14.5500002       8.16362202E-16
  -14.5400000       3.12714611E-15
  -14.5299997       5.25554933E-15
  -14.5200005       6.21220443E-15
  -14.5100002       5.03249464E-15
  -14.5000000       1.19362729E-15
  -14.4899998      -4.96431357E-15
  -14.4799995      -1.19877439E-14
  -14.4700003      -1.74082872E-14
  -14.4600000      -1.83015038E-14
  -14.4499998      -1.22737412E-14
  -14.4399996       1.34338218E-15
  -14.4300003       2.04868437E-14
  -14.4200001       4.00261489E-14
  -14.4099998       5.25045976E-14
  -14.3999996       5.00983871E-14
  -14.3900003       2.75076152E-14
  -14.3800001      -1.49834809E-14
  -14.3699999      -6.93976669E-14
  -14.3599997      -1.20082451E-13
  -14.3500004      -1.46649050E-13
  -14.3400002      -1.29803720E-13
  -14.3299999      -5.89346754E-14
  -14.3199997       6.07483288E-14
  -14.3100004       2.04332658E-13
  -14.3000002       3.29153561E-13
  -14.2900000       3.83879885E-13
  -14.2799997       3.23862736E-13
  -14.2700005       1.29312739E-13
  -14.2600002      -1.79269644E-13
  -14.2500000      -5.34783372E-13
  -14.2399998      -8.31476814E-13
  -14.2299995      -9.48856553E-13
  -14.2200003      -7.88180664E-13
  -14.2100000      -3.12778178E-13
  -14.1999998       4.20451759E-13
  -14.1899996       1.25164018E-12
  -14.1800003       1.94016569E-12
  -14.1700001       2.22000456E-12
  -14.1599998       1.87904098E-12
  -14.1499996       8.42798270E-13
  -14.1400003      -7.63536695E-13
  -14.1300001      -2.60049686E-12
  -14.1199999      -4.16393092E-12
  -14.1099997      -4.89911584E-12
  -14.1000004      -4.35923780E-12
  -14.0900002      -2.36940480E-12
  -14.0799999       8.53271230E-13
  -14.0699997       4.67034614E-12
  -14.0600004       8.11263903E-12
  -14.0500002       1.00896305E-11
  -14.0400000       9.68053502E-12
  -14.0299997       6.43811783E-12
  -14.0200005       6.19183415E-13
  -14.0100002      -6.73930096E-12
  -14.0000000      -1.39497242E-11
  -13.9899998      -1.90106351E-11
  -13.9799995      -2.00941711E-11
  -13.9700003      -1.60758299E-11
  -13.9600000      -6.96885388E-12
  -13.9499998       5.86992607E-12
  -13.9399996       1.98548712E-11
  -13.9300003       3.16269962E-11
  -13.9200001       3.77833632E-11
  -13.9099998       3.57332046E-11
  -13.8999996       2.44809607E-11
  -13.8900003       5.12902351E-12
  -13.8800001      -1.90634643E-11
  -13.8699999      -4.31396759E-11
  -13.8599997      -6.13781526E-11
  -13.8500004      -6.85363849E-11
  -13.8400002      -6.11477050E-11
  -13.8299999      -3.85731343E-11
  -13.8199997      -3.53355626E-12
  -13.8100004       3.80605443E-11
  -13.8000002       7.80219223E-11
  -13.7900000       1.07415264E-10
  -13.7799997       1.18421578E-10
  -13.7700005       1.06154592E-10
  -13.7600002       7.00217037E-11
  -13.7500000       1.42908680E-11
  -13.7399998      -5.23223548E-11
  -13.7299995      -1.18023716E-10
  -13.7200003      -1.70025577E-10
  -13.7100000      -1.96937480E-10
  -13.6999998      -1.90973307E-10
  -13.6899996      -1.49526239E-10
  -13.6800003      -7.58166308E-11
  -13.6700001       2.14584080E-11
  -13.6599998       1.29312477E-10
  -13.6499996       2.32170089E-10
  -13.6400003       3.13713333E-10
  -13.6300001       3.58606478E-10
  -13.6199999       3.54023949E-10
  -13.6099997       2.91118130E-10
  -13.6000004       1.66672134E-10
  -13.5900002      -1.48974218E-11
  -13.5799999      -2.39324477E-10
  -13.5699997      -4.80661677E-10
  -13.5600004      -7.00888014E-10
  -13.5500002      -8.52236892E-10
  -13.5400000      -8.83314810E-10
  -13.5299997      -7.49292017E-10
  -13.5200005      -4.25162683E-10
  -13.5100002       8.04593336E-11
  -13.5000000       7.14842796E-10
  -13.4899998       1.37831879E-09
  -13.4799995       1.93283789E-09
  -13.4700003       2.22353314E-09
  -13.4600000       2.11163975E-09
  -13.4499998       1.51333479E-09
  -13.4399996       4.35763842E-10
  -13.4300003      -1.00017239E-09
  -13.4200001      -2.55981991E-09
  -13.4099998      -3.92333943E-09
  -13.3999996      -4.74231010E-09
  -13.3900003      -4.71625849E-09
  -13.3800001      -3.67397823E-09
  -13.3699999      -1.64016500E-09
  -13.3599997       1.13217691E-09
  -13.3500004       4.17790824E-09
  -13.3400002       6.88910884E-09
  -13.3299999       8.62958505E-09
  -13.3199997       8.87402596E-09
  -13.3100004       7.34217132E-09
  -13.3000002       4.09550660E-09
  -13.2900000      -4.31085306E-10
  -13.2799997      -5.47794166E-09
  -13.2700005      -1.00872004E-08
  -13.2600002      -1.32863702E-08
  -13.2500000      -1.42924588E-08
  -13.2399998      -1.26924311E-08
  -13.2299995      -8.55796856E-09
  -13.2200003      -2.46483567E-09
  -13.2100000       4.59261607E-09
  -13.1999998       1.13779066E-08
  -13.1899996       1.66448793E-08
  -13.1800003       1.93778487E-08
  -13.1700001       1.89887768E-08
  -13.1599998       1.54302686E-08
  -13.1499996       9.20251964E-09
  -13.1400003       1.25599320E-09
  -13.1300001      -7.18537851E-09
  -13.1199999      -1.48398627E-08
  -13.1099997      -2.05766053E-08
  -13.1000004      -2.35776803E-08
  -13.0900002      -2.34293847E-08
  -13.0799999      -2.01385433E-08
  -13.0699997      -1.40876981E-08
  -13.0600004      -5.95460392E-09
  -13.0500002       3.37700889E-09
  -13.0400000       1.28966953E-08
  -13.0299997       2.15318394E-08
  -13.0200005       2.82074613E-08
  -13.0100002       3.19200346E-08
  -13.0000000       3.18427205E-08
  -12.9899998       2.74670846E-08
  -12.9799995       1.87655740E-08
  -12.9700003       6.33708241E-09
  -12.9600000      -8.51714166E-09
  -12.9499998      -2.38404709E-08
  -12.9399996      -3.72259770E-08
  -12.9300003      -4.61795260E-08
  -12.9200001      -4.85953713E-08
  -12.9099998      -4.32560014E-08
  -12.8999996      -3.02393346E-08
  -12.8900003      -1.11158460E-08
  -12.8800001       1.11519700E-08
  -12.8699999       3.26358176E-08
  -12.8599997       4.91454735E-08
  -12.8500004       5.70869467E-08
  -12.8400002       5.42965743E-08
  -12.8299999       4.06566372E-08
  -12.8199997       1.83260447E-08
  -12.8100004      -8.50685478E-09
  -12.8000002      -3.43408679E-08
  -12.7900000      -5.34308384E-08
  -12.7799997      -6.10014297E-08
  -12.7700005      -5.43511618E-08
  -12.7600002      -3.35979493E-08
  -12.7500000      -1.88128024E-09
  -12.7399998       3.50574503E-08
  -12.7299995       6.98662248E-08
  -12.7200003       9.49721937E-08
  -12.7100000       1.04105801E-07
  -12.6999998       9.36550109E-08
  -12.6899996       6.35640021E-08
  -12.6800003       1.75678050E-08
  -12.6700001      -3.73275952E-08
  -12.6599998      -9.20661165E-08
  -12.6499996      -1.37267193E-07
  -12.6400003      -1.65141941E-07
  -12.6300001      -1.71212491E-07
  -12.6199999      -1.55439949E-07
  -12.6099997      -1.22432638E-07
  -12.6000004      -8.05510183E-08
  -12.5900002      -3.99355677E-08
  -12.5799999      -9.73240510E-09
  -12.5699997       4.96362640E-09
  -12.5600004       5.74469983E-09
  -12.5500002       2.33472486E-09
  -12.5400000       1.21740404E-08
  -12.5299997       5.77592800E-08
  -12.5200005       1.61802802E-07
  -12.5100002       3.40813614E-07
  -12.5000000       5.98218321E-07
  -12.4899998       9.18496767E-07
  -12.4799995       1.26387908E-06
  -12.4700003       1.57486102E-06
  -12.4600000       1.77514221E-06
  -12.4499998       1.78067796E-06
  -12.4399996       1.51155234E-06
  -12.4300003       9.04553815E-07
  -12.4200001      -7.60822161E-08
  -12.4099998      -1.43214322E-06
  -12.3999996      -3.13074565E-06
  -12.3900003      -5.10983955E-06
  -12.3800001      -7.28880741E-06
  -12.3699999      -9.58168403E-06
  -12.3599997      -1.19097440E-05
  -12.3500004      -1.42100916E-05
  -12.3400002      -1.64377980E-05
  -12.3299999      -1.85606477E-05
  -12.3199997      -2.05476936E-05
  -12.3100004      -2.23545012E-05
  -12.3000002      -2.39095170E-05
  -12.2900000      -2.51060537E-05
  -12.2799997      -2.58034925E-05
  -12.2700005      -2.58394066E-05
  -12.2600002      -2.50514913E-05
  -12.2500000      -2.33056744E-05
  -12.2399998      -2.05247852E-05
  -12.2299995      -1.67113776E-05
  -12.2200003      -1.19591969E-05
  -12.2100000      -6.44984448E-06
  -12.1999998      -4.34456666E-07
  -12.1899996       5.79663811E-06
  -12.1800003       1.19503911E-05
  -12.1700001       1.77665788E-05
  -12.1599998       2.30453898E-05
  -12.1499996       2.76621322E-05
  -12.1400003       3.15670113E-05
  -12.1300001       3.47715468E-05
  -12.1199999       3.73260591E-05
  -12.1099997       3.92945840E-05
  -12.1000004       4.07336192E-05
  -12.0900002       4.16796938E-05
  -12.0799999       4.21480545E-05
  -12.0699997       4.21415680E-05
  -12.0600004       4.16662260E-05
  -12.0500002       4.07478110E-05
  -12.0400000       3.94441413E-05
  -12.0299997       3.78487239E-05
  -12.0200005       3.60838530E-05
  -12.0100002       3.42842795E-05
  -12.0000000       3.25750225E-05
  -11.9899998       3.10483811E-05
  -11.9799995       2.97454881E-05
  -11.9700003       2.86465602E-05
  -11.9600000       2.76718420E-05
  -11.9499998       2.66927382E-05
  -11.9399996       2.55504347E-05
  -11.9300003       2.40780100E-05
  -11.9200001       2.21216560E-05
  -11.9099998       1.95575467E-05
  -11.8999996       1.63025088E-05
  -11.8900003       1.23181744E-05
  -11.8800001       7.61015281E-06
  -11.8699999       2.22422204E-06
  -11.8599997      -3.75833656E-06
  -11.8500004      -1.02248941E-05
  -11.8400002      -1.70349213E-05
  -11.8299999      -2.40234258E-05
  -11.8199997      -3.10058240E-05
  -11.8100004      -3.77854922E-05
  -11.8000002      -4.41645097E-05
  -11.7900000      -4.99570197E-05
  -11.7799997      -5.50034711E-05
  -11.7700005      -5.91832650E-05
  -11.7600002      -6.24233289E-05
  -11.7500000      -6.47007400E-05
  -11.7399998      -6.60390433E-05
  -11.7299995      -6.64992258E-05
  -11.7200003      -6.61675949E-05
  -11.7100000      -6.51436203E-05
  -11.6999998      -6.35304095E-05
  -11.6899996      -6.14293240E-05
  -11.6800003      -5.89390911E-05
  -11.6700001      -5.61575835E-05
  -11.6599998      -5.31839432E-05
  -11.6499996      -5.01178401E-05
  -11.6400003      -4.70540181E-05
  -11.6300001      -4.40714430E-05
  -11.6199999      -4.12185545E-05
  -11.6099997      -3.84978921E-05
  -11.6000004      -3.58545112E-05
  -11.5900002      -3.31724987E-05
  -11.5799999      -3.02825665E-05
  -11.5699997      -2.69816537E-05
  -11.5600004      -2.30625974E-05
  -11.5500002      -1.83495595E-05
  -11.5400000      -1.27331468E-05
  -11.5299997      -6.19876892E-06
  -11.5200005       1.15756757E-06
  -11.5100002       9.12973701E-06
  -11.5000000       1.74193465E-05
  -11.4899998       2.56692529E-05
  -11.4799995       3.35083532E-05
  -11.4700003       4.06014660E-05
  -11.4600000       4.66969541E-05
  -11.4499998       5.16647269E-05
  -11.4399996       5.55181505E-05
  -11.4300003       5.84151057E-05
  -11.4200001       6.06363028E-05
  -11.4099998       6.25420871E-05
  -11.3999996       6.45129985E-05
  -11.3900003       6.68826397E-05
  -11.3800001       6.98743097E-05
  -11.3699999       7.35536669E-05
  -11.3599997       7.78083049E-05
  -11.3500004       8.23612791E-05
  -11.3400002       8.68186180E-05
  -11.3299999       9.07444410E-05
  -11.3199997       9.37489167E-05
  -11.3100004       9.55711803E-05
  -11.3000002       9.61374171E-05
  -11.2900000       9.55791620E-05
  -11.2799997       9.42050174E-05
  -11.2700005       9.24299457E-05
  -11.2600002       9.06770292E-05
  -11.2500000       8.92745011E-05
  -11.2399998       8.83732064E-05
  -11.2299995       8.79051586E-05
  -11.2200003       8.75943952E-05
  -11.2100000       8.70179210E-05
  -11.1999998       8.57014311E-05
  -11.1899996       8.32257138E-05
  -11.1800003       7.93171275E-05
  -11.1700001       7.39006573E-05
  -11.1599998       6.71048329E-05
  -11.1499996       5.92219913E-05
  -11.1400003       5.06391516E-05
  -11.1300001       4.17625524E-05
  -11.1199999       3.29573741E-05
  -11.1099997       2.45179635E-05
  -11.1000004       1.66707159E-05
  -11.0900002       9.60014222E-06
  -11.0799999       3.47980313E-06
  -11.0699997      -1.51077541E-06
  -11.0600004      -5.19605101E-06
  -11.0500002      -7.44168892E-06
  -11.0400000      -8.20637797E-06
  -11.0299997      -7.58639590E-06
  -11.0200005      -5.82937218E-06
  -11.0100002      -3.30209150E-06
  -11.0000000      -4.12063599E-07
  -10.9899998       2.49943309E-06
  -10.9799995       5.26119902E-06
  -10.9700003       7.93678555E-06
  -10.9600000       1.08212917E-05
  -10.9499998       1.43604775E-05
  -10.9399996       1.90065821E-05
  -10.9300003       2.50481917E-05
  -10.9200001       3.24645298E-05
  -10.9099998       4.08528358E-05
  -10.8999996       4.94597480E-05
  -10.8900003       5.73192810E-05
  -10.8800001       6.34672178E-05
  -10.8699999       6.71769740E-05
  -10.8599997       6.81517486E-05
  -10.8500004       6.66168271E-05
  -10.8400002       6.32818628E-05
  -10.8299999       5.91795288E-05
  -10.8199997       5.54219841E-05
  -10.8100004       5.29400677E-05
  -10.8000002       5.22755363E-05
  -10.7900000       5.34801875E-05
  -10.7799997       5.61447232E-05
  -10.7700005       5.95425736E-05
  -10.7600002       6.28419657E-05
  -10.7500000       6.53229436E-05
  -10.7399998       6.65384869E-05
  -10.7299995       6.63802857E-05
  -10.7200003       6.50413494E-05
  -10.7100000       6.28988928E-05
  -10.6999998       6.03637818E-05
  -10.6899996       5.77469618E-05
  -10.6800003       5.51832563E-05
  -10.6700001       5.26284675E-05
  -10.6599998       4.99196030E-05
  -10.6499996       4.68682265E-05
  -10.6400003       4.33488240E-05
  -10.6300001       3.93515329E-05
  -10.6199999       3.49860129E-05
  -10.6099997       3.04441910E-05
  -10.6000004       2.59456101E-05
  -10.5900002       2.16931876E-05
  -10.5799999       1.78603004E-05
  -10.5699997       1.46123111E-05
  -10.5600004       1.21475568E-05
  -10.5500002       1.07297938E-05
  -10.5400000       1.06840271E-05
  -10.5299997       1.23391574E-05
  -10.5200005       1.59229876E-05
  -10.5100002       2.14371394E-05
  -10.5000000       2.85543756E-05
  -10.4899998       3.65821870E-05
  -10.4799995       4.45214973E-05
  -10.4700003       5.12230072E-05
  -10.4600000       5.56133346E-05
  -10.4499998       5.69394324E-05
  -10.4399996       5.49693868E-05
  -10.4300003       5.00952810E-05
  -10.4200001       4.33072564E-05
  -10.4099998       3.60388185E-05
  -10.3999996       2.99149542E-05
  -10.3900003       2.64558475E-05
  -10.3800001       2.67968844E-05
  -10.3699999       3.14782046E-05
  -10.3599997       4.03397607E-05
  -10.3500004       5.25344658E-05
  -10.3400002       6.66520646E-05
  -10.3299999       8.09303165E-05
  -10.3199997       9.35204662E-05
  -10.3100004       1.02771213E-04
  -10.3000002       1.07491927E-04
  -10.2900000       1.07157190E-04
  -10.2799997       1.02017133E-04
  -10.2700005       9.30842216E-05
  -10.2600002       8.19840425E-05
  -10.2500000       7.06800274E-05
  -10.2399998       6.11116993E-05
  -10.2299995       5.48147545E-05
  -10.2200003       5.26060940E-05
  -10.2100000       5.44162940E-05
  -10.1999998       5.93236473E-05
  -10.1899996       6.57982237E-05
  -10.1800003       7.21057222E-05
  -10.1700001       7.67732708E-05
  -10.1599998       7.89908008E-05
  -10.1499996       7.88301186E-05
  -10.1400003       7.72098865E-05
  -10.1300001       7.56037407E-05
  -10.1199999       7.55677975E-05
  -10.1099997       7.82221177E-05
  -10.1000004       8.38433552E-05
  -10.0900002       9.16998688E-05
  -10.0799999       1.00192898E-04
  -10.0699997       1.07276370E-04
  -10.0600004       1.11040463E-04
  -10.0500002       1.10289402E-04
  -10.0400000       1.04940016E-04
  -10.0299997       9.61151745E-05
  -10.0200005       8.58965286E-05
  -10.0100002       7.68025566E-05
  -10.0000000       7.11404064E-05
  -9.98999977       7.04189297E-05
  -9.97999954       7.49904430E-05
  -9.97000027       8.40189532E-05
  -9.96000004       9.57728189E-05
  -9.94999981       1.08142696E-04
  -9.93999958       1.19221346E-04
  -9.93000031       1.27770400E-04
  -9.92000008       1.33442431E-04
  -9.90999985       1.36710398E-04
  -9.89999962       1.38550691E-04
  -9.89000034       1.40004238E-04
  -9.88000011       1.41770332E-04
  -9.86999989       1.43971061E-04
  -9.85999966       1.46156905E-04
  -9.85000038       1.47540486E-04
  -9.84000015       1.47366023E-04
  -9.82999992       1.45277634E-04
  -9.81999969       1.41553319E-04
  -9.81000042       1.37121839E-04
  -9.80000019       1.33355148E-04
  -9.78999996       1.31708366E-04
  -9.77999973       1.33332040E-04
  -9.77000046       1.38786534E-04
  -9.76000023       1.47955172E-04
  -9.75000000       1.60178199E-04
  -9.73999977       1.74553526E-04
  -9.72999954       1.90290186E-04
  -9.72000027       2.06983692E-04
  -9.71000004       2.24709438E-04
  -9.69999981       2.43898787E-04
  -9.68999958       2.65043258E-04
  -9.68000031       2.88338226E-04
  -9.67000008       3.13409080E-04
  -9.65999985       3.39237275E-04
  -9.64999962       3.64338572E-04
  -9.64000034       3.87156819E-04
  -9.63000011       4.06548963E-04
  -9.61999989       4.22196463E-04
  -9.60999966       4.34783666E-04
  -9.60000038       4.45853249E-04
  -9.59000015       4.57350397E-04
  -9.57999992       4.70973435E-04
  -9.56999969       4.87529178E-04
  -9.56000042       5.06500015E-04
  -9.55000019       5.25981945E-04
  -9.53999996       5.43039409E-04
  -9.52999973       5.54395665E-04
  -9.52000046       5.57260995E-04
  -9.51000023       5.50052209E-04
  -9.50000000       5.32777805E-04
  -9.48999977       5.06964745E-04
  -9.47999954       4.75144625E-04
  -9.47000027       4.40058735E-04
  -9.46000004       4.03835176E-04
  -9.44999981       3.67404136E-04
  -9.43999958       3.30340263E-04
  -9.43000031       2.91181204E-04
  -9.42000008       2.48115801E-04
  -9.40999985       1.99807298E-04
  -9.39999962       1.46071150E-04
  -9.39000034       8.81786254E-05
  -9.38000011       2.86815775E-05
  -9.36999989      -2.91778688E-05
  -9.35999966      -8.22673610E-05
  -9.35000038      -1.28296670E-04
  -9.34000015      -1.66229103E-04
  -9.32999992      -1.96241599E-04
  -9.31999969      -2.19263224E-04
  -9.31000042      -2.36284512E-04
  -9.30000019      -2.47711025E-04
  -9.28999996      -2.53022008E-04
  -9.27999973      -2.50881130E-04
  -9.27000046      -2.39667497E-04
  -9.26000023      -2.18231304E-04
  -9.25000000      -1.86571677E-04
  -9.23999977      -1.46155173E-04
  -9.22999954      -9.97065363E-05
  -9.22000027      -5.05051139E-05
  -9.21000004      -1.40955513E-06
  -9.19999981       4.60415358E-05
  -9.18999958       9.21124010E-05
  -9.18000031       1.38726668E-04
  -9.17000008       1.88705206E-04
  -9.15999985       2.44628347E-04
  -9.14999962       3.07713548E-04
  -9.14000034       3.77118791E-04
  -9.13000011       4.49948857E-04
  -9.11999989       5.21996932E-04
  -9.10999966       5.88990632E-04
  -9.10000038       6.47913897E-04
  -9.09000015       6.97934185E-04
  -9.07999992       7.40584859E-04
  -9.06999969       7.79115537E-04
  -9.06000042       8.17218854E-04
  -9.05000019       8.57577194E-04
  -9.03999996       9.00752377E-04
  -9.02999973       9.44833970E-04
  -9.02000046       9.85995401E-04
  -9.01000023       1.01977831E-03
  -9.00000000       1.04265660E-03
  -8.98999977       1.05331431E-03
  -8.97999954       1.05315994E-03
  -8.97000027       1.04587071E-03
  -8.96000004       1.03610521E-03
  -8.94999981       1.02783577E-03
  -8.93999958       1.02289568E-03
  -8.93000031       1.02027983E-03
  -8.92000008       1.01646467E-03
  -8.90999985       1.00665505E-03
  -8.89999962       9.86515544E-04
  -8.89000034       9.53773793E-04
  -8.88000011       9.09105176E-04
  -8.86999989       8.55975843E-04
  -8.85999966       7.99494737E-04
  -8.85000038       7.44684425E-04
  -8.84000015       6.94805640E-04
  -8.82999992       6.50349946E-04
  -8.81999969       6.09072449E-04
  -8.81000042       5.67057985E-04
  -8.80000019       5.20426547E-04
  -8.78999996       4.67044563E-04
  -8.77999973       4.07598447E-04
  -8.77000046       3.45618872E-04
  -8.76000023       2.86432303E-04
  -8.75000000       2.35413274E-04
  -8.73999977       1.96175781E-04
  -8.72999954       1.69376668E-04
  -8.72000027       1.52574765E-04
  -8.71000004       1.41206066E-04
  -8.69999981       1.30321394E-04
  -8.68999958       1.16441108E-04
  -8.68000031       9.88402171E-05
  -8.67000008       7.97762477E-05
  -8.65999985       6.35708202E-05
  -8.64999962       5.48783501E-05
  -8.64000034       5.67875031E-05
  -8.63000011       6.94684641E-05
  -8.61999989       8.98868893E-05
  -8.60999966       1.12716458E-04
  -8.60000038       1.32140995E-04
  -8.59000015       1.43903730E-04
  -8.57999992       1.46864171E-04
  -8.56999969       1.43495330E-04
  -8.56000042       1.39133088E-04
  -8.55000019       1.40236225E-04
  -8.53999996       1.52274719E-04
  -8.52999973       1.77982045E-04
  -8.52000046       2.16582019E-04
  -8.51000023       2.64231814E-04
  -8.50000000       3.15489655E-04
  -8.48999977       3.65251530E-04
  -8.47999954       4.10444860E-04
  -8.47000027       4.50875639E-04
  -8.46000004       4.88950289E-04
  -8.44999981       5.28408273E-04
  -8.43999958       5.72566583E-04
  -8.43000031       6.22740248E-04
  -8.42000008       6.77428616E-04
  -8.40999985       7.32560700E-04
  -8.39999962       7.82700256E-04
  -8.39000034       8.22769827E-04
  -8.38000011       8.49667063E-04
  -8.36999989       8.63211113E-04
  -8.35999966       8.66104267E-04
  -8.35000038       8.62963323E-04
  -8.34000015       8.58793792E-04
  -8.32999992       8.57462117E-04
  -8.31999969       8.60690314E-04
  -8.31000042       8.67867318E-04
  -8.30000019       8.76675651E-04
  -8.28999996       8.84221226E-04
  -8.27999973       8.88207869E-04
  -8.27000046       8.87711882E-04
  -8.26000023       8.83310859E-04
  -8.25000000       8.76572391E-04
  -8.23999977       8.69178970E-04
  -8.22999954       8.62069952E-04
  -8.22000027       8.54968908E-04
  -8.21000004       8.46480136E-04
  -8.19999981       8.34704202E-04
  -8.18999958       8.18120025E-04
  -8.18000031       7.96367589E-04
  -8.17000008       7.70629733E-04
  -8.15999985       7.43459328E-04
  -8.14999962       7.18128402E-04
  -8.14000034       6.97737909E-04
  -8.13000011       6.84421975E-04
  -8.11999989       6.78918441E-04
  -8.10999966       6.80623169E-04
  -8.10000038       6.88067172E-04
  -8.09000015       6.99598226E-04
  -8.07999992       7.13995774E-04
  -8.06999969       7.30805274E-04
  -8.06000042       7.50306936E-04
  -8.05000019       7.73189124E-04
  -8.03999996       8.00106733E-04
  -8.02999973       8.31328041E-04
  -8.02000046       8.66605551E-04
  -8.01000023       9.05297580E-04
  -8.00000000       9.46638640E-04
  -7.98999977       9.90005326E-04
  -7.98000002       1.03503454E-03
  -7.96999979       1.08153431E-03
  -7.96000004       1.12924702E-03
  -7.94999981       1.17759884E-03
  -7.94000006       1.22559373E-03
  -7.92999983       1.27194892E-03
  -7.92000008       1.31544634E-03
  -7.90999985       1.35537307E-03
  -7.90000010       1.39184634E-03
  -7.88999987       1.42585847E-03
  -7.88000011       1.45897001E-03
  -7.86999989       1.49273523E-03
  -7.86000013       1.52806821E-03
  -7.84999990       1.56479958E-03
  -7.84000015       1.60163024E-03
  -7.82999992       1.63652969E-03
  -7.82000017       1.66745449E-03
  -7.80999994       1.69311767E-03
  -7.80000019       1.71350350E-03
  -7.78999996       1.72989629E-03
  -7.78000021       1.74438697E-03
  -7.76999998       1.75901398E-03
  -7.76000023       1.77487021E-03
  -7.75000000       1.79153227E-03
  -7.73999977       1.80705613E-03
  -7.73000002       1.81859743E-03
  -7.71999979       1.82343321E-03
  -7.71000004       1.82002748E-03
  -7.69999981       1.80871750E-03
  -7.69000006       1.79173995E-03
  -7.67999983       1.77254446E-03
  -7.67000008       1.75463106E-03
  -7.65999985       1.74032699E-03
  -7.65000010       1.72996556E-03
  -7.63999987       1.72180391E-03
  -7.63000011       1.71273330E-03
  -7.61999989       1.69955008E-03
  -7.61000013       1.68032071E-03
  -7.59999990       1.65533856E-03
  -7.59000015       1.62727921E-03
  -7.57999992       1.60048646E-03
  -7.57000017       1.57960528E-03
  -7.55999994       1.56804756E-03
  -7.55000019       1.56685198E-03
  -7.53999996       1.57435273E-03
  -7.53000021       1.58678985E-03
  -7.51999998       1.59965514E-03
  -7.51000023       1.60928431E-03
  -7.50000000       1.61413755E-03
  -7.48999977       1.61528634E-03
  -7.48000002       1.61594641E-03
  -7.46999979       1.62023678E-03
  -7.46000004       1.63160905E-03
  -7.44999981       1.65153714E-03
  -7.44000006       1.67894748E-03