  -16.0000000       0.00000000    
  -15.9899998       0.00000000    
  -15.9799995       0.00000000    
  -15.9700003       0.00000000    
  -15.9600000       0.00000000    
  -15.9499998       0.00000000    
  -15.9399996       0.00000000    
  -15.9300003       0.00000000    
  -15.9200001       0.00000000    
  -15.9099998       0.00000000    
  -15.8999996       0.00000000    
  -15.8900003       0.00000000    
  -15.8800001       1.77849158E-39
  -15.8699999       6.19322466E-38
  -15.8599997       8.40280889E-37
  -15.8500004       6.98132294E-36
  -15.8400002       4.26486082E-35
  -15.8299999       2.12677486E-34
  -15.8199997       9.23450270E-34
  -15.8100004       3.60707531E-33
  -15.8000002       1.27572978E-32
  -15.7900000       4.04724439E-32
  -15.7799997       1.13330339E-31
  -15.7700005       2.74295189E-31
  -15.7600002       5.54851483E-31
  -15.7500000       8.68002238E-31
  -15.7399998       7.68969942E-31
  -15.7299995      -8.88281114E-31
  -15.7200003      -6.12965911E-30
  -15.7100000      -1.72160849E-29
  -15.6999998      -3.42363298E-29
  -15.6899996      -5.04069040E-29
  -15.6800003      -4.63426291E-29
  -15.6700001       1.21132056E-29
  -15.6599998       1.64280163E-28
  -15.6499996       4.23905366E-28
  -15.6400003       7.22596782E-28
  -15.6300001       8.34793949E-28
  -15.6199999       3.11268990E-28
  -15.6099997      -1.52191886E-27
  -15.6000004      -5.38984630E-27
  -15.5900002      -1.15249065E-26
  -15.5799999      -1.84712890E-26
  -15.5699997      -2.10465008E-26
  -15.5600004      -7.91836236E-27
  -15.5500002       3.90707091E-26
  -15.5400000       1.39025407E-25
  -15.5299997       2.92611633E-25
  -15.5200005       4.44585341E-25
  -15.5100002       4.36464659E-25
  -15.5000000      -1.53438469E-26
  -15.4899998      -1.24567004E-24
  -15.4799995      -3.38411113E-24
  -15.4700003      -5.87952784E-24
  -15.4600000      -6.93852628E-24
  -15.4499998      -3.30543191E-24
  -15.4399996       8.88204052E-24
  -15.4300003       3.13940987E-23
  -15.4200001       5.92555520E-23
  -15.4099998       7.56858838E-23
  -15.3999996       5.06448922E-23
  -15.3900003      -5.09365372E-23
  -15.3800001      -2.45821554E-22
  -15.3699999      -4.94804407E-22
  -15.3599997      -6.64589842E-22
  -15.3500004      -5.20201134E-22
  -15.3400002       2.09461882E-22
  -15.3299999       1.65993268E-21
  -15.3199997       3.56725395E-21
  -15.3100004       5.01347141E-21
  -15.3000002       4.38758973E-21
  -15.2900000      -1.73978514E-22
  -15.2799997      -9.68369923E-21
  -15.2700005      -2.26521068E-20
  -15.2600002      -3.35255268E-20
  -15.2500000      -3.24258322E-20
  -15.2399998      -7.68318311E-21
  -15.2299995       4.78547378E-20
  -15.2200003       1.27431464E-19
  -15.2100000       2.01381114E-19
  -15.1999998       2.14975259E-19
  -15.1899996       1.00935293E-19
  -15.1800003      -1.88195415E-19
  -15.1700001      -6.30987278E-19
  -15.1599998      -1.08815754E-18
  -15.1499996      -1.28509043E-18
  -15.1400003      -8.64233444E-19
  -15.1300001       4.65499198E-19
  -15.1199999       2.69266687E-18
  -15.1099997       5.25276936E-18
  -15.1000004       6.90307078E-18
  -15.0900002       5.89968912E-18
  -15.0799999       6.14631694E-19
  -15.0699997      -9.42140520E-18
  -15.0600004      -2.23235235E-17
  -15.0500002      -3.30754256E-17
  -15.0400000      -3.39323086E-17
  -15.0299997      -1.66664287E-17
  -15.0200005       2.32319598E-17
  -15.0100002       8.12872506E-17
  -15.0000000       1.39825499E-16
  -14.9899998       1.67862184E-16
  -14.9799995       1.28057286E-16
  -14.9700003      -8.03184682E-18
  -14.9600000      -2.38738195E-16
  -14.9499998      -5.12175783E-16
  -14.9399996      -7.18432646E-16
  -14.9300003      -7.06316952E-16
  -14.9200001      -3.32245577E-16
  -14.9099998       4.62520911E-16
  -14.8999996       1.56690539E-15
  -14.8900003       2.64472528E-15
  -14.8800001       3.15506834E-15
  -14.8699999       2.48535751E-15
  -14.8599997       2.01695605E-16
  -14.8500004      -3.63312082E-15
  -14.8400002      -8.18545196E-15
  -14.8299999      -1.17764761E-14
  -14.8199997      -1.21600380E-14
  -14.8100004      -7.22669368E-15
  -14.8000002       3.94791511E-15
  -14.7900000       1.99978126E-14
  -14.7799997       3.65767597E-14
  -14.7700005       4.66255757E-14
  -14.7600002       4.20001253E-14
  -14.7500000       1.64688362E-14
  -14.7399998      -3.05153580E-14
  -14.7299995      -9.05160075E-14
  -14.7200003      -1.44972142E-13
  -14.7100000      -1.67820171E-13
  -14.6999998      -1.32670350E-13
  -14.6899996      -2.37692624E-14
  -14.6800003       1.52003559E-13
  -14.6700001       3.56637652E-13
  -14.6599998       5.21234369E-13
  -14.6499996       5.59078445E-13
  -14.6400003       3.92253558E-13
  -14.6300001      -1.27180803E-14
  -14.6199999      -6.10467894E-13
  -14.6099997      -1.25800661E-12
  -14.6000004      -1.72612770E-12
  -14.5900002      -1.74992226E-12
  -14.5799999      -1.11574313E-12
  -14.5699997       2.33523433E-13
  -14.5600004       2.10785946E-12
  -14.5500002       4.03531332E-12
  -14.5400000       5.31965227E-12
  -14.5299997       5.20671960E-12
  -14.5200005       3.14116051E-12
  -14.5100002      -9.46435313E-13
  -14.5000000      -6.41647976E-12
  -14.4899998      -1.18690535E-11
  -14.4799995      -1.53494561E-11
  -14.4700003      -1.48336517E-11
  -14.4600000      -8.92354159E-12
  -14.4499998       2.41999931E-12
  -14.4399996       1.73536359E-11
  -14.4300003       3.20986883E-11
  -14.4200001       4.15447537E-11
  -14.4099998       4.05292536E-11
  -14.3999996       2.55825448E-11
  -14.3900003      -3.30364013E-12
  -14.3800001      -4.14805551E-11
  -14.3699999      -7.96162927E-11
  -14.3599997      -1.05226536E-10
  -14.3500004      -1.05749888E-10
  -14.3400002      -7.26325111E-11
  -14.3299999      -5.38757927E-12
  -14.3199997       8.57105151E-11
  -14.3100004       1.79580184E-10
  -14.3000002       2.47737358E-10
  -14.2900000       2.61061617E-10
  -14.2799997       1.98728270E-10
  -14.2700005       5.70914115E-11
  -14.2600002      -1.44282961E-10
  -14.2500000      -3.62093217E-10
  -14.2399998      -5.35917588E-10
  -14.2299995      -6.01814987E-10
  -14.2200003      -5.10544440E-10
  -14.2100000      -2.46074827E-10
  -14.1999998       1.61135050E-10
  -14.1899996       6.31311448E-10
  -14.1800003       1.04633890E-09
  -14.1700001       1.27454369E-09
  -14.1599998       1.20521393E-09
  -14.1499996       7.85038312E-10
  -14.1400003       4.64016985E-11
  -14.1300001      -8.82348195E-10
  -14.1199999      -1.79138249E-09
  -14.1099997      -2.42972864E-09
  -14.1000004      -2.56542587E-09
  -14.0900002      -2.05274064E-09
  -14.0799999      -8.89275875E-10
  -14.0699997       7.54650287E-10
  -14.0600004       2.54755728E-09
  -14.0500002       4.05373024E-09
  -14.0400000       4.82838525E-09
  -14.0299997       4.53245397E-09
  -14.0200005       3.03988257E-09
  -14.0100002       5.07861808E-10
  -14.0000000      -2.61451150E-09
  -13.9899998      -5.65159386E-09
  -13.9799995      -7.83534482E-09
  -13.9700003      -8.48442028E-09
  -13.9600000      -7.18927406E-09
  -13.9499998      -3.95668476E-09
  -13.9399996       7.28963168E-10
  -13.9300003       5.95520433E-09
  -13.9200001       1.05452180E-08
  -13.9099998       1.33103120E-08
  -13.8999996       1.33401352E-08
  -13.8900003       1.02628794E-08
  -13.8800001       4.40642012E-09
  -13.8699999      -3.19249249E-09
  -13.8599997      -1.09528404E-08
  -13.8500004      -1.70683077E-08
  -13.8400002      -1.99203392E-08
  -13.8299999      -1.84933562E-08
  -13.8199997      -1.26891928E-08
  -13.8100004      -3.44994011E-09
  -13.8000002       7.36288985E-09
  -13.7900000       1.73309598E-08
  -13.7799997       2.40186324E-08
  -13.7700005       2.55729216E-08
  -13.7600002       2.12390816E-08
  -13.7500000       1.16512675E-08
  -13.7399998      -1.19937194E-09
  -13.7299995      -1.43449972E-08
  -13.7200003      -2.45086689E-08
  -13.7100000      -2.89179383E-08
  -13.6999998      -2.60674469E-08
  -13.6899996      -1.62288938E-08
  -13.6800003      -1.54722035E-09
  -13.6700001       1.43446233E-08
  -13.6599998       2.71433560E-08
  -13.6499996       3.29571144E-08
  -13.6400003       2.93955331E-08
  -13.6300001       1.63819234E-08
  -13.6199999      -3.55541174E-09
  -13.6099997      -2.56483865E-08
  -13.6000004      -4.38887504E-08
  -13.5900002      -5.24722630E-08
  -13.5799999      -4.73641073E-08
  -13.5699997      -2.75932894E-08
  -13.5600004       4.08519352E-09
  -13.5500002       4.14019929E-08
  -13.5400000       7.57008607E-08
  -13.5299997       9.77987256E-08
  -13.5200005       1.00194846E-07
  -13.5100002       7.91153028E-08
  -13.5000000       3.58798289E-08
  -13.4899998      -2.28162680E-08
  -13.4799995      -8.58725286E-08
  -13.4700003      -1.39891256E-07
  -13.4600000      -1.72021686E-07
  -13.4499998      -1.72928452E-07
  -13.4399996      -1.39192409E-07
  -13.4300003      -7.45392654E-08
  -13.4200001       1.04782174E-08
  -13.4099998       1.00367345E-07
  -13.3999996       1.77812822E-07
  -13.3900003       2.27359749E-07
  -13.3800001       2.38823702E-07
  -13.3699999       2.09613674E-07
  -13.3599997       1.45366627E-07
  -13.3500004       5.86802891E-08
  -13.3400002      -3.38087922E-08
  -13.3299999      -1.15324170E-07
  -13.3199997      -1.72865228E-07
  -13.3100004      -2.00129804E-07
  -13.3000002      -1.98633302E-07
  -13.2900000      -1.76661814E-07
  -13.2799997      -1.46265918E-07
  -13.2700005      -1.19063550E-07
  -13.2600002      -1.02019484E-07
  -13.2500000      -9.44992564E-08
  -13.2399998      -8.76287274E-08
  -13.2299995      -6.64627322E-08
  -13.2200003      -1.46817341E-08
  -13.2100000       7.92373314E-08
  -13.1999998       2.16023210E-07
  -13.1899996       3.81621476E-07
  -13.1800003       5.46763715E-07
  -13.1700001       6.70913892E-07
  -13.1599998       7.10295524E-07
  -13.1499996       6.28563782E-07
  -13.1400003       4.07795028E-07
  -13.1300001       5.69478864E-08
  -13.1199999      -3.84675104E-07
  -13.1099997      -8.50653123E-07
  -13.1000004      -1.25745134E-06
  -13.0900002      -1.51981283E-06
  -13.0799999      -1.56848512E-06
  -13.0699997      -1.36654705E-06
  -13.0600004      -9.20429954E-07
  -13.0500002      -2.82701109E-07
  -13.0400000       4.54717480E-07
  -13.0299997       1.17597369E-06
  -13.0200005       1.76255355E-06
  -13.0100002       2.11597558E-06
  -13.0000000       2.17699289E-06
  -12.9899998       1.93702226E-06
  -12.9799995       1.43909392E-06
  -12.9700003       7.68059522E-07
  -12.9600000       3.21488507E-08
  -12.9499998      -6.59735633E-07
  -12.9399996      -1.21982157E-06
  -12.9300003      -1.59709441E-06
  -12.9200001      -1.78311029E-06
  -12.9099998      -1.80677375E-06
  -12.8999996      -1.71957743E-06
  -12.8900003      -1.57547186E-06
  -12.8800001      -1.41097439E-06
  -12.8699999      -1.23130928E-06
  -12.8599997      -1.00708587E-06
  -12.8500004      -6.83347935E-07
  -12.8400002      -1.99382441E-07
  -12.8299999       4.85218663E-07
  -12.8199997       1.36516621E-06
  -12.8100004       2.37229597E-06
  -12.8000002       3.37266579E-06
  -12.7900000       4.18131776E-06
  -12.7799997       4.59361718E-06
  -12.7700005       4.42812552E-06
  -12.7600002       3.57223826E-06
  -12.7500000       2.02036176E-06
  -12.7399998      -1.05330500E-07
  -12.7299995      -2.55787882E-06
  -12.7200003      -4.99476346E-06
  -12.7100000      -7.02942498E-06
  -12.6999998      -8.29653891E-06
  -12.6899996      -8.51864115E-06
  -12.6800003      -7.56128475E-06
  -12.6700001      -5.46451383E-06
  -12.6599998      -2.44479361E-06
  -12.6499996       1.13480007E-06
  -12.6400003       4.82000360E-06
  -12.6300001       8.13621955E-06
  -12.6199999       1.06614370E-05
  -12.6099997       1.20870845E-05
  -12.6000004       1.22566771E-05
  -12.5900002       1.11762402E-05
  -12.5799999       8.99683255E-06
  -12.5699997       5.97591225E-06
  -12.5600004       2.42733699E-06
  -12.5500002      -1.32792604E-06
  -12.5400000      -4.99983844E-06
  -12.5299997      -8.34996990E-06
  -12.5200005      -1.11928939E-05
  -12.5100002      -1.33833555E-05
  -12.5000000      -1.47969877E-05
  -12.4899998      -1.53150922E-05
  -12.4799995      -1.48223471E-05
  -12.4700003      -1.32232599E-05
  -12.4600000      -1.04760957E-05
  -12.4499998      -6.63871560E-06
  -12.4399996      -1.91453273E-06
  -12.4300003       3.31541446E-06
  -12.4200001       8.48709442E-06
  -12.4099998       1.28835381E-05
  -12.3999996       1.57018476E-05
  -12.3900003       1.61512671E-05
  -12.3800001       1.35668461E-05
  -12.3699999       7.52067444E-06
  -12.3599997      -2.09085533E-06
  -12.3500004      -1.50019614E-05
  -12.3400002      -3.05841713E-05
  -12.3299999      -4.79069204E-05
  -12.3199997      -6.58428617E-05
  -12.3100004      -8.31988145E-05
  -12.3000002      -9.88515167E-05
  -12.2900000      -1.11863395E-04
  -12.2799997      -1.21559977E-04
  -12.2700005      -1.27560328E-04
  -12.2600002      -1.29756387E-04
  -12.2500000      -1.28256172E-04
  -12.2399998      -1.23304329E-04
  -12.2299995      -1.15199633E-04
  -12.2200003      -1.04229286E-04
  -12.2100000      -9.06310888E-05
  -12.1999998      -7.45860816E-05
  -12.1899996      -5.62395617E-05
  -12.1800003      -3.57340105E-05
  -12.1700001      -1.32463674E-05
  -12.1599998       1.09921239E-05
  -12.1499996       3.66945933E-05
  -12.1400003       6.35417819E-05
  -12.1300001       9.12207470E-05
  -12.1199999       1.19471268E-04
  -12.1099997       1.48120525E-04
  -12.1000004       1.77098016E-04
  -12.0900002       2.06422104E-04
  -12.0799999       2.36155334E-04
  -12.0699997       2.66342249E-04
  -12.0600004       2.96937214E-04
  -12.0500002       3.27742542E-04
  -12.0400000       3.58367921E-04
  -12.0299997       3.88225482E-04
  -12.0200005       4.16556228E-04
  -12.0100002       4.42488556E-04
  -12.0000000       4.65112127E-04
  -11.9899998       4.83555021E-04
  -11.9799995       4.97044006E-04
  -11.9700003       5.04945230E-04
  -11.9600000       5.06773009E-04
  -11.9499998       5.02174953E-04
  -11.9399996       4.90902283E-04
  -11.9300003       4.72775777E-04
  -11.9200001       4.47658909E-04
  -11.9099998       4.15450719E-04
  -11.8999996       3.76099721E-04
  -11.8900003       3.29628383E-04
  -11.8800001       2.76170700E-04
  -11.8699999       2.16000291E-04
  -11.8599997       1.49545798E-04
  -11.8500004       7.73852953E-05
  -11.8400002       2.17685738E-07
  -11.8299999      -8.11800710E-05
  -11.8199997      -1.66005149E-04
  -11.8100004      -2.53467762E-04
  -11.8000002      -3.42822052E-04
  -11.7900000      -4.33370442E-04
  -11.7799997      -5.24450617E-04
  -11.7700005      -6.15405093E-04
  -11.7600002      -7.05546758E-04
  -11.7500000      -7.94131076E-04
  -11.7399998      -8.80342617E-04
  -11.7299995      -9.63298138E-04
  -11.7200003      -1.04207057E-03
  -11.7100000      -1.11572572E-03
  -11.6999998      -1.18336093E-03
  -11.6899996      -1.24414731E-03
  -11.6800003      -1.29735738E-03
  -11.6700001      -1.34237914E-03
  -11.6599998      -1.37872086E-03
  -11.6499996      -1.40600256E-03
  -11.6400003      -1.42393925E-03
  -11.6300001      -1.43232197E-03
  -11.6199999      -1.43100205E-03
  -11.6099997      -1.41986960E-03
  -11.6000004      -1.39884325E-03
  -11.5900002      -1.36785524E-03
  -11.5799999      -1.32684712E-03
  -11.5699997      -1.27576001E-03
  -11.5600004      -1.21453905E-03
  -11.5500002      -1.14313071E-03
  -11.5400000      -1.06149074E-03
  -11.5299997      -9.69582004E-04
  -11.5200005      -8.67382856E-04
  -11.5100002      -7.54882116E-04
  -11.5000000      -6.32070820E-04
  -11.4899998      -4.98938840E-04
  -11.4799995      -3.55466036E-04
  -11.4700003      -2.01627176E-04
  -11.4600000      -3.74006559E-05
  -11.4499998       1.37200666E-04
  -11.4399996       3.22101259E-04
  -11.4300003       5.17115521E-04
  -11.4200001       7.21912947E-04
  -11.4099998       9.35991760E-04
  -11.3999996       1.15866715E-03
  -11.3900003       1.38907845E-03
  -11.3800001       1.62621238E-03
  -11.3699999       1.86893716E-03
  -11.3599997       2.11603660E-03
  -11.3500004       2.36623781E-03
  -11.3400002       2.61823554E-03
  -11.3299999       2.87071196E-03
  -11.3199997       3.12235719E-03
  -11.3100004       3.37190670E-03
  -11.3000002       3.61819379E-03
  -11.2900000       3.86022264E-03
  -11.2799997       4.09726147E-03
  -11.2700005       4.32892237E-03
  -11.2600002       4.55522723E-03
  -11.2500000       4.77662915E-03
  -11.2399998       4.99397004E-03
  -11.2299995       5.20836655E-03
  -11.2200003       5.42104430E-03
  -11.2100000       5.63313067E-03
  -11.1999998       5.84543776E-03
  -11.1899996       6.05828688E-03
  -11.1800003       6.27139071E-03
  -11.1700001       6.48384076E-03
  -11.1599998       6.69417903E-03
  -11.1499996       6.90058013E-03
  -11.1400003       7.10106967E-03
  -11.1300001       7.29378173E-03
  -11.1199999       7.47716334E-03
  -11.1099997       7.65013415E-03
  -11.1000004       7.81213911E-03
  -11.0900002       7.96308741E-03
  -11.0799999       8.10322724E-03
  -11.0699997       8.23296048E-03
  -11.0600004       8.35265871E-03
  -11.0500002       8.46251287E-03
  -11.0400000       8.56248848E-03
  -11.0299997       8.65235738E-03
  -11.0200005       8.73183273E-03
  -11.0100002       8.80076736E-03
  -11.0000000       8.85935221E-03
  -10.9899998       8.90827458E-03
  -10.9799995       8.94878898E-03
  -10.9700003       8.98265932E-03
  -10.9600000       9.01197828E-03
  -10.9499998       9.03888419E-03
  -10.9399996       9.06526111E-03
  -10.9300003       9.09240171E-03
  -10.9200001       9.12080612E-03
  -10.9099998       9.15007107E-03
  -10.8999996       9.17893182E-03
  -10.8900003       9.20544751E-03
  -10.8800001       9.22729168E-03
  -10.8699999       9.24207550E-03
  -10.8599997       9.24769044E-03
  -10.8500004       9.24255047E-03
  -10.8400002       9.22574941E-03
  -10.8299999       9.19709355E-03
  -10.8199997       9.15698893E-03
  -10.8100004       9.10627190E-03
  -10.8000002       9.04596597E-03
  -10.7900000       8.97700991E-03
  -10.7799997       8.90004262E-03
  -10.7700005       8.81525129E-03
  -10.7600002       8.72227922E-03
  -10.7500000       8.62026401E-03
  -10.7399998       8.50792415E-03
  -10.7299995       8.38373508E-03
  -10.7200003       8.24612565E-03
  -10.7100000       8.09367839E-03
  -10.6999998       7.92527292E-03
  -10.6899996       7.74018886E-03
  -10.6800003       7.53813656E-03
  -10.6700001       7.31919939E-03
  -10.6599998       7.08375918E-03
  -10.6499996       6.83240453E-03
  -10.6400003       6.56586699E-03
  -10.6300001       6.28501410E-03
  -10.6199999       5.99090848E-03
  -10.6099997       5.68493409E-03
  -10.6000004       5.36893960E-03
  -10.5900002       5.04534785E-03
  -10.5799999       4.71721403E-03
  -10.5699997       4.38814284E-03
  -10.5600004       4.06209426E-03
  -10.5500002       3.74307111E-03
  -10.5400000       3.43473558E-03
  -10.5299997       3.14005697E-03
  -10.5200005       2.86097242E-03
  -10.5100002       2.59825797E-03
  -10.5000000       2.35152268E-03
  -10.4899998       2.11937632E-03
  -10.4799995       1.89977174E-03
  -10.4700003       1.69036770E-03
  -10.4600000       1.48891343E-03
  -10.4499998       1.29354943E-03
  -10.4399996       1.10296870E-03
  -10.4300003       9.16437537E-04
  -10.4200001       7.33657274E-04
  -10.4099998       5.54551370E-04
  -10.3999996       3.78978031E-04
  -10.3900003       2.06491837E-04
  -10.3800001       3.61608945E-05
  -10.3699999      -1.33470763E-04
  -10.3599997      -3.04330868E-04
  -10.3500004      -4.78583446E-04
  -10.3400002      -6.58374454E-04
  -10.3299999      -8.45472910E-04
  -10.3199997      -1.04097568E-03
  -10.3100004      -1.24502613E-03
  -10.3000002      -1.45672681E-03
  -10.2900000      -1.67414779E-03
  -10.2799997      -1.89453445E-03
  -10.2700005      -2.11463822E-03
  -10.2600002      -2.33117584E-03
  -10.2500000      -2.54130852E-03
  -10.2399998      -2.74305628E-03
  -10.2299995      -2.93561514E-03
  -10.2200003      -3.11949453E-03
  -10.2100000      -3.29639157E-03
  -10.1999998      -3.46888765E-03
  -10.1899996      -3.63997556E-03
  -10.1800003      -3.81248957E-03
  -10.1700001      -3.98857798E-03
  -10.1599998      -4.16925363E-03
  -10.1499996      -4.35414305E-03
  -10.1400003      -4.54147998E-03
  -10.1300001      -4.72828094E-03
  -10.1199999      -4.91073309E-03
  -10.1099997      -5.08471392E-03
  -10.1000004      -5.24622807E-03
  -10.0900002      -5.39188972E-03
  -10.0799999      -5.51919686E-03
  -10.0699997      -5.62663842E-03
  -10.0600004      -5.71365189E-03
  -10.0500002      -5.78045333E-03
  -10.0400000      -5.82770258E-03
  -10.0299997      -5.85621828E-03
  -10.0200005      -5.86672919E-03
  -10.0100002      -5.85965160E-03
  -10.0000000      -5.83503395E-03
  -9.98999977      -5.79263037E-03
  -9.97999954      -5.73202362E-03
  -9.97000027      -5.65284025E-03
  -9.96000004      -5.55499690E-03
  -9.94999981      -5.43882046E-03
  -9.93999958      -5.30515099E-03
  -9.93000031      -5.15526906E-03
  -9.92000008      -4.99069598E-03
  -9.90999985      -4.81297681E-03
  -9.89999962      -4.62332182E-03
  -9.89000034      -4.42233356E-03
  -9.88000011      -4.20984486E-03
  -9.86999989      -3.98489647E-03
  -9.85999966      -3.74581083E-03
  -9.85000038      -3.49055766E-03
  -9.84000015      -3.21707712E-03
  -9.82999992      -2.92369700E-03
  -9.81999969      -2.60942732E-03
  -9.81000042      -2.27413327E-03
  -9.80000019      -1.91846420E-03
  -9.78999996      -1.54361560E-03
  -9.77999973      -1.15090481E-03
  -9.77000046      -7.41309195E-04
  -9.76000023      -3.15062032E-04
  -9.75000000       1.28664615E-04
  -9.73999977       5.91722783E-04
  -9.72999954       1.07677002E-03
  -9.72000027       1.58676552E-03
  -9.71000004       2.12430931E-03
  -9.69999981       2.69092829E-03
  -9.68999958       3.28648672E-03
  -9.68000031       3.90882324E-03
  -9.67000008       4.55370918E-03
  -9.65999985       5.21517219E-03
  -9.64999962       5.88615984E-03
  -9.64000034       6.55928580E-03
  -9.63000011       7.22780032E-03
  -9.61999989       7.88620487E-03
  -9.60999966       8.53081048E-03
  -9.60000038       9.15981550E-03
  -9.59000015       9.77306534E-03
  -9.57999992       1.03715202E-02
  -9.56999969       1.09565305E-02
  -9.56000042       1.15291914E-02
  -9.55000019       1.20897647E-02
  -9.53999996       1.26373852E-02
  -9.52999973       1.31701110E-02
  -9.52000046       1.36851333E-02
  -9.51000023       1.41792353E-02
  -9.50000000       1.46492599E-02
  -9.48999977       1.50925349E-02
  -9.47999954       1.55071411E-02
  -9.47000027       1.58920083E-02
  -9.46000004       1.62469186E-02
  -9.44999981       1.65723301E-02
  -9.43999958       1.68692674E-02
  -9.43000031       1.71391871E-02
  -9.42000008       1.73838586E-02
  -9.40999985       1.76053327E-02
  -9.39999962       1.78057794E-02
  -9.39000034       1.79873630E-02
  -9.38000011       1.81521159E-02
  -9.36999989       1.83016267E-02
  -9.35999966       1.84369478E-02
  -9.35000038       1.85584687E-02
  -9.34000015       1.86659787E-02
  -9.32999992       1.87586937E-02
  -9.31999969       1.88355632E-02
  -9.31000042       1.88954230E-02
  -9.30000019       1.89370401E-02
  -9.28999996       1.89591125E-02
  -9.27999973       1.89601425E-02
  -9.27000046       1.89381801E-02
  -9.26000023       1.88907422E-02
  -9.25000000       1.88147798E-02
  -9.23999977       1.87069271E-02
  -9.22999954       1.85639840E-02
  -9.22000027       1.83833931E-02
  -9.21000004       1.81638766E-02
  -9.19999981       1.79055948E-02
  -9.18999958       1.76101662E-02
  -9.18000031       1.72802825E-02
  -9.17000008       1.69189796E-02
  -9.15999985       1.65288858E-02
  -9.14999962       1.61115788E-02
  -9.14000034       1.56673193E-02
  -9.13000011       1.51951248E-02
  -9.11999989       1.46933272E-02
  -9.10999966       1.41604273E-02
  -9.10000038       1.35958344E-02
  -9.09000015       1.30006280E-02
  -9.07999992       1.23776812E-02
  -9.06999969       1.17315548E-02
  -9.06000042       1.10679558E-02
  -9.05000019       1.03930458E-02
  -9.03999996       9.71275847E-03
  -9.02999973       9.03237890E-03
  -9.02000046       8.35631136E-03
  -9.01000023       7.68831465E-03
  -9.00000000       7.03170802E-03
  -8.98999977       6.38965843E-03
  -8.97999954       5.76536590E-03
  -8.97000027       5.16212452E-03
  -8.96000004       4.58295085E-03
  -8.94999981       4.03062068E-03
  -8.93999958       3.50736990E-03
  -8.93000031       3.01496219E-03
  -8.92000008       2.55488418E-03
  -8.90999985       2.12864322E-03
  -8.89999962       1.73806911E-03
  -8.89000034       1.38547248E-03
  -8.88000011       1.07345101E-03
  -8.86999989       8.04699492E-04
  -8.85999966       5.81521192E-04
  -8.85000038       4.05414903E-04
  -8.84000015       2.76886858E-04
  -8.82999992       1.95591783E-04
  -8.81999969       1.60658470E-04
  -8.81000042       1.71170381E-04
  -8.80000019       2.26764649E-04
  -8.78999996       3.27948073E-04
  -8.77999973       4.76131332E-04
  -8.77000046       6.73353788E-04
  -8.76000023       9.21822968E-04
  -8.75000000       1.22353970E-03
  -8.73999977       1.57983962E-03
  -8.72999954       1.99153111E-03
  -8.72000027       2.45917356E-03
  -8.71000004       2.98356428E-03
  -8.69999981       3.56621784E-03
  -8.68999958       4.20973264E-03
  -8.68000031       4.91776597E-03
  -8.67000008       5.69456490E-03
  -8.65999985       6.54458161E-03
  -8.64999962       7.47171324E-03
  -8.64000034       8.47880729E-03
  -8.63000011       9.56758764E-03
  -8.61999989       1.07386401E-02
  -8.60999966       1.19919358E-02
  -8.60000038       1.33271087E-02
  -8.59000015       1.47437612E-02
  -8.57999992       1.62417069E-02
  -8.56999969       1.78205948E-02
  -8.56000042       1.94796305E-02
  -8.55000019       2.12172363E-02
  -8.53999996       2.30307989E-02
  -8.52999973       2.49167699E-02
  -8.52000046       2.68708821E-02
  -8.51000023       2.88886856E-02
  -8.50000000       3.09657790E-02
  -8.48999977       3.30980644E-02
  -8.47999954       3.52816507E-02
  -8.47000027       3.75123583E-02
  -8.46000004       3.97852995E-02
  -8.44999981       4.20945659E-02
  -8.43999958       4.44329455E-02
  -8.43000031       4.67922427E-02
  -8.42000008       4.91638929E-02
  -8.40999985       5.15396856E-02
  -8.39999962       5.39123751E-02
  -8.39000034       5.62761165E-02
  -8.38000011       5.86263873E-02
  -8.36999989       6.09593503E-02
  -8.35999966       6.32711872E-02
  -8.35000038       6.55573383E-02
  -8.34000015       6.78116828E-02
  -8.32999992       7.00268671E-02
  -8.31999969       7.21940696E-02
  -8.31000042       7.43041560E-02
  -8.30000019       7.63480142E-02
  -8.28999996       7.83173889E-02
  -8.27999973       8.02051276E-02
  -8.27000046       8.20050538E-02
  -8.26000023       8.37116316E-02
  -8.25000000       8.53193104E-02
  -8.23999977       8.68225545E-02
  -8.22999954       8.82150531E-02
  -8.22000027       8.94905478E-02
  -8.21000004       9.06428397E-02
  -8.19999981       9.16663855E-02
  -8.18999958       9.25565064E-02
  -8.18000031       9.33095217E-02
  -8.17000008       9.39222723E-02
  -8.15999985       9.43918005E-02
  -8.14999962       9.47146937E-02
  -8.14000034       9.48869660E-02
  -8.13000011       9.49042067E-02
  -8.11999989       9.47616845E-02
  -8.10999966       9.44555849E-02
  -8.10000038       9.39833447E-02
  -8.09000015       9.33444947E-02
  -8.07999992       9.25404206E-02
  -8.06999969       9.15744379E-02
  -8.06000042       9.04508382E-02
  -8.05000019       8.91742930E-02
  -8.03999996       8.77490342E-02
  -8.02999973       8.61788243E-02
  -8.02000046       8.44670758E-02
  -8.01000023       8.26174766E-02
  -8.00000000       8.06348845E-02
  -7.98999977       7.85259008E-02
  -7.98000002       7.62995034E-02
  -7.96999979       7.39665329E-02
  -7.96000004       7.15393275E-02
  -7.94999981       6.90307245E-02
  -7.94000006       6.64532110E-02
  -7.92999983       6.38181195E-02
  -7.92000008       6.11354746E-02
  -7.90999985       5.84142581E-02
  -7.90000010       5.56628853E-02
  -7.88999987       5.28900102E-02
  -7.88000011       5.01049049E-02
  -7.86999989       4.73177060E-02
  -7.86000013       4.45391387E-02
  -7.84999990       4.17797640E-02
  -7.84000015       3.90493907E-02
  -7.82999992       3.63565236E-02
  -7.82000017       3.37080359E-02
  -7.80999994       3.11092976E-02
  -7.80000019       2.85650771E-02
  -7.78999996       2.60800142E-02
  -7.78000021       2.36592367E-02
  -7.76999998       2.13088859E-02
  -7.76000023       1.90357957E-02
  -7.75000000       1.68470349E-02
  -7.73999977       1.47491805E-02
  -7.73000002       1.27474526E-02
  -7.71999979       1.08451648E-02
  -7.71000004       9.04380623E-03
  -7.69999981       7.34349154E-03
  -7.69000006       5.74361859E-03
  -7.67999983       4.24353033E-03
  -7.67000008       2.84362165E-03
  -7.65999985       1.54534099E-03
  -7.65000010       3.51210532E-04
  -7.63999987      -7.35475973E-04
  -7.63000011      -1.71146274E-03
  -7.61999989      -2.57398165E-03
  -7.61000013      -3.32130981E-03
  -7.59999990      -3.95242497E-03
  -7.59000015      -4.46728477E-03
  -7.57999992      -4.86609899E-03
  -7.57000017      -5.14888298E-03
  -7.55999994      -5.31550311E-03
  -7.55000019      -5.36517985E-03
  -7.53999996      -5.29711228E-03
  -7.53000021      -5.11057116E-03
  -7.51999998      -4.80513321E-03
  -7.51000023      -4.38109878E-03
  -7.50000000      -3.83959967E-03
  -7.48999977      -3.18240840E-03
  -7.48000002      -2.41195294E-03
  -7.46999979      -1.53070211E-03
  -7.46000004      -5.41380490E-04
  -7.44999981       5.53446996E-04
  -7.44000006       1.75163755E-03