  -16.0000000       0.00000000    
  -15.9899998       0.00000000    
  -15.9799995       0.00000000    
  -15.9700003       0.00000000    
  -15.9600000       0.00000000    
  -15.9499998       0.00000000    
  -15.9399996       0.00000000    
  -15.9300003       0.00000000    
  -15.9200001       0.00000000    
  -15.9099998       0.00000000    
  -15.8999996       0.00000000    
  -15.8900003       0.00000000    
  -15.8800001       1.50877806E-41
  -15.8699999       4.61202777E-39
  -15.8599997       1.22496759E-37
  -15.8500004       1.67644945E-36
  -15.8400002       1.54419981E-35
  -15.8299999       1.07322382E-34
  -15.8199997       5.99614066E-34
  -15.8100004       2.80256514E-33
  -15.8000002       1.12560101E-32
  -15.7900000       3.95745895E-32
  -15.7799997       1.23355684E-31
  -15.7700005       3.43603323E-31
  -15.7600002       8.58226921E-31
  -15.7500000       1.91878068E-30
  -15.7399998       3.80409457E-30
  -15.7299995       6.52997531E-30
  -15.7200003       9.12696546E-30
  -15.7100000       8.31900474E-30
  -15.6999998      -3.22157637E-30
  -15.6899996      -3.79985376E-29
  -15.6800003      -1.11727975E-28
  -15.6700001      -2.34424578E-28
  -15.6599998      -3.90937995E-28
  -15.6499996      -5.11843857E-28
  -15.6400003      -4.46531047E-28
  -15.6300001       3.35983264E-29
  -15.6199999       1.16136503E-27
  -15.6099997       2.99751756E-27
  -15.6000004       5.16956999E-27
  -15.5900002       6.63938695E-27
  -15.5799999       5.72086011E-27
  -15.5699997       5.99574636E-28
  -15.5600004      -9.55840033E-27
  -15.5500002      -2.32418760E-26
  -15.5400000      -3.58524216E-26
  -15.5299997      -4.07206579E-26
  -15.5200005      -3.23974019E-26
  -15.5100002      -1.08970734E-26
  -15.5000000       1.68999875E-26
  -15.4899998       4.35567515E-26
  -15.4799995       7.66043966E-26
  -15.4700003       1.54971971E-25
  -15.4600000       3.44317078E-25
  -15.4499998       6.81958617E-25
  -15.4399996       1.05814735E-24
  -15.4300003       1.07416557E-24
  -15.4200001       3.06616078E-27
  -15.4099998      -2.95031947E-24
  -15.3999996      -7.92705892E-24
  -15.3900003      -1.33044358E-23
  -15.3800001      -1.47444020E-23
  -15.3699999      -5.49492423E-24
  -15.3599997       2.07386609E-23
  -15.3500004       6.37200314E-23
  -15.3400002       1.08808708E-22
  -15.3299999       1.21851532E-22
  -15.3199997       5.42730497E-23
  -15.3100004      -1.34308757E-22
  -15.3000002      -4.34788627E-22
  -15.2900000      -7.41082693E-22
  -15.2799997      -8.26935750E-22
  -15.2700005      -3.90324286E-22
  -15.2600002       7.98679687E-22
  -15.2500000       2.65264564E-21
  -15.2399998       4.50862588E-21
  -15.2299995       5.03347117E-21
  -15.2200003       2.51985730E-21
  -15.2100000      -4.26462456E-21
  -15.1999998      -1.47534545E-20
  -15.1899996      -2.52658134E-20
  -15.1800003      -2.86187044E-20
  -15.1700001      -1.57766413E-20
  -15.1599998       1.97464055E-20
  -15.1499996       7.52388880E-20
  -15.1400003       1.32337020E-19
  -15.1300001       1.55172142E-19
  -15.1199999       9.82770119E-20
  -15.1099997      -7.25506027E-20
  -15.1000004      -3.48837651E-19
  -15.0900002      -6.48526247E-19
  -15.0799999      -8.05262084E-19
  -15.0699997      -6.00900341E-19
  -15.0600004       1.43953971E-19
  -15.0500002       1.43008630E-18
  -15.0400000       2.93556018E-18
  -15.0299997       3.94950742E-18
  -15.0200005       3.48248952E-18
  -15.0100002       6.23304115E-19
  -15.0000000      -4.87807308E-18
  -14.9899998      -1.19656258E-17
  -14.9799995      -1.78887287E-17
  -14.9700003      -1.84726024E-17
  -14.9600000      -9.37082145E-18
  -14.9499998       1.16897396E-17
  -14.9399996       4.21929643E-17
  -14.9300003       7.27782884E-17
  -14.9200001       8.73907582E-17
  -14.9099998       6.70496524E-17
  -14.8999996      -2.31008756E-18
  -14.8900003      -1.19282065E-16
  -14.8800001      -2.57347032E-16
  -14.8699999      -3.61624359E-16
  -14.8599997      -3.57726260E-16
  -14.8500004      -1.75941872E-16
  -14.8400002       2.11623863E-16
  -14.8299999       7.51127165E-16
  -14.8199997       1.28192200E-15
  -14.8100004       1.54732633E-15
  -14.8000002       1.25739278E-15
  -14.7900000       2.04628019E-16
  -14.7799997      -1.59071570E-15
  -14.7700005      -3.75616464E-15
  -14.7600002      -5.53237367E-15
  -14.7500000      -5.89441969E-15
  -14.7399998      -3.86055129E-15
  -14.7299995       1.04742379E-15
  -14.7200003       8.31472274E-15
  -14.7100000       1.61153778E-14
  -14.6999998       2.13946529E-14
  -14.6899996       2.05253634E-14
  -14.6800003       1.05515199E-14
  -14.6700001      -9.21212959E-15
  -14.6599998      -3.57225744E-14
  -14.6499996      -6.15755548E-14
  -14.6400003      -7.58658815E-14
  -14.6300001      -6.69102631E-14
  -14.6199999      -2.66091961E-14
  -14.6099997       4.45498673E-14
  -14.6000004       1.33567988E-13
  -14.5900002       2.14159718E-13
  -14.5799999       2.50874760E-13
  -14.5699997       2.08700516E-13
  -14.5600004       6.68307301E-14
  -14.5500002      -1.66914537E-13
  -14.5400000      -4.46294179E-13
  -14.5299997      -6.87213632E-13
  -14.5200005      -7.82839993E-13
  -14.5100002      -6.33668411E-13
  -14.5000000      -1.87484671E-13
  -14.4899998       5.21570742E-13
  -14.4799995       1.34960175E-12
  -14.4700003       2.05004113E-12
  -14.4600000       2.32066796E-12
  -14.4499998       1.88915485E-12
  -14.4399996       6.21345531E-13
  -14.4300003      -1.37759682E-12
  -14.4200001      -3.70753298E-12
  -14.4099998      -5.69954977E-12
  -14.3999996      -6.54486274E-12
  -14.3900003      -5.51903315E-12
  -14.3800001      -2.25862970E-12
  -14.3699999       2.98536998E-12
  -14.3599997       9.21121512E-12
  -14.3500004       1.47330793E-11
  -14.3400002       1.74975069E-11
  -14.3299999       1.56285870E-11
  -14.3199997       8.09832843E-12
  -14.3100004      -4.65576536E-12
  -14.3000002      -2.03832437E-11
  -14.2900000      -3.51414141E-11
  -14.2799997      -4.39929829E-11
  -14.2700005      -4.22381401E-11
  -14.2600002      -2.69562081E-11
  -14.2500000       1.53306274E-12
  -14.2399998       3.87678396E-11
  -14.2299995       7.62467936E-11
  -14.2200003       1.02797319E-10
  -14.2100000       1.07155389E-10
  -14.1999998       8.13181397E-11
  -14.1899996       2.38732888E-11
  -14.1800003      -5.76996645E-11
  -14.1700001      -1.46724313E-10
  -14.1599998      -2.19647286E-10
  -14.1499996      -2.50999249E-10
  -14.1400003      -2.20236093E-10
  -14.1300001      -1.18956942E-10
  -14.1199999       4.34977609E-11
  -14.1099997       2.38088077E-10
  -14.1000004       4.19223434E-10
  -14.0900002       5.33375288E-10
  -14.0799999       5.32034250E-10
  -14.0699997       3.86394805E-10
  -14.0600004       1.00058663E-10
  -14.0500002      -2.84247792E-10
  -14.0400000      -6.87168156E-10
  -14.0299997      -1.00580311E-09
  -14.0200005      -1.13613241E-09
  -14.0100002      -1.00067354E-09
  -14.0000000      -5.74971959E-10
  -13.9899998       9.44934062E-11
  -13.9799995       8.87583118E-10
  -13.9700003       1.62676206E-09
  -13.9600000       2.11179629E-09
  -13.9499998       2.16726548E-09
  -13.9399996       1.69279368E-09
  -13.9300003       7.03280378E-10
  -13.9200001      -6.53251619E-10
  -13.9099998      -2.10888684E-09
  -13.8999996      -3.32218164E-09
  -13.8900003      -3.95140809E-09
  -13.8800001      -3.74033782E-09
  -13.8699999      -2.59665178E-09
  -13.8599997      -6.41727671E-10
  -13.8500004       1.78538195E-09
  -13.8400002       4.17785095E-09
  -13.8299999       5.96034999E-09
  -13.8199997       6.61991661E-09
  -13.8100004       5.84008175E-09
  -13.8000002       3.60510355E-09
  -13.7900000       2.44231857E-10
  -13.7799997      -3.60299746E-09
  -13.7700005      -7.10198744E-09
  -13.7600002      -9.40038181E-09
  -13.7500000      -9.83107196E-09
  -13.7399998      -8.09374434E-09
  -13.7299995      -4.36748815E-09
  -13.7200003       6.81279311E-10
  -13.7100000       6.00923356E-09
  -13.6999998       1.04104565E-08
  -13.6899996       1.27925830E-08
  -13.6800003       1.24525448E-08
  -13.6700001       9.28302946E-09
  -13.6599998       3.85078502E-09
  -13.6499996      -2.68600009E-09
  -13.6400003      -8.81671802E-09
  -13.6300001      -1.30289424E-08
  -13.6199999      -1.41923575E-08
  -13.6099997      -1.18807577E-08
  -13.6000004      -6.54234933E-09
  -13.5900002       5.42096590E-10
  -13.5799999       7.52523555E-09
  -13.5699997       1.24379413E-08
  -13.5600004       1.37152538E-08
  -13.5500002       1.06726459E-08
  -13.5400000       3.79899268E-09
  -13.5299997      -5.23541077E-09
  -13.5200005      -1.38942928E-08
  -13.5100002      -1.93716243E-08
  -13.5000000      -1.93450838E-08
  -13.4899998      -1.27049269E-08
  -13.4799995      -5.83950666E-11
  -13.4700003       1.61575286E-08
  -13.4600000       3.20406848E-08
  -13.4499998       4.30366889E-08
  -13.4399996       4.50487541E-08
  -13.4300003       3.55948302E-08
  -13.4200001       1.47168295E-08
  -13.4099998      -1.46270747E-08
  -13.3999996      -4.68567833E-08
  -13.3900003      -7.47653104E-08
  -13.3800001      -9.10512341E-08
  -13.3699999      -9.00696762E-08
  -13.3599997      -6.93917741E-08
  -13.3500004      -3.07672536E-08
  -13.3400002       1.98079881E-08
  -13.3299999       7.30232088E-08
  -13.3199997       1.18049115E-07
  -13.3100004       1.44840811E-07
  -13.3000002       1.46435212E-07
  -13.2900000       1.20694835E-07
  -13.2799997       7.10478574E-08
  -13.2700005       5.99153838E-09
  -13.2600002      -6.25838794E-08
  -13.2500000      -1.21901991E-07
  -13.2399998      -1.61068044E-07
  -13.2299995      -1.73439446E-07
  -13.2200003      -1.58014686E-07
  -13.2100000      -1.19480973E-07
  -13.1999998      -6.68886884E-08
  -13.1899996      -1.12712435E-08
  -13.1800003       3.71887623E-08
  -13.1700001       7.17049247E-08
  -13.1599998       9.04507260E-08
  -13.1499996       9.66822356E-08
  -13.1400003       9.73300445E-08
  -13.1300001       1.00389570E-07
  -13.1199999       1.11796680E-07
  -13.1099997       1.32677329E-07
  -13.1000004       1.57838315E-07
  -13.0900002       1.76109097E-07
  -13.0799999       1.72697014E-07
  -13.0699997       1.33181118E-07
  -13.0600004       4.82722449E-08
  -13.0500002      -8.18595183E-08
  -13.0400000      -2.44939315E-07
  -13.0299997      -4.16609026E-07
  -13.0200005      -5.63555204E-07
  -13.0100002      -6.49452886E-07
  -13.0000000      -6.42705061E-07
  -12.9899998      -5.24375139E-07
  -12.9799995      -2.94475313E-07
  -12.9700003       2.50602312E-08
  -12.9600000       3.91788973E-07
  -12.9499998       7.48724858E-07
  -12.9399996       1.03398816E-06
  -12.9300003       1.19235551E-06
  -12.9200001       1.18635603E-06
  -12.9099998       1.00450131E-06
  -12.8999996       6.64734443E-07
  -12.8900003       2.12160245E-07
  -12.8800001      -2.88635391E-07
  -12.8699999      -7.65151867E-07
  -12.8599997      -1.14998920E-06
  -12.8500004      -1.39252415E-06
  -12.8400002      -1.46676132E-06
  -12.8299999      -1.37377674E-06
  -12.8199997      -1.13846579E-06
  -12.8100004      -8.01679789E-07
  -12.8000002      -4.09937826E-07
  -12.7900000      -5.44511547E-09
  -12.7799997       3.81006913E-07
  -12.7700005       7.32519709E-07
  -12.7600002       1.04351511E-06
  -12.7500000       1.31313129E-06
  -12.7399998       1.53681458E-06
  -12.7299995       1.69899226E-06
  -12.7200003       1.76959668E-06
  -12.7100000       1.70633859E-06
  -12.6999998       1.46316756E-06
  -12.6899996       1.00364878E-06
  -12.6800003       3.16436797E-07
  -12.6700001      -5.70975658E-07
  -12.6599998      -1.58423211E-06
  -12.6499996      -2.60303977E-06
  -12.6400003      -3.47268974E-06
  -12.6300001      -4.02564774E-06
  -12.6199999      -4.11039127E-06
  -12.6099997      -3.62273568E-06
  -12.6000004      -2.53369740E-06
  -12.5900002      -9.07857327E-07
  -12.5799999       1.09266512E-06
  -12.5699997       3.22129586E-06
  -12.5600004       5.17678518E-06
  -12.5500002       6.64610297E-06
  -12.5400000       7.35400590E-06
  -12.5299997       7.11097755E-06
  -12.5200005       5.85086536E-06
  -12.5100002       3.65086566E-06
  -12.5000000       7.29330793E-07
  -12.4899998      -2.57918236E-06
  -12.4799995      -5.86794522E-06
  -12.4700003      -8.71380325E-06
  -12.4600000      -1.07349715E-05
  -12.4499998      -1.16408173E-05
  -12.4399996      -1.12653970E-05
  -12.4300003      -9.57991415E-06
  -12.4200001      -6.68389839E-06
  -12.4099998      -2.77924073E-06
  -12.3999996       1.86537557E-06
  -12.3900003       6.95078825E-06
  -12.3800001       1.21764424E-05
  -12.3699999       1.72572963E-05
  -12.3599997       2.19277517E-05
  -12.3500004       2.59362732E-05
  -12.3400002       2.90373755E-05
  -12.3299999       3.09889474E-05
  -12.3199997       3.15614452E-05
  -12.3100004       3.05617868E-05
  -12.3000002       2.78699081E-05
  -12.2900000       2.34810250E-05
  -12.2799997       1.75429996E-05
  -12.2700005       1.03772090E-05
  -12.2600002       2.47340199E-06
  -12.2500000      -5.54645976E-06
  -12.2399998      -1.29935734E-05
  -12.2299995      -1.91987237E-05
  -12.2200003      -2.36058822E-05
  -12.2100000      -2.58566943E-05
  -12.1999998      -2.58502205E-05
  -12.1899996      -2.37663917E-05
  -12.1800003      -2.00482682E-05
  -12.1700001      -1.53456313E-05
  -12.1599998      -1.04294731E-05
  -12.1499996      -6.09158633E-06
  -12.1400003      -3.04530727E-06
  -12.1300001      -1.84197097E-06
  -12.1199999      -2.81355074E-06
  -12.1099997      -6.04633397E-06
  -12.1000004      -1.13848337E-05
  -12.0900002      -1.84604960E-05
  -12.0799999      -2.67372416E-05
  -12.0699997      -3.55655029E-05
  -12.0600004      -4.42378405E-05
  -12.0500002      -5.20418362E-05
  -12.0400000      -5.83084729E-05
  -12.0299997      -6.24558816E-05
  -12.0200005      -6.40290164E-05
  -12.0100002      -6.27349655E-05
  -12.0000000      -5.84717891E-05
  -11.9899998      -5.13477571E-05
  -11.9799995      -4.16864350E-05
  -11.9700003      -3.00136981E-05
  -11.9600000      -1.70246567E-05
  -11.9499998      -3.53110022E-06
  -11.9399996       9.60646321E-06
  -11.9300003       2.15552700E-05
  -11.9200001       3.15865691E-05
  -11.9099998       3.91427893E-05
  -11.8999996       4.38878960E-05
  -11.8900003       4.57356655E-05
  -11.8800001       4.48536593E-05
  -11.8699999       4.16435796E-05
  -11.8599997       3.67008470E-05
  -11.8500004       3.07579867E-05
  -11.8400002       2.46171039E-05
  -11.8299999       1.90769606E-05
  -11.8199997       1.48604458E-05
  -11.8100004       1.25482147E-05
  -11.8000002       1.25242595E-05
  -11.7900000       1.49388788E-05
  -11.7799997       1.96935307E-05
  -11.7700005       2.64501978E-05
  -11.7600002       3.46651614E-05
  -11.7500000       4.36440132E-05
  -11.7399998       5.26113872E-05
  -11.7299995       6.07870352E-05
  -11.7200003       6.74586481E-05
  -11.7100000       7.20433309E-05
  -11.6999998       7.41316035E-05
  -11.6899996       7.35116337E-05
  -11.6800003       7.01745594E-05
  -11.6700001       6.43042877E-05
  -11.6599998       5.62562709E-05
  -11.6499996       4.65290141E-05
  -11.6400003       3.57301869E-05
  -11.6300001       2.45375431E-05
  -11.6199999       1.36532017E-05
  -11.6099997       3.75023455E-06
  -11.6000004      -4.58772956E-06
  -11.5900002      -1.09298708E-05
  -11.5799999      -1.50569858E-05
  -11.5699997      -1.70055227E-05
  -11.5600004      -1.70860276E-05
  -11.5500002      -1.58673829E-05
  -11.5400000      -1.41229493E-05
  -11.5299997      -1.27415933E-05
  -11.5200005      -1.26135401E-05
  -11.5100002      -1.45069635E-05
  -11.5000000      -1.89542025E-05
  -11.4899998      -2.61660334E-05
  -11.4799995      -3.59881888E-05
  -11.4700003      -4.79071568E-05
  -11.4600000      -6.11040523E-05
  -11.4499998      -7.45472571E-05
  -11.4399996      -8.71086886E-05
  -11.4300003      -9.76860902E-05
  -11.4200001      -1.05314437E-04
  -11.4099998      -1.09253575E-04
  -11.3999996      -1.09045061E-04
  -11.3900003      -1.04537568E-04
  -11.3800001      -9.58847158E-05
  -11.3699999      -8.35228711E-05
  -11.3599997      -6.81363599E-05
  -11.3500004      -5.06157303E-05
  -11.3400002      -3.20118634E-05
  -11.3299999      -1.34852398E-05
  -11.3199997       3.75198351E-06
  -11.3100004       1.85038825E-05
  -11.3000002       2.96690268E-05
  -11.2900000       3.63263207E-05
  -11.2799997       3.78213881E-05
  -11.2700005       3.38432365E-05
  -11.2600002       2.44799157E-05
  -11.2500000       1.02428612E-05
  -11.2399998      -7.94670541E-06
  -11.2299995      -2.88107531E-05
  -11.2200003      -5.08029116E-05
  -11.2100000      -7.22237892E-05
  -11.1999998      -9.13520125E-05
  -11.1899996      -1.06579027E-04
  -11.1800003      -1.16537012E-04
  -11.1700001      -1.20211072E-04
  -11.1599998      -1.17028918E-04
  -11.1499996      -1.06921907E-04
  -11.1400003      -9.03523833E-05
  -11.1300001      -6.83012986E-05
  -11.1199999      -4.22120102E-05
  -11.1099997      -1.38883324E-05
  -11.1000004       1.46497678E-05
  -11.0900002       4.13424641E-05
  -11.0799999       6.42807718E-05
  -11.0699997       8.18878980E-05
  -11.0600004       9.30660826E-05
  -11.0500002       9.72858834E-05
  -11.0400000       9.46039800E-05
  -11.0299997       8.56073966E-05
  -11.0200005       7.12954497E-05
  -11.0100002       5.29228600E-05
  -11.0000000       3.18335078E-05
  -10.9899998       9.31510840E-06
  -10.9799995      -1.35016699E-05
  -10.9700003      -3.56876808E-05
  -10.9600000      -5.65049304E-05
  -10.9499998      -7.53554268E-05
  -10.9399996      -9.17113866E-05
  -10.9300003      -1.05051629E-04
  -10.9200001      -1.14825292E-04
  -10.9099998      -1.20455734E-04
  -10.8999996      -1.21387544E-04
  -10.8900003      -1.17168092E-04
  -10.8800001      -1.07547567E-04
  -10.8699999      -9.25764252E-05
  -10.8599997      -7.26783910E-05
  -10.8500004      -4.86805293E-05
  -10.8400002      -2.17886118E-05
  -10.8299999       6.49545564E-06
  -10.8199997       3.45070875E-05
  -10.8100004       6.05868008E-05
  -10.8000002       8.32578735E-05
  -10.7900000       1.01385078E-04
  -10.7799997       1.14286646E-04
  -10.7700005       1.21778656E-04
  -10.7600002       1.24141821E-04
  -10.7500000       1.22017525E-04
  -10.7399998       1.16254138E-04
  -10.7299995       1.07736720E-04
  -10.7200003       9.72379348E-05
  -10.7100000       8.53228485E-05
  -10.6999998       7.23278063E-05
  -10.6899996       5.84143927E-05
  -10.6800003       4.36800037E-05
  -10.6700001       2.82913861E-05
  -10.6599998       1.26012101E-05
  -10.6499996      -2.78778498E-06
  -10.6400003      -1.70325475E-05
  -10.6300001      -2.91349261E-05
  -10.6199999      -3.80840211E-05
  -10.6099997      -4.30225882E-05
  -10.6000004      -4.33988753E-05
  -10.5900002      -3.90696514E-05
  -10.5799999      -3.03331071E-05
  -10.5699997      -1.78867685E-05
  -10.5600004      -2.72220382E-06
  -10.5500002       1.40205484E-05
  -10.5400000       3.12106204E-05
  -10.5299997       4.78693000E-05
  -10.5200005       6.32775846E-05
  -10.5100002       7.70351035E-05
  -10.5000000       8.90649972E-05
  -10.4899998       9.95654264E-05
  -10.4799995       1.08914377E-04
  -10.4700003       1.17539515E-04
  -10.4600000       1.25771825E-04
  -10.4499998       1.33707072E-04
  -10.4399996       1.41104218E-04
  -10.4300003       1.47347819E-04
  -10.4200001       1.51494722E-04
  -10.4099998       1.52409251E-04
  -10.3999996       1.48969586E-04
  -10.3900003       1.40308446E-04
  -10.3800001       1.26034443E-04
  -10.3699999       1.06378830E-04
  -10.3599997       8.22234069E-05
  -10.3500004       5.49918841E-05
  -10.3400002       2.64208502E-05
  -10.3299999      -1.74114018E-06
  -10.3199997      -2.80347522E-05
  -10.3100004      -5.15165702E-05
  -10.3000002      -7.18522060E-05
  -10.2900000      -8.92512253E-05
  -10.2799997      -1.04260616E-04
  -10.2700005      -1.17472518E-04
  -10.2600002      -1.29226886E-04
  -10.2500000      -1.39391792E-04
  -10.2399998      -1.47286279E-04
  -10.2299995      -1.51772023E-04
  -10.2200003      -1.51497588E-04
  -10.2100000      -1.45237951E-04
  -10.1999998      -1.32248271E-04
  -10.1899996      -1.12545793E-04
  -10.1800003      -8.70512595E-05
  -10.1700001      -5.75535341E-05
  -10.1599998      -2.65014696E-05
  -10.1499996       3.33645403E-06
  -10.1400003       2.92774421E-05
  -10.1300001       4.91176143E-05
  -10.1199999       6.14419987E-05
  -10.1099997       6.58003555E-05
  -10.1000004       6.27252884E-05
  -10.0900002       5.35995568E-05
  -10.0799999       4.04044513E-05
  -10.0699997       2.53993494E-05
  -10.0600004       1.07891656E-05
  -10.0500002      -1.56665556E-06
  -10.0400000      -1.03628117E-05
  -10.0299997      -1.49517673E-05
  -10.0200005      -1.53406399E-05
  -10.0100002      -1.20983987E-05
  -10.0000000      -6.20359333E-06
  -9.98999977       1.13132796E-06
  -9.97999954       8.62634533E-06
  -9.97000027       1.50678488E-05
  -9.96000004       1.94009026E-05
  -9.94999981       2.07840203E-05
  -9.93999958       1.86191064E-05
  -9.93000031       1.25719989E-05
  -9.92000008       2.59442822E-06
  -9.90999985      -1.10509127E-05
  -9.89999962      -2.77695926E-05
  -9.89000034      -4.66330494E-05
  -9.88000011      -6.64083636E-05
  -9.86999989      -8.56280967E-05
  -9.85999966      -1.02698017E-04
  -9.85000038      -1.16029390E-04
  -9.84000015      -1.24176891E-04
  -9.82999992      -1.25961946E-04
  -9.81999969      -1.20568344E-04
  -9.81000042      -1.07605389E-04
  -9.80000019      -8.71431694E-05
  -9.78999996      -5.97283833E-05
  -9.77999973      -2.63854436E-05
  -9.77000046       1.14008899E-05
  -9.76000023       5.17347798E-05
  -9.75000000       9.24104170E-05
  -9.73999977       1.31080436E-04
  -9.72999954       1.65492776E-04
  -9.72000027       1.93774249E-04
  -9.71000004       2.14714557E-04
  -9.69999981       2.27987883E-04
  -9.68999958       2.34250329E-04
  -9.68000031       2.35066458E-04
  -9.67000008       2.32658902E-04
  -9.65999985       2.29514902E-04
  -9.64999962       2.27926706E-04
  -9.64000034       2.29564001E-04
  -9.63000011       2.35175277E-04
  -9.61999989       2.44485855E-04
  -9.60999966       2.56312371E-04
  -9.60000038       2.68857781E-04
  -9.59000015       2.80106877E-04
  -9.57999992       2.88218784E-04
  -9.56999969       2.91820616E-04
  -9.56000042       2.90139986E-04
  -9.55000019       2.82964844E-04
  -9.53999996       2.70471442E-04
  -9.52999973       2.52995611E-04
  -9.52000046       2.30836216E-04
  -9.51000023       2.04159762E-04
  -9.50000000       1.73036620E-04
  -9.48999977       1.37590061E-04
  -9.47999954       9.81993217E-05
  -9.47000027       5.56749692E-05
  -9.46000004       1.13334345E-05
  -9.44999981      -3.30727380E-05
  -9.43999958      -7.55657020E-05
  -9.43000031      -1.14244816E-04
  -9.42000008      -1.47601400E-04
  -9.40999985      -1.74760018E-04
  -9.39999962      -1.95581102E-04
  -9.39000034      -2.10602433E-04
  -9.38000011      -2.20842296E-04
  -9.36999989      -2.27529599E-04
  -9.35999966      -2.31840109E-04
  -9.35000038      -2.34713312E-04
  -9.34000015      -2.36787557E-04
  -9.32999992      -2.38449560E-04
  -9.31999969      -2.39950852E-04
  -9.31000042      -2.41520873E-04
  -9.30000019      -2.43409959E-04
  -9.28999996      -2.45825562E-04
  -9.27999973      -2.48770841E-04
  -9.27000046      -2.51843390E-04
  -9.26000023      -2.54078768E-04
  -9.25000000      -2.53926264E-04
  -9.23999977      -2.49407225E-04
  -9.22999954      -2.38452194E-04
  -9.22000027      -2.19346111E-04
  -9.21000004      -1.91164043E-04
  -9.19999981      -1.54065536E-04
  -9.18999958      -1.09343622E-04
  -9.18000031      -5.91899916E-05
  -9.17000008      -6.22266225E-06
  -9.15999985       4.71026433E-05
  -9.14999962       9.90313565E-05
  -9.14000034       1.48840452E-04
  -9.13000011       1.96858935E-04
  -9.11999989       2.44167226E-04
  -9.10999966       2.92063662E-04
  -9.10000038       3.41459294E-04
  -9.09000015       3.92385758E-04
  -9.07999992       4.43768018E-04
  -9.06999969       4.93531290E-04
  -9.06000042       5.39008644E-04
  -9.05000019       5.77520346E-04
  -9.03999996       6.06952468E-04
  -9.02999973       6.26164197E-04
  -9.02000046       6.35118631E-04
  -9.01000023       6.34725613E-04
  -9.00000000       6.26477238E-04
  -8.98999977       6.12018979E-04
  -8.97999954       5.92802069E-04
  -8.97000027       5.69922384E-04
  -8.96000004       5.44162758E-04
  -8.94999981       5.16176224E-04
  -8.93999958       4.86693403E-04
  -8.93000031       4.56627342E-04
  -8.92000008       4.27001913E-04
  -8.90999985       3.98706616E-04
  -8.89999962       3.72166774E-04
  -8.89000034       3.47065798E-04
  -8.88000011       3.22256616E-04
  -8.86999989       2.95939622E-04
  -8.85999966       2.66090181E-04
  -8.85000038       2.31024213E-04
  -8.84000015       1.89926228E-04
  -8.82999992       1.43165016E-04
  -8.81999969       9.22825639E-05
  -8.81000042       3.96477990E-05
  -8.80000019      -1.21188550E-05
  -8.78999996      -6.07659349E-05
  -8.77999973      -1.04873827E-04
  -8.77000046      -1.44013175E-04
  -8.76000023      -1.78557733E-04
  -8.75000000      -2.09233840E-04
  -8.73999977      -2.36582928E-04
  -8.72999954      -2.60545639E-04
  -8.72000027      -2.80331849E-04
  -8.71000004      -2.94638361E-04
  -8.69999981      -3.02145403E-04
  -8.68999958      -3.02118540E-04
  -8.68000031      -2.94893252E-04
  -8.67000008      -2.82052875E-04
  -8.65999985      -2.66207935E-04
  -8.64999962      -2.50421872E-04
  -8.64000034      -2.37449713E-04
  -8.63000011      -2.29026147E-04
  -8.61999989      -2.25429714E-04
  -8.60999966      -2.25465832E-04
  -8.60000038      -2.26877572E-04
  -8.59000015      -2.27058321E-04
  -8.57999992      -2.23844516E-04
  -8.56999969      -2.16144239E-04
  -8.56000042      -2.04213182E-04
  -8.55000019      -1.89502869E-04
  -8.53999996      -1.74140892E-04
  -8.52999973      -1.60215728E-04
  -8.52000046      -1.49092913E-04
  -8.51000023      -1.40971897E-04
  -8.50000000      -1.34812173E-04
  -8.48999977      -1.28639600E-04
  -8.47999954      -1.20129524E-04
  -8.47000027      -1.07286469E-04
  -8.46000004      -8.90192750E-05
  -8.44999981      -6.54547912E-05
  -8.43999958      -3.79169032E-05
  -8.43000031      -8.59948523E-06
  -8.42000008       1.99520273E-05
  -8.40999985       4.53922476E-05
  -8.39999962       6.60061341E-05
  -8.39000034       8.09152916E-05
  -8.38000011       9.00334489E-05
  -8.36999989       9.38247031E-05
  -8.35999966       9.29725356E-05
  -8.35000038       8.80871812E-05
  -8.34000015       7.95532396E-05
  -8.32999992       6.75633710E-05
  -8.31999969       5.23122144E-05
  -8.31000042       3.42636777E-05
  -8.30000019       1.43725492E-05
  -8.28999996      -5.84977442E-06
  -8.27999973      -2.44872972E-05
  -8.27000046      -3.95762909E-05
  -8.26000023      -4.95786226E-05
  -8.25000000      -5.38293825E-05
  -8.23999977      -5.28076816E-05
  -8.22999954      -4.81186798E-05
  -8.22000027      -4.21580371E-05
  -8.21000004      -3.75294403E-05
  -8.19999981      -3.63709805E-05
  -8.18999958      -3.97891199E-05
  -8.18000031      -4.75771121E-05
  -8.17000008      -5.83153269E-05
  -8.15999985      -6.98317672E-05
  -8.14999962      -7.98816764E-05
  -8.14000034      -8.68269781E-05
  -8.13000011      -9.00862215E-05
  -8.11999989      -9.01960011E-05
  -8.10999966      -8.84530527E-05
  -8.10000038      -8.62513843E-05
  -8.09000015      -8.43460584E-05
  -8.07999992      -8.23129303E-05
  -8.06999969      -7.84224903E-05
  -8.06000042      -7.00109667E-05
  -8.05000019      -5.42612543E-05
  -8.03999996      -2.91544657E-05
  -8.02999973       5.72450017E-06
  -8.02000046       4.88142141E-05
  -8.01000023       9.67940578E-05
  -8.00000000       1.45358135E-04
  -7.98999977       1.90322186E-04
  -7.98000002       2.28722682E-04
  -7.96999979       2.59556749E-04
  -7.96000004       2.83923408E-04
  -7.94999981       3.04519286E-04
  -7.94000006       3.24655382E-04
  -7.92999983       3.47118912E-04
  -7.92000008       3.73255258E-04
  -7.90999985       4.02567297E-04
  -7.90000010       4.32951434E-04
  -7.88999987       4.61473624E-04
  -7.88000011       4.85406170E-04
  -7.86999989       5.03163727E-04
  -7.86000013       5.14819578E-04
  -7.84999990       5.22032904E-04
  -7.84000015       5.27430500E-04
  -7.82999992       5.33665530E-04
  -7.82000017       5.42490510E-04
  -7.80999994       5.54160448E-04
  -7.80000019       5.67362295E-04
  -7.78999996       5.79676882E-04
  -7.78000021       5.88395051E-04
  -7.76999998       5.91395481E-04
  -7.76000023       5.87779912E-04
  -7.75000000       5.78062143E-04
  -7.73999977       5.63867390E-04
  -7.73000002       5.47273608E-04
  -7.71999979       5.30042511E-04
  -7.71000004       5.13012637E-04
  -7.69999981       4.95858723E-04
  -7.69000006       4.77281545E-04
  -7.67999983       4.55541216E-04
  -7.67000008       4.29136475E-04
  -7.65999985       3.97394702E-04
  -7.65000010       3.60785139E-04
  -7.63999987       3.20874562E-04
  -7.63000011       2.79968692E-04
  -7.61999989       2.40578331E-04
  -7.61000013       2.04890428E-04
  -7.59999990       1.74394532E-04
  -7.59000015       1.49743821E-04
  -7.57999992       1.30839268E-04
  -7.57000017       1.17057163E-04
  -7.55999994       1.07512089E-04
  -7.55000019       1.01265417E-04
  -7.53999996       9.74363793E-05
  -7.53000021       9.52267073E-05
  -7.51999998       9.39058373E-05
  -7.51000023       9.28071167E-05
  -7.50000000       9.13650874E-05
  -7.48999977       8.91881064E-05
  -7.48000002       8.61328153E-05
  -7.46999979       8.23410883E-05
  -7.46000004       7.82166389E-05
  -7.44999981       7.43470810E-05
  -7.44000006       7.14083071E-05