  -16.0000000       0.00000000    
  -15.9899998       0.00000000    
  -15.9799995       0.00000000    
  -15.9700003       0.00000000    
  -15.9600000       0.00000000    
  -15.9499998       0.00000000    
  -15.9399996       0.00000000    
  -15.9300003       0.00000000    
  -15.9200001       0.00000000    
  -15.9099998       0.00000000    
  -15.8999996       0.00000000    
  -15.8900003       0.00000000    
  -15.8800001       0.00000000    
  -15.8699999      -3.01259412E-39
  -15.8599997      -8.73776519E-38
  -15.8500004      -1.30989058E-36
  -15.8400002      -1.33569693E-35
  -15.8299999      -1.03461101E-34
  -15.8199997      -6.46132235E-34
  -15.8100004      -3.37699837E-33
  -15.8000002      -1.51498682E-32
  -15.7900000      -5.93921401E-32
  -15.7799997      -2.06069614E-31
  -15.7700005      -6.38316989E-31
  -15.7600002      -1.77432409E-30
  -15.7500000      -4.43254319E-30
  -15.7399998      -9.92124830E-30
  -15.7299995      -1.96949072E-29
  -15.7200003      -3.38450982E-29
  -15.7100000      -4.73585421E-29
  -15.6999998      -4.33074418E-29
  -15.6899996       1.61016109E-29
  -15.6800003       1.95361591E-28
  -15.6700001       5.76217776E-28
  -15.6599998       1.21425588E-27
  -15.6499996       2.04453873E-27
  -15.6400003       2.74134268E-27
  -15.6300001       2.58918632E-27
  -15.6199999       4.98215302E-28
  -15.6099997      -4.64405766E-27
  -15.6000004      -1.31345171E-26
  -15.5900002      -2.32195707E-26
  -15.5799999      -3.00306836E-26
  -15.5699997      -2.58222293E-26
  -15.5600004      -2.87054966E-27
  -15.5500002       4.03621052E-26
  -15.5400000       9.14514368E-26
  -15.5299997       1.19747002E-25
  -15.5200005       8.36647079E-26
  -15.5100002      -4.34309282E-26
  -15.5000000      -2.30421118E-25
  -15.4899998      -3.47873903E-25
  -15.4799995      -1.69713390E-25
  -15.4700003       5.33364537E-25
  -15.4600000       1.78186540E-24
  -15.4499998       3.10099762E-24
  -15.4399996       3.31610816E-24
  -15.4300003       6.92159377E-25
  -15.4200001      -6.31212260E-24
  -15.4099998      -1.75969293E-23
  -15.3999996      -2.96446923E-23
  -15.3900003      -3.43777852E-23
  -15.3800001      -2.00886759E-23
  -15.3699999       2.42151110E-23
  -15.3599997       1.00786706E-22
  -15.3500004       1.93323933E-22
  -15.3400002       2.59931738E-22
  -15.3299999       2.35417854E-22
  -15.3199997       4.90587327E-23
  -15.3100004      -3.40119664E-22
  -15.3000002      -8.96398929E-22
  -15.2900000      -1.46439867E-21
  -15.2799997      -1.75384605E-21
  -15.2700005      -1.37802676E-21
  -15.2600002       3.48714196E-23
  -15.2500000       2.65494361E-21
  -15.2399998       6.21125277E-21
  -15.2299995       9.75645719E-21
  -15.2200003       1.15336063E-20
  -15.2100000       9.09186200E-21
  -15.1999998      -1.61833843E-22
  -15.1899996      -1.77964048E-20
  -15.1800003      -4.25301407E-20
  -15.1700001      -6.80456608E-20
  -15.1599998      -8.13459496E-20
  -15.1499996      -6.32812297E-20
  -15.1400003       6.65524237E-21
  -15.1300001       1.39606051E-19
  -15.1199999       3.21163497E-19
  -15.1099997       4.94279914E-19
  -15.1000004       5.51235745E-19
  -15.0900002       3.48894288E-19
  -15.0799999      -2.39373558E-19
  -15.0699997      -1.23210889E-18
  -15.0600004      -2.42781005E-18
  -15.0500002      -3.32254526E-18
  -15.0400000      -3.13423656E-18
  -15.0299997      -1.01412529E-18
  -15.0200005       3.51707684E-18
  -15.0100002       9.97361443E-18
  -15.0000000       1.63646253E-17
  -14.9899998       1.90704207E-17
  -14.9799995       1.35467989E-17
  -14.9700003      -3.87749473E-18
  -14.9600000      -3.32608398E-17
  -14.9499998      -6.81686623E-17
  -14.9399996      -9.41440262E-17
  -14.9300003      -9.04027280E-17
  -14.9200001      -3.62266727E-17
  -14.9099998       7.79282818E-17
  -14.8999996       2.37159087E-16
  -14.8900003       3.92180887E-16
  -14.8800001       4.60334296E-16
  -14.8699999       3.44645583E-16
  -14.8599997      -2.65138749E-17
  -14.8500004      -6.45573890E-16
  -14.8400002      -1.37567108E-15
  -14.8299999      -1.93214632E-15
  -14.8199997      -1.92560934E-15
  -14.8100004      -9.84811750E-16
  -14.8000002       1.05040048E-15
  -14.7900000       3.91659564E-15
  -14.7799997       6.78581557E-15
  -14.7700005       8.30823193E-15
  -14.7600002       6.92926907E-15
  -14.7500000       1.49501389E-15
  -14.7399998      -7.96897660E-15
  -14.7299995      -1.95686058E-14
  -14.7200003      -2.93138689E-14
  -14.7100000      -3.17218887E-14
  -14.6999998      -2.14420343E-14
  -14.6899996       4.26530429E-15
  -14.6800003       4.28454337E-14
  -14.6700001       8.46520662E-14
  -14.6599998       1.13312205E-13
  -14.6499996       1.09241101E-13
  -14.6400003       5.64179881E-14
  -14.6300001      -4.88360302E-14
  -14.6199999      -1.89851620E-13
  -14.6099997      -3.26204938E-13
  -14.6000004      -3.98667210E-13
  -14.5900002      -3.44548798E-13
  -14.5799999      -1.22053084E-13
  -14.5699997       2.62187678E-13
  -14.5600004       7.32319587E-13
  -14.5500002       1.14097306E-12
  -14.5400000       1.29501845E-12
  -14.5299997       1.01180425E-12
  -14.5200005       1.96988598E-13
  -14.5100002      -1.07764470E-12
  -14.5000000      -2.52739756E-12
  -14.4899998      -3.67112894E-12
  -14.4799995      -3.93183489E-12
  -14.4700003      -2.81791105E-12
  -14.4600000      -1.48731261E-13
  -14.4499998       3.74428743E-12
  -14.4399996       7.92830645E-12
  -14.4300003       1.09710609E-11
  -14.4200001       1.12721889E-11
  -14.4099998       7.59023747E-12
  -14.3999996      -3.55675911E-13
  -14.3900003      -1.14041779E-11
  -14.3800001      -2.28140423E-11
  -14.3699999      -3.06503052E-11
  -14.3599997      -3.07480048E-11
  -14.3500004      -2.01149288E-11
  -14.3400002       1.57222293E-12
  -14.3299999       3.08827026E-11
  -14.3199997       6.04853667E-11
  -14.3100004       8.03213052E-11
  -14.3000002       8.01315056E-11
  -14.2900000       5.29158523E-11
  -14.2799997      -1.56811716E-12
  -14.2700005      -7.44601394E-11
  -14.2600002      -1.47778415E-10
  -14.2500000      -1.97475786E-10
  -14.2399998      -1.99498473E-10
  -14.2299995      -1.37736156E-10
  -14.2200003      -1.17874712E-11
  -14.2100000       1.58094399E-10
  -14.1999998       3.31333627E-10
  -14.1899996       4.54058180E-10
  -14.1800003       4.72447692E-10
  -14.1700001       3.49852092E-10
  -14.1599998       8.32327193E-11
  -14.1499996      -2.86513230E-10
  -14.1400003      -6.75243306E-10
  -14.1300001      -9.69948233E-10
  -14.1199999      -1.05583753E-09
  -14.1099997      -8.50944926E-10
  -14.1000004      -3.39414719E-10
  -14.0900002       4.07047090E-10
  -14.0799999       1.22894994E-09
  -14.0699997       1.90509142E-09
  -14.0600004       2.20314300E-09
  -14.0500002       1.94526528E-09
  -14.0400000       1.07253217E-09
  -14.0299997      -3.11003834E-10
  -14.0200005      -1.93198280E-09
  -14.0100002      -3.38886408E-09
  -14.0000000      -4.23851088E-09
  -13.9899998      -4.11252143E-09
  -13.9799995      -2.83613799E-09
  -13.9700003      -5.16338416E-10
  -13.9600000       2.43143727E-09
  -13.9499998       5.33718758E-09
  -13.9399996       7.41068540E-09
  -13.9300003       7.93387223E-09
  -13.9200001       6.46868825E-09
  -13.9099998       3.02635028E-09
  -13.8999996      -1.85470794E-09
  -13.8900003      -7.15885928E-09
  -13.8800001      -1.15793517E-08
  -13.8699999      -1.38131062E-08
  -13.8599997      -1.29037838E-08
  -13.8500004      -8.54961435E-09
  -13.8400002      -1.28958866E-09
  -13.8299999       7.50046159E-09
  -13.8199997       1.58302633E-08
  -13.8100004       2.15117879E-08
  -13.8000002       2.26913190E-08
  -13.7900000       1.83767899E-08
  -13.7799997       8.82259865E-09
  -13.7700005      -4.34868674E-09
  -13.7600002      -1.83576105E-08
  -13.7500000      -2.98073033E-08
  -13.7399998      -3.54600900E-08
  -13.7299995      -3.30847243E-08
  -13.7200003      -2.21681251E-08
  -13.7100000      -4.28695701E-09
  -13.6999998       1.70037922E-08
  -13.6899996       3.68053286E-08
  -13.6800003       4.99428765E-08
  -13.6700001       5.22501473E-08
  -13.6599998       4.17695567E-08
  -13.6499996       1.95449363E-08
  -13.6400003      -1.02544702E-08
  -13.6300001      -4.10005825E-08
  -13.6199999      -6.49964136E-08
  -13.6099997      -7.53216298E-08
  -13.6000004      -6.77146943E-08
  -13.5900002      -4.20016164E-08
  -13.5799999      -2.64262301E-09
  -13.5699997       4.18586943E-08
  -13.5600004       8.06697642E-08
  -13.5500002       1.03157269E-07
  -13.5400000       1.01664746E-07
  -13.5299997       7.38421093E-08
  -13.5200005       2.38658995E-08
  -13.5100002      -3.78985447E-08
  -13.5000000      -9.68809601E-08
  -13.4899998      -1.37602910E-07
  -13.4799995      -1.47572123E-07
  -13.4700003      -1.20826513E-07
  -13.4600000      -6.01702723E-08
  -13.4499998       2.26152839E-08
  -13.4399996       1.08846152E-07
  -13.4300003       1.76992330E-07
  -13.4200001       2.07871054E-07
  -13.4099998       1.89755170E-07
  -13.3999996       1.22085424E-07
  -13.3900003       1.67125620E-08
  -13.3800001      -1.03877625E-07
  -13.3699999      -2.11179554E-07
  -13.3599997      -2.77219584E-07
  -13.3500004      -2.81575694E-07
  -13.3400002      -2.17150358E-07
  -13.3299999      -9.31575741E-08
  -13.3199997       6.56559251E-08
  -13.3100004       2.23688659E-07
  -13.3000002       3.42243254E-07
  -13.2900000       3.88719542E-07
  -13.2799997       3.45130474E-07
  -13.2700005       2.13795005E-07
  -13.2600002       1.85909848E-08
  -13.2500000      -1.98923189E-07
  -13.2399998      -3.88024517E-07
  -13.2299995      -5.00317583E-07
  -13.2200003      -5.01695524E-07
  -13.2100000      -3.81904727E-07
  -13.1999998      -1.59191600E-07
  -13.1899996       1.21554962E-07
  -13.1800003       3.97310686E-07
  -13.1700001       6.00633825E-07
  -13.1599998       6.75747344E-07
  -13.1499996       5.93262826E-07
  -13.1400003       3.59840044E-07
  -13.1300001       1.98741645E-08
  -13.1199999      -3.51964019E-07
  -13.1099997      -6.66415417E-07
  -13.1000004      -8.40472410E-07
  -13.0900002      -8.18705189E-07
  -13.0799999      -5.89783383E-07
  -13.0699997      -1.93607278E-07
  -13.0600004       2.83751945E-07
  -13.0500002       7.27232873E-07
  -13.0400000       1.01903072E-06
  -13.0299997       1.06820380E-06
  -13.0200005       8.36562606E-07
  -13.0100002       3.53894933E-07
  -13.0000000      -2.82338959E-07
  -12.9899998      -9.24361757E-07
  -12.9799995      -1.40581903E-06
  -12.9700003      -1.58142905E-06
  -12.9600000      -1.36541325E-06
  -12.9499998      -7.59121406E-07
  -12.9399996       1.39993986E-07
  -12.9300003       1.15193575E-06
  -12.9200001       2.04893968E-06
  -12.9099998       2.60487832E-06
  -12.8999996       2.64858136E-06
  -12.8900003       2.10862231E-06
  -12.8800001       1.03830848E-06
  -12.8699999      -3.86508361E-07
  -12.8599997      -1.89802745E-06
  -12.8500004      -3.19018977E-06
  -12.8400002      -3.98425300E-06
  -12.8299999      -4.09163295E-06
  -12.8199997      -3.45931198E-06
  -12.8100004      -2.18644414E-06
  -12.8000002      -5.07079676E-07
  -12.7900000       1.25827376E-06
  -12.7799997       2.77220533E-06
  -12.7700005       3.75546620E-06
  -12.7600002       4.05014180E-06
  -12.7500000       3.65567666E-06
  -12.7399998       2.72840884E-06
  -12.7299995       1.54351926E-06
  -12.7200003       4.27418769E-07
  -12.7100000      -3.24114524E-07
  -12.6999998      -5.22761923E-07
  -12.6899996      -1.40432832E-07
  -12.6800003       6.75729268E-07
  -12.6700001       1.63155391E-06
  -12.6599998       2.35227230E-06
  -12.6499996       2.47289745E-06
  -12.6400003       1.73185572E-06
  -12.6300001       4.55524329E-08
  -12.6199999      -2.45469641E-06
  -12.6099997      -5.43381339E-06
  -12.6000004      -8.41123710E-06
  -12.5900002      -1.08543099E-05
  -12.5799999      -1.22860711E-05
  -12.5699997      -1.23822592E-05
  -12.5600004      -1.10350738E-05
  -12.5500002      -8.36809068E-06
  -12.5400000      -4.69855831E-06
  -12.5299997      -4.56479825E-07
  -12.5200005       3.91982485E-06
  -12.5100002       8.08475579E-06
  -12.5000000       1.18565631E-05
  -12.4899998       1.52382181E-05
  -12.4799995       1.83794928E-05
  -12.4700003       2.14859956E-05
  -12.4600000       2.46946529E-05
  -12.4499998       2.79447213E-05
  -12.4399996       3.08765084E-05
  -12.4300003       3.27872294E-05
  -12.4200001       3.26603622E-05
  -12.4099998       2.92720615E-05
  -12.3999996       2.13604981E-05
  -12.3900003       7.82945426E-06
  -12.3800001      -1.20501518E-05
  -12.3699999      -3.84795931E-05
  -12.3599997      -7.10438908E-05
  -12.3500004      -1.08714055E-04
  -12.3400002      -1.49941552E-04
  -12.3299999      -1.92827487E-04
  -12.3199997      -2.35335683E-04
  -12.3100004      -2.75511586E-04
  -12.3000002      -3.11664044E-04
  -12.2900000      -3.42481741E-04
  -12.2799997      -3.67066066E-04
  -12.2700005      -3.84878309E-04
  -12.2600002      -3.95627372E-04
  -12.2500000      -3.99123935E-04
  -12.2399998      -3.95145093E-04
  -12.2299995      -3.83343780E-04
  -12.2200003      -3.63224273E-04
  -12.2100000      -3.34196549E-04
  -12.1999998      -2.95696984E-04
  -12.1899996      -2.47337652E-04
  -12.1800003      -1.89053302E-04
  -12.1700001      -1.21200545E-04
  -12.1599998      -4.45781807E-05
  -12.1499996       3.96402356E-05
  -12.1400003       1.30057510E-04
  -12.1300001       2.25247728E-04
  -12.1199999       3.23958433E-04
  -12.1099997       4.25265054E-04
  -12.1000004       5.28626610E-04
  -12.0900002       6.33839634E-04
  -12.0799999       7.40876596E-04
  -12.0699997       8.49638775E-04
  -12.0600004       9.59699566E-04
  -12.0500002       1.07005599E-03
  -12.0400000       1.17899431E-03
  -12.0299997       1.28407218E-03
  -12.0200005       1.38225057E-03
  -12.0100002       1.47014484E-03
  -12.0000000       1.54436345E-03
  -11.9899998       1.60184538E-03
  -11.9799995       1.64017000E-03
  -11.9700003       1.65773905E-03
  -11.9600000       1.65383960E-03
  -11.9499998       1.62856246E-03
  -11.9399996       1.58261391E-03
  -11.9300003       1.51706929E-03
  -11.9200001       1.43311766E-03
  -11.9099998       1.33186451E-03
  -11.8999996       1.21420133E-03
  -11.8900003       1.08078099E-03
  -11.8800001       9.32068506E-04
  -11.8699999       7.68425642E-04
  -11.8599997       5.90230571E-04
  -11.8500004       3.97934899E-04
  -11.8400002       1.92106061E-04
  -11.8299999      -2.66030438E-05
  -11.8199997      -2.57491221E-04
  -11.8100004      -4.99875634E-04
  -11.8000002      -7.53094966E-04
  -11.7900000      -1.01648609E-03
  -11.7799997      -1.28926302E-03
  -11.7700005      -1.57038437E-03
  -11.7600002      -1.85837073E-03
  -11.7500000      -2.15115468E-03
  -11.7399998      -2.44600815E-03
  -11.7299995      -2.73953518E-03
  -11.7200003      -3.02778091E-03
  -11.7100000      -3.30644450E-03
  -11.6999998      -3.57111241E-03
  -11.6899996      -3.81754059E-03
  -11.6800003      -4.04188596E-03
  -11.6700001      -4.24088305E-03
  -11.6599998      -4.41191625E-03
  -11.6499996      -4.55302792E-03
  -11.6400003      -4.66284249E-03
  -11.6300001      -4.74044262E-03
  -11.6199999      -4.78522386E-03
  -11.6099997      -4.79678903E-03
  -11.6000004      -4.77481214E-03
  -11.5900002      -4.71898261E-03
  -11.5799999      -4.62894654E-03
  -11.5699997      -4.50427458E-03
  -11.5600004      -4.34444565E-03
  -11.5500002      -4.14885860E-03
  -11.5400000      -3.91681259E-03
  -11.5299997      -3.64756072E-03
  -11.5200005      -3.34034674E-03
  -11.5100002      -2.99448031E-03
  -11.5000000      -2.60944269E-03
  -11.4899998      -2.18498474E-03
  -11.4799995      -1.72124396E-03
  -11.4700003      -1.21886015E-03
  -11.4600000      -6.79010118E-04
  -11.4499998      -1.03467748E-04
  -11.4399996       5.05437376E-04
  -11.4300003       1.14487484E-03
  -11.4200001       1.81163964E-03
  -11.4099998       2.50229589E-03
  -11.3999996       3.21335555E-03
  -11.3900003       3.94145818E-03
  -11.3800001       4.68355697E-03
  -11.3699999       5.43703884E-03
  -11.3599997       6.19984372E-03
  -11.3500004       6.97048428E-03
  -11.3400002       7.74801429E-03
  -11.3299999       8.53192247E-03
  -11.3199997       9.32198856E-03
  -11.3100004       1.01180868E-02
  -11.3000002       1.09200031E-02
  -11.2900000       1.17272511E-02
  -11.2799997       1.25389704E-02
  -11.2700005       1.33538404E-02
  -11.2600002       1.41701112E-02
  -11.2500000       1.49856322E-02
  -11.2399998       1.57979727E-02
  -11.2299995       1.66045278E-02
  -11.2200003       1.74026415E-02
  -11.2100000       1.81897022E-02
  -11.1999998       1.89632084E-02
  -11.1899996       1.97208542E-02
  -11.1800003       2.04605069E-02
  -11.1700001       2.11802591E-02
  -11.1599998       2.18784362E-02
  -11.1499996       2.25536246E-02
  -11.1400003       2.32046880E-02
  -11.1300001       2.38308292E-02
  -11.1199999       2.44316198E-02
  -11.1099997       2.50069909E-02
  -11.1000004       2.55572982E-02
  -11.0900002       2.60832421E-02
  -11.0799999       2.65858658E-02
  -11.0699997       2.70664245E-02
  -11.0600004       2.75263339E-02
  -11.0500002       2.79670972E-02
  -11.0400000       2.83902064E-02
  -11.0299997       2.87971627E-02
  -11.0200005       2.91894283E-02
  -11.0100002       2.95685139E-02
  -11.0000000       2.99360007E-02
  -10.9899998       3.02935764E-02
  -10.9799995       3.06430459E-02
  -10.9700003       3.09862383E-02
  -10.9600000       3.13249193E-02
  -10.9499998       3.16605829E-02
  -10.9399996       3.19942757E-02
  -10.9300003       3.23263779E-02
  -10.9200001       3.26565243E-02
  -10.9099998       3.29835266E-02
  -10.8999996       3.33054140E-02
  -10.8900003       3.36196087E-02
  -10.8800001       3.39231156E-02
  -10.8699999       3.42127308E-02
  -10.8599997       3.44852507E-02
  -10.8500004       3.47376242E-02
  -10.8400002       3.49669829E-02
  -10.8299999       3.51707339E-02
  -10.8199997       3.53464372E-02
  -10.8100004       3.54918316E-02
  -10.8000002       3.56048085E-02
  -10.7900000       3.56833972E-02
  -10.7799997       3.57258879E-02
  -10.7700005       3.57309468E-02
  -10.7600002       3.56977545E-02
  -10.7500000       3.56261134E-02
  -10.7399998       3.55166048E-02
  -10.7299995       3.53705622E-02
  -10.7200003       3.51899639E-02
  -10.7100000       3.49772945E-02
  -10.6999998       3.47352847E-02
  -10.6899996       3.44665796E-02
  -10.6800003       3.41734476E-02
  -10.6700001       3.38574760E-02
  -10.6599998       3.35194990E-02
  -10.6499996       3.31595540E-02
  -10.6400003       3.27770598E-02
  -10.6300001       3.23711522E-02
  -10.6199999       3.19410637E-02
  -10.6099997       3.14865187E-02
  -10.6000004       3.10080685E-02
  -10.5900002       3.05071324E-02
  -10.5799999       2.99859215E-02
  -10.5699997       2.94471253E-02
  -10.5600004       2.88933422E-02
  -10.5500002       2.83266548E-02
  -10.5400000       2.77482625E-02
  -10.5299997       2.71583311E-02
  -10.5200005       2.65561696E-02
  -10.5100002       2.59407405E-02
  -10.5000000       2.53112260E-02
  -10.4899998       2.46677771E-02
  -10.4799995       2.40119565E-02
  -10.4700003       2.33469531E-02
  -10.4600000       2.26774123E-02
  -10.4499998       2.20088642E-02
  -10.4399996       2.13470981E-02
  -10.4300003       2.06972528E-02
  -10.4200001       2.00634021E-02
  -10.4099998       1.94481425E-02
  -10.3999996       1.88528039E-02
  -10.3900003       1.82777941E-02
  -10.3800001       1.77233238E-02
  -10.3699999       1.71898734E-02
  -10.3599997       1.66787468E-02
  -10.3500004       1.61920767E-02
  -10.3400002       1.57326329E-02
  -10.3299999       1.53032988E-02
  -10.3199997       1.49063896E-02
  -10.3100004       1.45432390E-02
  -10.3000002       1.42136142E-02
  -10.2900000       1.39158517E-02
  -10.2799997       1.36471121E-02
  -10.2700005       1.34038590E-02
  -10.2600002       1.31826075E-02
  -10.2500000       1.29805235E-02
  -10.2399998       1.27958106E-02
  -10.2299995       1.26280840E-02
  -10.2200003       1.24782212E-02
  -10.2100000       1.23480912E-02
  -10.1999998       1.22401547E-02
  -10.1899996       1.21569624E-02
  -10.1800003       1.21006640E-02
  -10.1700001       1.20725725E-02
  -10.1599998       1.20729115E-02
  -10.1499996       1.21008297E-02
  -10.1400003       1.21541228E-02
  -10.1300001       1.22298123E-02
  -10.1199999       1.23242680E-02
  -10.1099997       1.24339294E-02
  -10.1000004       1.25556858E-02
  -10.0900002       1.26877017E-02
  -10.0799999       1.28297610E-02
  -10.0699997       1.29837161E-02
  -10.0600004       1.31534375E-02
  -10.0500002       1.33447237E-02
  -10.0400000       1.35644739E-02
  -10.0299997       1.38202729E-02
  -10.0200005       1.41193178E-02
  -10.0100002       1.44677693E-02
  -10.0000000       1.48701854E-02
  -9.98999977       1.53292650E-02
  -9.97999954       1.58461612E-02
  -9.97000027       1.64204612E-02
  -9.96000004       1.70510989E-02
  -9.94999981       1.77368019E-02
  -9.93999958       1.84765719E-02
  -9.93000031       1.92698017E-02
  -9.92000008       2.01161206E-02
  -9.90999985       2.10152548E-02
  -9.89999962       2.19663829E-02
  -9.89000034       2.29676813E-02
  -9.88000011       2.40160935E-02
  -9.86999989       2.51071379E-02
  -9.85999966       2.62356661E-02
  -9.85000038       2.73958631E-02
  -9.84000015       2.85825767E-02
  -9.82999992       2.97917482E-02
  -9.81999969       3.10212541E-02
  -9.81000042       3.22711207E-02
  -9.80000019       3.35437097E-02
  -9.78999996       3.48428637E-02
  -9.77999973       3.61737683E-02
  -9.77000046       3.75416316E-02
  -9.76000023       3.89513411E-02
  -9.75000000       4.04065549E-02
  -9.73999977       4.19092886E-02
  -9.72999954       4.34599780E-02
  -9.72000027       4.50574793E-02
  -9.71000004       4.66994643E-02
  -9.69999981       4.83826138E-02
  -9.68999958       5.01031131E-02
  -9.68000031       5.18571138E-02
  -9.67000008       5.36408275E-02
  -9.65999985       5.54509424E-02
  -9.64999962       5.72842993E-02
  -9.64000034       5.91382235E-02
  -9.63000011       6.10102899E-02
  -9.61999989       6.28980547E-02
  -9.60999966       6.47987127E-02
  -9.60000038       6.67087361E-02
  -9.59000015       6.86237514E-02
  -9.57999992       7.05383271E-02
  -9.56999969       7.24459887E-02
  -9.56000042       7.43394792E-02
  -9.55000019       7.62114674E-02
  -9.53999996       7.80550390E-02
  -9.52999973       7.98642039E-02
  -9.52000046       8.16347823E-02
  -9.51000023       8.33639428E-02
  -9.50000000       8.50503445E-02
  -9.48999977       8.66936594E-02
  -9.47999954       8.82936493E-02
  -9.47000027       8.98498818E-02
  -9.46000004       9.13606063E-02
  -9.44999981       9.28230435E-02
  -9.43999958       9.42332745E-02
  -9.43000031       9.55868065E-02
  -9.42000008       9.68796164E-02
  -9.40999985       9.81086716E-02
  -9.39999962       9.92727950E-02
  -9.39000034      0.100373104    
  -9.38000011      0.101413362    
  -9.36999989      0.102399409    
  -9.35999966      0.103338882    
  -9.35000038      0.104240358    
  -9.34000015      0.105113089    
  -9.32999992      0.105965853    
  -9.31999969      0.106806748    
  -9.31000042      0.107643567    
  -9.30000019      0.108483218    
  -9.28999996      0.109332494    
  -9.27999973      0.110198475    
  -9.27000046      0.111088745    
  -9.26000023      0.112011999    
  -9.25000000      0.112978145    
  -9.23999977      0.113997765    
  -9.22999954      0.115082078    
  -9.22000027      0.116241798    
  -9.21000004      0.117486462    
  -9.19999981      0.118823268    
  -9.18999958      0.120256975    
  -9.18000031      0.121789180    
  -9.17000008      0.123418540    
  -9.15999985      0.125141516    
  -9.14999962      0.126953155    
  -9.14000034      0.128848359    
  -9.13000011      0.130822882    
  -9.11999989      0.132873863    
  -9.10999966      0.135000318    
  -9.10000038      0.137202367    
  -9.09000015      0.139481142    
  -9.07999992      0.141837269    
  -9.06999969      0.144270509    
  -9.06000042      0.146778271    
  -9.05000019      0.149355054    
  -9.03999996      0.151992679    
  -9.02999973      0.154679775    
  -9.02000046      0.157402456    
  -9.01000023      0.160145432    
  -9.00000000      0.162892222    
  -8.98999977      0.165626645    
  -8.97999954      0.168333068    
  -8.97000027      0.170997411    
  -8.96000004      0.173608050    
  -8.94999981      0.176155642    
  -8.93999958      0.178633302    
  -8.93000031      0.181036592    
  -8.92000008      0.183362648    
  -8.90999985      0.185609624    
  -8.89999962      0.187776193    
  -8.89000034      0.189860284    
  -8.88000011      0.191858903    
  -8.86999989      0.193768084    
  -8.85999966      0.195582747    
  -8.85000038      0.197297484    
  -8.84000015      0.198905900    
  -8.82999992      0.200402290    
  -8.81999969      0.201782241    
  -8.81000042      0.203041464    
  -8.80000019      0.204177484    
  -8.78999996      0.205188647    
  -8.77999973      0.206073880    
  -8.77000046      0.206833631    
  -8.76000023      0.207468897    
  -8.75000000      0.207981601    
  -8.73999977      0.208374888    
  -8.72999954      0.208652899    
  -8.72000027      0.208820716    
  -8.71000004      0.208884373    
  -8.69999981      0.208850756    
  -8.68999958      0.208727002    
  -8.68000031      0.208521366    
  -8.67000008      0.208241627    
  -8.65999985      0.207897291    
  -8.64999962      0.207498640    
  -8.64000034      0.207057759    
  -8.63000011      0.206588760    
  -8.61999989      0.206107885    
  -8.60999966      0.205633372    
  -8.60000038      0.205184191    
  -8.59000015      0.204780221    
  -8.57999992      0.204440430    
  -8.56999969      0.204182371    
  -8.56000042      0.204020232    
  -8.55000019      0.203967020    
  -8.53999996      0.204032466    
  -8.52999973      0.204224303    
  -8.52000046      0.204549432    
  -8.51000023      0.205012739    
  -8.50000000      0.205618039    
  -8.48999977      0.206368953    
  -8.47999954      0.207266703    
  -8.47000027      0.208311111    
  -8.46000004      0.209500462    
  -8.44999981      0.210830614    
  -8.43999958      0.212296233    
  -8.43000031      0.213890821    
  -8.42000008      0.215608269    
  -8.40999985      0.217442259    
  -8.39999962      0.219388098    
  -8.39000034      0.221441031    
  -8.38000011      0.223596409    
  -8.36999989      0.225848287    
  -8.35999966      0.228188589    
  -8.35000038      0.230606556    
  -8.34000015      0.233089611    
  -8.32999992      0.235622495    
  -8.31999969      0.238189816    
  -8.31000042      0.240776971    
  -8.30000019      0.243371472    
  -8.28999996      0.245963559    
  -8.27999973      0.248545647    
  -8.27000046      0.251113176    
  -8.26000023      0.253661692    
  -8.25000000      0.256187797    
  -8.23999977      0.258686990    
  -8.22999954      0.261154115    
  -8.22000027      0.263583690    
  -8.21000004      0.265971214    
  -8.19999981      0.268314391    
  -8.18999958      0.270613730    
  -8.18000031      0.272872061    
  -8.17000008      0.275095671    
  -8.15999985      0.277292162    
  -8.14999962      0.279470652    
  -8.14000034      0.281639069    
  -8.13000011      0.283805102    
  -8.11999989      0.285975605    
  -8.10999966      0.288156688    
  -8.10000038      0.290355265    
  -8.09000015      0.292579025    
  -8.07999992      0.294836164    
  -8.06999969      0.297136575    
  -8.06000042      0.299490303    
  -8.05000019      0.301906347    
  -8.03999996      0.304394007    
  -8.02999973      0.306958824    
  -8.02000046      0.309606761    
  -8.01000023      0.312342107    
  -8.00000000      0.315168887    
  -7.98999977      0.318090916    
  -7.98000002      0.321113408    
  -7.96999979      0.324240834    
  -7.96000004      0.327477902    
  -7.94999981      0.330829471    
  -7.94000006      0.334299296    
  -7.92999983      0.337891400    
  -7.92000008      0.341609448    
  -7.90999985      0.345456928    
  -7.90000010      0.349438339    
  -7.88999987      0.353556961    
  -7.88000011      0.357816637    
  -7.86999989      0.362218112    
  -7.86000013      0.366759747    
  -7.84999990      0.371437967    
  -7.84000015      0.376245201    
  -7.82999992      0.381173283    
  -7.82000017      0.386214018    
  -7.80999994      0.391360968    
  -7.80000019      0.396611661    
  -7.78999996      0.401965529    
  -7.78000021      0.407425016    
  -7.76999998      0.412993163    
  -7.76000023      0.418672562    
  -7.75000000      0.424461693    
  -7.73999977      0.430357277    
  -7.73000002      0.436350346    
  -7.71999979      0.442430556    
  -7.71000004      0.448586792    
  -7.69999981      0.454809368    
  -7.69000006      0.461090595    
  -7.67999983      0.467424750    
  -7.67000008      0.473809421    
  -7.65999985      0.480240613    
  -7.65000010      0.486715972    
  -7.63999987      0.493232548    
  -7.63000011      0.499786645    
  -7.61999989      0.506376803    
  -7.61000013      0.513001919    
  -7.59999990      0.519666970    
  -7.59000015      0.526377797    
  -7.57999992      0.533143938    
  -7.57000017      0.539975703    
  -7.55999994      0.546880960    
  -7.55000019      0.553863168    
  -7.53999996      0.560920537    
  -7.53000021      0.568048120    
  -7.51999998      0.575238287    
  -7.51000023      0.582482517    
  -7.50000000      0.589776099    
  -7.48999977      0.597117841    
  -7.48000002      0.604512095    
  -7.46999979      0.611965299    
  -7.46000004      0.619486332    
  -7.44999981      0.627084017    
  -7.44000006      0.634764016    