  -16.0000000       0.00000000    
  -15.9899998       0.00000000    
  -15.9799995       0.00000000    
  -15.9700003       0.00000000    
  -15.9600000       0.00000000    
  -15.9499998       0.00000000    
  -15.9399996       0.00000000    
  -15.9300003       0.00000000    
  -15.9200001       0.00000000    
  -15.9099998       0.00000000    
  -15.8999996       0.00000000    
  -15.8900003      -0.00000000    
  -15.8800001       0.00000000    
  -15.8699999       0.00000000    
  -15.8599997       1.40129846E-45
  -15.8500004       7.00649232E-45
  -15.8400002       1.26116862E-44
  -15.8299999       3.92363570E-44
  -15.8199997       4.61027195E-43
  -15.8100004       4.07497593E-42
  -15.8000002       2.41513790E-41
  -15.7900000       1.06692062E-40
  -15.7799997       3.70520130E-40
  -15.7700005       1.02411096E-39
  -15.7600002       2.17029323E-39
  -15.7500000       2.90619913E-39
  -15.7399998      -1.10299986E-39
  -15.7299995      -2.20592600E-38
  -15.7200003      -8.42769539E-38
  -15.7100000      -2.18614242E-37
  -15.6999998      -4.24587157E-37
  -15.6899996      -5.66336904E-37
  -15.6800003      -1.82014075E-37
  -15.6700001       1.73376144E-36
  -15.6599998       6.72824010E-36
  -15.6499996       1.61586737E-35
  -15.6400003       2.90792679E-35
  -15.6300001       3.85403272E-35
  -15.6199999       2.77257820E-35
  -15.6099997      -2.95998259E-35
  -15.6000004      -1.56580898E-34
  -15.5900002      -3.41081923E-34
  -15.5799999      -4.85835397E-34
  -15.5699997      -3.67397430E-34
  -15.5600004       3.33294296E-34
  -15.5500002       1.83940989E-33
  -15.5400000       3.86563338E-33
  -15.5299997       5.06759839E-33
  -15.5200005       2.71978554E-33
  -15.5100002      -6.67032433E-33
  -15.5000000      -2.49699245E-32
  -15.4899998      -4.79256629E-32
  -15.4799995      -5.98433007E-32
  -15.4700003      -3.13956821E-32
  -15.4600000       7.27937043E-32
  -15.4499998       2.69928392E-31
  -15.4399996       5.17100482E-31
  -15.4300003       6.65031274E-31
  -15.4200001       4.42462562E-31
  -15.4099998      -4.74900893E-31
  -15.3999996      -2.26016568E-30
  -15.3900003      -4.59459590E-30
  -15.3800001      -6.30017049E-30
  -15.3699999      -5.20914359E-30
  -15.3599997       1.34092308E-30
  -15.3500004       1.50348714E-29
  -15.3400002       3.41288900E-29
  -15.3299999       5.07619161E-29
  -15.3199997       4.97727916E-29
  -15.3100004       1.15619458E-29
  -15.3000002      -7.86749424E-29
  -15.2900000      -2.15125653E-28
  -15.2799997      -3.53188830E-28
  -15.2700005      -3.99204664E-28
  -15.2600002      -2.23312949E-28
  -15.2500000       2.89870296E-28
  -15.2399998       1.14906335E-27
  -15.2299995       2.14302539E-27
  -15.2200003       2.76019446E-27
  -15.2100000       2.22529091E-27
  -15.1999998      -2.59448186E-28
  -15.1899996      -5.02985417E-27
  -15.1800003      -1.13117076E-26
  -15.1700001      -1.66628393E-26
  -15.1599998      -1.69312554E-26
  -15.1499996      -7.21697180E-27
  -15.1400003       1.58546559E-26
  -15.1300001       5.07598897E-26
  -15.1199999       8.76484247E-26
  -15.1099997       1.06822638E-25
  -15.1000004       8.16211329E-26
  -15.0900002      -1.22643042E-26
  -15.0799999      -1.81015894E-25
  -15.0699997      -3.94067774E-25
  -15.0600004      -5.70726863E-25
  -15.0500002      -5.83642685E-25
  -15.0400000      -2.90579010E-25
  -15.0299997       4.00572622E-25
  -15.0200005       1.44274229E-24
  -15.0100002       2.56564447E-24
  -15.0000000       3.24499669E-24
  -14.9899998       2.78115555E-24
  -14.9799995       5.27676504E-25
  -14.9700003      -3.73758865E-24
  -14.9600000      -9.38457174E-24
  -14.9499998      -1.46219834E-23
  -14.9399996      -1.65471195E-23
  -14.9300003      -1.17827933E-23
  -14.9200001       2.20322027E-24
  -14.9099998       2.52710755E-23
  -14.8999996       5.28144427E-23
  -14.8900003       7.48860041E-23
  -14.8800001       7.72761327E-23
  -14.8699999       4.53269631E-23
  -14.8599997      -2.95203110E-23
  -14.8500004      -1.41729969E-22
  -14.8400002      -2.65002940E-22
  -14.8299999      -3.50843704E-22
  -14.8199997      -3.36305616E-22
  -14.8100004      -1.63111608E-22
  -14.8000002       1.93445708E-22
  -14.7900000       6.92773103E-22
  -14.7799997       1.20675877E-21
  -14.7700005       1.52250629E-21
  -14.7600002       1.38352985E-21
  -14.7500000       5.73987110E-22
  -14.7399998      -9.65474063E-22
  -14.7299995      -3.02168775E-21
  -14.7200003      -5.04189888E-21
  -14.7100000      -6.17120802E-21
  -14.6999998      -5.43661792E-21
  -14.6899996      -2.08133808E-21
  -14.6800003       4.00740694E-21
  -14.6700001       1.19022776E-20
  -14.6599998       1.94494267E-20
  -14.6499996       2.34767186E-20
  -14.6400003       2.05170179E-20
  -14.6300001       8.02142324E-21
  -14.6199999      -1.41703519E-20
  -14.6099997      -4.25525101E-20
  -14.6000004      -6.94630219E-20
  -14.5900002      -8.39560921E-20
  -14.5799999      -7.43582703E-20
  -14.5699997      -3.23332171E-20
  -14.5600004       4.23813806E-20
  -14.5500002       1.38041956E-19
  -14.5400000       2.29622340E-19
  -14.5299997       2.81877614E-19
  -14.5200005       2.57565767E-19
  -14.5100002       1.30090514E-19
  -14.5000000      -1.02124630E-19
  -14.4899998      -4.04010883E-19
  -14.4799995      -7.00364571E-19
  -14.4700003      -8.85190789E-19
  -14.4600000      -8.45914082E-19
  -14.4499998      -4.99999506E-19
  -14.4399996       1.63871588E-19
  -14.4300003       1.05268246E-18
  -14.4200001       1.95876266E-18
  -14.4099998       2.58479445E-18
  -14.3999996       2.60921965E-18
  -14.3900003       1.78511077E-18
  -14.3800001       5.14955927E-20
  -14.3699999      -2.37586062E-18
  -14.3599997      -4.97228275E-18
  -14.3500004      -6.96259842E-18
  -14.3400002      -7.48305632E-18
  -14.3299999      -5.82982172E-18
  -14.3199997      -1.74249277E-18
  -14.3100004       4.35782280E-18
  -14.3000002       1.12684308E-17
  -14.2900000       1.71211282E-17
  -14.2799997       1.97480074E-17
  -14.2700005       1.72609962E-17
  -14.2600002       8.72939086E-18
  -14.2500000      -5.22734844E-18
  -14.2399998      -2.21434563E-17
  -14.2299995      -3.78894149E-17
  -14.2200003      -4.74196208E-17
  -14.2100000      -4.60208452E-17
  -14.1999998      -3.08236646E-17
  -14.1899996      -2.19137081E-18
  -14.1800003       3.54685584E-17
  -14.1700001       7.38734028E-17
  -14.1599998       1.02228188E-16
  -14.1499996       1.09693328E-16
  -14.1400003       8.85131166E-17
  -14.1300001       3.70514777E-17
  -14.1199999      -3.81776146E-17
  -14.1099997      -1.22326063E-16
  -14.1000004      -1.94371655E-16
  -14.0900002      -2.31555991E-16
  -14.0799999      -2.15352528E-16
  -14.0699997      -1.37609251E-16
  -14.0600004      -5.15685032E-18
  -14.0500002       1.58756765E-16
  -14.0400000       3.17289489E-16
  -14.0299997       4.27185609E-16
  -14.0200005       4.49203436E-16
  -14.0100002       3.59544575E-16
  -14.0000000       1.59318004E-16
  -13.9899998      -1.20944354E-16
  -13.9799995      -4.23887977E-16
  -13.9700003      -6.75644989E-16
  -13.9600000      -8.02429092E-16
  -13.9499998      -7.50010829E-16
  -13.9399996      -5.01303162E-16
  -13.9300003      -8.70050340E-17
  -13.9200001       4.14688723E-16
  -13.9099998       8.90972146E-16
  -13.8999996       1.21842439E-15
  -13.8900003       1.29341158E-15
  -13.8800001       1.06176829E-15
  -13.8699999       5.39777093E-16
  -13.8599997      -1.80337735E-16
  -13.8500004      -9.44004244E-16
  -13.8400002      -1.56598456E-15
  -13.8299999      -1.87420122E-15
  -13.8199997      -1.75574736E-15
  -13.8100004      -1.19324538E-15
  -13.8000002      -2.80762941E-16
  -13.7900000       7.87434650E-16
  -13.7799997       1.75568098E-15
  -13.7700005       2.36638241E-15
  -13.7600002       2.42699673E-15
  -13.7500000       1.86777922E-15
  -13.7399998       7.73971591E-16
  -13.7299995      -6.19064247E-16
  -13.7200003      -1.97089701E-15
  -13.7100000      -2.91410949E-15
  -13.6999998      -3.14877912E-15
  -13.6899996      -2.53036185E-15
  -13.6800003      -1.12703229E-15
  -13.6700001       7.72303783E-16
  -13.6599998       2.70742837E-15
  -13.6499996       4.14765268E-15
  -13.6400003       4.62394862E-15
  -13.6300001       3.86163549E-15
  -13.6199999       1.87904264E-15
  -13.6099997      -9.77732037E-16
  -13.6000004      -4.08089547E-15
  -13.5900002      -6.64595052E-15
  -13.5799999      -7.91314358E-15
  -13.5699997      -7.34574331E-15
  -13.5600004      -4.79658283E-15
  -13.5500002      -5.96738470E-16
  -13.5400000       4.46530952E-15
  -13.5299997       9.28151006E-15
  -13.5200005       1.26577893E-14
  -13.5100002       1.35956225E-14
  -13.5000000       1.15567413E-14
  -13.4899998       6.64352123E-15
  -13.4799995      -3.58109966E-16
  -13.4700003      -8.09740204E-15
  -13.4600000      -1.49251271E-14
  -13.4499998      -1.92554628E-14
  -13.4399996      -1.99427995E-14
  -13.4300003      -1.65820404E-14
  -13.4200001      -9.65262568E-15
  -13.4099998      -4.59079205E-16
  -13.3999996       9.13139972E-15
  -13.3900003       1.71026896E-14
  -13.3800001       2.17609981E-14
  -13.3699999       2.21485106E-14
  -13.3599997       1.82912496E-14
  -13.3500004       1.12083550E-14
  -13.3400002       2.66742237E-15
  -13.3299999      -5.26404422E-15
  -13.3199997      -1.07633510E-14
  -13.3100004      -1.27525986E-14
  -13.3000002      -1.12147535E-14
  -13.2900000      -7.22576109E-15
  -13.2799997      -2.67240695E-15
  -13.2700005       2.90765817E-16
  -13.2600002      -8.50503532E-17
  -13.2500000      -4.51825416E-15
  -13.2399998      -1.23050136E-14
  -13.2299995      -2.13001986E-14
  -13.2200003      -2.83235095E-14
  -13.2100000      -2.99336497E-14
  -13.1999998      -2.34058514E-14
  -13.1899996      -7.67373056E-15
  -13.1800003       1.60240609E-14
  -13.1700001       4.40059061E-14
  -13.1599998       7.06260069E-14
  -13.1499996       8.93318825E-14
  -13.1400003       9.41115268E-14
  -13.1300001       8.10211815E-14
  -13.1199999       4.94292175E-14
  -13.1099997       2.64199952E-15
  -13.1000004      -5.23076218E-14
  -13.0900002      -1.05749245E-13
  -13.0799999      -1.47175214E-13
  -13.0699997      -1.67402930E-13
  -13.0600004      -1.60634716E-13
  -13.0500002      -1.25936994E-13
  -13.0400000      -6.77610908E-14
  -13.0299997       4.67525256E-15
  -13.0200005       7.90735478E-14
  -13.0100002       1.42480943E-13
  -13.0000000       1.83940726E-13
  -12.9899998       1.96770904E-13
  -12.9799995       1.79934586E-13
  -12.9700003       1.38158284E-13
  -12.9600000       8.07389705E-14
  -12.9499998       1.92972096E-14
  -12.9399996      -3.49995030E-14
  -12.9300003      -7.40674069E-14
  -12.9200001      -9.47238300E-14
  -12.9099998      -9.92028860E-14
  -12.8999996      -9.41933028E-14
  -12.8900003      -8.85982029E-14
  -12.8800001      -9.05655420E-14
  -12.8699999      -1.04567606E-13
  -12.8599997      -1.29351567E-13
  -12.8500004      -1.57416167E-13
  -12.8400002      -1.76317497E-13
  -12.8299999      -1.71647554E-13
  -12.8199997      -1.31070176E-13
  -12.8100004      -4.84557056E-14
  -12.8000002       7.29683241E-14
  -12.7900000       2.19398677E-13
  -12.7799997       3.67726520E-13
  -12.7700005       4.89291658E-13
  -12.7600002       5.55500416E-13
  -12.7500000       5.44175924E-13
  -12.7399998       4.45226131E-13
  -12.7299995       2.64251105E-13
  -12.7200003       2.30800910E-14
  -12.7100000      -2.43135725E-13
  -12.6999998      -4.91886479E-13
  -12.6899996      -6.81210568E-13
  -12.6800003      -7.77931105E-13
  -12.6700001      -7.64445419E-13
  -12.6599998      -6.42541901E-13
  -12.6499996      -4.33321917E-13
  -12.6400003      -1.73143509E-13
  -12.6300001       9.36050757E-14
  -12.6199999       3.23368421E-13
  -12.6099997       4.81999152E-13
  -12.6000004       5.51166480E-13
  -12.5900002       5.31196289E-13
  -12.5799999       4.39761400E-13
  -12.5699997       3.06795713E-13
  -12.5600004       1.66889140E-13
  -12.5500002       5.10083681E-14
  -12.5400000      -2.04604806E-14
  -12.5299997      -4.16817392E-14
  -12.5200005      -2.14279244E-14
  -12.5100002       2.07225984E-14
  -12.5000000       6.10169399E-14
  -12.4899998       7.92183905E-14
  -12.4799995       6.52737480E-14
  -12.4700003       2.30804637E-14
  -12.4600000      -2.98386431E-14
  -12.4499998      -6.69325299E-14
  -12.4399996      -6.05746329E-14
  -12.4300003       8.46528116E-15
  -12.4200001       1.42367793E-13
  -12.4099998       3.20718576E-13
  -12.3999996       4.99745319E-13
  -12.3900003       6.16962590E-13
  -12.3800001       6.00610761E-13
  -12.3699999       3.82105670E-13
  -12.3599997      -9.10510545E-14
  -12.3500004      -8.44673778E-13
  -12.3400002      -1.87192926E-12
  -12.3299999      -3.13337659E-12
  -12.3199997      -4.56302227E-12
  -12.3100004      -6.07907171E-12
  -12.3000002      -7.59697513E-12
  -12.2900000      -9.04187662E-12
  -12.2799997      -1.03576522E-11
  -12.2700005      -1.15106770E-11
  -12.2600002      -1.24875960E-11
  -12.2500000      -1.32879619E-11
  -12.2399998      -1.39137365E-11
  -12.2299995      -1.43585126E-11
  -12.2200003      -1.45995004E-11
  -12.2100000      -1.45943951E-11
  -12.1999998      -1.42843367E-11
  -12.1899996      -1.36025991E-11
  -12.1800003      -1.24869897E-11
  -12.1700001      -1.08931458E-11
  -12.1599998      -8.80572178E-12
  -12.1499996      -6.24442121E-12
  -12.1400003      -3.26344941E-12
  -12.1300001       5.58185564E-14
  -12.1199999       3.61730090E-12
  -12.1099997       7.32511534E-12
  -12.1000004       1.10976410E-11
  -12.0900002       1.48773459E-11
  -12.0799999       1.86343736E-11
  -12.0699997       2.23631374E-11
  -12.0600004       2.60729251E-11
  -12.0500002       2.97749776E-11
  -12.0400000       3.34693662E-11
  -12.0299997       3.71349757E-11
  -12.0200005       4.07251767E-11
  -12.0100002       4.41703167E-11
  -12.0000000       4.73863761E-11
  -11.9899998       5.02876317E-11
  -11.9799995       5.28000109E-11
  -11.9700003       5.48716697E-11
  -11.9600000       5.64778814E-11
  -11.9499998       5.76188333E-11
  -11.9399996       5.83104814E-11
  -11.9300003       5.85705096E-11
  -11.9200001       5.84031642E-11
  -11.9099998       5.77861509E-11
  -11.8999996       5.66637640E-11
  -11.8900003       5.49480322E-11
  -11.8800001       5.25280826E-11
  -11.8699999       4.92868212E-11
  -11.8599997       4.51207752E-11
  -11.8500004       3.99594351E-11
  -11.8400002       3.37797429E-11
  -11.8299999       2.66130035E-11
  -11.8199997       1.85420481E-11
  -11.8100004       9.69014279E-12
  -11.8000002       2.03511904E-13
  -11.7900000      -9.76801279E-12
  -11.7799997      -2.00887380E-11
  -11.7700005      -3.06492227E-11
  -11.7600002      -4.13699248E-11
  -11.7500000      -5.21972569E-11
  -11.7399998      -6.30925520E-11
  -11.7299995      -7.40172368E-11
  -11.7200003      -8.49187387E-11
  -11.7100000      -9.57198140E-11
  -11.6999998      -1.06314652E-10
  -11.6899996      -1.16572529E-10
  -11.6800003      -1.26347849E-10
  -11.6700001      -1.35495032E-10
  -11.6599998      -1.43883780E-10
  -11.6499996      -1.51412105E-10
  -11.6400003      -1.58013824E-10
  -11.6300001      -1.63658767E-10
  -11.6199999      -1.68346448E-10
  -11.6099997      -1.72094325E-10
  -11.6000004      -1.74923506E-10
  -11.5900002      -1.76844872E-10
  -11.5799999      -1.77848847E-10
  -11.5699997      -1.77899862E-10
  -11.5600004      -1.76936757E-10
  -11.5500002      -1.74878917E-10
  -11.5400000      -1.71633735E-10
  -11.5299997      -1.67106107E-10
  -11.5200005      -1.61206909E-10
  -11.5100002      -1.53857121E-10
  -11.5000000      -1.44989742E-10
  -11.4899998      -1.34548192E-10
  -11.4799995      -1.22483412E-10
  -11.4700003      -1.08751515E-10
  -11.4600000      -9.33119138E-11
  -11.4499998      -7.61301508E-11
  -11.4399996      -5.71828938E-11
  -11.4300003      -3.64654071E-11
  -11.4200001      -1.39995281E-11
  -11.4099998       1.01598330E-11
  -11.3999996       3.59195278E-11
  -11.3900003       6.31484032E-11
  -11.3800001       9.16828349E-11
  -11.3699999       1.21334678E-10
  -11.3599997       1.51902310E-10
  -11.3500004       1.83183302E-10
  -11.3400002       2.14985182E-10
  -11.3299999       2.47134119E-10
  -11.3199997       2.79479662E-10
  -11.3100004       3.11897230E-10
  -11.3000002       3.44287210E-10
  -11.2900000       3.76572995E-10
  -11.2799997       4.08699352E-10
  -11.2700005       4.40630560E-10
  -11.2600002       4.72350492E-10
  -11.2500000       5.03862396E-10
  -11.2399998       5.35187672E-10
  -11.2299995       5.66364733E-10
  -11.2200003       5.97443317E-10
  -11.2100000       6.28476771E-10
  -11.1999998       6.59511334E-10
  -11.1899996       6.90577040E-10
  -11.1800003       7.21676330E-10
  -11.1700001       7.52778007E-10
  -11.1599998       7.83815013E-10
  -11.1499996       8.14689038E-10
  -11.1400003       8.45277570E-10
  -11.1300001       8.75445327E-10
  -11.1199999       9.05058917E-10
  -11.1099997       9.33993438E-10
  -11.1000004       9.62141811E-10
  -11.0900002       9.89414772E-10
  -11.0799999       1.01573816E-09
  -11.0699997       1.04104503E-09
  -11.0600004       1.06526621E-09
  -11.0500002       1.08832920E-09
  -11.0400000       1.11015463E-09
  -11.0299997       1.13066012E-09
  -11.0200005       1.14976995E-09
  -11.0100002       1.16742815E-09
  -11.0000000       1.18361487E-09
  -10.9899998       1.19835020E-09
  -10.9799995       1.21171029E-09
  -10.9700003       1.22382038E-09
  -10.9600000       1.23484811E-09
  -10.9499998       1.24498956E-09
  -10.9399996       1.25444721E-09
  -10.9300003       1.26342004E-09
  -10.9200001       1.27207955E-09
  -10.9099998       1.28056410E-09
  -10.8999996       1.28896904E-09
  -10.8900003       1.29734179E-09
  -10.8800001       1.30569788E-09
  -10.8699999       1.31401356E-09
  -10.8599997       1.32224298E-09
  -10.8500004       1.33031430E-09
  -10.8400002       1.33813904E-09
  -10.8299999       1.34561495E-09
  -10.8199997       1.35262301E-09
  -10.8100004       1.35903133E-09
  -10.8000002       1.36469325E-09
  -10.7900000       1.36945899E-09
  -10.7799997       1.37317802E-09
  -10.7700005       1.37570222E-09
  -10.7600002       1.37690281E-09
  -10.7500000       1.37667078E-09
  -10.7399998       1.37492695E-09
  -10.7299995       1.37162803E-09
  -10.7200003       1.36675316E-09
  -10.7100000       1.36031475E-09
  -10.6999998       1.35234490E-09
  -10.6899996       1.34290290E-09
  -10.6800003       1.33205047E-09
  -10.6700001       1.31986355E-09
  -10.6599998       1.30643374E-09
  -10.6499996       1.29186084E-09
  -10.6400003       1.27625910E-09
  -10.6300001       1.25976474E-09
  -10.6199999       1.24253674E-09
  -10.6099997       1.22474975E-09
  -10.6000004       1.20658938E-09
  -10.5900002       1.18824672E-09
  -10.5799999       1.16989685E-09
  -10.5699997       1.15169951E-09
  -10.5600004       1.13378684E-09
  -10.5500002       1.11624943E-09
  -10.5400000       1.09915110E-09
  -10.5299997       1.08251064E-09
  -10.5200005       1.06634157E-09
  -10.5100002       1.05063969E-09
  -10.5000000       1.03539477E-09
  -10.4899998       1.02060593E-09
  -10.4799995       1.00627007E-09
  -10.4700003       9.92390947E-10
  -10.4600000       9.78968018E-10
  -10.4499998       9.66001834E-10
  -10.4399996       9.53490620E-10
  -10.4300003       9.41426492E-10
  -10.4200001       9.29807009E-10
  -10.4099998       9.18628396E-10
  -10.3999996       9.07908360E-10
  -10.3900003       8.97669328E-10
  -10.3800001       8.87944773E-10
  -10.3699999       8.78768780E-10
  -10.3599997       8.70171823E-10
  -10.3500004       8.62165450E-10
  -10.3400002       8.54743165E-10
  -10.3299999       8.47881099E-10
  -10.3199997       8.41545778E-10
  -10.3100004       8.35712999E-10
  -10.3000002       8.30365110E-10
  -10.2900000       8.25509938E-10
  -10.2799997       8.21196278E-10
  -10.2700005       8.17490631E-10
  -10.2600002       8.14484868E-10
  -10.2500000       8.12260093E-10
  -10.2399998       8.10888023E-10
  -10.2299995       8.10403133E-10
  -10.2200003       8.10811196E-10
  -10.2100000       8.12063472E-10
  -10.1999998       8.14081191E-10
  -10.1899996       8.16763768E-10
  -10.1800003       8.19996571E-10
  -10.1700001       8.23661250E-10
  -10.1599998       8.27649949E-10
  -10.1499996       8.31877622E-10
  -10.1400003       8.36270941E-10
  -10.1300001       8.40780667E-10
  -10.1199999       8.45388537E-10
  -10.1099997       8.50105208E-10
  -10.1000004       8.54980975E-10
  -10.0900002       8.60093552E-10
  -10.0799999       8.65559346E-10
  -10.0699997       8.71516359E-10
  -10.0600004       8.78110307E-10
  -10.0500002       8.85485241E-10
  -10.0400000       8.93759677E-10
  -10.0299997       9.03022157E-10
  -10.0200005       9.13320086E-10
  -10.0100002       9.24668453E-10
  -10.0000000       9.37048661E-10
  -9.98999977       9.50437395E-10
  -9.97999954       9.64798130E-10
  -9.97000027       9.80106774E-10
  -9.96000004       9.96339233E-10
  -9.94999981       1.01347741E-09
  -9.93999958       1.03150333E-09
  -9.93000031       1.05038978E-09
  -9.92000008       1.07010345E-09
  -9.90999985       1.09061171E-09
  -9.89999962       1.11187637E-09
  -9.89000034       1.13387755E-09
  -9.88000011       1.15661347E-09
  -9.86999989       1.18010735E-09
  -9.85999966       1.20440435E-09
  -9.85000038       1.22957267E-09
  -9.84000015       1.25568456E-09
  -9.82999992       1.28282740E-09
  -9.81999969       1.31108346E-09
  -9.81000042       1.34053724E-09
  -9.80000019       1.37128564E-09
  -9.78999996       1.40342926E-09
  -9.77999973       1.43708956E-09
  -9.77000046       1.47240042E-09
  -9.76000023       1.50950441E-09
  -9.75000000       1.54852753E-09
  -9.73999977       1.58957658E-09
  -9.72999954       1.63271607E-09
  -9.72000027       1.67795688E-09
  -9.71000004       1.72525771E-09
  -9.69999981       1.77452508E-09
  -9.68999958       1.82562743E-09
  -9.68000031       1.87840676E-09
  -9.67000008       1.93268357E-09
  -9.65999985       1.98826311E-09
  -9.64999962       2.04493356E-09
  -9.64000034       2.10246975E-09
  -9.63000011       2.16062102E-09
  -9.61999989       2.21911978E-09
  -9.60999966       2.27769359E-09
  -9.60000038       2.33606845E-09
  -9.59000015       2.39400877E-09
  -9.57999992       2.45132425E-09
  -9.56999969       2.50788745E-09
  -9.56000042       2.56363619E-09
  -9.55000019       2.61857047E-09
  -9.53999996       2.67273514E-09
  -9.52999973       2.72620282E-09
  -9.52000046       2.77904921E-09
  -9.51000023       2.83134693E-09
  -9.50000000       2.88314750E-09
  -9.48999977       2.93449354E-09
  -9.47999954       2.98541369E-09
  -9.47000027       3.03594661E-09
  -9.46000004       3.08613912E-09
  -9.44999981       3.13606052E-09
  -9.43999958       3.18579296E-09
  -9.43000031       3.23542704E-09
  -9.42000008       3.28505712E-09
  -9.40999985       3.33478067E-09
  -9.39999962       3.38468498E-09
  -9.39000034       3.43484241E-09
  -9.38000011       3.48531071E-09
  -9.36999989       3.53611695E-09
  -9.35999966       3.58725760E-09
  -9.35000038       3.63868025E-09
  -9.34000015       3.69027542E-09
  -9.32999992       3.74188502E-09
  -9.31999969       3.79329856E-09
  -9.31000042       3.84426802E-09
  -9.30000019       3.89453225E-09
  -9.28999996       3.94383948E-09
  -9.27999973       3.99198097E-09
  -9.27000046       4.03879019E-09
  -9.26000023       4.08413037E-09
  -9.25000000       4.12791090E-09
  -9.23999977       4.17002832E-09
  -9.22999954       4.21034629E-09
  -9.22000027       4.24867830E-09
  -9.21000004       4.28476721E-09
  -9.19999981       4.31831726E-09
  -9.18999958       4.34899539E-09
  -9.18000031       4.37649383E-09
  -9.17000008       4.40055370E-09
  -9.15999985       4.42099868E-09
  -9.14999962       4.43775106E-09
  -9.14000034       4.45081350E-09
  -9.13000011       4.46026460E-09
  -9.11999989       4.46620518E-09
  -9.10999966       4.46876225E-09
  -9.10000038       4.46803083E-09
  -9.09000015       4.46413351E-09
  -9.07999992       4.45719417E-09
  -9.06999969       4.44741088E-09
  -9.06000042       4.43503589E-09
  -9.05000019       4.42043779E-09
  -9.03999996       4.40409620E-09
  -9.02999973       4.38655068E-09
  -9.02000046       4.36838787E-09
  -9.01000023       4.35018110E-09
  -9.00000000       4.33247971E-09
  -8.98999977       4.31575842E-09
  -8.97999954       4.30043512E-09
  -8.97000027       4.28689440E-09
  -8.96000004       4.27553459E-09
  -8.94999981       4.26678959E-09
  -8.93999958       4.26114033E-09
  -8.93000031       4.25914992E-09
  -8.92000008       4.26142277E-09
  -8.90999985       4.26856328E-09
  -8.89999962       4.28114344E-09
  -8.89000034       4.29968061E-09
  -8.88000011       4.32460912E-09
  -8.86999989       4.35628955E-09
  -8.85999966       4.39502257E-09
  -8.85000038       4.44111059E-09
  -8.84000015       4.49483384E-09
  -8.82999992       4.55652716E-09
  -8.81999969       4.62653205E-09
  -8.81000042       4.70519401E-09
  -8.80000019       4.79283413E-09
  -8.78999996       4.88970553E-09
  -8.77999973       4.99597652E-09
  -8.77000046       5.11176124E-09
  -8.76000023       5.23707167E-09
  -8.75000000       5.37190425E-09
  -8.73999977       5.51623369E-09
  -8.72999954       5.67002800E-09
  -8.72000027       5.83327786E-09
  -8.71000004       6.00599126E-09
  -8.69999981       6.18816642E-09
  -8.68999958       6.37976649E-09
  -8.68000031       6.58072086E-09
  -8.67000008       6.79091849E-09
  -8.65999985       7.01020708E-09
  -8.64999962       7.23842630E-09
  -8.64000034       7.47539186E-09
  -8.63000011       7.72093411E-09
  -8.61999989       7.97486255E-09
  -8.60999966       8.23697999E-09
  -8.60000038       8.50703596E-09
  -8.59000015       8.78477113E-09
  -8.57999992       9.06984621E-09
  -8.56999969       9.36192013E-09
  -8.56000042       9.66062785E-09
  -8.55000019       9.96561145E-09
  -8.53999996       1.02765805E-08
  -8.52999973       1.05932667E-08
  -8.52000046       1.09154312E-08
  -8.51000023       1.12428529E-08
  -8.50000000       1.15752696E-08
  -8.48999977       1.19123582E-08
  -8.47999954       1.22537127E-08
  -8.47000027       1.25988660E-08
  -8.46000004       1.29473134E-08
  -8.44999981       1.32985285E-08
  -8.43999958       1.36520235E-08
  -8.43000031       1.40073251E-08
  -8.42000008       1.43639856E-08
  -8.40999985       1.47215307E-08
  -8.39999962       1.50794541E-08
  -8.39000034       1.54371413E-08
  -8.38000011       1.57938302E-08
  -8.36999989       1.61486646E-08
  -8.35999966       1.65006355E-08
  -8.35000038       1.68487393E-08
  -8.34000015       1.71919421E-08
  -8.32999992       1.75292918E-08
  -8.31999969       1.78599251E-08
  -8.31000042       1.81830941E-08
  -8.30000019       1.84981026E-08
  -8.28999996       1.88043519E-08
  -8.27999973       1.91012397E-08
  -8.27000046       1.93881586E-08
  -8.26000023       1.96644816E-08
  -8.25000000       1.99295798E-08
  -8.23999977       2.01828634E-08
  -8.22999954       2.04237924E-08
  -8.22000027       2.06519228E-08
  -8.21000004       2.08668727E-08
  -8.19999981       2.10683453E-08
  -8.18999958       2.12560742E-08
  -8.18000031       2.14298090E-08
  -8.17000008       2.15892761E-08
  -8.15999985       2.17342535E-08
  -8.14999962       2.18643486E-08
  -8.14000034       2.19793002E-08
  -8.13000011       2.20788561E-08
  -8.11999989       2.21628245E-08
  -8.10999966       2.22311467E-08
  -8.10000038       2.22838796E-08
  -8.09000015       2.23212258E-08
  -8.07999992       2.23435030E-08
  -8.06999969       2.23509709E-08
  -8.06000042       2.23439951E-08
  -8.05000019       2.23228511E-08
  -8.03999996       2.22878054E-08
  -8.02999973       2.22390195E-08
  -8.02000046       2.21767280E-08
  -8.01000023       2.21010357E-08
  -8.00000000       2.20122640E-08
  -7.98999977       2.19108056E-08
  -7.98000002       2.17971579E-08
  -7.96999979       2.16720508E-08
  -7.96000004       2.15362981E-08
  -7.94999981       2.13908695E-08
  -7.94000006       2.12368008E-08
  -7.92999983       2.10751612E-08
  -7.92000008       2.09070379E-08
  -7.90999985       2.07334505E-08
  -7.90000010       2.05555484E-08
  -7.88999987       2.03744932E-08
  -7.88000011       2.01915640E-08
  -7.86999989       2.00080770E-08
  -7.86000013       1.98254479E-08
  -7.84999990       1.96451193E-08
  -7.84000015       1.94684624E-08
  -7.82999992       1.92967669E-08
  -7.82000017       1.91311003E-08
  -7.80999994       1.89724236E-08
  -7.80000019       1.88215790E-08
  -7.78999996       1.86792608E-08
  -7.78000021       1.85461460E-08
  -7.76999998       1.84230373E-08
  -7.76000023       1.83108071E-08
  -7.75000000       1.82103772E-08
  -7.73999977       1.81227637E-08
  -7.73000002       1.80488708E-08
  -7.71999979       1.79895334E-08
  -7.71000004       1.79453092E-08
  -7.69999981       1.79166015E-08
  -7.69000006       1.79037158E-08
  -7.67999983       1.79067321E-08
  -7.67000008       1.79257693E-08
  -7.65999985       1.79610105E-08
  -7.65000010       1.80126563E-08
  -7.63999987       1.80809483E-08
  -7.63000011       1.81662383E-08
  -7.61999989       1.82687039E-08
  -7.61000013       1.83884090E-08
  -7.59999990       1.85253146E-08
  -7.59000015       1.86791986E-08
  -7.57999992       1.88497609E-08
  -7.57000017       1.90367651E-08
  -7.55999994       1.92399536E-08
  -7.55000019       1.94592022E-08
  -7.53999996       1.96944718E-08
  -7.53000021       1.99457393E-08
  -7.51999998       2.02129016E-08
  -7.51000023       2.04957900E-08
  -7.50000000       2.07939959E-08
  -7.48999977       2.11070734E-08
  -7.48000002       2.14344738E-08
  -7.46999979       2.17756693E-08
  -7.46000004       2.21302461E-08
  -7.44999981       2.24979484E-08
  -7.44000006       2.28786785E-08