  -16.0000000       0.00000000    
  -15.9899998       0.00000000    
  -15.9799995       0.00000000    
  -15.9700003       0.00000000    
  -15.9600000       0.00000000    
  -15.9499998       0.00000000    
  -15.9399996       0.00000000    
  -15.9300003       0.00000000    
  -15.9200001       0.00000000    
  -15.9099998       0.00000000    
  -15.8999996       0.00000000    
  -15.8900003      -0.00000000    
  -15.8800001      -0.00000000    
  -15.8699999      -0.00000000    
  -15.8599997       0.00000000    
  -15.8500004       0.00000000    
  -15.8400002       8.40779079E-45
  -15.8299999       5.74532370E-44
  -15.8199997       3.25101244E-43
  -15.8100004       1.47416598E-42
  -15.8000002       5.25346794E-42
  -15.7900000       1.33739925E-41
  -15.7799997       1.24939771E-41
  -15.7700005      -1.04599924E-40
  -15.7600002      -8.44329969E-40
  -15.7500000      -4.08962090E-39
  -15.7399998      -1.57956577E-38
  -15.7299995      -5.25158628E-38
  -15.7200003      -1.55353856E-37
  -15.7100000      -4.16196899E-37
  -15.6999998      -1.02028617E-36
  -15.6899996      -2.30286242E-36
  -15.6800003      -4.80105212E-36
  -15.6700001      -9.25180994E-36
  -15.6599998      -1.64457299E-35
  -15.6499996      -2.68124063E-35
  -15.6400003      -3.96248125E-35
  -15.6300001      -5.18263061E-35
  -15.6199999      -5.67577977E-35
  -15.6099997      -4.35010597E-35
  -15.6000004       1.96555172E-36
  -15.5900002       9.23673672E-35
  -15.5799999       2.30526702E-34
  -15.5699997       3.97216072E-34
  -15.5600004       5.39071745E-34
  -15.5500002       5.63802861E-34
  -15.5400000       3.52635104E-34
  -15.5299997      -2.00892237E-34
  -15.5200005      -1.12367507E-33
  -15.5100002      -2.27960571E-33
  -15.5000000      -3.30166755E-33
  -15.4899998      -3.58887021E-33
  -15.4799995      -2.42189599E-33
  -15.4700003       7.69192305E-34
  -15.4600000       6.00456657E-33
  -15.4499998       1.23219300E-32
  -15.4399996       1.75009215E-32
  -15.4300003       1.81956989E-32
  -15.4200001       1.07149675E-32
  -15.4099998      -7.43970595E-33
  -15.3999996      -3.54394678E-32
  -15.3900003      -6.69662851E-32
  -15.3800001      -8.90599777E-32
  -15.3699999      -8.33769621E-32
  -15.3599997      -3.12452335E-32
  -15.3500004       7.68635009E-32
  -15.3400002       2.28667905E-31
  -15.3299999       3.78386741E-31
  -15.3199997       4.43555396E-31
  -15.3100004       3.19965472E-31
  -15.3000002      -7.75684566E-32
  -15.2900000      -7.49569348E-31
  -15.2799997      -1.53877712E-30
  -15.2700005      -2.08775263E-30
  -15.2600002      -1.88095252E-30
  -15.2500000      -4.19925138E-31
  -15.2399998       2.46117409E-30
  -15.2299995       6.21558305E-30
  -15.2200003       9.32235707E-30
  -15.2100000       9.40748392E-30
  -15.1999998       3.99254982E-30
  -15.1899996      -8.07729527E-30
  -15.1800003      -2.48603310E-29
  -15.1700001      -4.00242819E-29
  -15.1599998      -4.32186203E-29
  -15.1499996      -2.32062897E-29
  -15.1400003       2.60059193E-29
  -15.1300001       9.74667645E-29
  -15.1199999       1.65509256E-28
  -15.1099997       1.86901053E-28
  -15.1000004       1.13477670E-28
  -15.0900002      -8.27134971E-29
  -15.0799999      -3.77500180E-28
  -15.0699997      -6.69940605E-28
  -15.0600004      -7.84943756E-28
  -15.0500002      -5.21566770E-28
  -15.0400000       2.48126727E-28
  -15.0299997       1.45073668E-27
  -15.0200005       2.70682925E-27
  -15.0100002       3.32677281E-27
  -15.0000000       2.48051861E-27
  -14.9899998      -4.32599254E-28
  -14.9799995      -5.28193452E-27
  -14.9700003      -1.07587223E-26
  -14.9600000      -1.42677127E-26
  -14.9499998      -1.24456728E-26
  -14.9399996      -2.44851389E-27
  -14.9300003       1.61682004E-26
  -14.9200001       3.95774783E-26
  -14.9099998       5.88024438E-26
  -14.8999996       6.09269879E-26
  -14.8900003       3.31116846E-26
  -14.8800001      -3.08460360E-26
  -14.8699999      -1.23105233E-25
  -14.8599997      -2.16681109E-25
  -14.8500004      -2.66567859E-25
  -14.8400002      -2.20307379E-25
  -14.8299999      -3.85713509E-26
  -14.8199997       2.78125090E-25
  -14.8100004       6.65599860E-25
  -14.8000002       9.87879961E-25
  -14.7900000       1.05753924E-24
  -14.7799997       6.91291187E-25
  -14.7700005      -2.04684790E-25
  -14.7600002      -1.54165884E-24
  -14.7500000      -2.98487178E-24
  -14.7399998      -3.96390338E-24
  -14.7299995      -3.79203583E-24
  -14.7200003      -1.90061658E-24
  -14.7100000       1.85245465E-24
  -14.6999998       6.89401874E-24
  -14.6899996       1.18002847E-23
  -14.6800003       1.44508637E-23
  -14.6700001       1.25545990E-23
  -14.6599998       4.51449398E-24
  -14.6499996      -9.55862522E-24
  -14.6400003      -2.70293565E-23
  -14.6300001      -4.25509837E-23
  -14.6199999      -4.88927059E-23
  -14.6099997      -3.89355647E-23
  -14.6000004      -8.59049804E-24
  -14.5900002       4.00977525E-23
  -14.5799999       9.68182557E-23
  -14.5699997       1.43142371E-22
  -14.5600004       1.55960149E-22
  -14.5500002       1.14368486E-22
  -14.5400000       8.88482441E-24
  -14.5299997      -1.49568924E-22
  -14.5200005      -3.24532176E-22
  -14.5100002      -4.56457740E-22
  -14.5000000      -4.75198500E-22
  -14.4899998      -3.22161075E-22
  -14.4799995       2.21349479E-23
  -14.4700003       5.13296822E-22
  -14.4600000       1.03177534E-21
  -14.4499998       1.39517248E-21
  -14.4399996       1.39958404E-21
  -14.4300003       8.86711969E-22
  -14.4200001      -1.77606631E-22
  -14.4099998      -1.63806964E-21
  -14.3999996      -3.12759756E-21
  -14.3900003      -4.11399247E-21
  -14.3800001      -4.02647531E-21
  -14.3699999      -2.44784978E-21
  -14.3599997       6.71692771E-22
  -14.3500004       4.84833983E-21
  -14.3400002       9.02483694E-21
  -14.3299999       1.17205862E-20
  -14.3199997       1.13909346E-20
  -14.3100004       6.94743180E-21
  -14.3000002      -1.68457977E-21
  -14.2900000      -1.31534820E-20
  -14.2799997      -2.46117058E-20
  -14.2700005      -3.21381737E-20
  -14.2600002      -3.16839869E-20
  -14.2500000      -2.04027248E-20
  -14.2399998       1.95338843E-21
  -14.2299995       3.20219419E-20
  -14.2200003       6.26760825E-20
  -14.2100000       8.40693836E-20
  -14.1999998       8.59339198E-20
  -14.1899996       6.07869054E-20
  -14.1800003       7.29224576E-21
  -14.1700001      -6.72664308E-20
  -14.1599998      -1.46479973E-19
  -14.1499996      -2.07053311E-19
  -14.1400003      -2.23924306E-19
  -14.1300001      -1.77524902E-19
  -14.1199999      -6.15541024E-20
  -14.1099997       1.10997273E-19
  -14.1000004       3.05937402E-19
  -14.0900002       4.71846104E-19
  -14.0799999       5.50395950E-19
  -14.0699997       4.91698231E-19
  -14.0600004       2.71485511E-19
  -14.0500002      -9.44509849E-20
  -14.0400000      -5.43540484E-19
  -14.0299997      -9.71442462E-19
  -14.0200005      -1.25041977E-18
  -14.0100002      -1.25928208E-18
  -14.0000000      -9.19359138E-19
  -13.9899998      -2.27893454E-19
  -13.9799995       7.21153377E-19
  -13.9700003       1.73779004E-18
  -13.9600000       2.56329127E-18
  -13.9499998       2.92312456E-18
  -13.9399996       2.59730225E-18
  -13.9300003       1.49331112E-18
  -13.9200001      -2.97386526E-19
  -13.9099998      -2.47829040E-18
  -13.8999996      -4.57618897E-18
  -13.8900003      -6.02289725E-18
  -13.8800001      -6.28123031E-18
  -13.8699999      -4.99234105E-18
  -13.8599997      -2.11074262E-18
  -13.8500004       2.01097202E-18
  -13.8400002       6.62102866E-18
  -13.8299999       1.06699243E-17
  -13.8199997       1.30108372E-17
  -13.8100004       1.26689742E-17
  -13.8000002       9.12551938E-18
  -13.7900000       2.54655968E-18
  -13.7799997      -6.11310254E-18
  -13.7700005      -1.51834676E-17
  -13.7600002      -2.25474116E-17
  -13.7500000      -2.60741011E-17
  -13.7399998      -2.41402669E-17
  -13.7299995      -1.61248157E-17
  -13.7200003      -2.74762723E-18
  -13.7100000       1.38602491E-17
  -13.6999998       3.04193222E-17
  -13.6899996       4.30884833E-17
  -13.6800003       4.82836209E-17
  -13.6700001       4.35632883E-17
  -13.6599998       2.83748229E-17
  -13.6499996       4.45971739E-18
  -13.6400003      -2.42258785E-17
  -13.6300001      -5.21183872E-17
  -13.6199999      -7.30998830E-17
  -13.6099997      -8.17971114E-17
  -13.6000004      -7.48461738E-17
  -13.5900002      -5.18247414E-17
  -13.5799999      -1.56090537E-17
  -13.5699997       2.79671353E-17
  -13.5600004       7.11157216E-17
  -13.5500002       1.05565260E-16
  -13.5400000       1.24187868E-16
  -13.5299997       1.22426503E-16
  -13.5200005       9.92116059E-17
  -13.5100002       5.71776952E-17
  -13.5000000       2.16000474E-18
  -13.4899998      -5.78780392E-17
  -13.4799995      -1.14210693E-16
  -13.4700003      -1.58689174E-16
  -13.4600000      -1.84780105E-16
  -13.4499998      -1.88153798E-16
  -13.4399996      -1.66831834E-16
  -13.4300003      -1.21049426E-16
  -13.4200001      -5.30653370E-17
  -13.4099998       3.28633133E-17
  -13.3999996       1.30242009E-16
  -13.3900003       2.29919920E-16
  -13.3800001       3.19767775E-16
  -13.3699999       3.84863766E-16
  -13.3599997       4.08607132E-16
  -13.3500004       3.75031090E-16
  -13.3400002       2.72279217E-16
  -13.3299999       9.68092617E-17
  -13.3199997      -1.42528050E-16
  -13.3100004      -4.21684659E-16
  -13.3000002      -7.01111034E-16
  -13.2900000      -9.28935104E-16
  -13.2799997      -1.04803132E-15
  -13.2700005      -1.00653296E-15
  -13.2600002      -7.70347561E-16
  -13.2500000      -3.35326235E-16
  -13.2399998       2.63838349E-16
  -13.2299995       9.50922068E-16
  -13.2200003       1.61391720E-15
  -13.2100000       2.12000954E-15
  -13.1999998       2.33859931E-15
  -13.1899996       2.16900044E-15
  -13.1800003       1.56760260E-15
  -13.1700001       5.68244811E-16
  -13.1599998      -7.10138129E-16
  -13.1499996      -2.07278301E-15
  -13.1400003      -3.27629888E-15
  -13.1300001      -4.07083230E-15
  -13.1199999      -4.25020762E-15
  -13.1099997      -3.70008471E-15
  -13.1000004      -2.43309240E-15
  -13.0900002      -6.01354058E-16
  -13.0799999       1.51918250E-15
  -13.0699997       3.57230005E-15
  -13.0600004       5.18610067E-15
  -13.0500002       6.04614998E-15
  -13.0400000       5.96156484E-15
  -13.0299997       4.90878802E-15
  -13.0200005       3.04201655E-15
  -13.0100002       6.66476228E-16
  -13.0000000      -1.82059991E-15
  -12.9899998      -4.00851778E-15
  -12.9799995      -5.55342075E-15
  -12.9700003      -6.24191920E-15
  -12.9600000      -6.02383362E-15
  -12.9499998      -5.00778753E-15
  -12.9399996      -3.42313204E-15
  -12.9300003      -1.56044909E-15
  -12.9200001       2.92047643E-16
  -12.9099998       1.89891255E-15
  -12.8999996       3.10278524E-15
  -12.8900003       3.82199731E-15
  -12.8800001       4.02796438E-15
  -12.8699999       3.71747260E-15
  -12.8599997       2.89721521E-15
  -12.8500004       1.59347057E-15
  -12.8400002      -1.10757578E-16
  -12.8299999      -2.02223378E-15
  -12.8199997      -3.79098405E-15
  -12.8100004      -4.90013176E-15
  -12.8000002      -4.71815012E-15
  -12.7900000      -2.62557661E-15
  -12.7799997       1.79368396E-15
  -12.7700005       8.53144713E-15
  -12.7600002       1.69607065E-14
  -12.7500000       2.57329761E-14
  -12.7399998       3.28265044E-14
  -12.7299995       3.57795831E-14
  -12.7200003       3.21047036E-14
  -12.7100000       1.98335509E-14
  -12.6999998      -1.89908937E-15
  -12.6899996      -3.23510411E-14
  -12.6800003      -6.88712257E-14
  -12.6700001      -1.06901013E-13
  -12.6599998      -1.40331228E-13
  -12.6499996      -1.62204560E-13
  -12.6400003      -1.65687125E-13
  -12.6300001      -1.45175457E-13
  -12.6199999      -9.73733016E-14
  -12.6099997      -2.21674621E-14
  -12.6000004       7.68404641E-14
  -12.5900002       1.92237868E-13
  -12.5799999       3.13167379E-13
  -12.5699997       4.26117664E-13
  -12.5600004       5.16048521E-13
  -12.5500002       5.67729457E-13
  -12.5400000       5.67165455E-13
  -12.5299997       5.02995486E-13
  -12.5200005       3.67782383E-13
  -12.5100002       1.59135902E-13
  -12.5000000      -1.19357717E-13
  -12.4899998      -4.57426740E-13
  -12.4799995      -8.37646630E-13
  -12.4700003      -1.23526276E-12
  -12.4600000      -1.61836137E-12
  -12.4499998      -1.94846656E-12
  -12.4399996      -2.18164050E-12
  -12.4300003      -2.27013894E-12
  -12.4200001      -2.16463674E-12
  -12.4099998      -1.81698786E-12
  -12.3999996      -1.18340786E-12
  -12.3900003      -2.27909000E-13
  -12.3800001       1.07422946E-12
  -12.3699999       2.73324180E-12
  -12.3599997       4.74213941E-12
  -12.3500004       7.07478780E-12
  -12.3400002       9.68495423E-12
  -12.3299999       1.25065566E-11
  -12.3199997       1.54551302E-11
  -12.3100004       1.84305418E-11
  -12.3000002       2.13207629E-11
  -12.2900000       2.40065572E-11
  -12.2799997       2.63665791E-11
  -12.2700005       2.82827633E-11
  -12.2600002       2.96453417E-11
  -12.2500000       3.03574076E-11
  -12.2399998       3.03385095E-11
  -12.2299995       2.95274569E-11
  -12.2200003       2.78840128E-11
  -12.2100000       2.53897355E-11
  -12.1999998       2.20481099E-11
  -12.1899996       1.78841542E-11
  -12.1800003       1.29433859E-11
  -12.1700001       7.29048245E-12
  -12.1599998       1.00719932E-12
  -12.1499996      -5.81037865E-12
  -12.1400003      -1.30555202E-11
  -12.1300001      -2.06154781E-11
  -12.1199999      -2.83768217E-11
  -12.1099997      -3.62311223E-11
  -12.1000004      -4.40802395E-11
  -12.0900002      -5.18403966E-11
  -12.0799999      -5.94443106E-11
  -12.0699997      -6.68405539E-11
  -12.0600004      -7.39900433E-11
  -12.0500002      -8.08599576E-11
  -12.0400000      -8.74157413E-11
  -12.0299997      -9.36124650E-11
  -12.0200005      -9.93874150E-11
  -12.0100002      -1.04654625E-10
  -12.0000000      -1.09303143E-10
  -11.9899998      -1.13199353E-10
  -11.9799995      -1.16192563E-10
  -11.9700003      -1.18124052E-10
  -11.9600000      -1.18836857E-10
  -11.9499998      -1.18186128E-10
  -11.9399996      -1.16047408E-10
  -11.9300003      -1.12322568E-10
  -11.9200001      -1.06942961E-10
  -11.9099998      -9.98699665E-11
  -11.8999996      -9.10939657E-11
  -11.8900003      -8.06325423E-11
  -11.8800001      -6.85288354E-11
  -11.8699999      -5.48508808E-11
  -11.8599997      -3.96912607E-11
  -11.8500004      -2.31673413E-11
  -11.8400002      -5.42031177E-12
  -11.8299999       1.33863623E-11
  -11.8199997       3.30711430E-11
  -11.8100004       5.34402904E-11
  -11.8000002       7.42951811E-11
  -11.7900000       9.54398921E-11
  -11.7799997       1.16687437E-10
  -11.7700005       1.37864539E-10
  -11.7600002       1.58813435E-10
  -11.7500000       1.79390808E-10
  -11.7399998       1.99464736E-10
  -11.7299995       2.18910348E-10
  -11.7200003       2.37605463E-10
  -11.7100000       2.55427401E-10
  -11.6999998       2.72250306E-10
  -11.6899996       2.87944557E-10
  -11.6800003       3.02375874E-10
  -11.6700001       3.15404702E-10
  -11.6599998       3.26884936E-10
  -11.6499996       3.36661310E-10
  -11.6400003       3.44567347E-10
  -11.6300001       3.50423357E-10
  -11.6199999       3.54036911E-10
  -11.6099997       3.55206115E-10
  -11.6000004       3.53726853E-10
  -11.5900002       3.49403340E-10
  -11.5799999       3.42060213E-10
  -11.5699997       3.31555616E-10
  -11.5600004       3.17791571E-10
  -11.5500002       3.00721142E-10
  -11.5400000       2.80350798E-10
  -11.5299997       2.56737381E-10
  -11.5200005       2.29981950E-10
  -11.5100002       2.00220396E-10
  -11.5000000       1.67613895E-10
  -11.4899998       1.32340125E-10
  -11.4799995       9.45857420E-11
  -11.4700003       5.45407990E-11
  -11.4600000       1.23942514E-11
  -11.4499998      -3.16707320E-11
  -11.4399996      -7.74814449E-11
  -11.4300003      -1.24881022E-10
  -11.4200001      -1.73734138E-10
  -11.4099998      -2.23930971E-10
  -11.3999996      -2.75389933E-10
  -11.3900003      -3.28054528E-10
  -11.3800001      -3.81887522E-10
  -11.3699999      -4.36860104E-10
  -11.3599997      -4.92939467E-10
  -11.3500004      -5.50073820E-10
  -11.3400002      -6.08179396E-10
  -11.3299999      -6.67130517E-10
  -11.3199997      -7.26754490E-10
  -11.3100004      -7.86831100E-10
  -11.3000002      -8.47099335E-10
  -11.2900000      -9.07264985E-10
  -11.2799997      -9.67016023E-10
  -11.2700005      -1.02603936E-09
  -11.2600002      -1.08403631E-09
  -11.2500000      -1.14074217E-09
  -11.2399998      -1.19594357E-09
  -11.2299995      -1.24948885E-09
  -11.2200003      -1.30129774E-09
  -11.2100000      -1.35136047E-09
  -11.1999998      -1.39973311E-09
  -11.1899996      -1.44651924E-09
  -11.1800003      -1.49185064E-09
  -11.1700001      -1.53586011E-09
  -11.1599998      -1.57865909E-09
  -11.1499996      -1.62031610E-09
  -11.1400003      -1.66084757E-09
  -11.1300001      -1.70021519E-09
  -11.1199999      -1.73833403E-09
  -11.1099997      -1.77508763E-09
  -11.1000004      -1.81034787E-09
  -11.0900002      -1.84399040E-09
  -11.0799999      -1.87591342E-09
  -11.0699997      -1.90603511E-09
  -11.0600004      -1.93430072E-09
  -11.0500002      -1.96067118E-09
  -11.0400000      -1.98511896E-09
  -11.0299997      -2.00761341E-09
  -11.0200005      -2.02811945E-09
  -11.0100002      -2.04659090E-09
  -11.0000000      -2.06297712E-09
  -10.9899998      -2.07721573E-09
  -10.9799995      -2.08924700E-09
  -10.9700003      -2.09900541E-09
  -10.9600000      -2.10642792E-09
  -10.9499998      -2.11145701E-09
  -10.9399996      -2.11403850E-09
  -10.9300003      -2.11413154E-09
  -10.9200001      -2.11171125E-09
  -10.9099998      -2.10677631E-09
  -10.8999996      -2.09934869E-09
  -10.8900003      -2.08947237E-09
  -10.8800001      -2.07720374E-09
  -10.8699999      -2.06259609E-09
  -10.8599997      -2.04568829E-09
  -10.8500004      -2.02648542E-09
  -10.8400002      -2.00495642E-09
  -10.8299999      -1.98103733E-09
  -10.8199997      -1.95464600E-09
  -10.8100004      -1.92570293E-09
  -10.8000002      -1.89415572E-09
  -10.7900000      -1.85999893E-09
  -10.7799997      -1.82328908E-09
  -10.7700005      -1.78412796E-09
  -10.7600002      -1.74264991E-09
  -10.7500000      -1.69899650E-09
  -10.7399998      -1.65329739E-09
  -10.7299995      -1.60563096E-09
  -10.7200003      -1.55603452E-09
  -10.7100000      -1.50451684E-09
  -10.6999998      -1.45106860E-09
  -10.6899996      -1.39569600E-09
  -10.6800003      -1.33842593E-09
  -10.6700001      -1.27933475E-09
  -10.6599998      -1.21853916E-09
  -10.6499996      -1.15616861E-09
  -10.6400003      -1.09236609E-09
  -10.6300001      -1.02723996E-09
  -10.6199999      -9.60891366E-10
  -10.6099997      -8.93382424E-10
  -10.6000004      -8.24782298E-10
  -10.5900002      -7.55187857E-10
  -10.5799999      -6.84742818E-10
  -10.5699997      -6.13649520E-10
  -10.5600004      -5.42163425E-10
  -10.5500002      -4.70578465E-10
  -10.5400000      -3.99179689E-10
  -10.5299997      -3.28219174E-10
  -10.5200005      -2.57886601E-10
  -10.5100002      -1.88308868E-10
  -10.5000000      -1.19563998E-10
  -10.4899998      -5.17012648E-11
  -10.4799995       1.52059546E-11
  -10.4700003       8.10419509E-11
  -10.4600000       1.45628676E-10
  -10.4499998       2.08744855E-10
  -10.4399996       2.70133055E-10
  -10.4300003       3.29542948E-10
  -10.4200001       3.86771476E-10
  -10.4099998       4.41668230E-10
  -10.3999996       4.94145835E-10
  -10.3900003       5.44158218E-10
  -10.3800001       5.91683202E-10
  -10.3699999       6.36688868E-10
  -10.3599997       6.79128587E-10
  -10.3500004       7.18934579E-10
  -10.3400002       7.56037677E-10
  -10.3299999       7.90391030E-10
  -10.3199997       8.21987978E-10
  -10.3100004       8.50861881E-10
  -10.3000002       8.77076689E-10
  -10.2900000       9.00693853E-10
  -10.2799997       9.21735632E-10
  -10.2700005       9.40151845E-10
  -10.2600002       9.55819091E-10
  -10.2500000       9.68557679E-10
  -10.2399998       9.78191639E-10
  -10.2299995       9.84609616E-10
  -10.2200003       9.87834259E-10
  -10.2100000       9.88064741E-10
  -10.1999998       9.85682425E-10
  -10.1899996       9.81212445E-10
  -10.1800003       9.75242886E-10
  -10.1700001       9.68341851E-10
  -10.1599998       9.60965196E-10
  -10.1499996       9.53400248E-10
  -10.1400003       9.45752698E-10
  -10.1300001       9.37978029E-10
  -10.1199999       9.29942012E-10
  -10.1099997       9.21504317E-10
  -10.1000004       9.12585563E-10
  -10.0900002       9.03209785E-10
  -10.0799999       8.93515373E-10
  -10.0699997       8.83720541E-10
  -10.0600004       8.74083528E-10
  -10.0500002       8.64850469E-10
  -10.0400000       8.56217541E-10
  -10.0299997       8.48321635E-10
  -10.0200005       8.41249848E-10
  -10.0100002       8.35067737E-10
  -10.0000000       8.29854796E-10
  -9.98999977       8.25723656E-10
  -9.97999954       8.22827917E-10
  -9.97000027       8.21346768E-10
  -9.96000004       8.21457347E-10
  -9.94999981       8.23308866E-10
  -9.93999958       8.26999413E-10
  -9.93000031       8.32573788E-10
  -9.92000008       8.40036762E-10
  -9.90999985       8.49373571E-10
  -9.89999962       8.60572891E-10
  -9.89000034       8.73636663E-10
  -9.88000011       8.88576879E-10
  -9.86999989       9.05395259E-10
  -9.85999966       9.24058718E-10
  -9.85000038       9.44481382E-10
  -9.84000015       9.66525859E-10
  -9.82999992       9.90025950E-10
  -9.81999969       1.01483422E-09
  -9.81000042       1.04087727E-09
  -9.80000019       1.06820686E-09
  -9.78999996       1.09702392E-09
  -9.77999973       1.12767107E-09
  -9.77000046       1.16058496E-09
  -9.76000023       1.19622257E-09
  -9.75000000       1.23498034E-09
  -9.73999977       1.27712485E-09
  -9.72999954       1.32276046E-09
  -9.72000027       1.37183531E-09
  -9.71000004       1.42419032E-09
  -9.69999981       1.47963131E-09
  -9.68999958       1.53800206E-09
  -9.68000031       1.59923630E-09
  -9.67000008       1.66337333E-09
  -9.65999985       1.73052728E-09
  -9.64999962       1.80082538E-09
  -9.64000034       1.87432869E-09
  -9.63000011       1.95096339E-09
  -9.61999989       2.03047978E-09
  -9.60999966       2.11244999E-09
  -9.60000038       2.19630092E-09
  -9.59000015       2.28136932E-09
  -9.57999992       2.36696041E-09
  -9.56999969       2.45237719E-09
  -9.56000042       2.53692867E-09
  -9.55000019       2.61989053E-09
  -9.53999996       2.70046119E-09
  -9.52999973       2.77770074E-09
  -9.52000046       2.85050716E-09
  -9.51000023       2.91762503E-09
  -9.50000000       2.97770009E-09
  -9.48999977       3.02937631E-09
  -9.47999954       3.07138470E-09
  -9.47000027       3.10265391E-09
  -9.46000004       3.12234971E-09
  -9.44999981       3.12989368E-09
  -9.43999958       3.12492876E-09
  -9.43000031       3.10725956E-09
  -9.42000008       3.07680970E-09
  -9.40999985       3.03358094E-09
  -9.39999962       2.97768632E-09
  -9.39000034       2.90939539E-09
  -9.38000011       2.82921686E-09
  -9.36999989       2.73799006E-09
  -9.35999966       2.63693467E-09
  -9.35000038       2.52765697E-09
  -9.34000015       2.41210363E-09
  -9.32999992       2.29246666E-09
  -9.31999969       2.17106311E-09
  -9.31000042       2.05025130E-09
  -9.30000019       1.93234584E-09
  -9.28999996       1.81960380E-09
  -9.27999973       1.71424430E-09
  -9.27000046       1.61848102E-09
  -9.26000023       1.53455704E-09
  -9.25000000       1.46475143E-09
  -9.23999977       1.41132239E-09
  -9.22999954       1.37644540E-09
  -9.22000027       1.36209644E-09
  -9.21000004       1.36996947E-09
  -9.19999981       1.40141954E-09
  -9.18999958       1.45744250E-09
  -9.18000031       1.53873692E-09
  -9.17000008       1.64574598E-09
  -9.15999985       1.77873516E-09
  -9.14999962       1.93782612E-09
  -9.14000034       2.12299467E-09
  -9.13000011       2.33400899E-09
  -9.11999989       2.57035859E-09
  -9.10999966       2.83116686E-09
  -9.10000038       3.11515103E-09
  -9.09000015       3.42062645E-09
  -9.07999992       3.74557185E-09
  -9.06999969       4.08771372E-09
  -9.06000042       4.44465931E-09
  -9.05000019       4.81394080E-09
  -9.03999996       5.19308374E-09
  -9.02999973       5.57958701E-09
  -9.02000046       5.97084915E-09
  -9.01000023       6.36413455E-09
  -9.00000000       6.75652201E-09
  -8.98999977       7.14493886E-09
  -8.97999954       7.52620988E-09
  -8.97000027       7.89721000E-09
  -8.96000004       8.25492208E-09
  -8.94999981       8.59658922E-09
  -8.93999958       8.91970675E-09
  -8.93000031       9.22198762E-09
  -8.92000008       9.50129397E-09
  -8.90999985       9.75548442E-09
  -8.89999962       9.98234562E-09
  -8.89000034       1.01795630E-08
  -8.88000011       1.03447562E-08
  -8.86999989       1.04755946E-08
  -8.85999966       1.05699387E-08
  -8.85000038       1.06259757E-08
  -8.84000015       1.06423297E-08
  -8.82999992       1.06180682E-08
  -8.81999969       1.05526539E-08
  -8.81000042       1.04458318E-08
  -8.80000019       1.02975468E-08
  -8.78999996       1.01078363E-08
  -8.77999973       9.87680959E-09
  -8.77000046       9.60472857E-09
  -8.76000023       9.29206756E-09
  -8.75000000       8.93959484E-09
  -8.73999977       8.54846327E-09
  -8.72999954       8.12016943E-09
  -8.72000027       7.65652786E-09
  -8.71000004       7.15951165E-09
  -8.69999981       6.63115074E-09
  -8.68999958       6.07339956E-09
  -8.68000031       5.48807888E-09
  -8.67000008       4.87685536E-09
  -8.65999985       4.24135127E-09
  -8.64999962       3.58310959E-09
  -8.64000034       2.90378388E-09
  -8.63000011       2.20504037E-09
  -8.61999989       1.48858725E-09
  -8.60999966       7.56102791E-10
  -8.60000038       9.12676358E-12
  -8.59000015      -7.50967011E-10
  -8.57999992      -1.52297353E-09
  -8.56999969      -2.30579200E-09
  -8.56000042      -3.09831849E-09
  -8.55000019      -3.89937194E-09
  -8.53999996      -4.70757699E-09
  -8.52999973      -5.52132118E-09
  -8.52000046      -6.33883390E-09
  -8.51000023      -7.15824999E-09
  -8.50000000      -7.97776867E-09
  -8.48999977      -8.79573481E-09
  -8.47999954      -9.61072910E-09
  -8.47000027      -1.04215792E-08
  -8.46000004      -1.12272751E-08
  -8.44999981      -1.20269288E-08
  -8.43999958      -1.28196520E-08
  -8.43000031      -1.36045477E-08
  -8.42000008      -1.43806975E-08
  -8.40999985      -1.51472079E-08
  -8.39999962      -1.59032947E-08
  -8.39000034      -1.66483431E-08
  -8.38000011      -1.73819288E-08
  -8.36999989      -1.81037834E-08
  -8.35999966      -1.88137381E-08
  -8.35000038      -1.95115781E-08
  -8.34000015      -2.01969748E-08
  -8.32999992      -2.08694058E-08
  -8.31999969      -2.15281695E-08
  -8.31000042      -2.21724346E-08
  -8.30000019      -2.28013501E-08
  -8.28999996      -2.34141613E-08
  -8.27999973      -2.40102818E-08
  -8.27000046      -2.45893137E-08
  -8.26000023      -2.51510048E-08
  -8.25000000      -2.56951793E-08
  -8.23999977      -2.62216133E-08
  -8.22999954      -2.67299516E-08
  -8.22000027      -2.72196878E-08
  -8.21000004      -2.76901186E-08
  -8.19999981      -2.81404517E-08
  -8.18999958      -2.85698416E-08
  -8.18000031      -2.89774569E-08
  -8.17000008      -2.93624929E-08
  -8.15999985      -2.97241716E-08
  -8.14999962      -3.00616598E-08
  -8.14000034      -3.03740144E-08
  -8.13000011      -3.06600931E-08
  -8.11999989      -3.09185673E-08
  -8.10999966      -3.11479198E-08
  -8.10000038      -3.13465094E-08
  -8.09000015      -3.15126805E-08
  -8.07999992      -3.16448663E-08
  -8.06999969      -3.17416315E-08
  -8.06000042      -3.18017683E-08
  -8.05000019      -3.18242179E-08
  -8.03999996      -3.18081241E-08
  -8.02999973      -3.17527622E-08
  -8.02000046      -3.16575743E-08
  -8.01000023      -3.15221556E-08
  -8.00000000      -3.13463175E-08
  -7.98999977      -3.11301633E-08
  -7.98000002      -3.08741299E-08
  -7.96999979      -3.05790309E-08
  -7.96000004      -3.02460137E-08
  -7.94999981      -2.98765528E-08
  -7.94000006      -2.94723428E-08
  -7.92999983      -2.90351885E-08
  -7.92000008      -2.85669941E-08
  -7.90999985      -2.80696799E-08
  -7.90000010      -2.75452035E-08
  -7.88999987      -2.69955418E-08
  -7.88000011      -2.64227822E-08
  -7.86999989      -2.58291486E-08
  -7.86000013      -2.52169823E-08
  -7.84999990      -2.45887843E-08
  -7.84000015      -2.39471625E-08
  -7.82999992      -2.32947528E-08
  -7.82000017      -2.26341914E-08
  -7.80999994      -2.19680381E-08
  -7.80000019      -2.12987779E-08
  -7.78999996      -2.06288089E-08
  -7.78000021      -1.99603925E-08
  -7.76999998      -1.92957437E-08
  -7.76000023      -1.86369995E-08
  -7.75000000      -1.79862454E-08
  -7.73999977      -1.73454779E-08
  -7.73000002      -1.67166174E-08
  -7.71999979      -1.61014615E-08
  -7.71000004      -1.55016515E-08
  -7.69999981      -1.49186601E-08
  -7.69000006      -1.43537475E-08
  -7.67999983      -1.38080152E-08
  -7.67000008      -1.32823370E-08
  -7.65999985      -1.27774324E-08
  -7.65000010      -1.22938779E-08
  -7.63999987      -1.18321415E-08
  -7.63000011      -1.13925935E-08
  -7.61999989      -1.09755547E-08
  -7.61000013      -1.05812781E-08
  -7.59999990      -1.02099342E-08
  -7.59000015      -9.86163329E-09
  -7.57999992      -9.53634505E-09
  -7.57000017      -9.23394161E-09
  -7.55999994      -8.95413788E-09
  -7.55000019      -8.69652705E-09
  -7.53999996      -8.46061532E-09
  -7.53000021      -8.24584490E-09
  -7.51999998      -8.05163669E-09
  -7.51000023      -7.87740095E-09
  -7.50000000      -7.72252839E-09
  -7.48999977      -7.58635554E-09
  -7.48000002      -7.46810169E-09
  -7.46999979      -7.36683514E-09
  -7.46000004      -7.28140526E-09
  -7.44999981      -7.21045845E-09
  -7.44000006      -7.15248527E-09