  -16.0000000       0.00000000    
  -15.9899998       0.00000000    
  -15.9799995       0.00000000    
  -15.9700003       0.00000000    
  -15.9600000       0.00000000    
  -15.9499998       0.00000000    
  -15.9399996       0.00000000    
  -15.9300003       0.00000000    
  -15.9200001       0.00000000    
  -15.9099998       0.00000000    
  -15.8999996       0.00000000    
  -15.8900003       0.00000000    
  -15.8800001       0.00000000    
  -15.8699999      -1.08049921E-40
  -15.8599997      -4.23407796E-39
  -15.8500004      -8.16657687E-38
  -15.8400002      -9.98108888E-37
  -15.8299999      -8.71936567E-36
  -15.8199997      -5.86757017E-35
  -15.8100004      -3.19478082E-34
  -15.8000002      -1.45555046E-33
  -15.7900000      -5.68161346E-33
  -15.7799997      -1.93132620E-32
  -15.7700005      -5.77601072E-32
  -15.7600002      -1.52605274E-31
  -15.7500000      -3.54769602E-31
  -15.7399998      -7.12566009E-31
  -15.7299995      -1.17220457E-30
  -15.7200003      -1.29956543E-30
  -15.7100000       3.23794503E-31
  -15.6999998       7.14578163E-30
  -15.6899996       2.59711653E-29
  -15.6800003       6.76384430E-29
  -15.6700001       1.44632608E-28
  -15.6599998       2.61264530E-28
  -15.6499996       3.91004127E-28
  -15.6400003       4.38642678E-28
  -15.6300001       1.97061790E-28
  -15.6199999      -6.66707306E-28
  -15.6099997      -2.52720778E-27
  -15.6000004      -5.52586857E-27
  -15.5900002      -9.04458610E-27
  -15.5799999      -1.10094869E-26
  -15.5699997      -7.40006303E-27
  -15.5600004       7.27299017E-27
  -15.5500002       3.74968237E-26
  -15.5400000       8.15587266E-26
  -15.5299997       1.24226808E-25
  -15.5200005       1.30534996E-25
  -15.5100002       4.72195991E-26
  -15.5000000      -1.79494748E-25
  -15.4899998      -5.63208328E-25
  -15.4799995      -1.01698193E-24
  -15.4700003      -1.29502838E-24
  -15.4600000      -9.81398975E-25
  -15.4499998       4.13293867E-25
  -15.4399996       3.19494011E-24
  -15.4300003       7.06929338E-24
  -15.4200001       1.06702186E-23
  -15.4099998       1.12764140E-23
  -15.3999996       5.08573261E-24
  -15.3900003      -1.15545372E-23
  -15.3800001      -3.97233559E-23
  -15.3699999      -7.45064610E-23
  -15.3599997      -1.01523451E-22
  -15.3500004      -9.53258697E-23
  -15.3400002      -2.25742519E-23
  -15.3299999       1.46616842E-22
  -15.3199997       4.16678425E-22
  -15.3100004       7.34938312E-22
  -15.3000002       9.58588330E-22
  -15.2900000       8.39668243E-22
  -15.2799997       5.97640391E-23
  -15.2700005      -1.64795573E-21
  -15.2600002      -4.26490527E-21
  -15.2500000      -7.16467819E-21
  -15.2399998      -8.81581632E-21
  -15.2299995      -6.74318443E-21
  -15.2200003       1.92200545E-21
  -15.2100000       1.89983014E-20
  -15.1999998       4.28801770E-20
  -15.1899996       6.57962659E-20
  -15.1800003       7.21356101E-20
  -15.1700001       4.01122885E-20
  -15.1599998      -5.07728501E-20
  -15.1499996      -2.05282395E-19
  -15.1400003      -3.93176755E-19
  -15.1300001      -5.32622062E-19
  -15.1199999      -4.89492141E-19
  -15.1099997      -1.08605118E-19
  -15.1000004       7.11752883E-19
  -15.0900002       1.90682543E-18
  -15.0799999       3.12694744E-18
  -15.0699997       3.68022374E-18
  -15.0600004       2.62621242E-18
  -15.0500002      -9.00099065E-19
  -15.0400000      -7.12073881E-18
  -15.0299997      -1.49221149E-17
  -15.0200005      -2.13279869E-17
  -15.0100002      -2.15778864E-17
  -15.0000000      -1.02700760E-17
  -14.9899998       1.61964379E-17
  -14.9799995       5.61797249E-17
  -14.9700003       9.94399806E-17
  -14.9600000       1.25759061E-16
  -14.9499998       1.07806092E-16
  -14.9399996       1.99747359E-17
  -14.9300003      -1.46960905E-16
  -14.9200001      -3.68693828E-16
  -14.9099998      -5.74780041E-16
  -14.8999996      -6.50342685E-16
  -14.8900003      -4.61473714E-16
  -14.8800001       9.17462480E-17
  -14.8699999       1.00183457E-15
  -14.8599997       2.08242563E-15
  -14.8500004       2.93517838E-15
  -14.8400002       2.99691755E-15
  -14.8299999       1.69746207E-15
  -14.8199997      -1.27516459E-15
  -14.8100004      -5.65869593E-15
  -14.8000002      -1.03664525E-14
  -14.7900000      -1.34614923E-14
  -14.7799997      -1.25066592E-14
  -14.7700005      -5.36054626E-15
  -14.7600002       8.67385286E-15
  -14.7500000       2.76567980E-14
  -14.7399998       4.62866846E-14
  -14.7299995       5.62390812E-14
  -14.7200003       4.80346760E-14
  -14.7100000       1.44874194E-14
  -14.6999998      -4.48829308E-14
  -14.6899996      -1.19848399E-13
  -14.6800003      -1.87830613E-13
  -14.6700001      -2.16602073E-13
  -14.6599998      -1.72518155E-13
  -14.6499996      -3.37442137E-14
  -14.6400003       1.94438392E-13
  -14.6300001       4.67532317E-13
  -14.6199999       6.99558846E-13
  -14.6099997       7.76528310E-13
  -14.6000004       5.88004363E-13
  -14.5900002       7.29237634E-14
  -14.5799999      -7.31786376E-13
  -14.5699997      -1.65785192E-12
  -14.5600004      -2.40800327E-12
  -14.5500002      -2.60985829E-12
  -14.5400000      -1.92414942E-12
  -14.5299997      -1.90029592E-13
  -14.5200005       2.43182427E-12
  -14.5100002       5.37414818E-12
  -14.5000000       7.69410750E-12
  -14.4899998       8.25907138E-12
  -14.4799995       6.08350263E-12
  -14.4700003       7.55333621E-13
  -14.4600000      -7.16954230E-12
  -14.4499998      -1.59630208E-11
  -14.4399996      -2.28636277E-11
  -14.4300003      -2.46451453E-11
  -14.4200001      -1.85799588E-11
  -14.4099998      -3.60395741E-12
  -14.3999996       1.86553099E-11
  -14.3900003       4.34058831E-11
  -14.3800001       6.31491318E-11
  -14.3699999       6.92515351E-11
  -14.3599997       5.44885040E-11
  -14.3500004       1.60272490E-11
  -14.3400002      -4.20269375E-11
  -14.3299999      -1.07544376E-10
  -14.3199997      -1.61620550E-10
  -14.3100004      -1.82529783E-10
  -14.3000002      -1.51956087E-10
  -14.2900000      -6.21637603E-11
  -14.2799997       7.79773468E-11
  -14.2700005       2.40469533E-10
  -14.2600002       3.81103482E-10
  -14.2500000       4.48541787E-10
  -14.2399998       3.98490491E-10
  -14.2299995       2.09906093E-10
  -14.2200003      -1.01385005E-10
  -14.2100000      -4.76751139E-10
  -14.1999998      -8.20589041E-10
  -14.1899996      -1.01937558E-09
  -14.1800003      -9.71596914E-10
  -14.1700001      -6.22126017E-10
  -14.1599998       8.42517809E-12
  -14.1499996       8.09806888E-10
  -14.1400003       1.59186320E-09
  -14.1300001       2.12091367E-09
  -14.1199999       2.17825979E-09
  -14.1099997       1.62847369E-09
  -14.1000004       4.79354334E-10
  -14.0900002      -1.08645204E-09
  -14.0799999      -2.72388667E-09
  -14.0699997      -3.98818312E-09
  -14.0600004      -4.44033210E-09
  -14.0500002      -3.77366183E-09
  -14.0400000      -1.92901961E-09
  -14.0299997       8.36937630E-10
  -14.0200005       3.95948563E-09
  -14.0100002       6.66216327E-09
  -14.0000000       8.13109136E-09
  -13.9899998       7.73254705E-09
  -13.9799995       5.22022026E-09
  -13.9700003       8.72341310E-10
  -13.9600000      -4.49162263E-09
  -13.9499998      -9.63962066E-09
  -13.9399996      -1.31893092E-08
  -13.9300003      -1.39532448E-08
  -13.9200001      -1.12856489E-08
  -13.9099998      -5.33664712E-09
  -13.8999996       2.86827984E-09
  -13.8900003       1.15699752E-08
  -13.8800001       1.86312459E-08
  -13.8699999       2.20405472E-08
  -13.8599997       2.04492796E-08
  -13.8500004       1.36053808E-08
  -13.8400002       2.55596233E-09
  -13.8299999      -1.04618252E-08
  -13.8199997      -2.24498304E-08
  -13.8100004      -3.03229584E-08
  -13.8000002      -3.16813669E-08
  -13.7900000      -2.54918078E-08
  -13.7799997      -1.24938104E-08
  -13.7700005       4.80226792E-09
  -13.7600002       2.25657946E-08
  -13.7500000       3.64758748E-08
  -13.7399998       4.27563300E-08
  -13.7299995       3.91738126E-08
  -13.7200003       2.57420059E-08
  -13.7100000       4.92799668E-09
  -13.6999998      -1.87405380E-08
  -13.6899996      -3.96217068E-08
  -13.6800003      -5.22744692E-08
  -13.6700001      -5.28451878E-08
  -13.6599998      -4.01827016E-08
  -13.6499996      -1.63763332E-08
  -13.6400003       1.34739375E-08
  -13.6300001       4.22707025E-08
  -13.6199999       6.25351646E-08
  -13.6099997       6.82768473E-08
  -13.6000004       5.66666785E-08
  -13.5900002       2.90716038E-08
  -13.5799999      -8.87982665E-09
  -13.5699997      -4.83152682E-08
  -13.5600004      -7.90722581E-08
  -13.5500002      -9.21856937E-08
  -13.5400000      -8.23278725E-08
  -13.5299997      -4.95674861E-08
  -13.5200005       7.70385283E-11
  -13.5100002       5.55612836E-08
  -13.5000000       1.03136514E-07
  -13.4899998       1.29616055E-07
  -13.4799995       1.25841751E-07
  -13.4700003       8.94718752E-08
  -13.4600000       2.62914988E-08
  -13.4499998      -5.04465660E-08
  -13.4399996      -1.22684995E-07
  -13.4300003      -1.71738336E-07
  -13.4200001      -1.83044861E-07
  -13.4099998      -1.50307457E-07
  -13.3999996      -7.78827030E-08
  -13.3900003       1.93835508E-08
  -13.3800001       1.19064360E-07
  -13.3699999       1.96304242E-07
  -13.3599997       2.30061829E-07
  -13.3500004       2.08897092E-07
  -13.3400002       1.34733384E-07
  -13.3299999       2.34206823E-08
  -13.3199997      -9.83369688E-08
  -13.3100004      -1.99189003E-07
  -13.3000002      -2.51113391E-07
  -13.2900000      -2.37186853E-07
  -13.2799997      -1.57063624E-07
  -13.2700005      -2.84967090E-08
  -13.2600002       1.15869838E-07
  -13.2500000       2.36016703E-07
  -13.2399998       2.94776555E-07
  -13.2299995       2.68309293E-07
  -13.2200003       1.54068033E-07
  -13.2100000      -2.61076121E-08
  -13.1999998      -2.29085941E-07
  -13.1899996      -3.99553102E-07
  -13.1800003      -4.83390693E-07
  -13.1700001      -4.42302934E-07
  -13.1599998      -2.66039393E-07
  -13.1499996       2.11834852E-08
  -13.1400003       3.62344366E-07
  -13.1300001       6.77834748E-07
  -13.1199999       8.82626921E-07
  -13.1099997       9.06857167E-07
  -13.1000004       7.15124202E-07
  -13.0900002       3.19597802E-07
  -13.0799999      -2.16933486E-07
  -13.0699997      -7.89900184E-07
  -13.0600004      -1.27279384E-06
  -13.0500002      -1.54439829E-06
  -13.0400000      -1.51767290E-06
  -13.0299997      -1.16352908E-06
  -13.0200005      -5.23442736E-07
  -13.0100002       2.93196649E-07
  -13.0000000       1.12774001E-06
  -12.9899998       1.80398581E-06
  -12.9799995       2.16659100E-06
  -12.9700003       2.11773863E-06
  -12.9600000       1.64328856E-06
  -12.9499998       8.21468234E-07
  -12.9399996      -1.89212571E-07
  -12.9300003      -1.18143578E-06
  -12.9200001      -1.94381596E-06
  -12.9099998      -2.30912724E-06
  -12.8999996      -2.19481421E-06
  -12.8900003      -1.62555261E-06
  -12.8800001      -7.31637726E-07
  -12.8699999       2.77984640E-07
  -12.8599997       1.16271099E-06
  -12.8500004       1.70704584E-06
  -12.8400002       1.77383674E-06
  -12.8299999       1.34086258E-06
  -12.8199997       5.11057863E-07
  -12.8100004      -5.07375262E-07
  -12.8000002      -1.44745582E-06
  -12.7900000      -2.04636513E-06
  -12.7799997      -2.11017345E-06
  -12.7700005      -1.56465160E-06
  -12.7600002      -4.79236178E-07
  -12.7500000       9.42680913E-07
  -12.7399998       2.40593886E-06
  -12.7299995       3.58909733E-06
  -12.7200003       4.21813775E-06
  -12.7100000       4.13061707E-06
  -12.6999998       3.31464935E-06
  -12.6899996       1.91274216E-06
  -12.6800003       1.88670228E-07
  -12.6700001      -1.53486656E-06
  -12.6599998      -2.95327754E-06
  -12.6499996      -3.85284966E-06
  -12.6400003      -4.16110834E-06
  -12.6300001      -3.96165206E-06
  -12.6199999      -3.46868296E-06
  -12.6099997      -2.96635926E-06
  -12.6000004      -2.72694433E-06
  -12.5900002      -2.92739219E-06
  -12.5799999      -3.58533589E-06
  -12.5699997      -4.53150551E-06
  -12.5600004      -5.42769703E-06
  -12.5500002      -5.82906887E-06
  -12.5400000      -5.27885231E-06
  -12.5299997      -3.41597365E-06
  -12.5200005      -7.17654345E-08
  -12.5100002       4.66584379E-06
  -12.5000000       1.04361270E-05
  -12.4899998       1.66424215E-05
  -12.4799995       2.25350686E-05
  -12.4700003       2.73239657E-05
  -12.4600000       3.02964527E-05
  -12.4499998       3.09155039E-05
  -12.4399996       2.88776500E-05
  -12.4300003       2.41185389E-05
  -12.4200001       1.67672388E-05
  -12.4099998       7.06157061E-06
  -12.3999996      -4.75310708E-06
  -12.3900003      -1.85146127E-05
  -12.3800001      -3.41995219E-05
  -12.3699999      -5.19267596E-05
  -12.3599997      -7.19038508E-05
  -12.3500004      -9.43260020E-05
  -12.3400002      -1.19250195E-04
  -12.3299999      -1.46472114E-04
  -12.3199997      -1.75439258E-04
  -12.3100004      -2.05221600E-04
  -12.3000002      -2.34556021E-04
  -12.2900000      -2.61955691E-04
  -12.2799997      -2.85867573E-04
  -12.2700005      -3.04846966E-04
  -12.2600002      -3.17714497E-04
  -12.2500000      -3.23654385E-04
  -12.2399998      -3.22247652E-04
  -12.2299995      -3.13420634E-04
  -12.2200003      -2.97331746E-04
  -12.2100000      -2.74224702E-04
  -12.1999998      -2.44283437E-04
  -12.1899996      -2.07528617E-04
  -12.1800003      -1.63784542E-04
  -12.1700001      -1.12722948E-04
  -12.1599998      -5.39911889E-05
  -12.1499996       1.26262530E-05
  -12.1400003       8.70314325E-05
  -12.1300001       1.68679995E-04
  -12.1199999       2.56517058E-04
  -12.1099997       3.49001988E-04
  -12.1000004       4.44234785E-04
  -12.0900002       5.40143519E-04
  -12.0799999       6.34703320E-04
  -12.0699997       7.26141268E-04
  -12.0600004       8.13074759E-04
  -12.0500002       8.94569326E-04
  -12.0400000       9.70089226E-04
  -12.0299997       1.03936449E-03
  -12.0200005       1.10221491E-03
  -12.0100002       1.15835282E-03
  -12.0000000       1.20723376E-03
  -11.9899998       1.24797283E-03
  -11.9799995       1.27935654E-03
  -11.9700003       1.29994098E-03
  -11.9600000       1.30820496E-03
  -11.9499998       1.30273751E-03
  -11.9399996       1.28240022E-03
  -11.9300003       1.24644872E-03
  -11.9200001       1.19456486E-03
  -11.9099998       1.12683070E-03
  -11.8999996       1.04362052E-03
  -11.8900003       9.45476000E-04
  -11.8800001       8.32976482E-04
  -11.8699999       7.06627965E-04
  -11.8599997       5.66825911E-04
  -11.8500004       4.13867179E-04
  -11.8400002       2.48006720E-04
  -11.8299999       6.95550116E-05
  -11.8199997      -1.21014666E-04
  -11.8100004      -3.22988577E-04
  -11.8000002      -5.35353669E-04
  -11.7900000      -7.56798254E-04
  -11.7799997      -9.85740451E-04
  -11.7700005      -1.22038345E-03
  -11.7600002      -1.45878654E-03
  -11.7500000      -1.69892912E-03
  -11.7399998      -1.93874864E-03
  -11.7299995      -2.17617187E-03
  -11.7200003      -2.40912032E-03
  -11.7100000      -2.63549411E-03
  -11.6999998      -2.85318028E-03
  -11.6899996      -3.06004402E-03
  -11.6800003      -3.25394026E-03
  -11.6700001      -3.43274325E-03
  -11.6599998      -3.59438313E-03
  -11.6499996      -3.73685500E-03
  -11.6400003      -3.85827199E-03
  -11.6300001      -3.95684689E-03
  -11.6199999      -4.03090799E-03
  -11.6099997      -4.07886691E-03
  -11.6000004      -4.09921585E-03
  -11.5900002      -4.09050519E-03
  -11.5799999      -4.05134773E-03
  -11.5699997      -3.98042006E-03
  -11.5600004      -3.87651427E-03
  -11.5500002      -3.73854628E-03
  -11.5400000      -3.56561854E-03
  -11.5299997      -3.35705769E-03
  -11.5200005      -3.11242696E-03
  -11.5100002      -2.83155311E-03
  -11.5000000      -2.51453742E-03
  -11.4899998      -2.16172077E-03
  -11.4799995      -1.77370035E-03
  -11.4700003      -1.35130296E-03
  -11.4600000      -8.95581848E-04
  -11.4499998      -4.07799613E-04
  -11.4399996       1.10542205E-04
  -11.4300003       6.57750003E-04
  -11.4200001       1.23192067E-03
  -11.4099998       1.83097820E-03
  -11.3999996       2.45271460E-03
  -11.3900003       3.09483381E-03
  -11.3800001       3.75503162E-03
  -11.3699999       4.43105632E-03
  -11.3599997       5.12077380E-03
  -11.3500004       5.82222361E-03
  -11.3400002       6.53367629E-03
  -11.3299999       7.25360960E-03
  -11.3199997       7.98071455E-03
  -11.3100004       8.71384609E-03
  -11.3000002       9.45193414E-03
  -11.2900000       1.01938648E-02
  -11.2799997       1.09384097E-02
  -11.2700005       1.16840694E-02
  -11.2600002       1.24290008E-02
  -11.2500000       1.31709399E-02
  -11.2399998       1.39071634E-02
  -11.2299995       1.46345580E-02
  -11.2200003       1.53496610E-02
  -11.2100000       1.60488095E-02
  -11.1999998       1.67282708E-02
  -11.1899996       1.73844658E-02
  -11.1800003       1.80140976E-02
  -11.1700001       1.86143015E-02
  -11.1599998       1.91827752E-02
  -11.1499996       1.97178498E-02
  -11.1400003       2.02184767E-02
  -11.1300001       2.06842329E-02
  -11.1199999       2.11152583E-02
  -11.1099997       2.15121806E-02
  -11.1000004       2.18760315E-02
  -11.0900002       2.22081486E-02
  -11.0799999       2.25100946E-02
  -11.0699997       2.27835663E-02
  -11.0600004       2.30303593E-02
  -11.0500002       2.32522544E-02
  -11.0400000       2.34509967E-02
  -11.0299997       2.36282293E-02
  -11.0200005       2.37854552E-02
  -11.0100002       2.39240211E-02
  -11.0000000       2.40450557E-02
  -10.9899998       2.41495427E-02
  -10.9799995       2.42382232E-02
  -10.9700003       2.43117381E-02
  -10.9600000       2.43705362E-02
  -10.9499998       2.44149808E-02
  -10.9399996       2.44453363E-02
  -10.9300003       2.44618244E-02
  -10.9200001       2.44646072E-02
  -10.9099998       2.44538467E-02
  -10.8999996       2.44297162E-02
  -10.8900003       2.43924279E-02
  -10.8800001       2.43422296E-02
  -10.8699999       2.42794417E-02
  -10.8599997       2.42044423E-02
  -10.8500004       2.41176728E-02
  -10.8400002       2.40196008E-02
  -10.8299999       2.39106398E-02
  -10.8199997       2.37911064E-02
  -10.8100004       2.36611050E-02
  -10.8000002       2.35205274E-02
  -10.7900000       2.33689751E-02
  -10.7799997       2.32057627E-02
  -10.7700005       2.30300426E-02
  -10.7600002       2.28409134E-02
  -10.7500000       2.26375796E-02
  -10.7399998       2.24194750E-02
  -10.7299995       2.21865010E-02
  -10.7200003       2.19389759E-02
  -10.7100000       2.16776729E-02
  -10.6999998       2.14037392E-02
  -10.6899996       2.11184211E-02
  -10.6800003       2.08229627E-02
  -10.6700001       2.05183756E-02
  -10.6599998       2.02053562E-02
  -10.6499996       1.98842902E-02
  -10.6400003       1.95553992E-02
  -10.6300001       1.92189068E-02
  -10.6199999       1.88753661E-02
  -10.6099997       1.85257606E-02
  -10.6000004       1.81717500E-02
  -10.5900002       1.78155638E-02
  -10.5799999       1.74598675E-02
  -10.5699997       1.71074718E-02
  -10.5600004       1.67609435E-02
  -10.5500002       1.64223611E-02
  -10.5400000       1.60929654E-02
  -10.5299997       1.57731492E-02
  -10.5200005       1.54625652E-02
  -10.5100002       1.51603064E-02
  -10.5000000       1.48652988E-02
  -10.4899998       1.45765580E-02
  -10.4799995       1.42935421E-02
  -10.4700003       1.40162371E-02
  -10.4600000       1.37452511E-02
  -10.4499998       1.34814633E-02
  -10.4399996       1.32260993E-02
  -10.4300003       1.29802367E-02
  -10.4200001       1.27448170E-02
  -10.4099998       1.25204632E-02
  -10.3999996       1.23076588E-02
  -10.3900003       1.21067660E-02
  -10.3800001       1.19183278E-02
  -10.3699999       1.17432009E-02
  -10.3599997       1.15827667E-02
  -10.3500004       1.14388736E-02
  -10.3400002       1.13137839E-02
  -10.3299999       1.12100188E-02
  -10.3199997       1.11300135E-02
  -10.3100004       1.10758720E-02
  -10.3000002       1.10492073E-02
  -10.2900000       1.10508362E-02
  -10.2799997       1.10807875E-02
  -10.2700005       1.11383339E-02
  -10.2600002       1.12219965E-02
  -10.2500000       1.13297040E-02
  -10.2399998       1.14589790E-02
  -10.2299995       1.16070071E-02
  -10.2200003       1.17708007E-02
  -10.2100000       1.19474055E-02
  -10.1999998       1.21339373E-02
  -10.1899996       1.23276580E-02
  -10.1800003       1.25263762E-02
  -10.1700001       1.27282450E-02
  -10.1599998       1.29322764E-02
  -10.1499996       1.31381713E-02
  -10.1400003       1.33464932E-02
  -10.1300001       1.35586513E-02
  -10.1199999       1.37768248E-02
  -10.1099997       1.40037276E-02
  -10.1000004       1.42424842E-02
  -10.0900002       1.44962147E-02
  -10.0799999       1.47678545E-02
  -10.0699997       1.50599657E-02
  -10.0600004       1.53744454E-02
  -10.0500002       1.57126375E-02
  -10.0400000       1.60752926E-02
  -10.0299997       1.64626259E-02
  -10.0200005       1.68747436E-02
  -10.0100002       1.73114724E-02
  -10.0000000       1.77727584E-02
  -9.98999977       1.82587896E-02
  -9.97999954       1.87698752E-02
  -9.97000027       1.93065349E-02
  -9.96000004       1.98692326E-02
  -9.94999981       2.04584580E-02
  -9.93999958       2.10744701E-02
  -9.93000031       2.17174012E-02
  -9.92000008       2.23870669E-02
  -9.90999985       2.30833888E-02
  -9.89999962       2.38062330E-02
  -9.89000034       2.45556757E-02
  -9.88000011       2.53321882E-02
  -9.86999989       2.61365958E-02
  -9.85999966       2.69701611E-02
  -9.85000038       2.78342869E-02
  -9.84000015       2.87307817E-02
  -9.82999992       2.96613220E-02
  -9.81999969       3.06273941E-02
  -9.81000042       3.16304117E-02
  -9.80000019       3.26715745E-02
  -9.78999996       3.37518677E-02
  -9.77999973       3.48721631E-02
  -9.77000046       3.60333063E-02
  -9.76000023       3.72359268E-02
  -9.75000000       3.84805053E-02
  -9.73999977       3.97671424E-02
  -9.72999954       4.10952903E-02
  -9.72000027       4.24637459E-02
  -9.71000004       4.38704900E-02
  -9.69999981       4.53126542E-02
  -9.68999958       4.67868894E-02
  -9.68000031       4.82894219E-02
  -9.67000008       4.98162881E-02
  -9.65999985       5.13637699E-02
  -9.64999962       5.29283732E-02
  -9.64000034       5.45067787E-02
  -9.63000011       5.60955703E-02
  -9.61999989       5.76913692E-02
  -9.60999966       5.92902564E-02
  -9.60000038       6.08878769E-02
  -9.59000015       6.24794662E-02
  -9.57999992       6.40598834E-02
  -9.56999969       6.56241626E-02
  -9.56000042       6.71674907E-02
  -9.55000019       6.86856508E-02
  -9.53999996       7.01748356E-02
  -9.52999973       7.16317222E-02
  -9.52000046       7.30530471E-02
  -9.51000023       7.44350851E-02
  -9.50000000       7.57739618E-02
  -9.48999977       7.70650953E-02
  -9.47999954       7.83034414E-02
  -9.47000027       7.94843510E-02
  -9.46000004       8.06033164E-02
  -9.44999981       8.16571265E-02
  -9.43999958       8.26437771E-02
  -9.43000031       8.35627168E-02
  -9.42000008       8.44143331E-02
  -9.40999985       8.51995572E-02
  -9.39999962       8.59198794E-02
  -9.39000034       8.65763351E-02
  -9.38000011       8.71698633E-02
  -9.36999989       8.77014920E-02
  -9.35999966       8.81727859E-02
  -9.35000038       8.85864720E-02
  -9.34000015       8.89468417E-02
  -9.32999992       8.92603248E-02
  -9.31999969       8.95351321E-02
  -9.31000042       8.97811353E-02
  -9.30000019       9.00091380E-02
  -9.28999996       9.02303532E-02
  -9.27999973       9.04560313E-02
  -9.27000046       9.06967968E-02
  -9.26000023       9.09631625E-02
  -9.25000000       9.12654102E-02
  -9.23999977       9.16135013E-02
  -9.22999954       9.20175537E-02
  -9.22000027       9.24875066E-02
  -9.21000004       9.30327252E-02
  -9.19999981       9.36614200E-02
  -9.18999958       9.43805203E-02
  -9.18000031       9.51951444E-02
  -9.17000008       9.61087719E-02
  -9.15999985       9.71236154E-02
  -9.14999962       9.82412323E-02
  -9.14000034       9.94630009E-02
  -9.13000011      0.100790113    
  -9.11999989      0.102224298    
  -9.10999966      0.103766464    
  -9.10000038      0.105416849    
  -9.09000015      0.107173927    
  -9.07999992      0.109034218    
  -9.06999969      0.110991873    
  -9.06000042      0.113039203    
  -9.05000019      0.115167253    
  -9.03999996      0.117366269    
  -9.02999973      0.119626917    
  -9.02000046      0.121939741    
  -9.01000023      0.124295853    
  -9.00000000      0.126686394    
  -8.98999977      0.129101649    
  -8.97999954      0.131530672    
  -8.97000027      0.133961409    
  -8.96000004      0.136380956    
  -8.94999981      0.138775498    
  -8.93999958      0.141132072    
  -8.93000031      0.143438131    
  -8.92000008      0.145682886    
  -8.90999985      0.147857249    
  -8.89999962      0.149953187    
  -8.89000034      0.151963383    
  -8.88000011      0.153880581    
  -8.86999989      0.155697271    
  -8.85999966      0.157406420    
  -8.85000038      0.159000322    
  -8.84000015      0.160472333    
  -8.82999992      0.161816925    
  -8.81999969      0.163030207    
  -8.81000042      0.164109796    
  -8.80000019      0.165054798    
  -8.78999996      0.165865764    
  -8.77999973      0.166543379    
  -8.77000046      0.167088732    
  -8.76000023      0.167503655    
  -8.75000000      0.167790309    
  -8.73999977      0.167951763    
  -8.72999954      0.167992085    
  -8.72000027      0.167916447    
  -8.71000004      0.167730972    
  -8.69999981      0.167442858    
  -8.68999958      0.167058989    
  -8.68000031      0.166586980    
  -8.67000008      0.166034445    
  -8.65999985      0.165409833    
  -8.64999962      0.164722845    
  -8.64000034      0.163984433    
  -8.63000011      0.163207889    
  -8.61999989      0.162408158    
  -8.60999966      0.161600485    
  -8.60000038      0.160800442    
  -8.59000015      0.160022542    
  -8.57999992      0.159278855    
  -8.56999969      0.158580258    
  -8.56000042      0.157935709    
  -8.55000019      0.157352746    
  -8.53999996      0.156839713    
  -8.52999973      0.156405270    
  -8.52000046      0.156058848    
  -8.51000023      0.155810311    
  -8.50000000      0.155669093    
  -8.48999977      0.155642971    
  -8.47999954      0.155737758    
  -8.47000027      0.155956596    
  -8.46000004      0.156300426    
  -8.44999981      0.156769380    
  -8.43999958      0.157363430    
  -8.43000031      0.158082992    
  -8.42000008      0.158930436    
  -8.40999985      0.159908548    
  -8.39999962      0.161020309    
  -8.39000034      0.162266895    
  -8.38000011      0.163646922    
  -8.36999989      0.165155441    
  -8.35999966      0.166784316    
  -8.35000038      0.168522850    
  -8.34000015      0.170359090    
  -8.32999992      0.172281742    
  -8.31999969      0.174280629    
  -8.31000042      0.176347643    
  -8.30000019      0.178475648    
  -8.28999996      0.180659443    
  -8.27999973      0.182892829    
  -8.27000046      0.185168818    
  -8.26000023      0.187479526    
  -8.25000000      0.189815119    
  -8.23999977      0.192166671    
  -8.22999954      0.194525287    
  -8.22000027      0.196884394    
  -8.21000004      0.199239746    
  -8.19999981      0.201589227    
  -8.18999958      0.203933135    
  -8.18000031      0.206272840    
  -8.17000008      0.208610371    
  -8.15999985      0.210947618    
  -8.14999962      0.213286892    
  -8.14000034      0.215629607    
  -8.13000011      0.217979357    
  -8.11999989      0.220339417    
  -8.10999966      0.222714886    
  -8.10000038      0.225112990    
  -8.09000015      0.227541164    
  -8.07999992      0.230007857    
  -8.06999969      0.232521832    
  -8.06000042      0.235091195    
  -8.05000019      0.237722859    
  -8.03999996      0.240424022    
  -8.02999973      0.243200347    
  -8.02000046      0.246056572    
  -8.01000023      0.248997658    
  -8.00000000      0.252027899    
  -7.98999977      0.255151004    
  -7.98000002      0.258371711    
  -7.96999979      0.261694014    
  -7.96000004      0.265122801    
  -7.94999981      0.268661350    
  -7.94000006      0.272313952    
  -7.92999983      0.276083410    
  -7.92000008      0.279969692    
  -7.90999985      0.283972293    
  -7.90000010      0.288087547    
  -7.88999987      0.292310655    
  -7.88000011      0.296635300    
  -7.86999989      0.301055193    
  -7.86000013      0.305564523    
  -7.84999990      0.310158521    
  -7.84000015      0.314833134    
  -7.82999992      0.319586933    
  -7.82000017      0.324416757    
  -7.80999994      0.329319090    
  -7.80000019      0.334288448    
  -7.78999996      0.339319021    
  -7.78000021      0.344401866    
  -7.76999998      0.349530429    
  -7.76000023      0.354697317    
  -7.75000000      0.359899223    
  -7.73999977      0.365134776    
  -7.73000002      0.370405108    
  -7.71999979      0.375711352    
  -7.71000004      0.381055892    
  -7.69999981      0.386436939    
  -7.69000006      0.391851991    
  -7.67999983      0.397294968    
  -7.67000008      0.402757674    
  -7.65999985      0.408233225    
  -7.65000010      0.413715601    
  -7.63999987      0.419202358    
  -7.63000011      0.424693823    
  -7.61999989      0.430192322    
  -7.61000013      0.435701936    
  -7.59999990      0.441224605    
  -7.59000015      0.446761489    
  -7.57999992      0.452310264    
  -7.57000017      0.457867235    
  -7.55999994      0.463427335    
  -7.55000019      0.468987972    
  -7.53999996      0.474547654    
  -7.53000021      0.480108321    
  -7.51999998      0.485674411    
  -7.51000023      0.491252899    
  -7.50000000      0.496850163    
  -7.48999977      0.502469122    
  -7.48000002      0.508113623    
  -7.46999979      0.513783395    
  -7.46000004      0.519476891    
  -7.44999981      0.525195599    
  -7.44000006      0.530939698    