  -16.0000000       0.00000000    
  -15.9899998       0.00000000    
  -15.9799995       0.00000000    
  -15.9700003       0.00000000    
  -15.9600000       0.00000000    
  -15.9499998       0.00000000    
  -15.9399996       0.00000000    
  -15.9300003       0.00000000    
  -15.9200001       0.00000000    
  -15.9099998       0.00000000    
  -15.8999996       0.00000000    
  -15.8900003       0.00000000    
  -15.8800001       0.00000000    
  -15.8699999       0.00000000    
  -15.8599997      -1.40129846E-45
  -15.8500004      -2.52233724E-44
  -15.8400002      -2.67648007E-43
  -15.8299999      -2.17341392E-42
  -15.8199997      -1.42610145E-41
  -15.8100004      -7.84418854E-41
  -15.8000002      -3.71104471E-40
  -15.7900000      -1.53830762E-39
  -15.7799997      -5.66358737E-39
  -15.7700005      -1.87054736E-38
  -15.7600002      -5.58141494E-38
  -15.7500000      -1.51133918E-37
  -15.7399998      -3.72069091E-37
  -15.7299995      -8.31707364E-37
  -15.7200003      -1.67842032E-36
  -15.7100000      -3.01680430E-36
  -15.6999998      -4.68590619E-36
  -15.6899996      -5.81464121E-36
  -15.6800003      -4.14225978E-36
  -15.6700001       4.69732142E-36
  -15.6599998       2.73336530E-35
  -15.6499996       7.11686180E-35
  -15.6400003       1.39865047E-34
  -15.6300001       2.24996162E-34
  -15.6199999       2.95156093E-34
  -15.6099997       2.87822478E-34
  -15.6000004       1.14073955E-34
  -15.5900002      -3.11364484E-34
  -15.5799999      -1.00767536E-33
  -15.5699997      -1.84428011E-33
  -15.5600004      -2.47792758E-33
  -15.5500002      -2.38375781E-33
  -15.5400000      -1.05792572E-33
  -15.5299997       1.58888578E-33
  -15.5200005       4.77036179E-33
  -15.5100002       6.61801336E-33
  -15.5000000       4.69591259E-33
  -15.4899998      -2.39476485E-33
  -15.4799995      -1.24832651E-32
  -15.4700003      -1.75229841E-32
  -15.4600000      -3.79194090E-33
  -15.4499998       4.26464355E-32
  -15.4399996       1.23729749E-31
  -15.4300003       2.12738170E-31
  -15.4200001       2.41466429E-31
  -15.4099998       1.05251695E-31
  -15.3999996      -2.99071953E-31
  -15.3900003      -9.96045640E-31
  -15.3800001      -1.83047247E-30
  -15.3699999      -2.38788738E-30
  -15.3599997      -2.00875264E-30
  -15.3500004       2.91517251E-32
  -15.3400002       4.12784189E-30
  -15.3299999       9.84748444E-30
  -15.3199997       1.54343213E-29
  -15.3100004       1.76947281E-29
  -15.3000002       1.25312949E-29
  -15.2900000      -3.67354962E-30
  -15.2799997      -3.19323037E-29
  -15.2700005      -6.82796693E-29
  -15.2600002      -1.02000115E-28
  -15.2500000      -1.15480794E-28
  -15.2399998      -8.66362372E-29
  -15.2299995       5.44890156E-30
  -15.2200003       1.71444225E-28
  -15.2100000       3.99633160E-28
  -15.1999998       6.42118718E-28
  -15.1899996       8.02927609E-28
  -15.1800003       7.35356453E-28
  -15.1700001       2.60852911E-28
  -15.1599998      -7.74813076E-28
  -15.1499996      -2.39585358E-27
  -15.1400003      -4.34655387E-27
  -15.1300001      -5.93870783E-27
  -15.1199999      -5.98867685E-27
  -15.1099997      -2.98166138E-27
  -15.1000004       4.39702517E-27
  -15.0900002       1.63116945E-26
  -15.0799999       3.05653957E-26
  -15.0699997       4.16033840E-26
  -15.0600004       4.05277567E-26
  -15.0500002       1.70506353E-26
  -15.0400000      -3.59978709E-26
  -15.0299997      -1.15941636E-25
  -15.0200005      -2.03218039E-25
  -15.0100002      -2.57723126E-25
  -15.0000000      -2.23396435E-25
  -14.9899998      -4.52484976E-26
  -14.9799995       3.00464374E-25
  -14.9700003       7.68824085E-25
  -14.9600000       1.21596410E-24
  -14.9499998       1.39735665E-24
  -14.9399996       1.01706150E-24
  -14.9300003      -1.59866003E-25
  -14.9200001      -2.14336999E-24
  -14.9099998      -4.54904648E-24
  -14.8999996      -6.50492651E-24
  -14.8900003      -6.73412216E-24
  -14.8800001      -3.89394207E-24
  -14.8699999       2.81967010E-24
  -14.8599997       1.29169347E-23
  -14.8500004       2.39711700E-23
  -14.8400002       3.14676710E-23
  -14.8299999       2.95350343E-23
  -14.8199997       1.27819196E-23
  -14.8100004      -2.09122324E-23
  -14.8000002      -6.73393757E-23
  -14.7900000      -1.13867717E-22
  -14.7799997      -1.39845954E-22
  -14.7700005      -1.20840642E-22
  -14.7600002      -3.71170542E-23
  -14.7500000       1.14865027E-22
  -14.7399998       3.11208985E-22
  -14.7299995       4.94628359E-22
  -14.7200003       5.79397458E-22
  -14.7100000       4.71292212E-22
  -14.6999998       1.02498774E-22
  -14.6899996      -5.24894314E-22
  -14.6800003      -1.30030662E-21
  -14.6700001      -1.98975429E-21
  -14.6599998      -2.26365770E-21
  -14.6499996      -1.77894339E-21
  -14.6400003      -3.10891168E-22
  -14.6300001       2.09248846E-21
  -14.6199999       4.98403582E-21
  -14.6099997       7.48425183E-21
  -14.6000004       8.40270827E-21
  -14.5900002       6.54497289E-21
  -14.5799999       1.17814743E-21
  -14.5699997      -7.44787688E-21
  -14.5600004      -1.76990850E-20
  -14.5500002      -2.64911829E-20
  -14.5400000      -2.97487591E-20
  -14.5299997      -2.34691335E-20
  -14.5200005      -5.27581611E-21
  -14.5100002       2.38950216E-20
  -14.5000000       5.85514433E-20
  -14.4899998       8.85237576E-20
  -14.4799995       1.00532934E-19
  -14.4700003       8.16472372E-20
  -14.4600000       2.42073502E-20
  -14.4499998      -6.89361853E-20
  -14.4399996      -1.80663419E-19
  -14.4300003      -2.79346079E-19
  -14.4200001      -3.23778758E-19
  -14.4099998      -2.73755501E-19
  -14.3999996      -1.04915834E-19
  -14.3900003       1.75656689E-19
  -14.3800001       5.18369998E-19
  -14.3699999       8.30470982E-19
  -14.3599997       9.90400305E-19
  -14.3500004       8.78289931E-19
  -14.3400002       4.18455705E-19
  -14.3299999      -3.76184630E-19
  -14.3199997      -1.37255599E-18
  -14.3100004      -2.31484447E-18
  -14.3000002      -2.86321373E-18
  -14.2900000      -2.67650996E-18
  -14.2799997      -1.52742529E-18
  -14.2700005       5.76955272E-19
  -14.2600002       3.30833595E-18
  -14.2500000       6.00614271E-18
  -14.2399998       7.77380204E-18
  -14.2299995       7.68897384E-18
  -14.2200003       5.09817757E-18
  -14.2100000      -7.25162683E-20
  -14.1999998      -7.08820828E-18
  -14.1899996      -1.43612716E-17
  -14.1800003      -1.96703963E-17
  -14.1700001      -2.06594066E-17
  -14.1599998      -1.55462210E-17
  -14.1499996      -3.88067524E-18
  -14.1400003       1.28774527E-17
  -14.1300001       3.12034530E-17
  -14.1199999       4.59578604E-17
  -14.1099997       5.14859448E-17
  -14.1000004       4.32159849E-17
  -14.0900002       1.94019696E-17
  -14.0799999      -1.74932983E-17
  -14.0699997      -6.03118031E-17
  -14.0600004      -9.80188644E-17
  -14.0500002      -1.17941079E-16
  -14.0400000      -1.09129025E-16
  -14.0299997      -6.61198352E-17
  -14.0200005       7.94057902E-18
  -14.0100002       9.99335030E-17
  -14.0000000       1.88030157E-16
  -13.9899998       2.45870795E-16
  -13.9799995       2.49137563E-16
  -13.9700003       1.83151075E-16
  -13.9600000       4.94813751E-17
  -13.9499998      -1.30614254E-16
  -13.9399996      -3.17675260E-16
  -13.9300003      -4.61131936E-16
  -13.9200001      -5.11194919E-16
  -13.9099998      -4.33138980E-16
  -13.8999996      -2.20366606E-16
  -13.8900003       9.77668258E-17
  -13.8800001       4.56689513E-16
  -13.8699999       7.67429956E-16
  -13.8599997       9.36432934E-16
  -13.8500004       8.90503313E-16
  -13.8400002       6.00813175E-16
  -13.8299999       9.90572474E-17
  -13.8199997      -5.20186385E-16
  -13.8100004      -1.11399793E-15
  -13.8000002      -1.52144376E-15
  -13.7900000      -1.60397049E-15
  -13.7799997      -1.28639645E-15
  -13.7700005      -5.87330475E-16
  -13.7600002       3.70989896E-16
  -13.7500000       1.37930877E-15
  -13.7399998       2.18388620E-15
  -13.7299995       2.54726291E-15
  -13.7200003       2.31344561E-15
  -13.7100000       1.46055416E-15
  -13.6999998       1.25039361E-16
  -13.6899996      -1.41290030E-15
  -13.6800003      -2.78396246E-15
  -13.6700001      -3.61508791E-15
  -13.6599998      -3.62672318E-15
  -13.6499996      -2.71764105E-15
  -13.6400003      -1.01329969E-15
  -13.6300001       1.13954932E-15
  -13.6199999       3.23702577E-15
  -13.6099997       4.73115504E-15
  -13.6000004       5.16777469E-15
  -13.5900002       4.31596575E-15
  -13.5799999       2.25407135E-15
  -13.5699997      -6.15243599E-16
  -13.5600004      -3.63293871E-15
  -13.5500002      -6.02629171E-15
  -13.5400000      -7.09760416E-15
  -13.5299997      -6.41501123E-15
  -13.5200005      -3.95594329E-15
  -13.5100002      -1.60545090E-16
  -13.5000000       4.12912553E-15
  -13.4899998       7.84147951E-15
  -13.4799995       9.92758867E-15
  -13.4700003       9.63715971E-15
  -13.4600000       6.74969343E-15
  -13.4499998       1.69589009E-15
  -13.4399996      -4.47496019E-15
  -13.4300003      -1.02914478E-14
  -13.4200001      -1.41892156E-14
  -13.4099998      -1.49039818E-14
  -13.3999996      -1.18350552E-14
  -13.3900003      -5.28235369E-15
  -13.3800001       3.51907228E-15
  -13.3699999       1.26002580E-14
  -13.3599997       1.96721539E-14
  -13.3500004       2.26716720E-14
  -13.3400002       2.03162377E-14
  -13.3299999       1.25261384E-14
  -13.3199997       5.90978275E-16
  -13.3100004      -1.29925621E-14
  -13.3000002      -2.50091662E-14
  -13.2900000      -3.22535103E-14
  -13.2799997      -3.23416763E-14
  -13.2700005      -2.44086486E-14
  -13.2600002      -9.50171406E-15
  -13.2500000       9.46469364E-15
  -13.2399998       2.82306036E-14
  -13.2299995       4.21096839E-14
  -13.2200003       4.71174511E-14
  -13.2100000       4.10462137E-14
  -13.1999998       2.42095840E-14
  -13.1899996      -3.66297201E-16
  -13.1800003      -2.74118361E-14
  -13.1700001      -5.04943004E-14
  -13.1599998      -6.35014908E-14
  -13.1499996      -6.21976903E-14
  -13.1400003      -4.54690200E-14
  -13.1300001      -1.59151545E-14
  -13.1199999       2.04262537E-14
  -13.1099997       5.52395450E-14
  -13.1000004       7.97731293E-14
  -13.0900002       8.69712763E-14
  -13.0799999       7.33926740E-14
  -13.0699997       4.04175933E-14
  -13.0600004      -5.62556381E-15
  -13.0500002      -5.45499044E-14
  -13.0400000      -9.44628829E-14
  -13.0299997      -1.14551516E-13
  -13.0200005      -1.07871001E-13
  -13.0100002      -7.34473246E-14
  -13.0000000      -1.71083698E-14
  -12.9899998       4.92838226E-14
  -12.9799995       1.10164882E-13
  -12.9700003       1.49740219E-13
  -12.9600000       1.55854306E-13
  -12.9499998       1.23345629E-13
  -12.9399996       5.60164132E-14
  -12.9300003      -3.33968388E-14
  -12.9200001      -1.25433951E-13
  -12.9099998      -1.97969110E-13
  -12.8999996      -2.31301279E-13
  -12.8900003      -2.13135675E-13
  -12.8800001      -1.42238231E-13
  -12.8699999      -2.97613666E-14
  -12.8599997       1.02285984E-13
  -12.8500004       2.25299868E-13
  -12.8400002       3.10278441E-13
  -12.8299999       3.34622548E-13
  -12.8199997       2.87952930E-13
  -12.8100004       1.75468133E-13
  -12.8000002       1.78495829E-14
  -12.7900000      -1.52520086E-13
  -12.7799997      -2.98382521E-13
  -12.7700005      -3.86046772E-13
  -12.7600002      -3.93530884E-13
  -12.7500000      -3.16425027E-13
  -12.7399998      -1.69918509E-13
  -12.7299995       1.37390396E-14
  -12.7200003       1.92010931E-13
  -12.7100000       3.21706149E-13
  -12.6999998       3.69321327E-13
  -12.6899996       3.19644430E-13
  -12.6800003       1.80457008E-13
  -12.6700001      -1.80088725E-14
  -12.6599998      -2.29007405E-13
  -12.6499996      -3.99470685E-13
  -12.6400003      -4.82237297E-13
  -12.6300001      -4.47510762E-13
  -12.6199999      -2.90795166E-13
  -12.6099997      -3.52797625E-14
  -12.6000004       2.72108941E-13
  -12.5900002       5.70300263E-13
  -12.5799999       7.97250232E-13
  -12.5699997       9.03706797E-13
  -12.5600004       8.64340717E-13
  -12.5500002       6.83540897E-13
  -12.5400000       3.94370300E-13
  -12.5299997       5.07679734E-14
  -12.5200005      -2.85277363E-13
  -12.5100002      -5.58585296E-13
  -12.5000000      -7.34070899E-13
  -12.4899998      -8.05096278E-13
  -12.4799995      -7.94580927E-13
  -12.4700003      -7.48218273E-13
  -12.4600000      -7.21036349E-13
  -12.4499998      -7.60221313E-13
  -12.4399996      -8.88202977E-13
  -12.4300003      -1.09019152E-12
  -12.4200001      -1.30957419E-12
  -12.4099998      -1.45297565E-12
  -12.3999996      -1.40465699E-12
  -12.3900003      -1.04778220E-12
  -12.3800001      -2.88376663E-13
  -12.3699999       9.23067720E-13
  -12.3599997       2.57712276E-12
  -12.3500004       4.60157043E-12
  -12.3400002       6.86948241E-12
  -12.3299999       9.21799963E-12
  -12.3199997       1.14742183E-11
  -12.3100004       1.34829110E-11
  -12.3000002       1.51302477E-11
  -12.2900000       1.63584059E-11
  -12.2799997       1.71678904E-11
  -12.2700005       1.76069211E-11
  -12.2600002       1.77503828E-11
  -12.2500000       1.76729516E-11
  -12.2399998       1.74227403E-11
  -12.2299995       1.70016883E-11
  -12.2200003       1.63575421E-11
  -12.2100000       1.53897901E-11
  -12.1999998       1.39687550E-11
  -12.1899996       1.19637720E-11
  -12.1800003       9.27421508E-12
  -12.1700001       5.85634536E-12
  -12.1599998       1.73945255E-12
  -12.1499996      -2.97289623E-12
  -12.1400003      -8.11729416E-12
  -12.1300001      -1.34978174E-11
  -12.1199999      -1.89205630E-11
  -12.1099997      -2.42272834E-11
  -12.1000004      -2.93207264E-11
  -12.0900002      -3.41755027E-11
  -12.0799999      -3.88313687E-11
  -12.0699997      -4.33704288E-11
  -12.0600004      -4.78829129E-11
  -12.0500002      -5.24294323E-11
  -12.0400000      -5.70085298E-11
  -12.0299997      -6.15372614E-11
  -12.0200005      -6.58500199E-11
  -12.0100002      -6.97164410E-11
  -12.0000000      -7.28751781E-11
  -11.9899998      -7.50764798E-11
  -11.9799995      -7.61243499E-11
  -11.9700003      -7.59092650E-11
  -11.9600000      -7.44240780E-11
  -11.9499998      -7.17596538E-11
  -11.9399996      -6.80812212E-11
  -11.9300003      -6.35905148E-11
  -11.9200001      -5.84821427E-11
  -11.9099998      -5.29034941E-11
  -11.8999996      -4.69268582E-11
  -11.8900003      -4.05394433E-11
  -11.8800001      -3.36532156E-11
  -11.8699999      -2.61314529E-11
  -11.8599997      -1.78264764E-11
  -11.8500004      -8.61953998E-12
  -11.8400002       1.54539662E-12
  -11.8299999       1.26412691E-11
  -11.8199997       2.45544973E-11
  -11.8100004       3.70988240E-11
  -11.8000002       5.00426645E-11
  -11.7900000       6.31433447E-11
  -11.7799997       7.61814292E-11
  -11.7700005       8.89870608E-11
  -11.7600002       1.01453838E-10
  -11.7500000       1.13537547E-10
  -11.7399998       1.25241595E-10
  -11.7299995       1.36592293E-10
  -11.7200003       1.47610105E-10
  -11.7100000       1.58283137E-10
  -11.6999998       1.68547815E-10
  -11.6899996       1.78281626E-10
  -11.6800003       1.87307170E-10
  -11.6700001       1.95407704E-10
  -11.6599998       2.02349748E-10
  -11.6499996       2.07908940E-10
  -11.6400003       2.11893503E-10
  -11.6300001       2.14161591E-10
  -11.6199999       2.14630202E-10
  -11.6099997       2.13273857E-10
  -11.6000004       2.10115120E-10
  -11.5900002       2.05208489E-10
  -11.5799999       1.98621578E-10
  -11.5699997       1.90416155E-10
  -11.5600004       1.80634202E-10
  -11.5500002       1.69288764E-10
  -11.5400000       1.56363256E-10
  -11.5299997       1.41816975E-10
  -11.5200005       1.25597421E-10
  -11.5100002       1.07655544E-10
  -11.5000000       8.79626164E-11
  -11.4899998       6.65246608E-11
  -11.4799995       4.33911899E-11
  -11.4700003       1.86593414E-11
  -11.4600000      -7.53076507E-12
  -11.4499998      -3.50081700E-11
  -11.4399996      -6.35866429E-11
  -11.4300003      -9.30836519E-11
  -11.4200001      -1.23337354E-10
  -11.4099998      -1.54219928E-10
  -11.3999996      -1.85643501E-10
  -11.3900003      -2.17557750E-10
  -11.3800001      -2.49940457E-10
  -11.3699999      -2.82781826E-10
  -11.3599997      -3.16067644E-10
  -11.3500004      -3.49762996E-10
  -11.3400002      -3.83803073E-10
  -11.3299999      -4.18089813E-10
  -11.3199997      -4.52496873E-10
  -11.3100004      -4.86882978E-10
  -11.3000002      -5.21107879E-10
  -11.2900000      -5.55048396E-10
  -11.2799997      -5.88611937E-10
  -11.2700005      -6.21743101E-10
  -11.2600002      -6.54422405E-10
  -11.2500000      -6.86657731E-10
  -11.2399998      -7.18471171E-10
  -11.2299995      -7.49881823E-10
  -11.2200003      -7.80891574E-10
  -11.2100000      -8.11472667E-10
  -11.1999998      -8.41562153E-10
  -11.1899996      -8.71060835E-10
  -11.1800003      -8.99838537E-10
  -11.1700001      -9.27743937E-10
  -11.1599998      -9.54614943E-10
  -11.1499996      -9.80292736E-10
  -11.1400003      -1.00463282E-09
  -11.1300001      -1.02751729E-09
  -11.1199999      -1.04886355E-09
  -11.1099997      -1.06863063E-09
  -11.1000004      -1.08682274E-09
  -11.0900002      -1.10348841E-09
  -11.0799999      -1.11871534E-09
  -11.0699997      -1.13262277E-09
  -11.0600004      -1.14534693E-09
  -11.0500002      -1.15702958E-09
  -11.0400000      -1.16780230E-09
  -11.0299997      -1.17777743E-09
  -11.0200005      -1.18704491E-09
  -11.0100002      -1.19567012E-09
  -11.0000000      -1.20370358E-09
  -10.9899998      -1.21119437E-09
  -10.9799995      -1.21819255E-09
  -10.9700003      -1.22476917E-09
  -10.9600000      -1.23101584E-09
  -10.9499998      -1.23703814E-09
  -10.9399996      -1.24294475E-09
  -10.9300003      -1.24882849E-09
  -10.9200001      -1.25474620E-09
  -10.9099998      -1.26069610E-09
  -10.8999996      -1.26660393E-09
  -10.8900003      -1.27232413E-09
  -10.8800001      -1.27763999E-09
  -10.8699999      -1.28229571E-09
  -10.8599997      -1.28601718E-09
  -10.8500004      -1.28854283E-09
  -10.8400002      -1.28965927E-09
  -10.8299999      -1.28920197E-09
  -10.8199997      -1.28708155E-09
  -10.8100004      -1.28327093E-09
  -10.8000002      -1.27777700E-09
  -10.7900000      -1.27063871E-09
  -10.7799997      -1.26189414E-09
  -10.7700005      -1.25155952E-09
  -10.7600002      -1.23964505E-09
  -10.7500000      -1.22614596E-09
  -10.7399998      -1.21106658E-09
  -10.7299995      -1.19444887E-09
  -10.7200003      -1.17636956E-09
  -10.7100000      -1.15697385E-09
  -10.6999998      -1.13644649E-09
  -10.6899996      -1.11500620E-09
  -10.6800003      -1.09287246E-09
  -10.6700001      -1.07023401E-09
  -10.6599998      -1.04721698E-09
  -10.6499996      -1.02388653E-09
  -10.6400003      -1.00023800E-09
  -10.6300001      -9.76219439E-10
  -10.6199999      -9.51758894E-10
  -10.6099997      -9.26804855E-10
  -10.6000004      -9.01336561E-10
  -10.5900002      -8.75411188E-10
  -10.5799999      -8.49116666E-10
  -10.5699997      -8.22595880E-10
  -10.5600004      -7.96005040E-10
  -10.5500002      -7.69495856E-10
  -10.5400000      -7.43205331E-10
  -10.5299997      -7.17231108E-10
  -10.5200005      -6.91652347E-10
  -10.5100002      -6.66532274E-10
  -10.5000000      -6.41924292E-10
  -10.4899998      -6.17912610E-10
  -10.4799995      -5.94567229E-10
  -10.4700003      -5.71967362E-10
  -10.4600000      -5.50190338E-10
  -10.4499998      -5.29290278E-10
  -10.4399996      -5.09289722E-10
  -10.4300003      -4.90201379E-10
  -10.4200001      -4.72060224E-10
  -10.4099998      -4.54917493E-10
  -10.3999996      -4.38870440E-10
  -10.3900003      -4.24099172E-10
  -10.3800001      -4.10815992E-10
  -10.3699999      -3.99272809E-10
  -10.3599997      -3.89715926E-10
  -10.3500004      -3.82324006E-10
  -10.3400002      -3.77185339E-10
  -10.3299999      -3.74275416E-10
  -10.3199997      -3.73459264E-10
  -10.3100004      -3.74509396E-10
  -10.3000002      -3.77176734E-10
  -10.2900000      -3.81225218E-10
  -10.2799997      -3.86487342E-10
  -10.2700005      -3.92900990E-10
  -10.2600002      -4.00509681E-10
  -10.2500000      -4.09428630E-10
  -10.2399998      -4.19805829E-10
  -10.2299995      -4.31796071E-10
  -10.2200003      -4.45492504E-10
  -10.2100000      -4.60891658E-10
  -10.1999998      -4.77902384E-10
  -10.1899996      -4.96369779E-10
  -10.1800003      -5.16059917E-10
  -10.1700001      -5.36730771E-10
  -10.1599998      -5.58147084E-10
  -10.1499996      -5.80126502E-10
  -10.1400003      -6.02518924E-10
  -10.1300001      -6.25241692E-10
  -10.1199999      -6.48258780E-10
  -10.1099997      -6.71576628E-10
  -10.1000004      -6.95241975E-10
  -10.0900002      -7.19311666E-10
  -10.0799999      -7.43888506E-10
  -10.0699997      -7.69117381E-10
  -10.0600004      -7.95194466E-10
  -10.0500002      -8.22347523E-10
  -10.0400000      -8.50875814E-10
  -10.0299997      -8.81118067E-10
  -10.0200005      -9.13441489E-10
  -10.0100002      -9.48212842E-10
  -10.0000000      -9.85786230E-10
  -9.98999977      -1.02647191E-09
  -9.97999954      -1.07048703E-09
  -9.97000027      -1.11795706E-09
  -9.96000004      -1.16887944E-09
  -9.94999981      -1.22314647E-09
  -9.93999958      -1.28051414E-09
  -9.93000031      -1.34065825E-09
  -9.92000008      -1.40319079E-09
  -9.90999985      -1.46770907E-09
  -9.89999962      -1.53383284E-09
  -9.89000034      -1.60126756E-09
  -9.88000011      -1.66979830E-09
  -9.86999989      -1.73935266E-09
  -9.85999966      -1.80997339E-09
  -9.85000038      -1.88181626E-09
  -9.84000015      -1.95511829E-09
  -9.82999992      -2.03015271E-09
  -9.81999969      -2.10718820E-09
  -9.81000042      -2.18646723E-09
  -9.80000019      -2.26811681E-09
  -9.78999996      -2.35217645E-09
  -9.77999973      -2.43859155E-09
  -9.77000046      -2.52722332E-09
  -9.76000023      -2.61787703E-09
  -9.75000000      -2.71035572E-09
  -9.73999977      -2.80448664E-09
  -9.72999954      -2.90019186E-09
  -9.72000027      -2.99749536E-09
  -9.71000004      -3.09651282E-09
  -9.69999981      -3.19745963E-09
  -9.68999958      -3.30058270E-09
  -9.68000031      -3.40613582E-09
  -9.67000008      -3.51430263E-09
  -9.65999985      -3.62515662E-09
  -9.64999962      -3.73859965E-09
  -9.64000034      -3.85438614E-09
  -9.63000011      -3.97211997E-09
  -9.61999989      -4.09128598E-09
  -9.60999966      -4.21129620E-09
  -9.60000038      -4.33154312E-09
  -9.59000015      -4.45141746E-09
  -9.57999992      -4.57036409E-09
  -9.56999969      -4.68787986E-09
  -9.56000042      -4.80353224E-09
  -9.55000019      -4.91694019E-09
  -9.53999996      -5.02778175E-09
  -9.52999973      -5.13577270E-09
  -9.52000046      -5.24067456E-09
  -9.51000023      -5.34231415E-09
  -9.50000000      -5.44055156E-09
  -9.48999977      -5.53531532E-09
  -9.47999954      -5.62658409E-09
  -9.47000027      -5.71433656E-09
  -9.46000004      -5.79857051E-09
  -9.44999981      -5.87930105E-09
  -9.43999958      -5.95647043E-09
  -9.43000031      -6.03001338E-09
  -9.42000008      -6.09982642E-09
  -9.40999985      -6.16581008E-09
  -9.39999962      -6.22779650E-09
  -9.39000034      -6.28569419E-09
  -9.38000011      -6.33945474E-09
  -9.36999989      -6.38909148E-09
  -9.35999966      -6.43473497E-09
  -9.35000038      -6.47664056E-09
  -9.34000015      -6.51524834E-09
  -9.32999992      -6.55110988E-09
  -9.31999969      -6.58498678E-09
  -9.31000042      -6.61779342E-09
  -9.30000019      -6.65060451E-09
  -9.28999996      -6.68456668E-09
  -9.27999973      -6.72089762E-09
  -9.27000046      -6.76081635E-09
  -9.26000023      -6.80544510E-09
  -9.25000000      -6.85582746E-09
  -9.23999977      -6.91281743E-09
  -9.22999954      -6.97709179E-09
  -9.22000027      -7.04920167E-09
  -9.21000004      -7.12951875E-09
  -9.19999981      -7.21829396E-09
  -9.18999958      -7.31570449E-09
  -9.18000031      -7.42186268E-09
  -9.17000008      -7.53688933E-09
  -9.15999985      -7.66085417E-09
  -9.14999962      -7.79390863E-09
  -9.14000034      -7.93613175E-09
  -9.13000011      -8.08763012E-09
  -9.11999989      -8.24840374E-09
  -9.10999966      -8.41841175E-09
  -9.10000038      -8.59753158E-09
  -9.09000015      -8.78546480E-09
  -9.07999992      -8.98178865E-09
  -9.06999969      -9.18586718E-09
  -9.06000042      -9.39691969E-09
  -9.05000019      -9.61399316E-09
  -9.03999996      -9.83601378E-09
  -9.02999973      -1.00617550E-08
  -9.02000046      -1.02899564E-08
  -9.01000023      -1.05193214E-08
  -9.00000000      -1.07485469E-08
  -8.98999977      -1.09763576E-08
  -8.97999954      -1.12015366E-08
  -8.97000027      -1.14229559E-08
  -8.96000004      -1.16395888E-08
  -8.94999981      -1.18504611E-08
  -8.93999958      -1.20547625E-08
  -8.93000031      -1.22517889E-08
  -8.92000008      -1.24408697E-08
  -8.90999985      -1.26213973E-08
  -8.89999962      -1.27927935E-08
  -8.89000034      -1.29544633E-08
  -8.88000011      -1.31059421E-08
  -8.86999989      -1.32466811E-08
  -8.85999966      -1.33762263E-08
  -8.85000038      -1.34942333E-08
  -8.84000015      -1.36005252E-08
  -8.82999992      -1.36950868E-08
  -8.81999969      -1.37780809E-08
  -8.81000042      -1.38497507E-08
  -8.80000019      -1.39104719E-08
  -8.78999996      -1.39605376E-08
  -8.77999973      -1.40002676E-08
  -8.77000046      -1.40297880E-08
  -8.76000023      -1.40491307E-08
  -8.75000000      -1.40582417E-08
  -8.73999977      -1.40570178E-08
  -8.72999954      -1.40453800E-08
  -8.72000027      -1.40233549E-08
  -8.71000004      -1.39911611E-08
  -8.69999981      -1.39491201E-08
  -8.68999958      -1.38978100E-08
  -8.68000031      -1.38378775E-08
  -8.67000008      -1.37701841E-08
  -8.65999985      -1.36955034E-08
  -8.64999962      -1.36147733E-08
  -8.64000034      -1.35289966E-08
  -8.63000011      -1.34392160E-08
  -8.61999989      -1.33465363E-08
  -8.60999966      -1.32521931E-08
  -8.60000038      -1.31573028E-08
  -8.59000015      -1.30631745E-08
  -8.57999992      -1.29708937E-08
  -8.56999969      -1.28814648E-08
  -8.56000042      -1.27957138E-08
  -8.55000019      -1.27143798E-08
  -8.53999996      -1.26379724E-08
  -8.52999973      -1.25670079E-08
  -8.52000046      -1.25019559E-08
  -8.51000023      -1.24431789E-08
  -8.50000000      -1.23911210E-08
  -8.48999977      -1.23462414E-08
  -8.47999954      -1.23088686E-08
  -8.47000027      -1.22791830E-08
  -8.46000004      -1.22573338E-08
  -8.44999981      -1.22431292E-08
  -8.43999958      -1.22364758E-08
  -8.43000031      -1.22369501E-08
  -8.42000008      -1.22442891E-08
  -8.40999985      -1.22580719E-08
  -8.39999962      -1.22779582E-08
  -8.39000034      -1.23034161E-08
  -8.38000011      -1.23339357E-08
  -8.36999989      -1.23688082E-08
  -8.35999966      -1.24071038E-08
  -8.35000038      -1.24476767E-08
  -8.34000015      -1.24893100E-08
  -8.32999992      -1.25306823E-08
  -8.31999969      -1.25706938E-08
  -8.31000042      -1.26083242E-08
  -8.30000019      -1.26428583E-08
  -8.28999996      -1.26738477E-08
  -8.27999973      -1.27011548E-08
  -8.27000046      -1.27247732E-08
  -8.26000023      -1.27448034E-08
  -8.25000000      -1.27612942E-08
  -8.23999977      -1.27744491E-08
  -8.22999954      -1.27842483E-08
  -8.22000027      -1.27907134E-08
  -8.21000004      -1.27941266E-08
  -8.19999981      -1.27945299E-08
  -8.18999958      -1.27924267E-08
  -8.18000031      -1.27883819E-08
  -8.17000008      -1.27830226E-08
  -8.15999985      -1.27769422E-08
  -8.14999962      -1.27708981E-08
  -8.14000034      -1.27653959E-08
  -8.13000011      -1.27610251E-08
  -8.11999989      -1.27584094E-08
  -8.10999966      -1.27582167E-08
  -8.10000038      -1.27612800E-08
  -8.09000015      -1.27686546E-08
  -8.07999992      -1.27813733E-08
  -8.06999969      -1.28007480E-08
  -8.06000042      -1.28278419E-08
  -8.05000019      -1.28637723E-08
  -8.03999996      -1.29092763E-08
  -8.02999973      -1.29651143E-08
  -8.02000046      -1.30315110E-08
  -8.01000023      -1.31086608E-08
  -8.00000000      -1.31968276E-08
  -7.98999977      -1.32959599E-08
  -7.98000002      -1.34062912E-08
  -7.96999979      -1.35279636E-08
  -7.96000004      -1.36612082E-08
  -7.94999981      -1.38062912E-08
  -7.94000006      -1.39634642E-08
  -7.92999983      -1.41330254E-08
  -7.92000008      -1.43151215E-08
  -7.90999985      -1.45100376E-08
  -7.90000010      -1.47180241E-08
  -7.88999987      -1.49393742E-08
  -7.88000011      -1.51745034E-08
  -7.86999989      -1.54236144E-08
  -7.86000013      -1.56867781E-08
  -7.84999990      -1.59639608E-08
  -7.84000015      -1.62549831E-08
  -7.82999992      -1.65590492E-08
  -7.82000017      -1.68757559E-08
  -7.80999994      -1.72042078E-08
  -7.80000019      -1.75436572E-08
  -7.78999996      -1.78934965E-08
  -7.78000021      -1.82530098E-08
  -7.76999998      -1.86216056E-08
  -7.76000023      -1.89987297E-08
  -7.75000000      -1.93838616E-08
  -7.73999977      -1.97763814E-08
  -7.73000002      -2.01755466E-08
  -7.71999979      -2.05808721E-08
  -7.71000004      -2.09918323E-08
  -7.69999981      -2.14079794E-08
  -7.69000006      -2.18294200E-08
  -7.67999983      -2.22560015E-08
  -7.67000008      -2.26876882E-08
  -7.65999985      -2.31247554E-08
  -7.65000010      -2.35668942E-08
  -7.63999987      -2.40140690E-08
  -7.63000011      -2.44658072E-08
  -7.61999989      -2.49217553E-08
  -7.61000013      -2.53817003E-08
  -7.59999990      -2.58454147E-08
  -7.59000015      -2.63128950E-08
  -7.57999992      -2.67845923E-08
  -7.57000017      -2.72605281E-08
  -7.55999994      -2.77409580E-08
  -7.55000019      -2.82259709E-08
  -7.53999996      -2.87151227E-08
  -7.53000021      -2.92080351E-08
  -7.51999998      -2.97039673E-08
  -7.51000023      -3.02023437E-08
  -7.50000000      -3.07029424E-08
  -7.48999977      -3.12059001E-08
  -7.48000002      -3.17114655E-08
  -7.46999979      -3.22205445E-08
  -7.46000004      -3.27338796E-08
  -7.44999981      -3.32525651E-08
  -7.44000006      -3.37767432E-08