  -16.0000000       0.00000000    
  -15.9899998       0.00000000    
  -15.9799995       0.00000000    
  -15.9700003       0.00000000    
  -15.9600000       0.00000000    
  -15.9499998       0.00000000    
  -15.9399996       0.00000000    
  -15.9300003       0.00000000    
  -15.9200001       0.00000000    
  -15.9099998       0.00000000    
  -15.8999996       0.00000000    
  -15.8900003       0.00000000    
  -15.8800001      -4.06376555E-43
  -15.8699999       3.35891242E-42
  -15.8599997       7.69648608E-39
  -15.8500004       2.12214725E-37
  -15.8400002       2.95112972E-36
  -15.8299999       2.75282439E-35
  -15.8199997       1.93769063E-34
  -15.8100004       1.09795130E-33
  -15.8000002       5.21500979E-33
  -15.7900000       2.13387622E-32
  -15.7799997       7.66740464E-32
  -15.7700005       2.45226788E-31
  -15.7600002       7.04574481E-31
  -15.7500000       1.82851513E-30
  -15.7399998       4.29354710E-30
  -15.7299995       9.09528993E-30
  -15.7200003       1.72113242E-29
  -15.7100000       2.84251461E-29
  -15.6999998       3.86763777E-29
  -15.6899996       3.55633376E-29
  -15.6800003      -7.14837637E-30
  -15.6700001      -1.32444806E-28
  -15.6599998      -3.92817414E-28
  -15.6499996      -8.21896285E-28
  -15.6400003      -1.37584545E-27
  -15.6300001      -1.84903912E-27
  -15.6199999      -1.79838177E-27
  -15.6099997      -5.51811959E-28
  -15.6000004       2.59450189E-27
  -15.5900002       7.91156306E-27
  -15.5799999       1.45532681E-26
  -15.5699997       1.99350112E-26
  -15.5600004       1.97149051E-26
  -15.5500002       8.99292265E-27
  -15.5400000      -1.50305412E-26
  -15.5299997      -4.96560946E-26
  -15.5200005      -8.45438133E-26
  -15.5100002      -1.03552797E-25
  -15.5000000      -9.21875118E-26
  -15.4899998      -4.84976431E-26
  -15.4799995       1.02848149E-26
  -15.4700003       5.67027241E-26
  -15.4600000       8.46035880E-26
  -15.4499998       1.53065960E-25
  -15.4399996       4.05250493E-25
  -15.4300003       1.00343166E-24
  -15.4200001       1.93549607E-24
  -15.4099998       2.72650208E-24
  -15.3999996       2.23155596E-24
  -15.3900003      -1.16863620E-24
  -15.3800001      -8.63537871E-24
  -15.3699999      -1.91551994E-23
  -15.3599997      -2.76558067E-23
  -15.3500004      -2.44458008E-23
  -15.3400002       1.98824305E-24
  -15.3299999       5.74121923E-23
  -15.3199997       1.30579994E-22
  -15.3100004       1.83602769E-22
  -15.3000002       1.53589704E-22
  -15.2900000      -2.39005811E-23
  -15.2799997      -3.65729446E-22
  -15.2700005      -7.78967958E-22
  -15.2600002      -1.02114578E-21
  -15.2500000      -7.36276624E-22
  -15.2399998       3.86038083E-22
  -15.2299995       2.32913442E-21
  -15.2200003       4.43938707E-21
  -15.2100000       5.29289004E-21
  -15.1999998       3.00694875E-21
  -15.1899996      -3.81053310E-21
  -15.1800003      -1.45643209E-20
  -15.1700001      -2.51976679E-20
  -15.1599998      -2.78147010E-20
  -15.1499996      -1.26778055E-20
  -15.1400003       2.66484619E-20
  -15.1300001       8.57150012E-20
  -15.1199999       1.42163926E-19
  -15.1099997       1.54507852E-19
  -15.1000004       7.26289716E-20
  -15.0900002      -1.36706421E-19
  -15.0799999      -4.52999672E-19
  -15.0699997      -7.67871918E-19
  -15.0600004      -8.77591584E-19
  -15.0500002      -5.29171374E-19
  -15.0400000       4.64362187E-19
  -15.0299997       2.05383652E-18
  -15.0200005       3.78752519E-18
  -15.0100002       4.75090027E-18
  -15.0000000       3.73120908E-18
  -14.9899998      -3.14864000E-19
  -14.9799995      -7.52780018E-18
  -14.9700003      -1.63631562E-17
  -14.9600000      -2.31637422E-17
  -14.9499998      -2.25856190E-17
  -14.9399996      -9.26352868E-18
  -14.9300003       1.92999451E-17
  -14.9200001       5.93087573E-17
  -14.9099998       9.81587969E-17
  -14.8999996       1.14787761E-16
  -14.8900003       8.46597784E-17
  -14.8800001      -1.00618415E-17
  -14.8699999      -1.66898803E-16
  -14.8599997      -3.50615339E-16
  -14.8500004      -4.88938704E-16
  -14.8400002      -4.83787897E-16
  -14.8299999      -2.42315824E-16
  -14.8199997       2.74956265E-16
  -14.8100004       1.00151704E-15
  -14.8000002       1.73016157E-15
  -14.7900000       2.12335807E-15
  -14.7799997       1.79066746E-15
  -14.7700005       4.36659275E-16
  -14.7600002      -1.94779694E-15
  -14.7500000      -4.91322647E-15
  -14.7399998      -7.48690304E-15
  -14.7299995      -8.30506149E-15
  -14.7200003      -5.99221727E-15
  -14.7100000       2.44672508E-16
  -14.6999998       9.95055428E-15
  -14.6899996       2.09353138E-14
  -14.6800003       2.92693150E-14
  -14.6700001       3.00143550E-14
  -14.6599998       1.87598435E-14
  -14.6499996      -6.26939271E-15
  -14.6400003      -4.21235888E-14
  -14.6300001      -7.99267811E-14
  -14.6199999      -1.05491963E-13
  -14.6099997      -1.02384789E-13
  -14.6000004      -5.73762297E-14
  -14.5900002       3.27631057E-14
  -14.5799999       1.55186817E-13
  -14.5699997       2.78344486E-13
  -14.5600004       3.55397542E-13
  -14.5500002       3.35091980E-13
  -14.5400000       1.79242444E-13
  -14.5299997      -1.16915104E-13
  -14.5200005      -5.07959126E-13
  -14.5100002      -8.92937037E-13
  -14.5000000      -1.12830383E-12
  -14.4899998      -1.06206450E-12
  -14.4799995      -5.85413608E-13
  -14.4700003       3.09745719E-13
  -14.4600000       1.48576843E-12
  -14.4499998       2.64796453E-12
  -14.4399996       3.38434987E-12
  -14.4300003       3.26251547E-12
  -14.4200001       1.97174351E-12
  -14.4099998      -5.21789101E-13
  -14.3999996      -3.85537609E-12
  -14.3900003      -7.24020366E-12
  -14.3800001      -9.56499550E-12
  -14.3699999      -9.64682240E-12
  -14.3599997      -6.59777961E-12
  -14.3500004      -2.26760749E-13
  -14.3400002       8.64419734E-12
  -14.3299999       1.80831079E-11
  -14.3199997       2.52775301E-11
  -14.3100004       2.71275120E-11
  -14.3000002       2.11338013E-11
  -14.2900000       6.39470985E-12
  -14.2799997      -1.55679324E-11
  -14.2700005      -4.04703666E-11
  -14.2600002      -6.16789259E-11
  -14.2500000      -7.14815221E-11
  -14.2399998      -6.30968611E-11
  -14.2299995      -3.30324761E-11
  -14.2200003       1.68205120E-11
  -14.2100000       7.80698631E-11
  -14.1999998       1.36312447E-10
  -14.1899996       1.73559930E-10
  -14.1800003       1.72444253E-10
  -14.1700001       1.21477120E-10
  -14.1599998       2.01164467E-11
  -14.1499996      -1.17890683E-10
  -14.1400003      -2.64342298E-10
  -14.1300001      -3.80510623E-10
  -14.1199999      -4.25158547E-10
  -14.1099997      -3.65448588E-10
  -14.1000004      -1.88425678E-10
  -14.0900002       9.00164734E-11
  -14.0799999       4.21849167E-10
  -14.0699997       7.31665006E-10
  -14.0600004       9.30178101E-10
  -14.0500002       9.34932798E-10
  -14.0400000       6.94286739E-10
  -14.0299997       2.08935966E-10
  -14.0200005      -4.55456284E-10
  -14.0100002      -1.17001087E-09
  -14.0000000      -1.76163151E-09
  -13.9899998      -2.04809347E-09
  -13.9799995      -1.88351268E-09
  -13.9700003      -1.20445953E-09
  -13.9600000      -6.47248366E-11
  -13.9499998       1.35279932E-09
  -13.9399996       2.75500289E-09
  -13.9300003       3.78975518E-09
  -13.9200001       4.12259649E-09
  -13.9099998       3.52449248E-09
  -13.8999996       1.95022731E-09
  -13.8900003      -4.14307672E-10
  -13.8800001      -3.15371729E-09
  -13.8699999      -5.68238478E-09
  -13.8599997      -7.35680006E-09
  -13.8500004      -7.62234809E-09
  -13.8400002      -6.16371532E-09
  -13.8299999      -3.02233460E-09
  -13.8199997       1.35405520E-09
  -13.8100004       6.15279117E-09
  -13.8000002       1.03329345E-08
  -13.7900000       1.28383020E-08
  -13.7799997       1.28462165E-08
  -13.7700005       9.99600935E-09
  -13.7600002       4.53872628E-09
  -13.7500000      -2.63976196E-09
  -13.7399998      -1.01450723E-08
  -13.7299995      -1.63386762E-08
  -13.7200003      -1.96939354E-08
  -13.7100000      -1.91671035E-08
  -13.6999998      -1.44951837E-08
  -13.6899996      -6.33790886E-09
  -13.6800003       3.78851039E-09
  -13.6700001       1.37925182E-08
  -13.6599998       2.14563656E-08
  -13.6499996       2.49582612E-08
  -13.6400003       2.33427553E-08
  -13.6300001       1.68150471E-08
  -13.6199999       6.76539580E-09
  -13.6099997      -4.50876181E-09
  -13.6000004      -1.43398111E-08
  -13.5900002      -2.03688888E-08
  -13.5799999      -2.11980318E-08
  -13.5699997      -1.68349299E-08
  -13.5600004      -8.78455264E-09
  -13.5500002       2.78006479E-10
  -13.5400000       7.21083726E-09
  -13.5299997       9.33101241E-09
  -13.5200005       5.32566125E-09
  -13.5100002      -4.11866452E-09
  -13.5000000      -1.61941234E-08
  -13.4899998      -2.64738951E-08
  -13.4799995      -2.99961016E-08
  -13.4700003      -2.27161685E-08
  -13.4600000      -2.97620795E-09
  -13.4499998       2.74227325E-08
  -13.4399996       6.29203996E-08
  -13.4300003       9.48916252E-08
  -13.4200001       1.13328952E-07
  -13.4099998       1.09239288E-07
  -13.3999996       7.72452395E-08
  -13.3900003       1.77484107E-08
  -13.3800001      -6.19777225E-08
  -13.3699999      -1.48216486E-07
  -13.3599997      -2.22898990E-07
  -13.3500004      -2.67089831E-07
  -13.3400002      -2.65233268E-07
  -13.3299999      -2.09238664E-07
  -13.3199997      -1.01421385E-07
  -13.3100004       4.45406982E-08
  -13.3000002       2.05089336E-07
  -13.2900000       3.50639084E-07
  -13.2799997       4.51166358E-07
  -13.2700005       4.82441294E-07
  -13.2600002       4.31548870E-07
  -13.2500000       3.00425967E-07
  -13.2399998       1.06468477E-07
  -13.2299995      -1.20088856E-07
  -13.2200003      -3.41628521E-07
  -13.2100000      -5.20344713E-07
  -13.1999998      -6.25653627E-07
  -13.1899996      -6.40158873E-07
  -13.1800003      -5.62807031E-07
  -13.1700001      -4.08495367E-07
  -13.1599998      -2.04217287E-07
  -13.1499996       1.73108656E-08
  -13.1400003       2.24950682E-07
  -13.1300001       3.95512899E-07
  -13.1199999       5.17553929E-07
  -13.1099997       5.91582420E-07
  -13.1000004       6.26651627E-07
  -13.0900002       6.34325545E-07
  -13.0799999       6.21850802E-07
  -13.0699997       5.86750730E-07
  -13.0600004       5.14869612E-07
  -13.0500002       3.83071267E-07
  -13.0400000       1.66547778E-07
  -13.0299997      -1.50692742E-07
  -13.0200005      -5.64797006E-07
  -13.0100002      -1.04376318E-06
  -13.0000000      -1.52494670E-06
  -12.9899998      -1.92041057E-06
  -12.9799995      -2.13043973E-06
  -12.9700003      -2.06340223E-06
  -12.9600000      -1.65827987E-06
  -12.9499998      -9.04917954E-07
  -12.9399996       1.43190277E-07
  -12.9300003       1.36763515E-06
  -12.9200001       2.59730746E-06
  -12.9099998       3.63316758E-06
  -12.8999996       4.28179010E-06
  -12.8900003       4.39140740E-06
  -12.8800001       3.88342414E-06
  -12.8699999       2.77250820E-06
  -12.8599997       1.17061586E-06
  -12.8500004      -7.26584460E-07
  -12.8400002      -2.66879624E-06
  -12.8299999      -4.39030782E-06
  -12.8199997      -5.65176697E-06
  -12.8100004      -6.27669579E-06
  -12.8000002      -6.17580736E-06
  -12.7900000      -5.35557410E-06
  -12.7799997      -3.91053618E-06
  -12.7700005      -2.00272871E-06
  -12.7600002       1.66079147E-07
  -12.7500000       2.38251118E-06
  -12.7399998       4.44419538E-06
  -12.7299995       6.17335945E-06
  -12.7200003       7.42108432E-06
  -12.7100000       8.06529624E-06
  -12.6999998       8.00729867E-06
  -12.6899996       7.17307694E-06
  -12.6800003       5.52301344E-06
  -12.6700001       3.07145706E-06
  -12.6599998      -8.70542536E-08
  -12.6499996      -3.75183777E-06
  -12.6400003      -7.59979548E-06
  -12.6300001      -1.11889531E-05
  -12.6199999      -1.39890362E-05
  -12.6099997      -1.54417412E-05
  -12.6000004      -1.50462838E-05
  -12.5900002      -1.24592361E-05
  -12.5799999      -7.59136219E-06
  -12.5699997      -6.81237111E-07
  -12.5600004       7.67320125E-06
  -12.5500002       1.65395850E-05
  -12.5400000       2.47372518E-05
  -12.5299997       3.09796415E-05
  -12.5200005       3.40547049E-05
  -12.5100002       3.30175753E-05
  -12.5000000       2.73642654E-05
  -12.4899998       1.71552565E-05
  -12.4799995       3.06539800E-06
  -12.4700003      -1.36526587E-05
  -12.4600000      -3.12897137E-05
  -12.4499998      -4.78679176E-05
  -12.4399996      -6.13679367E-05
  -12.4300003      -6.99586526E-05
  -12.4200001      -7.21950055E-05
  -12.4099998      -6.71556918E-05
  -12.3999996      -5.45052644E-05
  -12.3900003      -3.44809487E-05
  -12.3800001      -7.81808922E-06
  -12.3699999       2.43611830E-05
  -12.3599997       6.06681024E-05
  -12.3500004       9.95504233E-05
  -12.3400002       1.39364434E-04
  -12.3299999       1.78415459E-04
  -12.3199997       2.14973654E-04
  -12.3100004       2.47294432E-04
  -12.3000002       2.73656915E-04
  -12.2900000       2.92443816E-04
  -12.2799997       3.02270491E-04
  -12.2700005       3.02143511E-04
  -12.2600002       2.91626639E-04
  -12.2500000       2.70979392E-04
  -12.2399998       2.41213711E-04
  -12.2299995       2.04053533E-04
  -12.2200003       1.61769494E-04
  -12.2100000       1.16904703E-04
  -12.1999998       7.19226664E-05
  -12.1899996       2.88395422E-05
  -12.1800003      -1.11032195E-05
  -12.1700001      -4.76552923E-05
  -12.1599998      -8.16193788E-05
  -12.1499996      -1.14742979E-04
  -12.1400003      -1.49446059E-04
  -12.1300001      -1.88434366E-04
  -12.1199999      -2.34255596E-04
  -12.1099997      -2.88881594E-04
  -12.1000004      -3.53368814E-04
  -12.0900002      -4.27669118E-04
  -12.0799999      -5.10585320E-04
  -12.0699997      -5.99888503E-04
  -12.0600004      -6.92544389E-04
  -12.0500002      -7.85008539E-04
  -12.0400000      -8.73535522E-04
  -12.0299997      -9.54450690E-04
  -12.0200005      -1.02436647E-03
  -12.0100002      -1.08031952E-03
  -12.0000000      -1.11985917E-03
  -11.9899998      -1.14108820E-03
  -11.9799995      -1.14269671E-03
  -11.9700003      -1.12400402E-03
  -11.9600000      -1.08500174E-03
  -11.9499998      -1.02641119E-03
  -11.9399996      -9.49700596E-04
  -11.9300003      -8.57061357E-04
  -11.9200001      -7.51293672E-04
  -11.9099998      -6.35606411E-04
  -11.8999996      -5.13329811E-04
  -11.8900003      -3.87571257E-04
  -11.8800001      -2.60858797E-04
  -11.8699999      -1.34845963E-04
  -11.8599997      -1.01116821E-05
  -11.8500004       1.13889662E-04
  -11.8400002       2.38700697E-04
  -11.8299999       3.66586028E-04
  -11.8199997       5.00129885E-04
  -11.8100004       6.41786202E-04
  -11.8000002       7.93421932E-04
  -11.7900000       9.55982250E-04
  -11.7799997       1.12926168E-03
  -11.7700005       1.31186878E-03
  -11.7600002       1.50134834E-03
  -11.7500000       1.69444131E-03
  -11.7399998       1.88742438E-03
  -11.7299995       2.07646517E-03
  -11.7200003       2.25791940E-03
  -11.7100000       2.42854282E-03
  -11.6999998       2.58558174E-03
  -11.6899996       2.72674719E-03
  -11.6800003       2.85011902E-03
  -11.6700001       2.95401667E-03
  -11.6599998       3.03688319E-03
  -11.6499996       3.09723685E-03
  -11.6400003       3.13370046E-03
  -11.6300001       3.14509147E-03
  -11.6199999       3.13056610E-03
  -11.6099997       3.08974297E-03
  -11.6000004       3.02276923E-03
  -11.5900002       2.93029821E-03
  -11.5799999       2.81332945E-03
  -11.5699997       2.67296936E-03
  -11.5600004       2.51012179E-03
  -11.5500002       2.32518464E-03
  -11.5400000       2.11784267E-03
  -11.5299997       1.88698771E-03
  -11.5200005       1.63083978E-03
  -11.5100002       1.34724122E-03
  -11.5000000       1.03410683E-03
  -11.4899998       6.89936045E-04
  -11.4799995       3.14311706E-04
  -11.4700003      -9.17263023E-05
  -11.4600000      -5.25500684E-04
  -11.4499998      -9.82778613E-04
  -11.4399996      -1.45807199E-03
  -11.4300003      -1.94515428E-03
  -11.4200001      -2.43769004E-03
  -11.4099998      -2.92987260E-03
  -11.3999996      -3.41697084E-03
  -11.3900003      -3.89570347E-03
  -11.3800001      -4.36438294E-03
  -11.3699999      -4.82283486E-03
  -11.3599997      -5.27212722E-03
  -11.3500004      -5.71415946E-03
  -11.3400002      -6.15123101E-03
  -11.3299999      -6.58563245E-03
  -11.3199997      -7.01935496E-03
  -11.3100004      -7.45389471E-03
  -11.3000002      -7.89022818E-03
  -11.2900000      -8.32882430E-03
  -11.2799997      -8.76973197E-03
  -11.2700005      -9.21262614E-03
  -11.2600002      -9.65683535E-03
  -11.2500000      -1.01012634E-02
  -11.2399998      -1.05442945E-02
  -11.2299995      -1.09836599E-02
  -11.2200003      -1.14163887E-02
  -11.2100000      -1.18387872E-02
  -11.1999998      -1.22465938E-02
  -11.1899996      -1.26352338E-02
  -11.1800003      -1.30001940E-02
  -11.1700001      -1.33374296E-02
  -11.1599998      -1.36437844E-02
  -11.1499996      -1.39172971E-02
  -11.1400003      -1.41573837E-02
  -11.1300001      -1.43648367E-02
  -11.1199999      -1.45416614E-02
  -11.1099997      -1.46907652E-02
  -11.1000004      -1.48155550E-02
  -11.0900002      -1.49195259E-02
  -11.0799999      -1.50059042E-02
  -11.0699997      -1.50773441E-02
  -11.0600004      -1.51357986E-02
  -11.0500002      -1.51824877E-02
  -11.0400000      -1.52179748E-02
  -11.0299997      -1.52422991E-02
  -11.0200005      -1.52551634E-02
  -11.0100002      -1.52561003E-02
  -11.0000000      -1.52445771E-02
  -10.9899998      -1.52201140E-02
  -10.9799995      -1.51822828E-02
  -10.9700003      -1.51307583E-02
  -10.9600000      -1.50652686E-02
  -10.9499998      -1.49855874E-02
  -10.9399996      -1.48915360E-02
  -10.9300003      -1.47828953E-02
  -10.9200001      -1.46593796E-02
  -10.9099998      -1.45205623E-02
  -10.8999996      -1.43656870E-02
  -10.8900003      -1.41935730E-02
  -10.8800001      -1.40024498E-02
  -10.8699999      -1.37898875E-02
  -10.8599997      -1.35527775E-02
  -10.8500004      -1.32874902E-02
  -10.8400002      -1.29901357E-02
  -10.8299999      -1.26569793E-02
  -10.8199997      -1.22848656E-02
  -10.8100004      -1.18717207E-02
  -10.8000002      -1.14168962E-02
  -10.7900000      -1.09213870E-02
  -10.7799997      -1.03878481E-02
  -10.7700005      -9.82039887E-03
  -10.7600002      -9.22427792E-03
  -10.7500000      -8.60537868E-03
  -10.7399998      -7.96980970E-03
  -10.7299995      -7.32350117E-03
  -10.7200003      -6.67189900E-03
  -10.7100000      -6.01983676E-03
  -10.6999998      -5.37144346E-03
  -10.6899996      -4.73010773E-03
  -10.6800003      -4.09846473E-03
  -10.6700001      -3.47829843E-03
  -10.6599998      -2.87044304E-03
  -10.6499996      -2.27461732E-03
  -10.6400003      -1.68939901E-03
  -10.6300001      -1.11220172E-03
  -10.6199999      -5.39461325E-04
  -10.6099997       3.30339935E-05
  -10.6000004       6.09700393E-04
  -10.5900002       1.19467673E-03
  -10.5799999       1.79135392E-03
  -10.5699997       2.40207557E-03
  -10.5600004       3.02799908E-03
  -10.5500002       3.66912945E-03
  -10.5400000       4.32457030E-03
  -10.5299997       4.99281241E-03
  -10.5200005       5.67206135E-03
  -10.5100002       6.36048336E-03
  -10.5000000       7.05636665E-03
  -10.4899998       7.75810750E-03
  -10.4799995       8.46410915E-03
  -10.4700003       9.17259790E-03
  -10.4600000       9.88143310E-03
  -10.4499998       1.05878841E-02
  -10.4399996       1.12885311E-02
  -10.4300003       1.19791497E-02
  -10.4200001       1.26547543E-02
  -10.4099998       1.33096380E-02
  -10.3999996       1.39375655E-02
  -10.3900003       1.45320138E-02
  -10.3800001       1.50864916E-02
  -10.3699999       1.55949481E-02
  -10.3599997       1.60521939E-02
  -10.3500004       1.64542664E-02
  -10.3400002       1.67987365E-02
  -10.3299999       1.70848612E-02
  -10.3199997       1.73135437E-02
  -10.3100004       1.74871217E-02
  -10.3000002       1.76090840E-02
  -10.2900000       1.76836513E-02
  -10.2799997       1.77154783E-02
  -10.2700005       1.77093949E-02
  -10.2600002       1.76703483E-02
  -10.2500000       1.76034346E-02
  -10.2399998       1.75140332E-02
  -10.2299995       1.74079258E-02
  -10.2200003       1.72913205E-02
  -10.2100000       1.71707477E-02
  -10.1999998       1.70527585E-02
  -10.1899996       1.69434864E-02
  -10.1800003       1.68481804E-02
  -10.1700001       1.67707112E-02
  -10.1599998       1.67132579E-02
  -10.1499996       1.66761391E-02
  -10.1400003       1.66579131E-02
  -10.1300001       1.66556500E-02
  -10.1199999       1.66653451E-02
  -10.1099997       1.66824646E-02
  -10.1000004       1.67024396E-02
  -10.0900002       1.67211369E-02
  -10.0799999       1.67351626E-02
  -10.0699997       1.67420898E-02
  -10.0600004       1.67404953E-02
  -10.0500002       1.67298764E-02
  -10.0400000       1.67104620E-02
  -10.0299997       1.66829359E-02
  -10.0200005       1.66481473E-02
  -10.0100002       1.66068561E-02
  -10.0000000       1.65594909E-02
  -9.98999977       1.65060889E-02
  -9.97999954       1.64462999E-02
  -9.97000027       1.63795520E-02
  -9.96000004       1.63052566E-02
  -9.94999981       1.62231307E-02
  -9.93999958       1.61334183E-02
  -9.93000031       1.60370618E-02
  -9.92000008       1.59358270E-02
  -9.90999985       1.58322845E-02
  -9.89999962       1.57296974E-02
  -9.89000034       1.56319477E-02
  -9.88000011       1.55433677E-02
  -9.86999989       1.54686579E-02
  -9.85999966       1.54127805E-02
  -9.85000038       1.53808454E-02
  -9.84000015       1.53779360E-02
  -9.82999992       1.54089201E-02
  -9.81999969       1.54781323E-02
  -9.81000042       1.55890547E-02
  -9.80000019       1.57440286E-02
  -9.78999996       1.59440450E-02
  -9.77999973       1.61887091E-02
  -9.77000046       1.64763741E-02
  -9.76000023       1.68044809E-02
  -9.75000000       1.71700064E-02
  -9.73999977       1.75699145E-02
  -9.72999954       1.80016160E-02
  -9.72000027       1.84632130E-02
  -9.71000004       1.89536102E-02
  -9.69999981       1.94723997E-02
  -9.68999958       2.00196672E-02
  -9.68000031       2.05956213E-02
  -9.67000008       2.12002862E-02
  -9.65999985       2.18331721E-02
  -9.64999962       2.24930309E-02
  -9.64000034       2.31776666E-02
  -9.63000011       2.38837563E-02
  -9.61999989       2.46067233E-02
  -9.60999966       2.53406353E-02
  -9.60000038       2.60781590E-02
  -9.59000015       2.68105865E-02
  -9.57999992       2.75279917E-02
  -9.56999969       2.82195024E-02
  -9.56000042       2.88737603E-02
  -9.55000019       2.94794589E-02
  -9.53999996       3.00259404E-02
  -9.52999973       3.05037592E-02
  -9.52000046       3.09051368E-02
  -9.51000023       3.12244054E-02
  -9.50000000       3.14579755E-02
  -9.48999977       3.16045247E-02
  -9.47999954       3.16646993E-02
  -9.47000027       3.16409841E-02
  -9.46000004       3.15373279E-02
  -9.44999981       3.13588530E-02
  -9.43999958       3.11115440E-02
  -9.43000031       3.08019146E-02
  -9.42000008       3.04367077E-02
  -9.40999985       3.00227124E-02
  -9.39999962       2.95665599E-02
  -9.39000034       2.90746037E-02
  -9.38000011       2.85529215E-02
  -9.36999989       2.80074906E-02
  -9.35999966       2.74442863E-02
  -9.35000038       2.68695801E-02
  -9.34000015       2.62902062E-02
  -9.32999992       2.57137306E-02
  -9.31999969       2.51485929E-02
  -9.31000042       2.46041063E-02
  -9.30000019       2.40903664E-02
  -9.28999996       2.36181077E-02
  -9.27999973       2.31984053E-02
  -9.27000046       2.28425376E-02
  -9.26000023       2.25617662E-02
  -9.25000000       2.23672036E-02
  -9.23999977       2.22697109E-02
  -9.22999954       2.22798195E-02
  -9.22000027       2.24075802E-02
  -9.21000004       2.26622485E-02
  -9.19999981       2.30520889E-02
  -9.18999958       2.35839300E-02
  -9.18000031       2.42627375E-02
  -9.17000008       2.50912309E-02
  -9.15999985       2.60697361E-02
  -9.14999962       2.71960199E-02
  -9.14000034       2.84655541E-02
  -9.13000011       2.98717506E-02
  -9.11999989       3.14065889E-02
  -9.10999966       3.30609754E-02
  -9.10000038       3.48253138E-02
  -9.09000015       3.66898328E-02
  -9.07999992       3.86447459E-02
  -9.06999969       4.06801030E-02
  -9.06000042       4.27858643E-02
  -9.05000019       4.49514352E-02
  -9.03999996       4.71656211E-02
  -9.02999973       4.94163930E-02
  -9.02000046       5.16907051E-02
  -9.01000023       5.39745055E-02
  -9.00000000       5.62527366E-02
  -8.98999977       5.85092865E-02
  -8.97999954       6.07271083E-02
  -8.97000027       6.28883243E-02
  -8.96000004       6.49745613E-02
  -8.94999981       6.69673681E-02
  -8.93999958       6.88488260E-02
  -8.93000031       7.06023499E-02
  -8.92000008       7.22130686E-02
  -8.90999985       7.36685470E-02
  -8.89999962       7.49587119E-02
  -8.89000034       7.60757104E-02
  -8.88000011       7.70131797E-02
  -8.86999989       7.77657032E-02
  -8.85999966       7.83276930E-02
  -8.85000038       7.86931664E-02
  -8.84000015       7.88557008E-02
  -8.82999992       7.88087994E-02
  -8.81999969       7.85469338E-02
  -8.81000042       7.80664831E-02
  -8.80000019       7.73664638E-02
  -8.78999996       7.64489621E-02
  -8.77999973       7.53191039E-02
  -8.77000046       7.39838034E-02
  -8.76000023       7.24509358E-02
  -8.75000000       7.07280114E-02
  -8.73999977       6.88213557E-02
  -8.72999954       6.67359456E-02
  -8.72000027       6.44758120E-02
  -8.71000004       6.20451160E-02
  -8.69999981       5.94493076E-02
  -8.68999958       5.66959791E-02
  -8.68000031       5.37952632E-02
  -8.67000008       5.07594235E-02
  -8.65999985       4.76020835E-02
  -8.64999962       4.43366691E-02
  -8.64000034       4.09756079E-02
  -8.63000011       3.75296883E-02
  -8.61999989       3.40081975E-02
  -8.60999966       3.04199699E-02
  -8.60000038       2.67746765E-02
  -8.59000015       2.30838321E-02
  -8.57999992       1.93616506E-02
  -8.56999969       1.56245846E-02
  -8.56000042       1.18904393E-02
  -8.55000019       8.17654282E-03
  -8.53999996       4.49813716E-03
  -8.52999973       8.67032562E-04
  -8.52000046      -2.70863413E-03
  -8.51000023      -6.22386066E-03
  -8.50000000      -9.67552699E-03
  -8.48999977      -1.30607439E-02
  -8.47999954      -1.63752474E-02
  -8.47000027      -1.96135603E-02
  -8.46000004      -2.27688979E-02
  -8.44999981      -2.58349739E-02
  -8.43999958      -2.88073458E-02
  -8.43000031      -3.16850357E-02
  -8.42000008      -3.44711095E-02
  -8.40999985      -3.71720791E-02
  -8.39999962      -3.97962816E-02
  -8.39000034      -4.23517078E-02
  -8.38000011      -4.48442101E-02
  -8.36999989      -4.72758040E-02
  -8.35999966      -4.96447310E-02
  -8.35000038      -5.19464910E-02
  -8.34000015      -5.41758165E-02
  -8.32999992      -5.63283823E-02
  -8.31999969      -5.84029183E-02
  -8.31000042      -6.04012422E-02
  -8.30000019      -6.23276159E-02
  -8.28999996      -6.41867667E-02
  -8.27999973      -6.59820884E-02
  -8.27000046      -6.77135587E-02
  -8.26000023      -6.93770871E-02
  -8.25000000      -7.09652156E-02
  -8.23999977      -7.24684075E-02
  -8.22999954      -7.38778263E-02
  -8.22000027      -7.51871169E-02
  -8.21000004      -7.63934702E-02
  -8.19999981      -7.74976611E-02
  -8.18999958      -7.85020292E-02
  -8.18000031      -7.94083029E-02
  -8.17000008      -8.02148804E-02
  -8.15999985      -8.09149444E-02
  -8.14999962      -8.14961717E-02
  -8.14000034      -8.19418356E-02
  -8.13000011      -8.22332203E-02
  -8.11999989      -8.23526010E-02
  -8.10999966      -8.22859704E-02
  -8.10000038      -8.20243806E-02
  -8.09000015      -8.15641209E-02
  -8.07999992      -8.09050277E-02
  -8.06999969      -8.00481886E-02
  -8.06000042      -7.89934546E-02
  -8.05000019      -7.77376816E-02
  -8.03999996      -7.62744471E-02
  -8.02999973      -7.45952055E-02
  -8.02000046      -7.26917386E-02
  -8.01000023      -7.05587938E-02
  -8.00000000      -6.81962818E-02
  -7.98999977      -6.56104833E-02
  -7.98000002      -6.28131256E-02
  -7.96999979      -5.98195195E-02
  -7.96000004      -5.66453561E-02
  -7.94999981      -5.33041134E-02
  -7.94000006      -4.98047881E-02
  -7.92999983      -4.61513847E-02
  -7.92000008      -4.23441641E-02
  -7.90999985      -3.83818671E-02
  -7.90000010      -3.42646949E-02
  -7.88999987      -2.99965646E-02
  -7.88000011      -2.55868826E-02
  -7.86999989      -2.10496597E-02
  -7.86000013      -1.64021719E-02
  -7.84999990      -1.16621982E-02
  -7.84000015      -6.84565678E-03
  -7.82999992      -1.96456653E-03
  -7.82000017       2.97318120E-03
  -7.80999994       7.96272326E-03
  -7.80000019       1.29999425E-02
  -7.78999996       1.80790145E-02
  -7.78000021       2.31900234E-02
  -7.76999998       2.83182189E-02
  -7.76000023       3.34447101E-02
  -7.75000000       3.85484584E-02
  -7.73999977       4.36092988E-02
  -7.73000002       4.86109294E-02
  -7.71999979       5.35422601E-02
  -7.71000004       5.83982170E-02
  -7.69999981       6.31781965E-02
  -7.69000006       6.78837672E-02
  -7.67999983       7.25156888E-02
  -7.67000008       7.70718157E-02
  -7.65999985       8.15460384E-02
  -7.65000010       8.59290585E-02
  -7.63999987       9.02104527E-02
  -7.63000011       9.43808183E-02
  -7.61999989       9.84352976E-02
  -7.61000013      0.102374136    
  -7.59999990      0.106202714    
  -7.59000015      0.109930143    
  -7.57999992      0.113565966    
  -7.57000017      0.117117859    
  -7.55999994      0.120588690    
  -7.55000019      0.123976961    
  -7.53999996      0.127277002    
  -7.53000021      0.130482122    
  -7.51999998      0.133587286    
  -7.51000023      0.136591911    
  -7.50000000      0.139501229    
  -7.48999977      0.142326266    
  -7.48000002      0.145081669    
  -7.46999979      0.147782803    
  -7.46000004      0.150442943    
  -7.44999981      0.153071031    
  -7.44000006      0.155671552    