  -16.0000000       0.00000000    
  -15.9899998       0.00000000    
  -15.9799995       0.00000000    
  -15.9700003       0.00000000    
  -15.9600000       0.00000000    
  -15.9499998       0.00000000    
  -15.9399996       0.00000000    
  -15.9300003       0.00000000    
  -15.9200001       0.00000000    
  -15.9099998       0.00000000    
  -15.8999996       0.00000000    
  -15.8900003       0.00000000    
  -15.8800001       0.00000000    
  -15.8699999       1.54142831E-44
  -15.8599997       2.71851902E-43
  -15.8500004       2.20143989E-42
  -15.8400002       8.83238422E-42
  -15.8299999      -3.55509420E-42
  -15.8199997      -3.18893492E-40
  -15.8100004      -2.65406209E-39
  -15.8000002      -1.45911982E-38
  -15.7900000      -6.30652412E-38
  -15.7799997      -2.28214190E-37
  -15.7700005      -7.12949404E-37
  -15.7600002      -1.95305743E-36
  -15.7500000      -4.71653763E-36
  -15.7399998      -9.98763898E-36
  -15.7299995      -1.81331454E-35
  -15.7200003      -2.64545233E-35
  -15.7100000      -2.40822173E-35
  -15.6999998       1.58333579E-35
  -15.6899996       1.43028447E-34
  -15.6800003       4.24893178E-34
  -15.6700001       9.07592301E-34
  -15.6599998       1.51751720E-33
  -15.6499996       1.89770430E-33
  -15.6400003       1.24700821E-33
  -15.6300001      -1.63037944E-33
  -15.6199999      -7.69651253E-33
  -15.6099997      -1.60869223E-32
  -15.6000004      -2.16000467E-32
  -15.5900002      -1.25222871E-32
  -15.5799999       2.79939954E-32
  -15.5699997       1.12015678E-31
  -15.5600004       2.24233259E-31
  -15.5500002       2.89560746E-31
  -15.5400000       1.49658345E-31
  -15.5299997      -4.10888267E-31
  -15.5200005      -1.53344037E-30
  -15.5100002      -3.01394720E-30
  -15.5000000      -3.94381251E-30
  -15.4899998      -2.48554632E-30
  -15.4799995       3.78717573E-30
  -15.4700003       1.64583142E-29
  -15.4600000       3.34833062E-29
  -15.4499998       4.56678254E-29
  -15.4399996       3.45820643E-29
  -15.4300003      -2.41934928E-29
  -15.4200001      -1.47986964E-28
  -15.4099998      -3.22109400E-28
  -15.3999996      -4.68519244E-28
  -15.3900003      -4.25897115E-28
  -15.3800001       2.78069888E-29
  -15.3699999       1.07485794E-27
  -15.3599997       2.66215249E-27
  -15.3500004       4.24706842E-27
  -15.3400002       4.60936049E-27
  -15.3299999       1.94879439E-27
  -15.3199997      -5.47274179E-27
  -15.3100004      -1.79927524E-26
  -15.3000002      -3.26938687E-26
  -15.2900000      -4.17754789E-26
  -15.2799997      -3.25274807E-26
  -15.2700005       9.37069457E-27
  -15.2600002       9.19684920E-26
  -15.2500000       2.05094763E-25
  -15.2399998       3.08037784E-25
  -15.2299995       3.24427454E-25
  -15.2200003       1.54633340E-25
  -15.2100000      -2.85197697E-25
  -15.1999998      -9.96299572E-25
  -15.1899996      -1.81741562E-24
  -15.1800003      -2.36796559E-24
  -15.1700001      -2.06884906E-24
  -15.1599998      -2.97917512E-25
  -15.1499996       3.29163296E-24
  -15.1400003       8.33103380E-24
  -15.1300001       1.33186621E-23
  -15.1199999       1.54776198E-23
  -15.1099997       1.11938148E-23
  -15.1000004      -2.73145534E-24
  -15.0900002      -2.70353613E-23
  -15.0799999      -5.76157184E-23
  -15.0699997      -8.38145148E-23
  -15.0600004      -8.87637839E-23
  -15.0500002      -5.31764447E-23
  -15.0400000       3.67795984E-23
  -15.0299997       1.78489852E-22
  -15.0200005       3.42006442E-22
  -15.0100002       4.64713188E-22
  -15.0000000       4.58060049E-22
  -14.9899998       2.31490538E-22
  -14.9799995      -2.66117619E-22
  -14.9700003      -9.95325368E-22
  -14.9600000      -1.78287007E-21
  -14.9499998      -2.31154895E-21
  -14.9399996      -2.16936476E-21
  -14.9300003      -9.73336621E-22
  -14.9200001       1.44098680E-21
  -14.9099998       4.80841302E-21
  -14.8999996       8.28186800E-21
  -14.8900003       1.04415324E-20
  -14.8800001       9.55741524E-21
  -14.8699999       4.14068964E-21
  -14.8599997      -6.28526565E-21
  -14.8500004      -2.03960929E-20
  -14.8400002      -3.45820756E-20
  -14.8299999      -4.31392429E-20
  -14.8199997      -3.94264104E-20
  -14.8100004      -1.80341319E-20
  -14.8000002       2.23792131E-20
  -14.7900000       7.63798157E-20
  -14.7799997       1.30330034E-19
  -14.7700005       1.63458230E-19
  -14.7600002       1.52259536E-19
  -14.7500000       7.81547902E-20
  -14.7399998      -6.29755671E-20
  -14.7299995      -2.52151637E-19
  -14.7200003      -4.43271873E-19
  -14.7100000      -5.67387274E-19
  -14.6999998      -5.47475382E-19
  -14.6899996      -3.22949096E-19
  -14.6800003       1.20846784E-19
  -14.6700001       7.26811293E-19
  -14.6599998       1.35495617E-18
  -14.6499996       1.79625124E-18
  -14.6400003       1.81692145E-18
  -14.6300001       1.22990600E-18
  -14.6199999      -2.08616372E-20
  -14.6099997      -1.78794180E-18
  -14.6000004      -3.68963747E-18
  -14.5900002      -5.14779476E-18
  -14.5799999      -5.50711292E-18
  -14.5699997      -4.22542634E-18
  -14.5600004      -1.09617210E-18
  -14.5500002       3.56066181E-18
  -14.5400000       8.81440766E-18
  -14.5299997       1.32116005E-17
  -14.5200005       1.50652817E-17
  -14.5100002       1.29176743E-17
  -14.5000000       6.08149101E-18
  -14.4899998      -4.89123559E-18
  -14.4799995      -1.79873435E-17
  -14.4700003      -2.99055140E-17
  -14.4600000      -3.66881303E-17
  -14.4499998      -3.47468664E-17
  -14.4399996      -2.20716388E-17
  -14.4300003       7.05583925E-19
  -14.4200001       2.97654888E-17
  -14.4099998       5.83849421E-17
  -14.3999996       7.81808830E-17
  -14.3900003       8.11788899E-17
  -14.3800001       6.22788386E-17
  -14.3699999       2.14610935E-17
  -14.3599997      -3.50010061E-17
  -14.3500004      -9.49222377E-17
  -14.3400002      -1.42426631E-16
  -14.3299999      -1.61745269E-16
  -14.3199997      -1.41786857E-16
  -14.3100004      -8.02708904E-17
  -14.3000002       1.39033924E-17
  -14.2900000       1.21108030E-16
  -14.2799997       2.14660556E-16
  -14.2700005       2.67221240E-16
  -14.2600002       2.58490103E-16
  -14.2500000       1.82126629E-16
  -14.2399998       4.96858807E-17
  -14.2299995      -1.10105297E-16
  -14.2200003      -2.57263917E-16
  -14.2100000      -3.50681487E-16
  -14.1999998      -3.60034742E-16
  -14.1899996      -2.76098674E-16
  -14.1800003      -1.16042799E-16
  -14.1700001       7.86800236E-17
  -14.1599998       2.52293131E-16
  -14.1499996       3.50536988E-16
  -14.1400003       3.38249187E-16
  -14.1300001       2.13321741E-16
  -14.1199999       1.19654596E-17
  -14.1099997      -1.97835411E-16
  -14.1000004      -3.34519569E-16
  -14.0900002      -3.28864989E-16
  -14.0799999      -1.50527112E-16
  -14.0699997       1.73347013E-16
  -14.0600004       5.54971805E-16
  -14.0500002       8.62227712E-16
  -14.0400000       9.52975487E-16
  -14.0299997       7.20024221E-16
  -14.0200005       1.34712107E-16
  -14.0100002      -7.24724460E-16
  -14.0000000      -1.67172021E-15
  -13.9899998      -2.44261114E-15
  -13.9799995      -2.75754117E-15
  -13.9700003      -2.39877168E-15
  -13.9600000      -1.28691516E-15
  -13.9499998       4.67108230E-16
  -13.9399996       2.55339098E-15
  -13.9300003       4.50753750E-15
  -13.9200001       5.80502850E-15
  -13.9099998       5.98791434E-15
  -13.8999996       4.79488030E-15
  -13.8900003       2.26069091E-15
  -13.8800001      -1.24558800E-15
  -13.8699999      -5.06204931E-15
  -13.8599997      -8.35509149E-15
  -13.8500004      -1.02994954E-14
  -13.8400002      -1.02789828E-14
  -13.8299999      -8.05910429E-15
  -13.8199997      -3.88598684E-15
  -13.8100004       1.52162597E-15
  -13.8000002       7.09606044E-15
  -13.7900000       1.16407679E-14
  -13.7799997       1.41013130E-14
  -13.7700005       1.38247822E-14
  -13.7600002       1.07422827E-14
  -13.7500000       5.42275490E-15
  -13.7399998      -1.02577458E-15
  -13.7299995      -7.19490622E-15
  -13.7200003      -1.17052593E-14
  -13.7100000      -1.35500047E-14
  -13.6999998      -1.23656756E-14
  -13.6899996      -8.55453471E-15
  -13.6800003      -3.21451185E-15
  -13.6700001       2.12115558E-15
  -13.6599998       5.88218092E-15
  -13.6499996       6.90340407E-15
  -13.6400003       4.79562907E-15
  -13.6300001       1.36614079E-16
  -13.6199999      -5.59012014E-15
  -13.6099997      -1.03214192E-14
  -13.6000004      -1.19486161E-14
  -13.5900002      -8.93958573E-15
  -13.5799999      -8.89977624E-16
  -13.5699997       1.11565174E-14
  -13.5600004       2.47379818E-14
  -13.5500002       3.63956742E-14
  -13.5400000       4.24300724E-14
  -13.5299997       3.98389072E-14
  -13.5200005       2.72169982E-14
  -13.5100002       5.37962949E-15
  -13.5000000      -2.24871323E-14
  -13.4899998      -5.12478243E-14
  -13.4799995      -7.47746862E-14
  -13.4700003      -8.72640515E-14
  -13.4600000      -8.46248730E-14
  -13.4499998      -6.56046737E-14
  -13.4399996      -3.23503533E-14
  -13.4300003       9.78499745E-15
  -13.4200001       5.32054700E-14
  -13.4099998       8.96307564E-14
  -13.3999996       1.11910813E-13
  -13.3900003       1.15668095E-13
  -13.3800001       1.00352371E-13
  -13.3699999       6.94150683E-14
  -13.3599997       2.95161980E-14
  -13.3500004      -1.10784752E-14
  -13.3400002      -4.45329673E-14
  -13.3299999      -6.53963578E-14
  -13.3199997      -7.19556928E-14
  -13.3100004      -6.65936829E-14
  -13.3000002      -5.50020167E-14
  -13.2900000      -4.44031341E-14
  -13.2799997      -4.12169146E-14
  -13.2700005      -4.87964907E-14
  -13.2600002      -6.58917772E-14
  -13.2500000      -8.63571164E-14
  -13.2399998      -1.00325198E-13
  -13.2299995      -9.66882146E-14
  -13.2200003      -6.63523869E-14
  -13.2100000      -5.46321386E-15
  -13.1999998       8.22823865E-14
  -13.1899996       1.84979161E-13
  -13.1800003       2.83903841E-13
  -13.1700001       3.56861377E-13
  -13.1599998       3.82888139E-13
  -13.1499996       3.47310993E-13
  -13.1400003       2.45973950E-13
  -13.1300001       8.75347158E-14
  -13.1199999      -1.06896737E-13
  -13.1099997      -3.06930913E-13
  -13.1000004      -4.78377971E-13
  -13.0900002      -5.89950831E-13
  -13.0799999      -6.19748773E-13
  -13.0699997      -5.60045500E-13
  -13.0600004      -4.19221271E-13
  -13.0500002      -2.20290339E-13
  -13.0400000       3.75275618E-15
  -13.0299997       2.16786726E-13
  -13.0200005       3.87082754E-13
  -13.0100002       4.93746157E-13
  -13.0000000       5.30543871E-13
  -12.9899998       5.06171006E-13
  -12.9799995       4.40853896E-13
  -12.9700003       3.60094116E-13
  -12.9600000       2.87105029E-13
  -12.9499998       2.35885720E-13
  -12.9399996       2.06801712E-13
  -12.9300003       1.85995818E-13
  -12.9200001       1.49036802E-13
  -12.9099998       6.81445663E-14
  -12.8999996      -7.86472667E-14
  -12.8900003      -2.98656987E-13
  -12.8800001      -5.78429882E-13
  -12.8699999      -8.82228698E-13
  -12.8599997      -1.15607903E-12
  -12.8500004      -1.33702641E-12
  -12.8400002      -1.36597775E-12
  -12.8299999      -1.20150678E-12
  -12.8199997      -8.31540023E-13
  -12.8100004      -2.80089564E-13
  -12.8000002       3.92903565E-13
  -12.7900000       1.09913792E-12
  -12.7799997       1.73585614E-12
  -12.7700005       2.20354637E-12
  -12.7600002       2.42395882E-12
  -12.7500000       2.35473164E-12
  -12.7399998       1.99753235E-12
  -12.7299995       1.39791607E-12
  -12.7200003       6.36872499E-13
  -12.7100000      -1.84193494E-13
  -12.6999998      -9.61840200E-13
  -12.6899996      -1.60840731E-12
  -12.6800003      -2.06550055E-12
  -12.6700001      -2.31039341E-12
  -12.6599998      -2.35428539E-12
  -12.6499996      -2.23327585E-12
  -12.6400003      -1.99466463E-12
  -12.6300001      -1.68228951E-12
  -12.6199999      -1.32481710E-12
  -12.6099997      -9.30111782E-13
  -12.6000004      -4.87216712E-13
  -12.5900002       2.45556444E-14
  -12.5799999       6.21885030E-13
  -12.5699997       1.30291969E-12
  -12.5600004       2.03626916E-12
  -12.5500002       2.75714391E-12
  -12.5400000       3.37265112E-12
  -12.5299997       3.77597866E-12
  -12.5200005       3.86688294E-12
  -12.5100002       3.57409263E-12
  -12.5000000       2.87444222E-12
  -12.4899998       1.80397613E-12
  -12.4799995       4.57889965E-13
  -12.4700003      -1.02134989E-12
  -12.4600000      -2.46569041E-12
  -12.4499998      -3.70862629E-12
  -12.4399996      -4.61213229E-12
  -12.4300003      -5.08775010E-12
  -12.4200001      -5.10751641E-12
  -12.4099998      -4.70283968E-12
  -12.3999996      -3.95225346E-12
  -12.3900003      -2.96154659E-12
  -12.3800001      -1.84149375E-12
  -12.3699999      -6.88714602E-13
  -12.3599997       4.25830242E-13
  -12.3500004       1.45845282E-12
  -12.3400002       2.38496983E-12
  -12.3299999       3.18674948E-12
  -12.3199997       3.83552521E-12
  -12.3100004       4.28244029E-12
  -12.3000002       4.45573396E-12
  -12.2900000       4.26920652E-12
  -12.2799997       3.64061949E-12
  -12.2700005       2.51628839E-12
  -12.2600002       8.95995138E-13
  -12.2500000      -1.14833078E-12
  -12.2399998      -3.46582550E-12
  -12.2299995      -5.83509369E-12
  -12.2200003      -7.98783002E-12
  -12.2100000      -9.64414226E-12
  -12.1999998      -1.05534583E-11
  -12.1899996      -1.05332097E-11
  -12.1800003      -9.49793889E-12
  -12.1700001      -7.47312802E-12
  -12.1599998      -4.59134510E-12
  -12.1499996      -1.07171086E-12
  -12.1400003       2.81278321E-12
  -12.1300001       6.77353486E-12
  -12.1199999       1.05426475E-11
  -12.1099997       1.39008232E-11
  -12.1000004       1.66925310E-11
  -12.0900002       1.88273130E-11
  -12.0799999       2.02691579E-11
  -12.0699997       2.10185029E-11
  -12.0600004       2.10926693E-11
  -12.0500002       2.05104302E-11
  -12.0400000       1.92848463E-11
  -12.0299997       1.74261664E-11
  -12.0200005       1.49536598E-11
  -12.0100002       1.19127477E-11
  -12.0000000       8.39229641E-12
  -11.9899998       4.53643373E-12
  -11.9799995       5.46445430E-13
  -11.9700003      -3.32987869E-12
  -11.9600000      -6.82106108E-12
  -11.9499998      -9.66399183E-12
  -11.9399996      -1.16400379E-11
  -11.9300003      -1.26087647E-11
  -11.9200001      -1.25329634E-11
  -11.9099998      -1.14901647E-11
  -11.8999996      -9.66808838E-12
  -11.8900003      -7.34425021E-12
  -11.8800001      -4.85291668E-12
  -11.8699999      -2.54486709E-12
  -11.8599997      -7.46170324E-13
  -11.8500004       2.77412126E-13
  -11.8400002       3.45336037E-13
  -11.8299999      -6.26211593E-13
  -11.8199997      -2.62664369E-12
  -11.8100004      -5.56470538E-12
  -11.8000002      -9.28939564E-12
  -11.7900000      -1.36131766E-11
  -11.7799997      -1.83325334E-11
  -11.7700005      -2.32427706E-11
  -11.7600002      -2.81453021E-11
  -11.7500000      -3.28486058E-11
  -11.7399998      -3.71652743E-11
  -11.7299995      -4.09088562E-11
  -11.7200003      -4.38940308E-11
  -11.7100000      -4.59425345E-11
  -11.6999998      -4.68953661E-11
  -11.6899996      -4.66297868E-11
  -11.6800003      -4.50777575E-11
  -11.6700001      -4.22416199E-11
  -11.6599998      -3.82027014E-11
  -11.6499996      -3.31201733E-11
  -11.6400003      -2.72192043E-11
  -11.6300001      -2.07700090E-11
  -11.6199999      -1.40608471E-11
  -11.6099997      -7.37054081E-12
  -11.6000004      -9.44267017E-13
  -11.5900002       5.02285323E-12
  -11.5799999       1.03934136E-11
  -11.5699997       1.50864165E-11
  -11.5600004       1.90703859E-11
  -11.5500002       2.23535288E-11
  -11.5400000       2.49751973E-11
  -11.5299997       2.70008165E-11
  -11.5200005       2.85208870E-11
  -11.5100002       2.96529433E-11
  -11.5000000       3.05428356E-11
  -11.4899998       3.13633564E-11
  -11.4799995       3.23055263E-11
  -11.4700003       3.35634957E-11
  -11.4600000       3.53126105E-11
  -11.4499998       3.76856671E-11
  -11.4399996       4.07504065E-11
  -11.4300003       4.44953935E-11
  -11.4200001       4.88264464E-11
  -11.4099998       5.35761262E-11
  -11.3999996       5.85250390E-11
  -11.3900003       6.34303096E-11
  -11.3800001       6.80563869E-11
  -11.3699999       7.22016683E-11
  -11.3599997       7.57163499E-11
  -11.3500004       7.85093032E-11
  -11.3400002       8.05435163E-11
  -11.3299999       8.18245541E-11
  -11.3199997       8.23846200E-11
  -11.3100004       8.22688931E-11
  -11.3000002       8.15259527E-11
  -11.2900000       8.02043987E-11
  -11.2799997       7.83547949E-11
  -11.2700005       7.60335891E-11
  -11.2600002       7.33057642E-11
  -11.2500000       7.02425548E-11
  -11.2399998       6.69148001E-11
  -11.2299995       6.33808075E-11
  -11.2200003       5.96734329E-11
  -11.2100000       5.57903237E-11
  -11.1999998       5.16919320E-11
  -11.1899996       4.73079111E-11
  -11.1800003       4.25540540E-11
  -11.1700001       3.73546506E-11
  -11.1599998       3.16658158E-11
  -11.1499996       2.54922351E-11
  -11.1400003       1.88950990E-11
  -11.1300001       1.19853780E-11
  -11.1199999       4.90492326E-12
  -11.1099997      -2.19902265E-12
  -11.1000004      -9.20344096E-12
  -11.0900002      -1.60298302E-11
  -11.0799999      -2.26557974E-11
  -11.0699997      -2.91100408E-11
  -11.0600004      -3.54550798E-11
  -11.0500002      -4.17609211E-11
  -11.0400000      -4.80783538E-11
  -11.0299997      -5.44188583E-11
  -11.0200005      -6.07464495E-11
  -11.0100002      -6.69877903E-11
  -11.0000000      -7.30539310E-11
  -10.9899998      -7.88724988E-11
  -10.9799995      -8.44222053E-11
  -10.9700003      -8.97558902E-11
  -10.9600000      -9.50126366E-11
  -10.9499998      -1.00412581E-10
  -10.9399996      -1.06231343E-10
  -10.9300003      -1.12765790E-10
  -10.9200001      -1.20295413E-10
  -10.9099998      -1.29043540E-10
  -10.8999996      -1.39153675E-10
  -10.8900003      -1.50678650E-10
  -10.8800001      -1.63585159E-10
  -10.8699999      -1.77769521E-10
  -10.8599997      -1.93079441E-10
  -10.8500004      -2.09338533E-10
  -10.8400002      -2.26363650E-10
  -10.8299999      -2.43972398E-10
  -10.8199997      -2.61986821E-10
  -10.8100004      -2.80228757E-10
  -10.8000002      -2.98513853E-10
  -10.7900000      -3.16649901E-10
  -10.7799997      -3.34441835E-10
  -10.7700005      -3.51702084E-10
  -10.7600002      -3.68270164E-10
  -10.7500000      -3.84031862E-10
  -10.7399998      -3.98936995E-10
  -10.7299995      -4.13011764E-10
  -10.7200003      -4.26358976E-10
  -10.7100000      -4.39147635E-10
  -10.6999998      -4.51593846E-10
  -10.6899996      -4.63931588E-10
  -10.6800003      -4.76385653E-10
  -10.6700001      -4.89146834E-10
  -10.6599998      -5.02351161E-10
  -10.6499996      -5.16072296E-10
  -10.6400003      -5.30322286E-10
  -10.6300001      -5.45060053E-10
  -10.6199999      -5.60207991E-10
  -10.6099997      -5.75669290E-10
  -10.6000004      -5.91347415E-10
  -10.5900002      -6.07159434E-10
  -10.5799999      -6.23045726E-10
  -10.5699997      -6.38973152E-10
  -10.5600004      -6.54930887E-10
  -10.5500002      -6.70922873E-10
  -10.5400000      -6.86954549E-10
  -10.5299997      -7.03021585E-10
  -10.5200005      -7.19097504E-10
  -10.5100002      -7.35129346E-10
  -10.5000000      -7.51038842E-10
  -10.4899998      -7.66730457E-10
  -10.4799995      -7.82107379E-10
  -10.4700003      -7.97091282E-10
  -10.4600000      -8.11641865E-10
  -10.4499998      -8.25772228E-10
  -10.4399996      -8.39552872E-10
  -10.4300003      -8.53108029E-10
  -10.4200001      -8.66593131E-10
  -10.4099998      -8.80169326E-10
  -10.3999996      -8.93968510E-10
  -10.3900003      -9.08059405E-10
  -10.3800001      -9.22427135E-10
  -10.3699999      -9.36963396E-10
  -10.3599997      -9.51474899E-10
  -10.3500004      -9.65703739E-10
  -10.3400002      -9.79366033E-10
  -10.3299999      -9.92190552E-10
  -10.3199997      -1.00395370E-09
  -10.3100004      -1.01450626E-09
  -10.3000002      -1.02378528E-09
  -10.2900000      -1.03181474E-09
  -10.2799997      -1.03868891E-09
  -10.2700005      -1.04455322E-09
  -10.2600002      -1.04958320E-09
  -10.2500000      -1.05396725E-09
  -10.2399998      -1.05789688E-09
  -10.2299995      -1.06156750E-09
  -10.2200003      -1.06517939E-09
  -10.2100000      -1.06894116E-09
  -10.1999998      -1.07307796E-09
  -10.1899996      -1.07781939E-09
  -10.1800003      -1.08339515E-09
  -10.1700001      -1.09001685E-09
  -10.1599998      -1.09786502E-09
  -10.1499996      -1.10707277E-09
  -10.1400003      -1.11772314E-09
  -10.1300001      -1.12984644E-09
  -10.1199999      -1.14342891E-09
  -10.1099997      -1.15842691E-09
  -10.1000004      -1.17478205E-09
  -10.0900002      -1.19242216E-09
  -10.0799999      -1.21126953E-09
  -10.0699997      -1.23124166E-09
  -10.0600004      -1.25223076E-09
  -10.0500002      -1.27410771E-09
  -10.0400000      -1.29670708E-09
  -10.0299997      -1.31982802E-09
  -10.0200005      -1.34324685E-09
  -10.0100002      -1.36673350E-09
  -10.0000000      -1.39006862E-09
  -9.98999977      -1.41306389E-09
  -9.97999954      -1.43557222E-09
  -9.97000027      -1.45749390E-09
  -9.96000004      -1.47877277E-09
  -9.94999981      -1.49938439E-09
  -9.93999958      -1.51931645E-09
  -9.93000031      -1.53856594E-09
  -9.92000008      -1.55711688E-09
  -9.90999985      -1.57495061E-09
  -9.89999962      -1.59205449E-09
  -9.89000034      -1.60842883E-09
  -9.88000011      -1.62411562E-09
  -9.86999989      -1.63921143E-09
  -9.85999966      -1.65387537E-09
  -9.85000038      -1.66833414E-09
  -9.84000015      -1.68287306E-09
  -9.82999992      -1.69782755E-09
  -9.81999969      -1.71355963E-09
  -9.81000042      -1.73044290E-09
  -9.80000019      -1.74884185E-09
  -9.78999996      -1.76909054E-09
  -9.77999973      -1.79148829E-09
  -9.77000046      -1.81628934E-09
  -9.76000023      -1.84369497E-09
  -9.75000000      -1.87385085E-09
  -9.73999977      -1.90685512E-09
  -9.72999954      -1.94275307E-09
  -9.72000027      -1.98153738E-09
  -9.71000004      -2.02316386E-09
  -9.69999981      -2.06754747E-09
  -9.68999958      -2.11455897E-09
  -9.68000031      -2.16404339E-09
  -9.67000008      -2.21580398E-09
  -9.65999985      -2.26962116E-09
  -9.64999962      -2.32525155E-09
  -9.64000034      -2.38242914E-09
  -9.63000011      -2.44086729E-09
  -9.61999989      -2.50027510E-09
  -9.60999966      -2.56035793E-09
  -9.60000038      -2.62082511E-09
  -9.59000015      -2.68138933E-09
  -9.57999992      -2.74176259E-09
  -9.56999969      -2.80163559E-09
  -9.56000042      -2.86069879E-09
  -9.55000019      -2.91861202E-09
  -9.53999996      -2.97501579E-09
  -9.52999973      -3.02952463E-09
  -9.52000046      -3.08176817E-09
  -9.51000023      -3.13137827E-09
  -9.50000000      -3.17803805E-09
  -9.48999977      -3.22146998E-09
  -9.47999954      -3.26147287E-09
  -9.47000027      -3.29790306E-09
  -9.46000004      -3.33069594E-09
  -9.44999981      -3.35982109E-09
  -9.43999958      -3.38528627E-09
  -9.43000031      -3.40714346E-09
  -9.42000008      -3.42546524E-09
  -9.40999985      -3.44035889E-09
  -9.39999962      -3.45201356E-09
  -9.39000034      -3.46069218E-09
  -9.38000011      -3.46675155E-09
  -9.36999989      -3.47068818E-09
  -9.35999966      -3.47311446E-09
  -9.35000038      -3.47474782E-09
  -9.34000015      -3.47641005E-09
  -9.32999992      -3.47895823E-09
  -9.31999969      -3.48326590E-09
  -9.31000042      -3.49017859E-09
  -9.30000019      -3.50045792E-09
  -9.28999996      -3.51480511E-09
  -9.27999973      -3.53379304E-09
  -9.27000046      -3.55792795E-09
  -9.26000023      -3.58763264E-09
  -9.25000000      -3.62329899E-09
  -9.23999977      -3.66527075E-09
  -9.22999954      -3.71388964E-09
  -9.22000027      -3.76948028E-09
  -9.21000004      -3.83235887E-09
  -9.19999981      -3.90279409E-09
  -9.18999958      -3.98099553E-09
  -9.18000031      -4.06703426E-09
  -9.17000008      -4.16087431E-09
  -9.15999985      -4.26234559E-09
  -9.14999962      -4.37114611E-09
  -9.14000034      -4.48688731E-09
  -9.13000011      -4.60911620E-09
  -9.11999989      -4.73736872E-09
  -9.10999966      -4.87119500E-09
  -9.10000038      -5.01018516E-09
  -9.09000015      -5.15396081E-09
  -9.07999992      -5.30216182E-09
  -9.06999969      -5.45438983E-09
  -9.06000042      -5.61018343E-09
  -9.05000019      -5.76899506E-09
  -9.03999996      -5.93021809E-09
  -9.02999973      -6.09315176E-09
  -9.02000046      -6.25706909E-09
  -9.01000023      -6.42121867E-09
  -9.00000000      -6.58484334E-09
  -8.98999977      -6.74723832E-09
  -8.97999954      -6.90767976E-09
  -8.97000027      -7.06546199E-09
  -8.96000004      -7.21985138E-09
  -8.94999981      -7.37003969E-09
  -8.93999958      -7.51524709E-09
  -8.93000031      -7.65463781E-09
  -8.92000008      -7.78744269E-09
  -8.90999985      -7.91291654E-09
  -8.89999962      -8.03045097E-09
  -8.89000034      -8.13957879E-09
  -8.88000011      -8.23990831E-09
  -8.86999989      -8.33120151E-09
  -8.85999966      -8.41323455E-09
  -8.85000038      -8.48584936E-09
  -8.84000015      -8.54886384E-09
  -8.82999992      -8.60215188E-09
  -8.81999969      -8.64561311E-09
  -8.81000042      -8.67925287E-09
  -8.80000019      -8.70314132E-09
  -8.78999996      -8.71751471E-09
  -8.77999973      -8.72273720E-09
  -8.77000046      -8.71925110E-09
  -8.76000023      -8.70760175E-09
  -8.75000000      -8.68831762E-09
  -8.73999977      -8.66192362E-09
  -8.72999954      -8.62887983E-09
  -8.72000027      -8.58962146E-09
  -8.71000004      -8.54458460E-09
  -8.69999981      -8.49418580E-09
  -8.68999958      -8.43893133E-09
  -8.68000031      -8.37937719E-09
  -8.67000008      -8.31610603E-09
  -8.65999985      -8.24980795E-09
  -8.64999962      -8.18108337E-09
  -8.64000034      -8.11058243E-09
  -8.63000011      -8.03889577E-09
  -8.61999989      -7.96659094E-09
  -8.60999966      -7.89422749E-09
  -8.60000038      -7.82234011E-09
  -8.59000015      -7.75150077E-09
  -8.57999992      -7.68226549E-09
  -8.56999969      -7.61518670E-09
  -8.56000042      -7.55078666E-09
  -8.55000019      -7.48944196E-09
  -8.53999996      -7.43151629E-09
  -8.52999973      -7.37725347E-09
  -8.52000046      -7.32679473E-09
  -8.51000023      -7.28022265E-09
  -8.50000000      -7.23760429E-09
  -8.48999977      -7.19905868E-09
  -8.47999954      -7.16468751E-09
  -8.47000027      -7.13463599E-09
  -8.46000004      -7.10907155E-09
  -8.44999981      -7.08807812E-09
  -8.43999958      -7.07172321E-09
  -8.43000031      -7.05994951E-09
  -8.42000008      -7.05258740E-09
  -8.40999985      -7.04946013E-09
  -8.39999962      -7.05025061E-09
  -8.39000034      -7.05464220E-09
  -8.38000011      -7.06231962E-09
  -8.36999989      -7.07301728E-09
  -8.35999966      -7.08649539E-09
  -8.35000038      -7.10252612E-09
  -8.34000015      -7.12089765E-09
  -8.32999992      -7.14152204E-09
  -8.31999969      -7.16425497E-09
  -8.31000042      -7.18898008E-09
  -8.30000019      -7.21565785E-09
  -8.28999996      -7.24425631E-09
  -8.27999973      -7.27478122E-09
  -8.27000046      -7.30727079E-09
  -8.26000023      -7.34180805E-09
  -8.25000000      -7.37849781E-09
  -8.23999977      -7.41745732E-09
  -8.22999954      -7.45886464E-09
  -8.22000027      -7.50292806E-09
  -8.21000004      -7.55001128E-09
  -8.19999981      -7.60043584E-09
  -8.18999958      -7.65469377E-09
  -8.18000031      -7.71336772E-09
  -8.17000008      -7.77696929E-09
  -8.15999985      -7.84611309E-09
  -8.14999962      -7.92137289E-09
  -8.14000034      -8.00328870E-09
  -8.13000011      -8.09239786E-09
  -8.11999989      -8.18921730E-09
  -8.10999966      -8.29420088E-09
  -8.10000038      -8.40780157E-09
  -8.09000015      -8.53046433E-09
  -8.07999992      -8.66254002E-09
  -8.06999969      -8.80430306E-09
  -8.06000042      -8.95600039E-09
  -8.05000019      -9.11775189E-09
  -8.03999996      -9.28958421E-09
  -8.02999973      -9.47151424E-09
  -8.02000046      -9.66356239E-09
  -8.01000023      -9.86566384E-09
  -8.00000000      -1.00777715E-08
  -7.98999977      -1.02998294E-08
  -7.98000002      -1.05316191E-08
  -7.96999979      -1.07728599E-08
  -7.96000004      -1.10231930E-08
  -7.94999981      -1.12820171E-08
  -7.94000006      -1.15487149E-08
  -7.92999983      -1.18226255E-08
  -7.92000008      -1.21031274E-08
  -7.90999985      -1.23896653E-08
  -7.90000010      -1.26818112E-08
  -7.88999987      -1.29792026E-08
  -7.88000011      -1.32815341E-08
  -7.86999989      -1.35884308E-08
  -7.86000013      -1.38994372E-08
  -7.84999990      -1.42139855E-08
  -7.84000015      -1.45314463E-08
  -7.82999992      -1.48510351E-08
  -7.82000017      -1.51719739E-08
  -7.80999994      -1.54935496E-08
  -7.80000019      -1.58151803E-08
  -7.78999996      -1.61363438E-08
  -7.78000021      -1.64567133E-08
  -7.76999998      -1.67759406E-08
  -7.76000023      -1.70936207E-08
  -7.75000000      -1.74093113E-08
  -7.73999977      -1.77225967E-08
  -7.73000002      -1.80328996E-08
  -7.71999979      -1.83397884E-08
  -7.71000004      -1.86428490E-08
  -7.69999981      -1.89419325E-08
  -7.69000006      -1.92369676E-08
  -7.67999983      -1.95280556E-08
  -7.67000008      -1.98154186E-08
  -7.65999985      -2.00992343E-08
  -7.65000010      -2.03795949E-08
  -7.63999987      -2.06566639E-08
  -7.63000011      -2.09304734E-08
  -7.61999989      -2.12010800E-08
  -7.61000013      -2.14686580E-08
  -7.59999990      -2.17334097E-08
  -7.59000015      -2.19956107E-08
  -7.57999992      -2.22557794E-08
  -7.57000017      -2.25143175E-08
  -7.55999994      -2.27719017E-08
  -7.55000019      -2.30289405E-08
  -7.53999996      -2.32858390E-08
  -7.53000021      -2.35430342E-08
  -7.51999998      -2.38008457E-08
  -7.51000023      -2.40596627E-08
  -7.50000000      -2.43198581E-08
  -7.48999977      -2.45818939E-08
  -7.48000002      -2.48461980E-08
  -7.46999979      -2.51133123E-08
  -7.46000004      -2.53837289E-08
  -7.44999981      -2.56578030E-08
  -7.44000006      -2.59358828E-08