  -16.0000000       0.00000000    
  -15.9899998       0.00000000    
  -15.9799995       0.00000000    
  -15.9700003       0.00000000    
  -15.9600000       0.00000000    
  -15.9499998       0.00000000    
  -15.9399996       0.00000000    
  -15.9300003       0.00000000    
  -15.9200001       0.00000000    
  -15.9099998       0.00000000    
  -15.8999996       0.00000000    
  -15.8900003       0.00000000    
  -15.8800001      -8.08409084E-42
  -15.8699999      -6.69191483E-40
  -15.8599997      -1.91397037E-38
  -15.8500004      -3.12975685E-37
  -15.8400002      -3.51762272E-36
  -15.8299999      -2.99185697E-35
  -15.8199997      -2.04244302E-34
  -15.8100004      -1.16412117E-33
  -15.8000002      -5.69646362E-33
  -15.7900000      -2.44276278E-32
  -15.7799997      -9.32272403E-32
  -15.7700005      -3.20428757E-31
  -15.7600002      -1.00092827E-30
  -15.7500000      -2.86141825E-30
  -15.7399998      -7.52514620E-30
  -15.7299995      -1.82712342E-29
  -15.7200003      -4.10435803E-29
  -15.7100000      -8.53385517E-29
  -15.6999998      -1.63987687E-28
  -15.6899996      -2.90001138E-28
  -15.6800003      -4.67908965E-28
  -15.6700001      -6.77276521E-28
  -15.6599998      -8.48587459E-28
  -15.6499996      -8.37757859E-28
  -15.6400003      -4.15365407E-28
  -15.6300001       7.02500907E-28
  -15.6199999       2.74982024E-27
  -15.6099997       5.71256513E-27
  -15.6000004       9.05658310E-27
  -15.5900002       1.14719003E-26
  -15.5799999       1.08100614E-26
  -15.5699997       4.44942973E-27
  -15.5600004      -9.71260723E-27
  -15.5500002      -3.16378244E-26
  -15.5400000      -5.72701369E-26
  -15.5299997      -7.72542639E-26
  -15.5200005      -7.74650254E-26
  -15.5100002      -4.24994529E-26
  -15.5000000       3.74978406E-26
  -15.4899998       1.57875473E-25
  -15.4799995       2.91585892E-25
  -15.4700003       3.87141304E-25
  -15.4600000       3.77169017E-25
  -15.4499998       1.99736660E-25
  -15.4399996      -1.70580176E-25
  -15.4300003      -6.91324467E-25
  -15.4200001      -1.23463634E-24
  -15.4099998      -1.59748968E-24
  -15.3999996      -1.54629902E-24
  -15.3900003      -8.89484551E-25
  -15.3800001       4.41876048E-25
  -15.3699999       2.33120191E-24
  -15.3599997       4.45002314E-24
  -15.3500004       6.26751449E-24
  -15.3400002       7.07711336E-24
  -15.3299999       6.02508333E-24
  -15.3199997       2.16760754E-24
  -15.3100004      -5.34132236E-24
  -15.3000002      -1.67681899E-23
  -15.2900000      -3.08978105E-23
  -15.2799997      -4.38134735E-23
  -15.2700005      -4.79077342E-23
  -15.2600002      -3.22131761E-23
  -15.2500000       1.45516107E-23
  -15.2399998       9.72506272E-23
  -15.2299995       2.04526945E-22
  -15.2200003       2.99330330E-22
  -15.2100000       3.16368640E-22
  -15.1999998       1.74882902E-22
  -15.1899996      -1.86944169E-22
  -15.1800003      -7.57744899E-22
  -15.1700001      -1.39488551E-21
  -15.1599998      -1.79493851E-21
  -15.1499996      -1.53520117E-21
  -15.1400003      -2.20875399E-22
  -15.1300001       2.26311607E-21
  -15.1199999       5.46074469E-21
  -15.1099997       8.15457428E-21
  -15.1000004       8.46767345E-21
  -15.0900002       4.42426436E-21
  -15.0799999      -5.00702603E-21
  -15.0699997      -1.86274208E-20
  -15.0600004      -3.20395066E-20
  -15.0500002      -3.77836071E-20
  -15.0400000      -2.73015840E-20
  -15.0299997       5.07984660E-21
  -15.0200005       5.69701454E-20
  -15.0100002       1.13628017E-19
  -15.0000000       1.47597611E-19
  -14.9899998       1.25174450E-19
  -14.9799995       2.07511359E-20
  -14.9700003      -1.63628293E-19
  -14.9600000      -3.80869394E-19
  -14.9499998      -5.34688204E-19
  -14.9399996      -4.99807238E-19
  -14.9300003      -1.71414493E-19
  -14.9200001       4.64117445E-19
  -14.9099998       1.26211011E-18
  -14.8999996       1.89499510E-18
  -14.8900003       1.91106039E-18
  -14.8800001       8.98169460E-19
  -14.8699999      -1.26873645E-18
  -14.8599997      -4.17586871E-18
  -14.8500004      -6.74587296E-18
  -14.8400002      -7.38609090E-18
  -14.8299999      -4.50150614E-18
  -14.8199997       2.67033030E-18
  -14.8100004       1.31387292E-17
  -14.8000002       2.35766046E-17
  -14.7900000       2.85783854E-17
  -14.7799997       2.21326185E-17
  -14.7700005       2.89671749E-19
  -14.7600002      -3.56072137E-17
  -14.7500000      -7.64052769E-17
  -14.7399998      -1.04996993E-16
  -14.7299995      -9.99811618E-17
  -14.7200003      -4.35205661E-17
  -14.7100000       6.80263476E-17
  -14.6999998       2.14231322E-16
  -14.6899996       3.46585289E-16
  -14.6800003       3.95437914E-16
  -14.6700001       2.90583785E-16
  -14.6599998      -6.74698883E-18
  -14.6499996      -4.69127398E-16
  -14.6400003      -9.79813620E-16
  -14.6300001      -1.33773046E-15
  -14.6199999      -1.30271031E-15
  -14.6099997      -6.81237736E-16
  -14.6000004       5.64891725E-16
  -14.5900002       2.22334375E-15
  -14.5799999       3.79730672E-15
  -14.5699997       4.57730252E-15
  -14.5600004       3.83826881E-15
  -14.5500002       1.13745429E-15
  -14.5400000      -3.36572650E-15
  -14.5299997      -8.69176591E-15
  -14.5200005      -1.30620680E-14
  -14.5100002      -1.42578752E-14
  -14.5000000      -1.03204680E-14
  -14.4899998      -4.57246173E-16
  -14.4799995       1.41226422E-14
  -14.4700003       2.98090782E-14
  -14.4600000       4.09720848E-14
  -14.4499998       4.12997138E-14
  -14.4399996       2.59628914E-14
  -14.4300003      -5.89876413E-15
  -14.4200001      -4.92046996E-14
  -14.4099998      -9.24366852E-14
  -14.3999996      -1.19391015E-13
  -14.3900003      -1.13388872E-13
  -14.3800001      -6.33060499E-14
  -14.3699999       3.01455672E-14
  -14.3599997       1.50120218E-13
  -14.3500004       2.63647936E-13
  -14.3400002       3.27520969E-13
  -14.3299999       3.00037637E-13
  -14.3199997       1.56454399E-13
  -14.3100004      -9.60976632E-14
  -14.3000002      -4.09720435E-13
  -14.2900000      -6.98095227E-13
  -14.2799997      -8.53047613E-13
  -14.2700005      -7.74296968E-13
  -14.2600002      -4.06460401E-13
  -14.2500000       2.27062225E-13
  -14.2399998       1.00585621E-12
  -14.2299995       1.72104778E-12
  -14.2200003       2.11613127E-12
  -14.2100000       1.95638471E-12
  -14.1999998       1.11258236E-12
  -14.1899996      -3.64229832E-13
  -14.1800003      -2.20393647E-12
  -14.1700001      -3.93750180E-12
  -14.1599998      -4.98663827E-12
  -14.1499996      -4.81398385E-12
  -14.1400003      -3.10321972E-12
  -14.1300001       7.91729489E-14
  -14.1199999       4.19594741E-12
  -14.1099997       8.27189098E-12
  -14.1000004       1.10691734E-11
  -14.0900002       1.13890121E-11
  -14.0799999       8.44092157E-12
  -14.0699997       2.18595194E-12
  -14.0600004      -6.45489868E-12
  -14.0500002      -1.56217192E-11
  -14.0400000      -2.28162107E-11
  -14.0299997      -2.54613067E-11
  -14.0200005      -2.16196991E-11
  -14.0100002      -1.07024485E-11
  -14.0000000       6.03655494E-12
  -13.9899998       2.54089597E-11
  -13.9799995       4.27210385E-11
  -13.9700003       5.27188536E-11
  -13.9600000       5.09040483E-11
  -13.9499998       3.49363663E-11
  -13.9399996       5.75957858E-12
  -13.9300003      -3.19167644E-11
  -13.9200001      -7.00467323E-11
  -13.9099998      -9.86646945E-11
  -13.8999996      -1.08117078E-10
  -13.8900003      -9.16786161E-11
  -13.8800001      -4.79393816E-11
  -13.8699999       1.77162625E-11
  -13.8599997       9.31133157E-11
  -13.8500004       1.61060873E-10
  -13.8400002       2.02783762E-10
  -13.8299999       2.02433015E-10
  -13.8199997       1.51707091E-10
  -13.8100004       5.34041457E-11
  -13.8000002      -7.72148318E-11
  -13.7900000      -2.13997597E-10
  -13.7799997      -3.24533900E-10
  -13.7700005      -3.77181619E-10
  -13.7600002      -3.49096890E-10
  -13.7500000      -2.33370934E-10
  -13.7399998      -4.32943507E-11
  -13.7299995       1.87786453E-10
  -13.7200003       4.11662593E-10
  -13.7100000       5.74918391E-10
  -13.6999998       6.31211639E-10
  -13.6899996       5.53404544E-10
  -13.6800003       3.42429946E-10
  -13.6700001       3.02412921E-11
  -13.6599998      -3.24568733E-10
  -13.6499996      -6.48141096E-10
  -13.6400003      -8.67476369E-10
  -13.6300001      -9.27580623E-10
  -13.6199999      -8.05336631E-10
  -13.6099997      -5.16266307E-10
  -13.6000004      -1.12055074E-10
  -13.5900002       3.30896865E-10
  -13.5799999       7.29120153E-10
  -13.5699997       1.01122999E-09
  -13.5600004       1.13324528E-09
  -13.5500002       1.08574505E-09
  -13.5400000       8.90864438E-10
  -13.5299997       5.90451354E-10
  -13.5200005       2.29668895E-10
  -13.5100002      -1.57711302E-10
  -13.5000000      -5.56293900E-10
  -13.4899998      -9.64656910E-10
  -13.4799995      -1.38002176E-09
  -13.4700003      -1.77716197E-09
  -13.4600000      -2.09037299E-09
  -13.4499998      -2.20847607E-09
  -13.4399996      -1.99047023E-09
  -13.4300003      -1.30366906E-09
  -13.4200001      -7.82477277E-11
  -13.4099998       1.63582914E-09
  -13.3999996       3.62869290E-09
  -13.3900003       5.52659563E-09
  -13.3800001       6.83750079E-09
  -13.3699999       7.04739866E-09
  -13.3599997       5.75388448E-09
  -13.3500004       2.80842372E-09
  -13.3400002      -1.57071700E-09
  -13.3299999      -6.75360168E-09
  -13.3199997      -1.17506778E-08
  -13.3100004      -1.53703201E-08
  -13.3000002      -1.64640621E-08
  -13.2900000      -1.42152778E-08
  -13.2799997      -8.40654479E-09
  -13.2700005       4.05031675E-10
  -13.2600002       1.08651426E-08
  -13.2500000       2.09854853E-08
  -13.2399998       2.84859905E-08
  -13.2299995       3.12650101E-08
  -13.2200003       2.79071362E-08
  -13.2100000       1.81165571E-08
  -13.1999998       2.96366220E-09
  -13.1899996      -1.51391628E-08
  -13.1800003      -3.27677157E-08
  -13.1700001      -4.60909924E-08
  -13.1599998      -5.16543359E-08
  -13.1499996      -4.71899817E-08
  -13.1400003      -3.22789298E-08
  -13.1300001      -8.69608563E-09
  -13.1199999       1.96796357E-08
  -13.1099997       4.74298609E-08
  -13.1000004       6.85727031E-08
  -13.0900002       7.77922082E-08
  -13.0799999       7.16787127E-08
  -13.0699997       4.97100530E-08
  -13.0600004       1.47219579E-08
  -13.0500002      -2.73035425E-08
  -13.0400000      -6.81714951E-08
  -13.0299997      -9.90084956E-08
  -13.0200005      -1.12130024E-07
  -13.0100002      -1.02856589E-07
  -13.0000000      -7.08602883E-08
  -12.9899998      -2.06829878E-08
  -12.9799995       3.87904606E-08
  -12.9700003       9.58908544E-08
  -12.9600000       1.38501662E-07
  -12.9499998       1.56703450E-07
  -12.9399996       1.45129931E-07
  -12.9300003       1.04446173E-07
  -12.9200001       4.15179358E-08
  -12.9099998      -3.18730926E-08
  -12.8999996      -1.01563998E-07
  -12.8900003      -1.54241107E-07
  -12.8800001      -1.80589907E-07
  -12.8699999      -1.77527227E-07
  -12.8599997      -1.48852806E-07
  -12.8500004      -1.04025233E-07
  -12.8400002      -5.52630794E-08
  -12.8299999      -1.36644243E-08
  -12.8199997       1.45906194E-08
  -12.8100004       3.07854933E-08
  -12.8000002       4.40003838E-08
  -12.7900000       6.87801744E-08
  -12.7799997       1.20401637E-07
  -12.7700005       2.08747124E-07
  -12.7600002       3.32363982E-07
  -12.7500000       4.74514735E-07
  -12.7399998       6.02784041E-07
  -12.7299995       6.73097816E-07
  -12.7200003       6.38016502E-07
  -12.7100000       4.57970430E-07
  -12.6999998       1.13227337E-07
  -12.6899996      -3.86206665E-07
  -12.6800003      -9.95381583E-07
  -12.6700001      -1.63577749E-06
  -12.6599998      -2.20386460E-06
  -12.6499996      -2.58585351E-06
  -12.6400003      -2.67628707E-06
  -12.6300001      -2.39705969E-06
  -12.6199999      -1.71330612E-06
  -12.6099997      -6.42989164E-07
  -12.6000004       7.41442875E-07
  -12.5900002       2.31961030E-06
  -12.5799999       3.93627670E-06
  -12.5699997       5.41828649E-06
  -12.5600004       6.59195393E-06
  -12.5500002       7.29814428E-06
  -12.5400000       7.40302812E-06
  -12.5299997       6.80458243E-06
  -12.5200005       5.43602619E-06
  -12.5100002       3.26862255E-06
  -12.5000000       3.16583822E-07
  -12.4899998      -3.35405821E-06
  -12.4799995      -7.61215188E-06
  -12.4700003      -1.22458332E-05
  -12.4600000      -1.69474824E-05
  -12.4499998      -2.13047606E-05
  -12.4399996      -2.48021770E-05
  -12.4300003      -2.68373333E-05
  -12.4200001      -2.67530304E-05
  -12.4099998      -2.38841112E-05
  -12.3999996      -1.76143421E-05
  -12.3900003      -7.43808823E-06
  -12.3800001       6.98344411E-06
  -12.3699999       2.57757474E-05
  -12.3599997       4.88201331E-05
  -12.3500004       7.57445887E-05
  -12.3400002       1.05929663E-04
  -12.3299999       1.38533724E-04
  -12.3199997       1.72527565E-04
  -12.3100004       2.06735713E-04
  -12.3000002       2.39880683E-04
  -12.2900000       2.70626741E-04
  -12.2799997       2.97623832E-04
  -12.2700005       3.19545768E-04
  -12.2600002       3.35136749E-04
  -12.2500000       3.43248132E-04
  -12.2399998       3.42888117E-04
  -12.2299995       3.33255535E-04
  -12.2200003       3.13783210E-04
  -12.2100000       2.84162787E-04
  -12.1999998       2.44369381E-04
  -12.1899996       1.94660155E-04
  -12.1800003       1.35575217E-04
  -12.1700001       6.79121149E-05
  -12.1599998      -7.30178726E-06
  -12.1499996      -8.88541399E-05
  -12.1400003      -1.75387715E-04
  -12.1300001      -2.65457493E-04
  -12.1199999      -3.57585610E-04
  -12.1099997      -4.50322230E-04
  -12.1000004      -5.42295573E-04
  -12.0900002      -6.32276176E-04
  -12.0799999      -7.19206582E-04
  -12.0699997      -8.02227471E-04
  -12.0600004      -8.80677602E-04
  -12.0500002      -9.54060350E-04
  -12.0400000      -1.02198333E-03
  -12.0299997      -1.08408264E-03
  -12.0200005      -1.13992649E-03
  -12.0100002      -1.18893140E-03
  -12.0000000      -1.23028737E-03
  -11.9899998      -1.26292487E-03
  -11.9799995      -1.28552062E-03
  -11.9700003      -1.29653572E-03
  -11.9600000      -1.29430753E-03
  -11.9499998      -1.27715745E-03
  -11.9399996      -1.24350807E-03
  -11.9300003      -1.19200523E-03
  -11.9200001      -1.12161739E-03
  -11.9099998      -1.03171042E-03
  -11.8999996      -9.22099280E-04
  -11.8900003      -7.93068786E-04
  -11.8800001      -6.45368593E-04
  -11.8699999      -4.80190822E-04
  -11.8599997      -2.99113046E-04
  -11.8500004      -1.04041945E-04
  -11.8400002       1.02883845E-04
  -11.8299999       3.19391402E-04
  -11.8199997       5.43186034E-04
  -11.8100004       7.72061641E-04
  -11.8000002       1.00398739E-03
  -11.7900000       1.23716297E-03
  -11.7799997       1.47003110E-03
  -11.7700005       1.70124474E-03
  -11.7600002       1.92957825E-03
  -11.7500000       2.15383456E-03
  -11.7399998       2.37273006E-03
  -11.7299995       2.58481177E-03
  -11.7200003       2.78841495E-03
  -11.7100000       2.98167136E-03
  -11.6999998       3.16255447E-03
  -11.6899996       3.32896831E-03
  -11.6800003       3.47883557E-03
  -11.6700001       3.61015438E-03
  -11.6599998       3.72103159E-03
  -11.6499996       3.80966812E-03
  -11.6400003       3.87430261E-03
  -11.6300001       3.91315902E-03
  -11.6199999       3.92440567E-03
  -11.6099997       3.90614849E-03
  -11.6000004       3.85650643E-03
  -11.5900002       3.77372419E-03
  -11.5799999       3.65632470E-03
  -11.5699997       3.50326020E-03
  -11.5600004       3.31404572E-03
  -11.5500002       3.08878650E-03
  -11.5400000       2.82817194E-03
  -11.5299997       2.53335596E-03
  -11.5200005       2.20579724E-03
  -11.5100002       1.84711185E-03
  -11.5000000       1.45890412E-03
  -11.4899998       1.04270782E-03
  -11.4799995       5.99972205E-04
  -11.4700003       1.32121204E-04
  -11.4600000      -3.59336729E-04
  -11.4499998      -8.72706063E-04
  -11.4399996      -1.40603597E-03
  -11.4300003      -1.95709593E-03
  -11.4200001      -2.52344343E-03
  -11.4099998      -3.10254376E-03
  -11.3999996      -3.69192520E-03
  -11.3900003      -4.28933837E-03
  -11.3800001      -4.89288755E-03
  -11.3699999      -5.50110033E-03
  -11.3599997      -6.11291034E-03
  -11.3500004      -6.72758650E-03
  -11.3400002      -7.34457653E-03
  -11.3299999      -7.96332955E-03
  -11.3199997      -8.58311355E-03
  -11.3100004      -9.20281466E-03
  -11.3000002      -9.82083566E-03
  -11.2900000      -1.04350112E-02
  -11.2799997      -1.10426452E-02
  -11.2700005      -1.16405971E-02
  -11.2600002      -1.22254994E-02
  -11.2500000      -1.27940001E-02
  -11.2399998      -1.33430567E-02
  -11.2299995      -1.38702299E-02
  -11.2200003      -1.43738827E-02
  -11.2100000      -1.48533173E-02
  -11.1999998      -1.53087554E-02
  -11.1899996      -1.57411862E-02
  -11.1800003      -1.61521230E-02
  -11.1700001      -1.65432636E-02
  -11.1599998      -1.69161931E-02
  -11.1499996      -1.72721092E-02
  -11.1400003      -1.76116657E-02
  -11.1300001      -1.79349389E-02
  -11.1199999      -1.82414912E-02
  -11.1099997      -1.85305011E-02
  -11.1000004      -1.88009143E-02
  -11.0900002      -1.90515891E-02
  -11.0799999      -1.92813259E-02
  -11.0699997      -1.94889400E-02
  -11.0600004      -1.96732674E-02
  -11.0500002      -1.98331270E-02
  -11.0400000      -1.99674368E-02
  -11.0299997      -2.00752709E-02
  -11.0200005      -2.01559905E-02
  -11.0100002      -2.02093497E-02
  -11.0000000      -2.02355441E-02
  -10.9899998      -2.02351194E-02
  -10.9799995      -2.02088431E-02
  -10.9700003      -2.01573782E-02
  -10.9600000      -2.00810973E-02
  -10.9499998      -1.99798513E-02
  -10.9399996      -1.98529474E-02
  -10.9300003      -1.96992867E-02
  -10.9200001      -1.95176322E-02
  -10.9099998      -1.93070229E-02
  -10.8999996      -1.90670434E-02
  -10.8900003      -1.87980328E-02
  -10.8800001      -1.85010452E-02
  -10.8699999      -1.81775708E-02
  -10.8599997      -1.78291369E-02
  -10.8500004      -1.74568221E-02
  -10.8400002      -1.70609616E-02
  -10.8299999      -1.66410021E-02
  -10.8199997      -1.61957201E-02
  -10.8100004      -1.57235954E-02
  -10.8000002      -1.52234128E-02
  -10.7900000      -1.46947373E-02
  -10.7799997      -1.41381845E-02
  -10.7700005      -1.35555035E-02
  -10.7600002      -1.29491752E-02
  -10.7500000      -1.23219341E-02
  -10.7399998      -1.16761625E-02
  -10.7299995      -1.10133998E-02
  -10.7200003      -1.03341322E-02
  -10.7100000      -9.63788759E-03
  -10.6999998      -8.92362464E-03
  -10.6899996      -8.19023978E-03
  -10.6800003      -7.43708527E-03
  -10.6700001      -6.66429568E-03
  -10.6599998      -5.87289454E-03
  -10.6499996      -5.06463693E-03
  -10.6400003      -4.24173521E-03
  -10.6300001      -3.40657984E-03
  -10.6199999      -2.56156479E-03
  -10.6099997      -1.70914386E-03
  -10.6000004      -8.51988967E-04
  -10.5900002       6.77237722E-06
  -10.5799999       8.63417226E-04
  -10.5699997       1.71373191E-03
  -10.5600004       2.55340571E-03
  -10.5500002       3.37859616E-03
  -10.5400000       4.18659300E-03
  -10.5299997       4.97630518E-03
  -10.5200005       5.74837765E-03
  -10.5100002       6.50489191E-03
  -10.5000000       7.24864705E-03
  -10.4899998       7.98220374E-03
  -10.4799995       8.70691054E-03
  -10.4700003       9.42231063E-03
  -10.4600000       1.01258894E-02
  -10.4499998       1.08134784E-02
  -10.4399996       1.14799477E-02
  -10.4300003       1.21201314E-02
  -10.4200001       1.27296336E-02
  -10.4099998       1.33052785E-02
  -10.3999996       1.38451615E-02
  -10.3900003       1.43483179E-02
  -10.3800001       1.48142055E-02
  -10.3699999       1.52422898E-02
  -10.3599997       1.56318285E-02
  -10.3500004       1.59820504E-02
  -10.3400002       1.62926409E-02
  -10.3299999       1.65642090E-02
  -10.3199997       1.67986657E-02
  -10.3100004       1.69991162E-02
  -10.3000002       1.71692967E-02
  -10.2900000       1.73125863E-02
  -10.2799997       1.74310096E-02
  -10.2700005       1.75243523E-02
  -10.2600002       1.75898988E-02
  -10.2500000       1.76229868E-02
  -10.2399998       1.76181085E-02
  -10.2299995       1.75705478E-02
  -10.2200003       1.74778886E-02
  -10.2100000       1.73411425E-02
  -10.1999998       1.71650648E-02
  -10.1899996       1.69575065E-02
  -10.1800003       1.67280901E-02
  -10.1700001       1.64864827E-02
  -10.1599998       1.62407439E-02
  -10.1499996       1.59961991E-02
  -10.1400003       1.57551635E-02
  -10.1300001       1.55173559E-02
  -10.1199999       1.52809564E-02
  -10.1099997       1.50437830E-02
  -10.1000004       1.48044005E-02
  -10.0900002       1.45625845E-02
  -10.0799999       1.43193379E-02
  -10.0699997       1.40763996E-02
  -10.0600004       1.38355475E-02
  -10.0500002       1.35980751E-02
  -10.0400000       1.33645702E-02
  -10.0299997       1.31351585E-02
  -10.0200005       1.29100448E-02
  -10.0100002       1.26901269E-02
  -10.0000000       1.24774929E-02
  -9.98999977       1.22753019E-02
  -9.97999954       1.20874168E-02
  -9.97000027       1.19175361E-02
  -9.96000004       1.17683001E-02
  -9.94999981       1.16406437E-02
  -9.93999958       1.15336590E-02
  -9.93000031       1.14450278E-02
  -9.92000008       1.13719236E-02
  -9.90999985       1.13121234E-02
  -9.89999962       1.12649575E-02
  -9.89000034       1.12317335E-02
  -9.88000011       1.12155313E-02
  -9.86999989       1.12203769E-02
  -9.85999966       1.12500973E-02
  -9.85000038       1.13071650E-02
  -9.84000015       1.13919480E-02
  -9.82999992       1.15026329E-02
  -9.81999969       1.16358520E-02
  -9.81000042       1.17878038E-02
  -9.80000019       1.19555704E-02
  -9.78999996       1.21381180E-02
  -9.77999973       1.23367794E-02
  -9.77000046       1.25549501E-02
  -9.76000023       1.27971349E-02
  -9.75000000       1.30676460E-02
  -9.73999977       1.33693377E-02
  -9.72999954       1.37028275E-02
  -9.72000027       1.40663739E-02
  -9.71000004       1.44565189E-02
  -9.69999981       1.48692140E-02
  -9.68999958       1.53011223E-02
  -9.68000031       1.57506280E-02
  -9.67000008       1.62182637E-02
  -9.65999985       1.67063493E-02
  -9.64999962       1.72180310E-02
  -9.64000034       1.77560225E-02
  -9.63000011       1.83214080E-02
  -9.61999989       1.89129189E-02
  -9.60999966       1.95269194E-02
  -9.60000038       2.01580394E-02
  -9.59000015       2.08002031E-02
  -9.57999992       2.14476567E-02
  -9.56999969       2.20956542E-02
  -9.56000042       2.27403697E-02
  -9.55000019       2.33781915E-02
  -9.53999996       2.40045264E-02
  -9.52999973       2.46125869E-02
  -9.52000046       2.51925830E-02
  -9.51000023       2.57318392E-02
  -9.50000000       2.62158103E-02
  -9.48999977       2.66298447E-02
  -9.47999954       2.69613098E-02
  -9.47000027       2.72013973E-02
  -9.46000004       2.73460597E-02
  -9.44999981       2.73958519E-02
  -9.43999958       2.73546223E-02
  -9.43000031       2.72274762E-02
  -9.42000008       2.70187128E-02
  -9.40999985       2.67303009E-02
  -9.39999962       2.63614785E-02
  -9.39000034       2.59095505E-02
  -9.38000011       2.53717545E-02
  -9.36999989       2.47475002E-02
  -9.35999966       2.40403339E-02
  -9.35000038       2.32590493E-02
  -9.34000015       2.24175379E-02
  -9.32999992       2.15334762E-02
  -9.31999969       2.06264015E-02
  -9.31000042       1.97156444E-02
  -9.30000019       1.88189894E-02
  -9.28999996       1.79521758E-02
  -9.27999973       1.71295516E-02
  -9.27000046       1.63652804E-02
  -9.26000023       1.56746581E-02
  -9.25000000       1.50747681E-02
  -9.23999977       1.45842349E-02
  -9.22999954       1.42218871E-02
  -9.22000027       1.40048480E-02
  -9.21000004       1.39465956E-02
  -9.19999981       1.40555650E-02
  -9.18999958       1.43350577E-02
  -9.18000031       1.47841759E-02
  -9.17000008       1.53996972E-02
  -9.15999985       1.61781423E-02
  -9.14999962       1.71171725E-02
  -9.14000034       1.82161685E-02
  -9.13000011       1.94753222E-02
  -9.11999989       2.08939668E-02
  -9.10999966       2.24686619E-02
  -9.10000038       2.41916981E-02
  -9.09000015       2.60507762E-02
  -9.07999992       2.80299354E-02
  -9.06999969       3.01114824E-02
  -9.06000042       3.22782733E-02
  -9.05000019       3.45155708E-02
  -9.03999996       3.68115492E-02
  -9.02999973       3.91567238E-02
  -9.02000046       4.15420048E-02
  -9.01000023       4.39563394E-02
  -9.00000000       4.63848971E-02
  -8.98999977       4.88082208E-02
  -8.97999954       5.12030087E-02
  -8.97000027       5.35442121E-02
  -8.96000004       5.58076724E-02
  -8.94999981       5.79725616E-02
  -8.93999958       6.00228012E-02
  -8.93000031       6.19469546E-02
  -8.92000008       6.37366250E-02
  -8.90999985       6.53841794E-02
  -8.89999962       6.68803677E-02
  -8.89000034       6.82131872E-02
  -8.88000011       6.93678036E-02
  -8.86999989       7.03281537E-02
  -8.85999966       7.10792542E-02
  -8.85000038       7.16096014E-02
  -8.84000015       7.19126016E-02
  -8.82999992       7.19866753E-02
  -8.81999969       7.18338937E-02
  -8.81000042       7.14575797E-02
  -8.80000019       7.08600059E-02
  -8.78999996       7.00407028E-02
  -8.77999973       6.89961240E-02
  -8.77000046       6.77210316E-02
  -8.76000023       6.62105829E-02
  -8.75000000       6.44629002E-02
  -8.73999977       6.24809116E-02
  -8.72999954       6.02729470E-02
  -8.72000027       5.78520000E-02
  -8.71000004       5.52337989E-02
  -8.69999981       5.24343736E-02
  -8.68999958       4.94682193E-02
  -8.68000031       4.63472269E-02
  -8.67000008       4.30809744E-02
  -8.65999985       3.96777689E-02
  -8.64999962       3.61462757E-02
  -8.64000034       3.24964412E-02
  -8.63000011       2.87400410E-02
  -8.61999989       2.48900093E-02
  -8.60999966       2.09590681E-02
  -8.60000038       1.69584546E-02
  -8.59000015       1.28969615E-02
  -8.57999992       8.78103636E-03
  -8.56999969       4.61569428E-03
  -8.56000042       4.06188308E-04
  -8.55000019      -3.84039059E-03
  -8.53999996      -8.11399706E-03
  -8.52999973      -1.24017680E-02
  -8.52000046      -1.66890435E-02
  -8.51000023      -2.09612008E-02
  -8.50000000      -2.52054632E-02
  -8.48999977      -2.94124186E-02
  -8.47999954      -3.35761718E-02
  -8.47000027      -3.76936048E-02
  -8.46000004      -4.17629443E-02
  -8.44999981      -4.57820259E-02
  -8.43999958      -4.97471020E-02
  -8.43000031      -5.36525771E-02
  -8.42000008      -5.74917383E-02
  -8.40999985      -6.12580925E-02
  -8.39999962      -6.49469346E-02
  -8.39000034      -6.85563758E-02
  -8.38000011      -7.20875189E-02
  -8.36999989      -7.55436718E-02
  -8.35999966      -7.89287984E-02
  -8.35000038      -8.22458193E-02
  -8.34000015      -8.54955614E-02
  -8.32999992      -8.86759758E-02
  -8.31999969      -9.17828903E-02
  -8.31000042      -9.48111415E-02
  -8.30000019      -9.77557302E-02
  -8.28999996     -0.100613199    
  -8.27999973     -0.103381693    
  -8.27000046     -0.106060706    
  -8.26000023     -0.108649984    
  -8.25000000     -0.111148253    
  -8.23999977     -0.113552414    
  -8.22999954     -0.115857229    
  -8.22000027     -0.118055522    
  -8.21000004     -0.120139368    
  -8.19999981     -0.122101061    
  -8.18999958     -0.123933919    
  -8.18000031     -0.125632465    
  -8.17000008     -0.127192199    
  -8.15999985     -0.128608584    
  -8.14999962     -0.129876137    
  -8.14000034     -0.130987674    
  -8.13000011     -0.131933853    
  -8.11999989     -0.132703811    
  -8.10999966     -0.133285761    
  -8.10000038     -0.133667871    
  -8.09000015     -0.133839518    
  -8.07999992     -0.133791402    
  -8.06999969     -0.133515984    
  -8.06000042     -0.133007079    
  -8.05000019     -0.132259294    
  -8.03999996     -0.131267935    
  -8.02999973     -0.130028561    
  -8.02000046     -0.128537118    
  -8.01000023     -0.126790658    
  -8.00000000     -0.124787554    
  -7.98999977     -0.122528180    
  -7.98000002     -0.120015249    
  -7.96999979     -0.117254004    
  -7.96000004     -0.114251897    
  -7.94999981     -0.111018442    
  -7.94000006     -0.107564464    
  -7.92999983     -0.103901654    
  -7.92000008     -0.100041680    
  -7.90999985      -9.59959850E-02
  -7.90000010      -9.17752385E-02
  -7.88999987      -8.73894691E-02
  -7.88000011      -8.28483775E-02
  -7.86999989      -7.81618953E-02
  -7.86000013      -7.33411536E-02
  -7.84999990      -6.83990195E-02
  -7.84000015      -6.33507967E-02
  -7.82999992      -5.82140498E-02
  -7.82000017      -5.30080423E-02
  -7.80999994      -4.77527380E-02
  -7.80000019      -4.24673967E-02
  -7.78999996      -3.71694937E-02
  -7.78000021      -3.18741016E-02
  -7.76999998      -2.65937448E-02
  -7.76000023      -2.13392489E-02
  -7.75000000      -1.61207933E-02
  -7.73999977      -1.09490464E-02
  -7.73000002      -5.83588006E-03
  -7.71999979      -7.94392894E-04
  -7.71000004       4.16175323E-03
  -7.69999981       9.01967194E-03
  -7.69000006       1.37684643E-02
  -7.67999983       1.84002724E-02
  -7.67000008       2.29103044E-02
  -7.65999985       2.72962805E-02
  -7.65000010       3.15570012E-02
  -7.63999987       3.56909744E-02
  -7.63000011       3.96952480E-02
  -7.61999989       4.35652621E-02
  -7.61000013       4.72953543E-02
  -7.59999990       5.08802831E-02
  -7.59000015       5.43168262E-02
  -7.57999992       5.76049574E-02
  -7.57000017       6.07483126E-02
  -7.55999994       6.37536272E-02
  -7.55000019       6.66290894E-02
  -7.53999996       6.93826675E-02
  -7.53000021       7.20206276E-02
  -7.51999998       7.45467097E-02
  -7.51000023       7.69626722E-02
  -7.50000000       7.92695805E-02
  -7.48999977       8.14696625E-02
  -7.48000002       8.35680217E-02
  -7.46999979       8.55732113E-02
  -7.46000004       8.74973238E-02
  -7.44999981       8.93543512E-02
  -7.44000006       9.11584646E-02