  -16.0000000       0.00000000    
  -15.9899998       0.00000000    
  -15.9799995       0.00000000    
  -15.9700003       0.00000000    
  -15.9600000       0.00000000    
  -15.9499998       0.00000000    
  -15.9399996       0.00000000    
  -15.9300003       0.00000000    
  -15.9200001       0.00000000    
  -15.9099998       0.00000000    
  -15.8999996       0.00000000    
  -15.8900003       0.00000000    
  -15.8800001       8.40779079E-45
  -15.8699999       3.88159675E-43
  -15.8599997       7.82625192E-42
  -15.8500004       9.91614845E-41
  -15.8400002       9.20971186E-40
  -15.8299999       6.77748512E-39
  -15.8199997       4.13475869E-38
  -15.8100004       2.15307827E-37
  -15.8000002       9.76630413E-37
  -15.7900000       3.91717816E-36
  -15.7799997       1.40527537E-35
  -15.7700005       4.54942774E-35
  -15.7600002       1.33829917E-34
  -15.7500000       3.59590082E-34
  -15.7399998       8.85708269E-34
  -15.7299995       2.00386522E-33
  -15.7200003       4.16472285E-33
  -15.7100000       7.93214992E-33
  -15.6999998       1.37573438E-32
  -15.6899996       2.14386968E-32
  -15.6800003       2.91646614E-32
  -15.6700001       3.21939573E-32
  -15.6599998       2.15667229E-32
  -15.6499996      -1.62439448E-32
  -15.6400003      -9.72589509E-32
  -15.6300001      -2.33683293E-31
  -15.6199999      -4.21903871E-31
  -15.6099997      -6.24972872E-31
  -15.6000004      -7.53214603E-31
  -15.5900002      -6.52186224E-31
  -15.5799999      -1.14443321E-31
  -15.5699997       1.06185010E-30
  -15.5600004       2.94408165E-30
  -15.5500002       5.25874118E-30
  -15.5400000       7.14598476E-30
  -15.5299997       6.99910401E-30
  -15.5200005       2.62572110E-30
  -15.5100002      -7.94917052E-30
  -15.5000000      -2.47855388E-29
  -15.4899998      -4.35674453E-29
  -15.4799995      -5.33326534E-29
  -15.4700003      -3.65008713E-29
  -15.4600000       2.57661681E-29
  -15.4499998       1.40271244E-28
  -15.4399996       2.81188781E-28
  -15.4300003       3.69743642E-28
  -15.4200001       2.71200860E-28
  -15.4099998      -1.66586705E-28
  -15.3999996      -1.01272705E-27
  -15.3900003      -2.09595104E-27
  -15.3800001      -2.84727268E-27
  -15.3699999      -2.26731335E-27
  -15.3599997       8.08826443E-28
  -15.3500004       7.00803305E-27
  -15.3400002       1.53127300E-26
  -15.3299999       2.19340864E-26
  -15.3199997       1.99866970E-26
  -15.3100004       1.08842621E-27
  -15.3000002      -4.01944969E-26
  -15.2900000      -9.92231589E-26
  -15.2799997      -1.53742113E-25
  -15.2700005      -1.60800778E-25
  -15.2600002      -6.48710583E-26
  -15.2500000       1.77093998E-25
  -15.2399998       5.53798351E-25
  -15.2299995       9.52549346E-25
  -15.2200003       1.13326732E-24
  -15.2100000       7.60875473E-25
  -15.1999998      -4.69673731E-25
  -15.1899996      -2.60946451E-24
  -15.1800003      -5.18388190E-24
  -15.1700001      -7.00046764E-24
  -15.1599998      -6.22780993E-24
  -15.1499996      -9.38447471E-25
  -15.1400003       9.80675826E-24
  -15.1300001       2.45158484E-23
  -15.1199999       3.80181826E-23
  -15.1099997       4.13163911E-23
  -15.1000004       2.35498914E-23
  -15.0900002      -2.33104721E-23
  -15.0799999      -9.74845024E-23
  -15.0699997      -1.80229486E-22
  -15.0600004      -2.32402941E-22
  -15.0500002      -1.99625493E-22
  -15.0400000      -2.99815107E-23
  -15.0299997       2.95640076E-22
  -15.0200005       7.27260133E-22
  -15.0100002       1.11855599E-21
  -15.0000000       1.23004544E-21
  -14.9899998       7.83898175E-22
  -14.9799995      -4.19942366E-22
  -14.9700003      -2.34147710E-21
  -14.9600000      -4.54222202E-21
  -14.9499998      -6.11444558E-21
  -14.9399996      -5.79682438E-21
  -14.9300003      -2.35074188E-21
  -14.9200001       4.80725707E-21
  -14.9099998       1.48514382E-20
  -14.8999996       2.49581862E-20
  -14.8900003       3.02829013E-20
  -14.8800001       2.48978230E-20
  -14.8699999       3.88590832E-21
  -14.8599997      -3.36375807E-20
  -14.8500004      -8.13945529E-20
  -14.8400002      -1.24106728E-19
  -14.8299999      -1.38648021E-19
  -14.8199997      -9.95749617E-20
  -14.8100004       1.07223174E-20
  -14.8000002       1.88977618E-19
  -14.7900000       3.99232700E-19
  -14.7799997       5.68346855E-19
  -14.7700005       5.95346961E-19
  -14.7600002       3.78882687E-19
  -14.7500000      -1.38455598E-19
  -14.7399998      -9.18362593E-19
  -14.7299995      -1.78583455E-18
  -14.7200003      -2.42309553E-18
  -14.7100000      -2.42137686E-18
  -14.6999998      -1.40162570E-18
  -14.6899996       8.08031898E-19
  -14.6800003       3.98124179E-18
  -14.6700001       7.36170148E-18
  -14.6599998       9.67881553E-18
  -14.6499996       9.38510024E-18
  -14.6400003       5.13748354E-18
  -14.6300001      -3.54422904E-18
  -14.6199999      -1.56167514E-17
  -14.6099997      -2.81180693E-17
  -14.6000004      -3.63355826E-17
  -14.5900002      -3.47611337E-17
  -14.5799999      -1.88536084E-17
  -14.5699997       1.26826740E-17
  -14.5600004       5.57449522E-17
  -14.5500002       9.97115406E-17
  -14.5400000       1.28296851E-16
  -14.5299997       1.23006575E-16
  -14.5200005       6.91071219E-17
  -14.5100002      -3.69897965E-17
  -14.5000000      -1.81079206E-16
  -14.4899998      -3.28110918E-16
  -14.4799995      -4.25534291E-16
  -14.4700003      -4.14679273E-16
  -14.4600000      -2.49528389E-16
  -14.4499998       8.07998956E-17
  -14.4399996       5.32517703E-16
  -14.4300003       9.99010669E-16
  -14.4200001       1.32187739E-15
  -14.4099998       1.32525663E-15
  -14.3999996       8.70783433E-16
  -14.3900003      -7.80167240E-17
  -14.3800001      -1.40097164E-15
  -14.3699999      -2.79938799E-15
  -14.3599997      -3.82774147E-15
  -14.3500004      -3.98876073E-15
  -14.3400002      -2.88326521E-15
  -14.3299999      -3.83729616E-16
  -14.3199997       3.21917328E-15
  -14.3100004       7.15718531E-15
  -14.3000002       1.02641699E-14
  -14.2900000       1.12179875E-14
  -14.2799997       8.92069604E-15
  -14.2700005       2.93832532E-15
  -14.2600002      -6.12543268E-15
  -14.2500000      -1.64675639E-14
  -14.2399998      -2.52600048E-14
  -14.2299995      -2.92133803E-14
  -14.2200003      -2.54730251E-14
  -14.2100000      -1.26636796E-14
  -14.1999998       8.20650243E-15
  -14.1899996       3.33148900E-14
  -14.1800003       5.63466408E-14
  -14.1700001       6.96932949E-14
  -14.1599998       6.64072340E-14
  -14.1499996       4.25183739E-14
  -14.1400003      -9.04488780E-16
  -14.1300001      -5.66572309E-14
  -14.1199999      -1.11868820E-13
  -14.1099997      -1.50308761E-13
  -14.1000004      -1.56313723E-13
  -14.0900002      -1.19559500E-13
  -14.0799999      -3.94527178E-14
  -14.0699997       7.22682209E-14
  -14.0600004       1.91930171E-13
  -14.0500002       2.87910890E-13
  -14.0400000       3.27862086E-13
  -14.0299997       2.87778211E-13
  -14.0200005       1.60661645E-13
  -14.0100002      -3.78238463E-14
  -14.0000000      -2.68982427E-13
  -13.9899998      -4.77182204E-13
  -13.9799995      -6.01951648E-13
  -13.9700003      -5.93773403E-13
  -13.9600000      -4.29766222E-13
  -13.9499998      -1.24783606E-13
  -13.9399996       2.66027949E-13
  -13.9300003       6.55394304E-13
  -13.9200001       9.42288782E-13
  -13.9099998       1.03700447E-12
  -13.8999996       8.86953488E-13
  -13.8900003       4.96091503E-13
  -13.8800001      -6.83583642E-14
  -13.8699999      -6.85528132E-13
  -13.8599997      -1.20638254E-12
  -13.8500004      -1.49001341E-12
  -13.8400002      -1.44199019E-12
  -13.8299999      -1.04433432E-12
  -13.8199997      -3.67802848E-13
  -13.8100004       4.38891355E-13
  -13.8000002       1.18233168E-12
  -13.7900000       1.67304679E-12
  -13.7799997       1.77728578E-12
  -13.7700005       1.45749287E-12
  -13.7600002       7.88821103E-13
  -13.7500000      -5.52727013E-14
  -13.7399998      -8.46959709E-13
  -13.7299995      -1.36726383E-12
  -13.7200003      -1.47160712E-12
  -13.7100000      -1.13826169E-12
  -13.6999998      -4.83397448E-13
  -13.6899996       2.65232064E-13
  -13.6800003       8.32283624E-13
  -13.6700001       9.80921290E-13
  -13.6599998       5.96859530E-13
  -13.6499996      -2.56103298E-13
  -13.6400003      -1.33014075E-12
  -13.6300001      -2.24572140E-12
  -13.6199999      -2.59429847E-12
  -13.6099997      -2.06711926E-12
  -13.6000004      -5.74672959E-13
  -13.5900002       1.68092168E-12
  -13.5799999       4.20963785E-12
  -13.5699997       6.32414997E-12
  -13.5600004       7.30423447E-12
  -13.5500002       6.59862616E-12
  -13.5400000       4.01210358E-12
  -13.5299997      -1.77413450E-13
  -13.5200005      -5.21482033E-12
  -13.5100002      -9.99391195E-12
  -13.5000000      -1.32967812E-11
  -13.4899998      -1.40961626E-11
  -13.4799995      -1.18468750E-11
  -13.4700003      -6.68638972E-12
  -13.4600000       5.20060720E-13
  -13.4499998       8.31962797E-12
  -13.4399996       1.49802722E-11
  -13.4300003       1.89029608E-11
  -13.4200001       1.90381495E-11
  -13.4099998       1.51955601E-11
  -13.3999996       8.15370774E-12
  -13.3900003      -4.79306698E-13
  -13.3800001      -8.63917271E-12
  -13.3699999      -1.43325308E-11
  -13.3599997      -1.61870604E-11
  -13.3500004      -1.38737181E-11
  -13.3400002      -8.27009208E-12
  -13.3299999      -1.29200134E-12
  -13.3199997       4.59443508E-12
  -13.3100004       7.07709889E-12
  -13.3000002       4.74203879E-12
  -13.2900000      -2.35145540E-12
  -13.2799997      -1.24524757E-11
  -13.2700005      -2.23689244E-11
  -13.2600002      -2.81826177E-11
  -13.2500000      -2.62958526E-11
  -13.2399998      -1.45671496E-11
  -13.2299995       6.76358535E-12
  -13.2200003       3.46443568E-11
  -13.2100000       6.34654343E-11
  -13.1999998       8.60343463E-11
  -13.1899996       9.51244639E-11
  -13.1800003       8.52833082E-11
  -13.1700001       5.44812737E-11
  -13.1599998       5.17098430E-12
  -13.1499996      -5.55771991E-11
  -13.1400003      -1.17009027E-10
  -13.1300001      -1.66591074E-10
  -13.1199999      -1.92545480E-10
  -13.1099997      -1.86491059E-10
  -13.1000004      -1.45595841E-10
  -13.0900002      -7.37100242E-11
  -13.0799999       1.88564182E-11
  -13.0699997       1.16958970E-10
  -13.0600004       2.03375150E-10
  -13.0500002       2.62148525E-10
  -13.0400000       2.81812046E-10
  -13.0299997       2.57780686E-10
  -13.0200005       1.93361022E-10
  -13.0100002       9.91248403E-11
  -13.0000000      -9.24013296E-12
  -12.9899998      -1.14135756E-10
  -12.9799995      -1.99595188E-10
  -12.9700003      -2.54352123E-10
  -12.9600000      -2.73732315E-10
  -12.9499998      -2.59944399E-10
  -12.9399996      -2.20734236E-10
  -12.9300003      -1.66781866E-10
  -12.9200001      -1.08545499E-10
  -12.9099998      -5.34143424E-11
  -12.8999996      -3.97005302E-12
  -12.8900003       4.21215354E-11
  -12.8800001       9.05004890E-11
  -12.8699999       1.47181073E-10
  -12.8599997       2.15108500E-10
  -12.8500004       2.91236063E-10
  -12.8400002       3.65116798E-10
  -12.8299999       4.19685176E-10
  -12.8199997       4.34370095E-10
  -12.8100004       3.90046911E-10
  -12.8000002       2.74762491E-10
  -12.7900000       8.88092308E-11
  -12.7799997      -1.52297688E-10
  -12.7700005      -4.18041296E-10
  -12.7600002      -6.66745992E-10
  -12.7500000      -8.52617088E-10
  -12.7399998      -9.34708533E-10
  -12.7299995      -8.85944706E-10
  -12.7200003      -7.00115022E-10
  -12.7100000      -3.95051741E-10
  -12.6999998      -1.09514073E-11
  -12.6899996       3.96131516E-10
  -12.6800003       7.64451114E-10
  -12.6700001       1.03829378E-09
  -12.6599998       1.17867349E-09
  -12.6499996       1.17053300E-09
  -12.6400003       1.02472386E-09
  -12.6300001       7.74238895E-10
  -12.6199999       4.65568362E-10
  -12.6099997       1.47298521E-10
  -12.6000004      -1.41157586E-10
  -12.5900002      -3.77746417E-10
  -12.5799999      -5.60624602E-10
  -12.5699997      -7.04752701E-10
  -12.5600004      -8.32979019E-10
  -12.5500002      -9.63931490E-10
  -12.5400000      -1.10011156E-09
  -12.5299997      -1.21983568E-09
  -12.5200005      -1.27597144E-09
  -12.5100002      -1.20285915E-09
  -12.5000000      -9.30762856E-10
  -12.4899998      -4.05099287E-10
  -12.4799995       3.93870742E-10
  -12.4700003       1.43582291E-09
  -12.4600000       2.63398814E-09
  -12.4499998       3.85024013E-09
  -12.4399996       4.91177721E-09
  -12.4300003       5.63671154E-09
  -12.4200001       5.86354876E-09
  -12.4099998       5.47817081E-09
  -12.3999996       4.43202897E-09
  -12.3900003       2.74683187E-09
  -12.3800001       5.03786290E-10
  -12.3699999      -2.18109131E-09
  -12.3599997      -5.19080334E-09
  -12.3500004      -8.44315906E-09
  -12.3400002      -1.19204815E-08
  -12.3299999      -1.56860978E-08
  -12.3199997      -1.98830445E-08
  -12.3100004      -2.47141099E-08
  -12.3000002      -3.04063548E-08
  -12.2900000      -3.71666644E-08
  -12.2799997      -4.51370390E-08
  -12.2700005      -5.43583489E-08
  -12.2600002      -6.47499476E-08
  -12.2500000      -7.61087549E-08
  -12.2399998      -8.81276634E-08
  -12.2299995      -1.00428821E-07
  -12.2200003      -1.12604546E-07
  -12.2100000      -1.24256687E-07
  -12.1999998      -1.35026355E-07
  -12.1899996      -1.44608435E-07
  -12.1800003      -1.52748143E-07
  -12.1700001      -1.59222665E-07
  -12.1599998      -1.63812814E-07
  -12.1499996      -1.66273750E-07
  -12.1400003      -1.66313086E-07
  -12.1300001      -1.63583380E-07
  -12.1199999      -1.57693862E-07
  -12.1099997      -1.48240261E-07
  -12.1000004      -1.34849060E-07
  -12.0900002      -1.17227920E-07
  -12.0799999      -9.52125845E-08
  -12.0699997      -6.88009365E-08
  -12.0600004      -3.81671192E-08
  -12.0500002      -3.65175001E-09
  -12.0400000       3.42698740E-08
  -12.0299997       7.50363469E-08
  -12.0200005       1.18056377E-07
  -12.0100002       1.62762007E-07
  -12.0000000       2.08649084E-07
  -11.9899998       2.55297607E-07
  -11.9799995       3.02369131E-07
  -11.9700003       3.49583047E-07
  -11.9600000       3.96677848E-07
  -11.9499998       4.43367469E-07
  -11.9399996       4.89302295E-07
  -11.9300003       5.34045000E-07
  -11.9200001       5.77066089E-07
  -11.9099998       6.17761543E-07
  -11.8999996       6.55488122E-07
  -11.8900003       6.89608555E-07
  -11.8800001       7.19536445E-07
  -11.8699999       7.44770034E-07
  -11.8599997       7.64908350E-07
  -11.8500004       7.79643699E-07
  -11.8400002       7.88734781E-07
  -11.8299999       7.91964055E-07
  -11.8199997       7.89093122E-07
  -11.8100004       7.79823949E-07
  -11.8000002       7.63778985E-07
  -11.7900000       7.40504731E-07
  -11.7799997       7.09501307E-07
  -11.7700005       6.70270992E-07
  -11.7600002       6.22379616E-07
  -11.7500000       5.65515222E-07
  -11.7399998       4.99534224E-07
  -11.7299995       4.24484995E-07
  -11.7200003       3.40604856E-07
  -11.7100000       2.48291229E-07
  -11.6999998       1.48055889E-07
  -11.6899996       4.04717042E-08
  -11.6800003      -7.38752206E-08
  -11.6700001      -1.94416586E-07
  -11.6599998      -3.20610127E-07
  -11.6499996      -4.51923682E-07
  -11.6400003      -5.87799377E-07
  -11.6300001      -7.27606960E-07
  -11.6199999      -8.70598853E-07
  -11.6099997      -1.01587659E-06
  -11.6000004      -1.16237845E-06
  -11.5900002      -1.30889237E-06
  -11.5799999      -1.45409001E-06
  -11.5699997      -1.59657782E-06
  -11.5600004      -1.73495539E-06
  -11.5500002      -1.86786747E-06
  -11.5400000      -1.99404326E-06
  -11.5299997      -2.11231600E-06
  -11.5200005      -2.22161907E-06
  -11.5100002      -2.32096727E-06
  -11.5000000      -2.40942109E-06
  -11.4899998      -2.48605306E-06
  -11.4799995      -2.54991414E-06
  -11.4700003      -2.60001866E-06
  -11.4600000      -2.63533775E-06
  -11.4499998      -2.65481663E-06
  -11.4399996      -2.65740050E-06
  -11.4300003      -2.64206983E-06
  -11.4200001      -2.60787692E-06
  -11.4099998      -2.55397367E-06
  -11.3999996      -2.47962885E-06
  -11.3900003      -2.38422990E-06
  -11.3800001      -2.26726434E-06
  -11.3699999      -2.12829150E-06
  -11.3599997      -1.96689962E-06
  -11.3500004      -1.78266544E-06
  -11.3400002      -1.57511624E-06
  -11.3299999      -1.34370759E-06
  -11.3199997      -1.08782081E-06
  -11.3100004      -8.06784442E-07
  -11.3000002      -4.99916609E-07
  -11.2900000      -1.66585920E-07
  -11.2799997       1.93720794E-07
  -11.2700005       5.81334120E-07
  -11.2600002       9.96353720E-07
  -11.2500000       1.43862610E-06
  -11.2399998       1.90775472E-06
  -11.2299995       2.40313966E-06
  -11.2200003       2.92404502E-06
  -11.2100000       3.46967795E-06
  -11.1999998       4.03926560E-06
  -11.1899996       4.63211563E-06
  -11.1800003       5.24764937E-06
  -11.1700001       5.88540252E-06
  -11.1599998       6.54499081E-06
  -11.1499996       7.22605546E-06
  -11.1400003       7.92820629E-06
  -11.1300001       8.65096717E-06
  -11.1199999       9.39374877E-06
  -11.1099997       1.01558508E-05
  -11.1000004       1.09364955E-05
  -11.0900002       1.17348891E-05
  -11.0799999       1.25502911E-05
  -11.0699997       1.33820722E-05
  -11.0600004       1.42297640E-05
  -11.0500002       1.50930482E-05
  -11.0400000       1.59717547E-05
  -11.0299997       1.68657789E-05
  -11.0200005       1.77750153E-05
  -11.0100002       1.86992729E-05
  -11.0000000       1.96382189E-05
  -10.9899998       2.05913238E-05
  -10.9799995       2.15578821E-05
  -10.9700003       2.25370131E-05
  -10.9600000       2.35277403E-05
  -10.9499998       2.45290357E-05
  -10.9399996       2.55399082E-05
  -10.9300003       2.65594463E-05
  -10.9200001       2.75868642E-05
  -10.9099998       2.86215145E-05
  -10.8999996       2.96628841E-05
  -10.8900003       3.07105693E-05
  -10.8800001       3.17642625E-05
  -10.8699999       3.28237002E-05
  -10.8599997       3.38886457E-05
  -10.8500004       3.49588408E-05
  -10.8400002       3.60339945E-05
  -10.8299999       3.71137212E-05
  -10.8199997       3.81975624E-05
  -10.8100004       3.92849688E-05
  -10.8000002       4.03752674E-05
  -10.7900000       4.14676724E-05
  -10.7799997       4.25613107E-05
  -10.7700005       4.36552182E-05
  -10.7600002       4.47483617E-05
  -10.7500000       4.58396280E-05
  -10.7399998       4.69278348E-05
  -10.7299995       4.80117342E-05
  -10.7200003       4.90899693E-05
  -10.7100000       5.01610702E-05
  -10.6999998       5.12234765E-05
  -10.6899996       5.22754890E-05
  -10.6800003       5.33153689E-05
  -10.6700001       5.43413371E-05
  -10.6599998       5.53516984E-05
  -10.6499996       5.63448557E-05
  -10.6400003       5.73194484E-05
  -10.6300001       5.82743596E-05
  -10.6199999       5.92087272E-05
  -10.6099997       6.01219690E-05
  -10.6000004       6.10136885E-05
  -10.5900002       6.18836566E-05
  -10.5799999       6.27316840E-05
  -10.5699997       6.35575416E-05
  -10.5600004       6.43609819E-05
  -10.5500002       6.51416412E-05
  -10.5400000       6.58991048E-05
  -10.5299997       6.66328706E-05
  -10.5200005       6.73425020E-05
  -10.5100002       6.80276062E-05
  -10.5000000       6.86879284E-05
  -10.4899998       6.93233669E-05
  -10.4799995       6.99339798E-05
  -10.4700003       7.05199709E-05
  -10.4600000       7.10816967E-05
  -10.4499998       7.16195427E-05
  -10.4399996       7.21339602E-05
  -10.4300003       7.26253857E-05
  -10.4200001       7.30942120E-05
  -10.4099998       7.35408394E-05
  -10.3999996       7.39655370E-05
  -10.3900003       7.43686396E-05
  -10.3800001       7.47504455E-05
  -10.3699999       7.51112821E-05
  -10.3599997       7.54515495E-05
  -10.3500004       7.57716625E-05
  -10.3400002       7.60722032E-05
  -10.3299999       7.63537537E-05
  -10.3199997       7.66170124E-05
  -10.3100004       7.68627287E-05
  -10.3000002       7.70916376E-05
  -10.2900000       7.73045467E-05
  -10.2799997       7.75021690E-05
  -10.2700005       7.76852103E-05
  -10.2600002       7.78542599E-05
  -10.2500000       7.80098198E-05
  -10.2399998       7.81523486E-05
  -10.2299995       7.82822390E-05
  -10.2200003       7.83998839E-05
  -10.2100000       7.85057928E-05
  -10.1999998       7.86005912E-05
  -10.1899996       7.86851597E-05
  -10.1800003       7.87605677E-05
  -10.1700001       7.88281613E-05
  -10.1599998       7.88894686E-05
  -10.1499996       7.89461265E-05
  -10.1400003       7.89997575E-05
  -10.1300001       7.90518898E-05
  -10.1199999       7.91038910E-05
  -10.1099997       7.91568455E-05
  -10.1000004       7.92116916E-05
  -10.0900002       7.92691426E-05
  -10.0799999       7.93298532E-05
  -10.0699997       7.93944346E-05
  -10.0600004       7.94635853E-05
  -10.0500002       7.95381129E-05
  -10.0400000       7.96189343E-05
  -10.0299997       7.97070170E-05
  -10.0200005       7.98033725E-05
  -10.0100002       7.99090194E-05
  -10.0000000       8.00249400E-05
  -9.98999977       8.01520946E-05
  -9.97999954       8.02914728E-05
  -9.97000027       8.04442243E-05
  -9.96000004       8.06116659E-05
  -9.94999981       8.07953984E-05
  -9.93999958       8.09972844E-05
  -9.93000031       8.12194412E-05
  -9.92000008       8.14641317E-05
  -9.90999985       8.17336986E-05
  -9.89999962       8.20303903E-05
  -9.89000034       8.23562950E-05
  -9.88000011       8.27132317E-05
  -9.86999989       8.31027937E-05
  -9.85999966       8.35262908E-05
  -9.85000038       8.39848290E-05
  -9.84000015       8.44794195E-05
  -9.82999992       8.50109645E-05
  -9.81999969       8.55804319E-05
  -9.81000042       8.61887602E-05
  -9.80000019       8.68369607E-05
  -9.78999996       8.75260739E-05
  -9.77999973       8.82571621E-05
  -9.77000046       8.90313386E-05
  -9.76000023       8.98497601E-05
  -9.75000000       9.07136273E-05
  -9.73999977       9.16242789E-05
  -9.72999954       9.25830827E-05
  -9.72000027       9.35915014E-05
  -9.71000004       9.46510918E-05
  -9.69999981       9.57634475E-05
  -9.68999958       9.69302419E-05
  -9.68000031       9.81530829E-05
  -9.67000008       9.94335860E-05
  -9.65999985       1.00773330E-04
  -9.64999962       1.02173843E-04
  -9.64000034       1.03636572E-04
  -9.63000011       1.05162864E-04
  -9.61999989       1.06753920E-04
  -9.60999966       1.08410699E-04
  -9.60000038       1.10133878E-04
  -9.59000015       1.11923764E-04
  -9.57999992       1.13780188E-04
  -9.56999969       1.15702547E-04
  -9.56000042       1.17689786E-04
  -9.55000019       1.19740340E-04
  -9.53999996       1.21852318E-04
  -9.52999973       1.24023514E-04
  -9.52000046       1.26251616E-04
  -9.51000023       1.28534200E-04
  -9.50000000       1.30868852E-04
  -9.48999977       1.33253241E-04
  -9.47999954       1.35685026E-04
  -9.47000027       1.38161966E-04
  -9.46000004       1.40681761E-04
  -9.44999981       1.43241996E-04
  -9.43999958       1.45840255E-04
  -9.43000031       1.48473904E-04
  -9.42000008       1.51140324E-04
  -9.40999985       1.53836751E-04
  -9.39999962       1.56560505E-04
  -9.39000034       1.59309027E-04
  -9.38000011       1.62079814E-04
  -9.36999989       1.64870566E-04
  -9.35999966       1.67679114E-04
  -9.35000038       1.70503510E-04
  -9.34000015       1.73341876E-04
  -9.32999992       1.76192523E-04
  -9.31999969       1.79054041E-04
  -9.31000042       1.81925250E-04
  -9.30000019       1.84805322E-04
  -9.28999996       1.87694037E-04
  -9.27999973       1.90591818E-04
  -9.27000046       1.93499567E-04
  -9.26000023       1.96418972E-04
  -9.25000000       1.99352377E-04
  -9.23999977       2.02302574E-04
  -9.22999954       2.05272838E-04
  -9.22000027       2.08266749E-04
  -9.21000004       2.11288032E-04
  -9.19999981       2.14340718E-04
  -9.18999958       2.17428795E-04
  -9.18000031       2.20556569E-04
  -9.17000008       2.23728406E-04
  -9.15999985       2.26948934E-04
  -9.14999962       2.30222955E-04
  -9.14000034       2.33555358E-04
  -9.13000011       2.36951237E-04
  -9.11999989       2.40415437E-04
  -9.10999966       2.43952833E-04
  -9.10000038       2.47567863E-04
  -9.09000015       2.51264544E-04
  -9.07999992       2.55046587E-04
  -9.06999969       2.58917076E-04
  -9.06000042       2.62878573E-04
  -9.05000019       2.66933144E-04
  -9.03999996       2.71082448E-04
  -9.02999973       2.75327562E-04
  -9.02000046       2.79669039E-04
  -9.01000023       2.84106936E-04
  -9.00000000       2.88640935E-04
  -8.98999977       2.93269870E-04
  -8.97999954       2.97992374E-04
  -8.97000027       3.02806322E-04
  -8.96000004       3.07709211E-04
  -8.94999981       3.12698190E-04
  -8.93999958       3.17769707E-04
  -8.93000031       3.22919979E-04
  -8.92000008       3.28144757E-04
  -8.90999985       3.33439297E-04
  -8.89999962       3.38798447E-04
  -8.89000034       3.44216591E-04
  -8.88000011       3.49687674E-04
  -8.86999989       3.55205237E-04
  -8.85999966       3.60762584E-04
  -8.85000038       3.66352760E-04
  -8.84000015       3.71968752E-04
  -8.82999992       3.77603457E-04
  -8.81999969       3.83249950E-04
  -8.81000042       3.88901477E-04
  -8.80000019       3.94551258E-04
  -8.78999996       4.00192803E-04
  -8.77999973       4.05819679E-04
  -8.77000046       4.11425310E-04
  -8.76000023       4.17003233E-04
  -8.75000000       4.22547222E-04
  -8.73999977       4.28050931E-04
  -8.72999954       4.33508219E-04
  -8.72000027       4.38913150E-04
  -8.71000004       4.44259989E-04
  -8.69999981       4.49543470E-04
  -8.68999958       4.54758527E-04
  -8.68000031       4.59900359E-04
  -8.67000008       4.64964367E-04
  -8.65999985       4.69946332E-04
  -8.64999962       4.74842498E-04
  -8.64000034       4.79649461E-04
  -8.63000011       4.84364602E-04
  -8.61999989       4.88985679E-04
  -8.60999966       4.93511849E-04
  -8.60000038       4.97942790E-04
  -8.59000015       5.02279378E-04
  -8.57999992       5.06523123E-04
  -8.56999969       5.10676298E-04
  -8.56000042       5.14741405E-04
  -8.55000019       5.18721470E-04
  -8.53999996       5.22619463E-04
  -8.52999973       5.26438409E-04
  -8.52000046       5.30181394E-04
  -8.51000023       5.33851853E-04
  -8.50000000       5.37453569E-04
  -8.48999977       5.40990790E-04
  -8.47999954       5.44468174E-04
  -8.47000027       5.47890959E-04
  -8.46000004       5.51264384E-04
  -8.44999981       5.54594502E-04
  -8.43999958       5.57886320E-04
  -8.43000031       5.61145309E-04
  -8.42000008       5.64376183E-04
  -8.40999985       5.67583309E-04
  -8.39999962       5.70770935E-04
  -8.39000034       5.73942962E-04
  -8.38000011       5.77103172E-04
  -8.36999989       5.80255466E-04
  -8.35999966       5.83403453E-04
  -8.35000038       5.86550974E-04
  -8.34000015       5.89701289E-04
  -8.32999992       5.92857541E-04
  -8.31999969       5.96022175E-04
  -8.31000042       5.99197403E-04
  -8.30000019       6.02384796E-04
  -8.28999996       6.05585752E-04
  -8.27999973       6.08801551E-04
  -8.27000046       6.12033356E-04
  -8.26000023       6.15282566E-04
  -8.25000000       6.18550344E-04
  -8.23999977       6.21838146E-04
  -8.22999954       6.25147077E-04
  -8.22000027       6.28478010E-04
  -8.21000004       6.31831994E-04
  -8.19999981       6.35209552E-04
  -8.18999958       6.38611091E-04
  -8.18000031       6.42037427E-04
  -8.17000008       6.45489548E-04
  -8.15999985       6.48968853E-04
  -8.14999962       6.52477378E-04
  -8.14000034       6.56017335E-04
  -8.13000011       6.59591053E-04
  -8.11999989       6.63201383E-04
  -8.10999966       6.66850887E-04
  -8.10000038       6.70542533E-04
  -8.09000015       6.74279290E-04
  -8.07999992       6.78063894E-04
  -8.06999969       6.81899954E-04
  -8.06000042       6.85791194E-04
  -8.05000019       6.89742039E-04
  -8.03999996       6.93757203E-04
  -8.02999973       6.97841519E-04
  -8.02000046       7.02000281E-04
  -8.01000023       7.06238672E-04
  -8.00000000       7.10561639E-04
  -7.98999977       7.14974012E-04
  -7.98000002       7.19480682E-04
  -7.96999979       7.24086713E-04
  -7.96000004       7.28797109E-04
  -7.94999981       7.33617577E-04
  -7.94000006       7.38553470E-04
  -7.92999983       7.43611075E-04
  -7.92000008       7.48796389E-04
  -7.90999985       7.54115114E-04
  -7.90000010       7.59573188E-04
  -7.88999987       7.65175908E-04
  -7.88000011       7.70928571E-04
  -7.86999989       7.76835775E-04
  -7.86000013       7.82902935E-04
  -7.84999990       7.89134298E-04
  -7.84000015       7.95534928E-04
  -7.82999992       8.02109716E-04
  -7.82000017       8.08863493E-04
  -7.80999994       8.15800566E-04
  -7.80000019       8.22925416E-04
  -7.78999996       8.30241886E-04
  -7.78000021       8.37753410E-04
  -7.76999998       8.45463248E-04
  -7.76000023       8.53373960E-04
  -7.75000000       8.61488108E-04
  -7.73999977       8.69807962E-04
  -7.73000002       8.78335442E-04
  -7.71999979       8.87071888E-04
  -7.71000004       8.96018406E-04
  -7.69999981       9.05175053E-04
  -7.69000006       9.14542936E-04
  -7.67999983       9.24121123E-04
  -7.67000008       9.33909323E-04
  -7.65999985       9.43907071E-04
  -7.65000010       9.54113668E-04
  -7.63999987       9.64529114E-04
  -7.63000011       9.75152594E-04
  -7.61999989       9.85983759E-04
  -7.61000013       9.97022726E-04
  -7.59999990       1.00826856E-03
  -7.59000015       1.01972173E-03
  -7.57999992       1.03138096E-03
  -7.57000017       1.04324671E-03
  -7.55999994       1.05531816E-03
  -7.55000019       1.06759532E-03
  -7.53999996       1.08007796E-03
  -7.53000021       1.09276606E-03
  -7.51999998       1.10565952E-03
  -7.51000023       1.11875799E-03
  -7.50000000       1.13206077E-03
  -7.48999977       1.14556821E-03
  -7.48000002       1.15927949E-03
  -7.46999979       1.17319508E-03
  -7.46000004       1.18731544E-03
  -7.44999981       1.20164128E-03
  -7.44000006       1.21617387E-03