  -16.0000000       0.00000000    
  -15.9899998       0.00000000    
  -15.9799995       0.00000000    
  -15.9700003       0.00000000    
  -15.9600000       0.00000000    
  -15.9499998       0.00000000    
  -15.9399996       0.00000000    
  -15.9300003       0.00000000    
  -15.9200001       0.00000000    
  -15.9099998       0.00000000    
  -15.8999996       0.00000000    
  -15.8900003       0.00000000    
  -15.8800001      -0.00000000    
  -15.8699999      -1.40129846E-45
  -15.8599997      -1.40129846E-44
  -15.8500004      -1.84971397E-43
  -15.8400002      -1.74181399E-42
  -15.8299999      -1.29437939E-41
  -15.8199997      -7.95573190E-41
  -15.8100004      -4.15953028E-40
  -15.8000002      -1.88734304E-39
  -15.7900000      -7.54544152E-39
  -15.7799997      -2.68946366E-38
  -15.7700005      -8.62570223E-38
  -15.7600002      -2.50694380E-37
  -15.7500000      -6.63661813E-37
  -15.7399998      -1.60540841E-36
  -15.7299995      -3.55211664E-36
  -15.7200003      -7.17519987E-36
  -15.7100000      -1.31499921E-35
  -15.6999998      -2.15621781E-35
  -15.6899996      -3.06685816E-35
  -15.6800003      -3.49062617E-35
  -15.6700001      -2.25182287E-35
  -15.6599998       2.58901339E-35
  -15.6499996       1.35214108E-34
  -15.6400003       3.26319413E-34
  -15.6300001       5.95587080E-34
  -15.6199999       8.83588890E-34
  -15.6099997       1.04147670E-33
  -15.6000004       8.16737240E-34
  -15.5900002      -1.07240074E-34
  -15.5799999      -1.98158703E-33
  -15.5699997      -4.76025694E-33
  -15.5600004      -7.81498840E-33
  -15.5500002      -9.73651832E-33
  -15.5400000      -8.44317405E-33
  -15.5299997      -1.81668685E-33
  -15.5200005       1.10814352E-32
  -15.5100002       2.85211487E-32
  -15.5000000       4.51059840E-32
  -15.4899998       5.23013995E-32
  -15.4799995       4.12294387E-32
  -15.4700003       7.35071809E-33
  -15.4600000      -4.50676335E-32
  -15.4499998      -1.02155455E-31
  -15.4399996      -1.46201499E-31
  -15.4300003      -1.67078149E-31
  -15.4200001      -1.71937842E-31
  -15.4099998      -1.80237773E-31
  -15.3999996      -1.93195447E-31
  -15.3900003      -1.42854220E-31
  -15.3800001       1.44159254E-31
  -15.3699999       9.03371828E-31
  -15.3599997       2.24503340E-30
  -15.3500004       3.82291978E-30
  -15.3400002       4.50363370E-30
  -15.3299999       2.36042181E-30
  -15.3199997      -4.59178901E-30
  -15.3100004      -1.66787775E-29
  -15.3000002      -3.02131253E-29
  -15.2900000      -3.57977414E-29
  -15.2799997      -1.94763442E-29
  -15.2700005       3.10284497E-29
  -15.2600002       1.14471643E-28
  -15.2500000       2.02063081E-28
  -15.2399998       2.30011598E-28
  -15.2299995       1.11332678E-28
  -15.2200003      -2.22175302E-28
  -15.2100000      -7.48668336E-28
  -15.1999998      -1.27924658E-27
  -15.1899996      -1.42600841E-27
  -15.1800003      -6.82552557E-28
  -15.1700001       1.33162667E-27
  -15.1599998       4.47815266E-27
  -15.1499996       7.69089771E-27
  -15.1400003       8.81655446E-27
  -15.1300001       5.04197443E-27
  -15.1199999      -5.84395593E-27
  -15.1099997      -2.34362347E-26
  -15.1000004      -4.25899593E-26
  -15.0900002      -5.24519471E-26
  -15.0799999      -3.82561270E-26
  -15.0699997       1.28895982E-26
  -15.0600004       1.02443166E-25
  -15.0500002       2.09792110E-25
  -15.0400000       2.86056027E-25
  -15.0299997       2.59587697E-25
  -15.0200005       5.92503750E-26
  -15.0100002      -3.44068858E-25
  -15.0000000      -8.87365966E-25
  -14.9899998      -1.37865956E-24
  -14.9799995      -1.50398383E-24
  -14.9700003      -9.07022408E-25
  -14.9600000       6.48801215E-25
  -14.9499998       3.06373775E-24
  -14.9399996       5.70758102E-24
  -14.9300003       7.36677835E-24
  -14.9200001       6.45912959E-24
  -14.9099998       1.58907115E-24
  -14.8999996      -7.60988241E-24
  -14.8900003      -1.95810596E-23
  -14.8800001      -3.03147665E-23
  -14.8699999      -3.36856544E-23
  -14.8599997      -2.30519877E-23
  -14.8500004       5.85840333E-24
  -14.8400002       5.13610832E-23
  -14.8299999       1.02811257E-22
  -14.8199997       1.39970582E-22
  -14.8100004       1.36486379E-22
  -14.8000002       6.83324001E-23
  -14.7900000      -7.37470782E-23
  -14.7799997      -2.71145175E-22
  -14.7700005      -4.69228956E-22
  -14.7600002      -5.80607634E-22
  -14.7500000      -5.04849472E-22
  -14.7399998      -1.65121701E-22
  -14.7299995       4.44975863E-22
  -14.7200003       1.21920424E-21
  -14.7100000       1.92183036E-21
  -14.6999998       2.21688140E-21
  -14.6899996       1.75542488E-21
  -14.6800003       3.14375434E-22
  -14.6700001      -2.04458772E-21
  -14.6599998      -4.85160816E-21
  -14.6499996      -7.20936614E-21
  -14.6400003      -7.93764051E-21
  -14.6300001      -5.90388166E-21
  -14.6199999      -4.97654556E-22
  -14.6099997       7.87080851E-21
  -14.6000004       1.74334469E-20
  -14.5900002       2.50966323E-20
  -14.5799999       2.70019685E-20
  -14.5699997       1.96420014E-20
  -14.5600004       1.35535432E-21
  -14.5500002      -2.61966145E-20
  -14.5400000      -5.71367964E-20
  -14.5299997      -8.16533829E-20
  -14.5200005      -8.78598289E-20
  -14.5100002      -6.52246324E-20
  -14.5000000      -8.98089136E-21
  -14.4899998       7.56753227E-20
  -14.4799995       1.71199206E-19
  -14.4700003       2.48720466E-19
  -14.4600000       2.73491941E-19
  -14.4499998       2.14612075E-19
  -14.4399996       5.73089275E-20
  -14.4300003      -1.85483452E-19
  -14.4200001      -4.66523713E-19
  -14.4099998      -7.06800294E-19
  -14.3999996      -8.09797877E-19
  -14.3900003      -6.87051771E-19
  -14.3800001      -2.90591910E-19
  -14.3699999       3.56017062E-19
  -14.3599997       1.13880974E-18
  -14.3500004       1.85726346E-18
  -14.3400002       2.25760688E-18
  -14.3299999       2.09507127E-18
  -14.3199997       1.21502968E-18
  -14.3100004      -3.66473582E-19
  -14.3000002      -2.40856569E-18
  -14.2900000      -4.44359771E-18
  -14.2799997      -5.84519363E-18
  -14.2700005      -5.96785790E-18
  -14.2600002      -4.33799032E-18
  -14.2500000      -8.53943111E-19
  -14.2399998       4.06306278E-18
  -14.2299995       9.42812935E-18
  -14.2200003       1.38080209E-17
  -14.2100000       1.56053314E-17
  -14.1999998       1.34774175E-17
  -14.1899996       6.80604332E-18
  -14.1800003      -3.90549397E-18
  -14.1700001      -1.68445472E-17
  -14.1599998      -2.90247254E-17
  -14.1499996      -3.67966134E-17
  -14.1400003      -3.66910618E-17
  -14.1300001      -2.64456160E-17
  -14.1199999      -5.97271427E-18
  -14.1099997       2.20188531E-17
  -14.1000004       5.20145231E-17
  -14.0900002       7.64579253E-17
  -14.0799999       8.72742779E-17
  -14.0699997       7.79254297E-17
  -14.0600004       4.55653466E-17
  -14.0500002      -7.26621506E-18
  -14.0400000      -7.19825407E-17
  -14.0299997      -1.34744731E-16
  -14.0200005      -1.78840260E-16
  -14.0100002      -1.88376316E-16
  -14.0000000      -1.52606273E-16
  -13.9899998      -6.98897870E-17
  -13.9799995       4.98342140E-17
  -13.9700003       1.85026565E-16
  -13.9600000       3.05504641E-16
  -13.9499998       3.78231578E-16
  -13.9399996       3.75027623E-16
  -13.9300003       2.80613598E-16
  -13.9200001       9.90050953E-17
  -13.9099998      -1.43683866E-16
  -13.8999996      -4.01410714E-16
  -13.8900003      -6.15720161E-16
  -13.8800001      -7.27692622E-16
  -13.8699999      -6.92130209E-16
  -13.8599997      -4.90846805E-16
  -13.8500004      -1.41628991E-16
  -13.8400002       3.00049537E-16
  -13.8299999       7.48138621E-16
  -13.8199997       1.10158265E-15
  -13.8100004       1.26583515E-15
  -13.8000002       1.17596432E-15
  -13.7900000       8.15973520E-16
  -13.7799997       2.29138612E-16
  -13.7700005      -4.84328198E-16
  -13.7600002      -1.18336908E-15
  -13.7500000      -1.71375327E-15
  -13.7399998      -1.94206168E-15
  -13.7299995      -1.78852023E-15
  -13.7200003      -1.25063229E-15
  -13.7100000      -4.10925805E-16
  -13.6999998       5.74680514E-16
  -13.6899996       1.50695356E-15
  -13.6800003       2.18622867E-15
  -13.6700001       2.45870223E-15
  -13.6599998       2.25496772E-15
  -13.6499996       1.61051785E-15
  -13.6400003       6.61626064E-16
  -13.6300001      -3.84260943E-16
  -13.6199999      -1.29789429E-15
  -13.6099997      -1.88590043E-15
  -13.6000004      -2.04200628E-15
  -13.5900002      -1.77739128E-15
  -13.5799999      -1.22000580E-15
  -13.5699997      -5.80243986E-16
  -13.5600004      -8.94687815E-17
  -13.5500002       7.36529095E-17
  -13.5400000      -1.51242100E-16
  -13.5299997      -6.69269954E-16
  -13.5200005      -1.23721391E-15
  -13.5100002      -1.51905978E-15
  -13.5000000      -1.18165607E-15
  -13.4899998      -9.11197926E-18
  -13.4799995       1.99427470E-15
  -13.4700003       4.54464643E-15
  -13.4600000       7.08808986E-15
  -13.4499998       8.88974038E-15
  -13.4399996       9.19323398E-15
  -13.4300003       7.42084125E-15
  -13.4200001       3.36871843E-15
  -13.4099998      -2.65442211E-15
  -13.3999996      -9.79081403E-15
  -13.3900003      -1.67259192E-14
  -13.3800001      -2.19078872E-14
  -13.3699999      -2.38608537E-14
  -13.3599997      -2.15310964E-14
  -13.3500004      -1.45890668E-14
  -13.3400002      -3.61119326E-15
  -13.3299999       9.91531262E-15
  -13.3199997       2.37861759E-14
  -13.3100004       3.54500060E-14
  -13.3000002       4.24893783E-14
  -13.2900000       4.31169789E-14
  -13.2799997       3.65796870E-14
  -13.2700005       2.33767947E-14
  -13.2600002       5.23488257E-15
  -13.2500000      -1.51661995E-14
  -13.2399998      -3.46659211E-14
  -13.2299995      -5.01972494E-14
  -13.2200003      -5.93399773E-14
  -13.2100000      -6.07337057E-14
  -13.1999998      -5.42632176E-14
  -13.1899996      -4.09828963E-14
  -13.1800003      -2.28106091E-14
  -13.1700001      -2.07813054E-15
  -13.1599998       1.89397262E-14
  -13.1499996       3.83921783E-14
  -13.1400003       5.50220541E-14
  -13.1300001       6.81034954E-14
  -13.1199999       7.71854030E-14
  -13.1099997       8.17435583E-14
  -13.1000004       8.08842671E-14
  -13.0900002       7.32415430E-14
  -13.0799999       5.71659826E-14
  -13.0699997       3.12215057E-14
  -13.0600004      -5.09230194E-15
  -13.0500002      -5.05671995E-14
  -13.0400000      -1.01694667E-13
  -13.0299997      -1.52489268E-13
  -13.0200005      -1.94899245E-13
  -13.0100002      -2.19856509E-13
  -13.0000000      -2.18863312E-13
  -12.9899998      -1.85859371E-13
  -12.9799995      -1.18996948E-13
  -12.9700003      -2.19090730E-14
  -12.9600000       9.58940162E-14
  -12.9499998       2.19724941E-13
  -12.9399996       3.31527964E-13
  -12.9300003       4.12574082E-13
  -12.9200001       4.46607866E-13
  -12.9099998       4.22875005E-13
  -12.8999996       3.38439698E-13
  -12.8900003       1.99302976E-13
  -12.8800001       2.00474521E-14
  -12.8699999      -1.77984783E-13
  -12.8599997      -3.69685565E-13
  -12.8500004      -5.29816805E-13
  -12.8400002      -6.36639450E-13
  -12.8299999      -6.74904035E-13
  -12.8199997      -6.37720725E-13
  -12.8100004      -5.27079736E-13
  -12.8000002      -3.53080548E-13
  -12.7900000      -1.32183991E-13
  -12.7799997       1.15039665E-13
  -12.7700005       3.66163778E-13
  -12.7600002       5.98766750E-13
  -12.7500000       7.91715922E-13
  -12.7399998       9.25938471E-13
  -12.7299995       9.84951378E-13
  -12.7200003       9.55529167E-13
  -12.7100000       8.28845998E-13
  -12.6999998       6.02244058E-13
  -12.6899996       2.81484796E-13
  -12.6800003      -1.16975182E-13
  -12.6700001      -5.64389627E-13
  -12.6599998      -1.01961462E-12
  -12.6499996      -1.43116367E-12
  -12.6400003      -1.74177404E-12
  -12.6300001      -1.89532548E-12
  -12.6199999      -1.84537216E-12
  -12.6099997      -1.56403774E-12
  -12.6000004      -1.04969017E-12
  -12.5900002      -3.31779688E-13
  -12.5799999       5.28491584E-13
  -12.5699997       1.44239210E-12
  -12.5600004       2.30268474E-12
  -12.5500002       2.99647807E-12
  -12.5400000       3.42017799E-12
  -12.5299997       3.49430185E-12
  -12.5200005       3.17580597E-12
  -12.5100002       2.46592243E-12
  -12.5000000       1.41216682E-12
  -12.4899998       1.04165625E-13
  -12.4799995      -1.33604217E-12
  -12.4700003      -2.76766804E-12
  -12.4600000      -4.04663195E-12
  -12.4499998      -5.04049667E-12
  -12.4399996      -5.64082418E-12
  -12.4300003      -5.77154774E-12
  -12.4200001      -5.39285153E-12
  -12.4099998      -4.50093088E-12
  -12.3999996      -3.12471685E-12
  -12.3900003      -1.32103584E-12
  -12.3800001       8.30404484E-13
  -12.3699999       3.23121976E-12
  -12.3599997       5.76750930E-12
  -12.3500004       8.31243668E-12
  -12.3400002       1.07293575E-11
  -12.3299999       1.28767491E-11
  -12.3199997       1.46159421E-11
  -12.3100004       1.58220121E-11
  -12.3000002       1.63970712E-11
  -12.2900000       1.62841962E-11
  -12.2799997       1.54794649E-11
  -12.2700005       1.40390217E-11
  -12.2600002       1.20788171E-11
  -12.2500000       9.76540203E-12
  -12.2399998       7.29790100E-12
  -12.2299995       4.88309133E-12
  -12.2200003       2.70695315E-12
  -12.2100000       9.07329767E-13
  -12.1999998      -4.47638319E-13
  -12.1899996      -1.37127419E-12
  -12.1800003      -1.95806218E-12
  -12.1700001      -2.37090924E-12
  -12.1599998      -2.81815044E-12
  -12.1499996      -3.52408250E-12
  -12.1400003      -4.69799763E-12
  -12.1300001      -6.50677992E-12
  -12.1199999      -9.05510302E-12
  -12.1099997      -1.23755945E-11
  -12.1000004      -1.64292174E-11
  -12.0900002      -2.11142440E-11
  -12.0799999      -2.62805264E-11
  -12.0699997      -3.17457102E-11
  -12.0600004      -3.73098843E-11
  -12.0500002      -4.27666826E-11
  -12.0400000      -4.79104152E-11
  -12.0299997      -5.25399793E-11
  -12.0200005      -5.64617832E-11
  -12.0100002      -5.94939306E-11
  -12.0000000      -6.14734652E-11
  -11.9899998      -6.22670041E-11
  -11.9799995      -6.17842166E-11
  -11.9700003      -5.99911301E-11
  -11.9600000      -5.69204614E-11
  -11.9499998      -5.26752600E-11
  -11.9399996      -4.74235616E-11
  -11.9300003      -4.13835008E-11
  -11.9200001      -3.47996527E-11
  -11.9099998      -2.79146671E-11
  -11.8999996      -2.09399772E-11
  -11.8900003      -1.40315381E-11
  -11.8800001      -7.27439593E-12
  -11.8699999      -6.79273261E-13
  -11.8599997       5.80885427E-12
  -11.8500004       1.22912487E-11
  -11.8400002       1.88899677E-11
  -11.8299999       2.57210954E-11
  -11.8199997       3.28718094E-11
  -11.8100004       4.03858232E-11
  -11.8000002       4.82588622E-11
  -11.7900000       5.64447204E-11
  -11.7799997       6.48684995E-11
  -11.7700005       7.34440911E-11
  -11.7600002       8.20899460E-11
  -11.7500000       9.07400335E-11
  -11.7399998       9.93464061E-11
  -11.7299995       1.07873231E-10
  -11.7200003       1.16283719E-10
  -11.7100000       1.24523419E-10
  -11.6999998       1.32504577E-10
  -11.6899996       1.40095532E-10
  -11.6800003       1.47119192E-10
  -11.6700001       1.53361199E-10
  -11.6599998       1.58587185E-10
  -11.6499996       1.62566002E-10
  -11.6400003       1.65094563E-10
  -11.6300001       1.66018366E-10
  -11.6199999       1.65244984E-10
  -11.6099997       1.62745678E-10
  -11.6000004       1.58547425E-10
  -11.5900002       1.52715049E-10
  -11.5799999       1.45328999E-10
  -11.5699997       1.36463438E-10
  -11.5600004       1.26169269E-10
  -11.5500002       1.14466797E-10
  -11.5400000       1.01348777E-10
  -11.5299997       8.67940025E-11
  -11.5200005       7.07866543E-11
  -11.5100002       5.33386009E-11
  -11.5000000       3.45086459E-11
  -11.4899998       1.44124738E-11
  -11.4799995      -6.77748873E-12
  -11.4700003      -2.88441961E-11
  -11.4600000      -5.15474122E-11
  -11.4499998      -7.46507994E-11
  -11.4399996      -9.79486423E-11
  -11.4300003      -1.21286689E-10
  -11.4200001      -1.44573506E-10
  -11.4099998      -1.67778860E-10
  -11.3999996      -1.90921112E-10
  -11.3900003      -2.14045046E-10
  -11.3800001      -2.37197040E-10
  -11.3699999      -2.60401062E-10
  -11.3599997      -2.83642915E-10
  -11.3500004      -3.06864256E-10
  -11.3400002      -3.29968858E-10
  -11.3299999      -3.52838370E-10
  -11.3199997      -3.75354775E-10
  -11.3100004      -3.97422983E-10
  -11.3000002      -4.18989676E-10
  -11.2900000      -4.40052578E-10
  -11.2799997      -4.60659594E-10
  -11.2700005      -4.80897488E-10
  -11.2600002      -5.00871622E-10
  -11.2500000      -5.20682941E-10
  -11.2399998      -5.40406442E-10
  -11.2299995      -5.60073543E-10
  -11.2200003      -5.79662818E-10
  -11.2100000      -5.99099936E-10
  -11.1999998      -6.18261609E-10
  -11.1899996      -6.36987629E-10
  -11.1800003      -6.55089649E-10
  -11.1700001      -6.72361999E-10
  -11.1599998      -6.88584967E-10
  -11.1499996      -7.03531289E-10
  -11.1400003      -7.16965876E-10
  -11.1300001      -7.28652416E-10
  -11.1199999      -7.38360262E-10
  -11.1099997      -7.45879525E-10
  -11.1000004      -7.51041007E-10
  -11.0900002      -7.53739238E-10
  -11.0799999      -7.53955620E-10
  -11.0699997      -7.51772866E-10
  -11.0600004      -7.47383322E-10
  -11.0500002      -7.41084638E-10
  -11.0400000      -7.33262229E-10
  -11.0299997      -7.24358906E-10
  -11.0200005      -7.14842574E-10
  -11.0100002      -7.05168590E-10
  -11.0000000      -6.95746294E-10
  -10.9899998      -6.86914414E-10
  -10.9799995      -6.78921863E-10
  -10.9700003      -6.71922185E-10
  -10.9600000      -6.65976885E-10
  -10.9499998      -6.61047217E-10
  -10.9399996      -6.57008670E-10
  -10.9300003      -6.53645249E-10
  -10.9200001      -6.50651866E-10
  -10.9099998      -6.47632670E-10
  -10.8999996      -6.44104770E-10
  -10.8900003      -6.39507725E-10
  -10.8800001      -6.33221198E-10
  -10.8699999      -6.24601870E-10
  -10.8599997      -6.13021522E-10
  -10.8500004      -5.97921657E-10
  -10.8400002      -5.78859238E-10
  -10.8299999      -5.55552271E-10
  -10.8199997      -5.27909161E-10
  -10.8100004      -4.96036656E-10
  -10.8000002      -4.60234045E-10
  -10.7900000      -4.20964125E-10
  -10.7799997      -3.78808845E-10
  -10.7700005      -3.34422517E-10
  -10.7600002      -2.88480878E-10
  -10.7500000      -2.41640680E-10
  -10.7399998      -1.94513419E-10
  -10.7299995      -1.47637250E-10
  -10.7200003      -1.01478936E-10
  -10.7100000      -5.64270332E-11
  -10.6999998      -1.27978851E-11
  -10.6899996       2.91746835E-11
  -10.6800003       6.93329907E-11
  -10.6700001       1.07609630E-10
  -10.6599998       1.44028803E-10
  -10.6499996       1.78711018E-10
  -10.6400003       2.11870105E-10
  -10.6300001       2.43812359E-10
  -10.6199999       2.74906098E-10
  -10.6099997       3.05566183E-10
  -10.6000004       3.36228434E-10
  -10.5900002       3.67318370E-10
  -10.5799999       3.99241806E-10
  -10.5699997       4.32365033E-10
  -10.5600004       4.67004102E-10
  -10.5500002       5.03427411E-10
  -10.5400000       5.41842293E-10
  -10.5299997       5.82400239E-10
  -10.5200005       6.25188568E-10
  -10.5100002       6.70222211E-10
  -10.5000000       7.17440884E-10
  -10.4899998       7.66708641E-10
  -10.4799995       8.17806267E-10
  -10.4700003       8.70443218E-10
  -10.4600000       9.24257115E-10
  -10.4499998       9.78821912E-10
  -10.4399996       1.03365627E-09
  -10.4300003       1.08822085E-09
  -10.4200001       1.14192866E-09
  -10.4099998       1.19414600E-09
  -10.3999996       1.24421184E-09
  -10.3900003       1.29145472E-09
  -10.3800001       1.33522382E-09
  -10.3699999       1.37493339E-09
  -10.3599997       1.41009870E-09
  -10.3500004       1.44038614E-09
  -10.3400002       1.46563084E-09
  -10.3299999       1.48585166E-09
  -10.3199997       1.50124102E-09
  -10.3100004       1.51214063E-09
  -10.3000002       1.51899182E-09
  -10.2900000       1.52229596E-09
  -10.2799997       1.52257029E-09
  -10.2700005       1.52032253E-09
  -10.2600002       1.51603918E-09
  -10.2500000       1.51019175E-09
  -10.2399998       1.50325341E-09
  -10.2299995       1.49572121E-09
  -10.2200003       1.48813073E-09
  -10.2100000       1.48105783E-09
  -10.1999998       1.47510559E-09
  -10.1899996       1.47087253E-09
  -10.1800003       1.46890866E-09
  -10.1700001       1.46966561E-09
  -10.1599998       1.47345436E-09
  -10.1499996       1.48041279E-09
  -10.1400003       1.49048895E-09
  -10.1300001       1.50344814E-09
  -10.1199999       1.51889590E-09
  -10.1099997       1.53631496E-09
  -10.1000004       1.55511348E-09
  -10.0900002       1.57467084E-09
  -10.0799999       1.59438018E-09
  -10.0699997       1.61368063E-09
  -10.0600004       1.63208003E-09
  -10.0500002       1.64916292E-09
  -10.0400000       1.66459491E-09
  -10.0299997       1.67811798E-09
  -10.0200005       1.68955006E-09
  -10.0100002       1.69878178E-09
  -10.0000000       1.70578174E-09
  -9.98999977       1.71060244E-09
  -9.97999954       1.71338754E-09
  -9.97000027       1.71437398E-09
  -9.96000004       1.71388659E-09
  -9.94999981       1.71232317E-09
  -9.93999958       1.71012782E-09
  -9.93000031       1.70775838E-09
  -9.92000008       1.70565084E-09
  -9.90999985       1.70418912E-09
  -9.89999962       1.70368253E-09
  -9.89000034       1.70436010E-09
  -9.88000011       1.70637282E-09
  -9.86999989       1.70981518E-09
  -9.85999966       1.71474657E-09
  -9.85000038       1.72121750E-09
  -9.84000015       1.72929004E-09
  -9.82999992       1.73905412E-09
  -9.81999969       1.75064052E-09
  -9.81000042       1.76422799E-09
  -9.80000019       1.78004289E-09
  -9.78999996       1.79836757E-09
  -9.77999973       1.81954174E-09
  -9.77000046       1.84396409E-09
  -9.76000023       1.87207894E-09
  -9.75000000       1.90435445E-09
  -9.73999977       1.94125316E-09
  -9.72999954       1.98318229E-09
  -9.72000027       2.03045158E-09
  -9.71000004       2.08322604E-09
  -9.69999981       2.14149654E-09
  -9.68999958       2.20506657E-09
  -9.68000031       2.27356622E-09
  -9.67000008       2.34647435E-09
  -9.65999985       2.42316456E-09
  -9.64999962       2.50294008E-09
  -9.64000034       2.58506372E-09
  -9.63000011       2.66878541E-09
  -9.61999989       2.75334489E-09
  -9.60999966       2.83796919E-09
  -9.60000038       2.92186786E-09
  -9.59000015       3.00423131E-09
  -9.57999992       3.08424242E-09
  -9.56999969       3.16109827E-09
  -9.56000042       3.23404659E-09
  -9.55000019       3.30241035E-09
  -9.53999996       3.36561823E-09
  -9.52999973       3.42321660E-09
  -9.52000046       3.47486484E-09
  -9.51000023       3.52032048E-09
  -9.50000000       3.55940655E-09
  -9.48999977       3.59199137E-09
  -9.47999954       3.61797703E-09
  -9.47000027       3.63728891E-09
  -9.46000004       3.64989261E-09
  -9.44999981       3.65582564E-09
  -9.43999958       3.65521502E-09
  -9.43000031       3.64831143E-09
  -9.42000008       3.63550390E-09
  -9.40999985       3.61731312E-09
  -9.39999962       3.59438523E-09
  -9.39000034       3.56747010E-09
  -9.38000011       3.53739282E-09
  -9.36999989       3.50502605E-09
  -9.35999966       3.47128526E-09
  -9.35000038       3.43710460E-09
  -9.34000015       3.40345729E-09
  -9.32999992       3.37134165E-09
  -9.31999969       3.34178329E-09
  -9.31000042       3.31583516E-09
  -9.30000019       3.29455863E-09
  -9.28999996       3.27897864E-09
  -9.27999973       3.27009175E-09
  -9.27000046       3.26883143E-09
  -9.26000023       3.27605409E-09
  -9.25000000       3.29255379E-09
  -9.23999977       3.31906058E-09
  -9.22999954       3.35627104E-09
  -9.22000027       3.40485573E-09
  -9.21000004       3.46547213E-09
  -9.19999981       3.53875995E-09
  -9.18999958       3.62529140E-09
  -9.18000031       3.72557896E-09
  -9.17000008       3.83998922E-09
  -9.15999985       3.96873778E-09
  -9.14999962       4.11184686E-09
  -9.14000034       4.26914415E-09
  -9.13000011       4.44026726E-09
  -9.11999989       4.62471217E-09
  -9.10999966       4.82184115E-09
  -9.10000038       5.03091924E-09
  -9.09000015       5.25111821E-09
  -9.07999992       5.48153478E-09
  -9.06999969       5.72115155E-09
  -9.06000042       5.96881922E-09
  -9.05000019       6.22324636E-09
  -9.03999996       6.48296838E-09
  -9.02999973       6.74637457E-09
  -9.02000046       7.01169922E-09
  -9.01000023       7.27708738E-09
  -9.00000000       7.54061258E-09
  -8.98999977       7.80033549E-09
  -8.97999954       8.05432254E-09
  -8.97000027       8.30069524E-09
  -8.96000004       8.53765414E-09
  -8.94999981       8.76349127E-09
  -8.93999958       8.97665942E-09
  -8.93000031       9.17576326E-09
  -8.92000008       9.35957800E-09
  -8.90999985       9.52708934E-09
  -8.89999962       9.67742153E-09
  -8.89000034       9.80981962E-09
  -8.88000011       9.92363702E-09
  -8.86999989       1.00182351E-08
  -8.85999966       1.00929842E-08
  -8.85000038       1.01472590E-08
  -8.84000015       1.01804405E-08
  -8.82999992       1.01919992E-08
  -8.81999969       1.01815463E-08
  -8.81000042       1.01488835E-08
  -8.80000019       1.00940518E-08
  -8.78999996       1.00172821E-08
  -8.77999973       9.91897675E-09
  -8.77000046       9.79962600E-09
  -8.76000023       9.65975744E-09
  -8.75000000       9.49988355E-09
  -8.73999977       9.32050792E-09
  -8.72999954       9.12218745E-09
  -8.72000027       8.90559626E-09
  -8.71000004       8.67157635E-09
  -8.69999981       8.42120329E-09
  -8.68999958       8.15577295E-09
  -8.68000031       7.87672239E-09
  -8.67000008       7.58553753E-09
  -8.65999985       7.28363192E-09
  -8.64999962       6.97223745E-09
  -8.64000034       6.65240574E-09
  -8.63000011       6.32503383E-09
  -8.61999989       5.99089756E-09
  -8.60999966       5.65085223E-09
  -8.60000038       5.30587441E-09
  -8.59000015       4.95711117E-09
  -8.57999992       4.60588057E-09
  -8.56999969       4.25356417E-09
  -8.56000042       3.90149335E-09
  -8.55000019       3.55083163E-09
  -8.53999996       3.20246785E-09
  -8.52999973       2.85702506E-09
  -8.52000046       2.51492893E-09
  -8.51000023       2.17647989E-09
  -8.50000000       1.84199034E-09
  -8.48999977       1.51184942E-09
  -8.47999954       1.18662458E-09
  -8.47000027       8.66926697E-10
  -8.46000004       5.53392998E-10
  -8.44999981       2.46527132E-10
  -8.43999958      -5.33140372E-11
  -8.43000031      -3.46015189E-10
  -8.42000008      -6.31635133E-10
  -8.40999985      -9.10294395E-10
  -8.39999962      -1.18211618E-09
  -8.39000034      -1.44708179E-09
  -8.38000011      -1.70502079E-09
  -8.36999989      -1.95565919E-09
  -8.35999966      -2.19864904E-09
  -8.35000038      -2.43370701E-09
  -8.34000015      -2.66069078E-09
  -8.32999992      -2.87966984E-09
  -8.31999969      -3.09088133E-09
  -8.31000042      -3.29464878E-09
  -8.30000019      -3.49125950E-09
  -8.28999996      -3.68082276E-09
  -8.27999973      -3.86320753E-09
  -8.27000046      -4.03802769E-09
  -8.26000023      -4.20464907E-09
  -8.25000000      -4.36231984E-09
  -8.23999977      -4.51028370E-09
  -8.22999954      -4.64786876E-09
  -8.22000027      -4.77452966E-09
  -8.21000004      -4.88982632E-09
  -8.19999981      -4.99339947E-09
  -8.18999958      -5.08484987E-09
  -8.18000031      -5.16367438E-09
  -8.17000008      -5.22921484E-09
  -8.15999985      -5.28066568E-09
  -8.14999962      -5.31714228E-09
  -8.14000034      -5.33774136E-09
  -8.13000011      -5.34163913E-09
  -8.11999989      -5.32812550E-09
  -8.10999966      -5.29667066E-09
  -8.10000038      -5.24685406E-09
  -8.09000015      -5.17832932E-09
  -8.07999992      -5.09071807E-09
  -8.06999969      -4.98358643E-09
  -8.06000042      -4.85640328E-09
  -8.05000019      -4.70856998E-09
  -8.03999996      -4.53949012E-09
  -8.02999973      -4.34867697E-09
  -8.02000046      -4.13586898E-09
  -8.01000023      -3.90111010E-09
  -8.00000000      -3.64475894E-09
  -7.98999977      -3.36747830E-09
  -7.98000002      -3.07013415E-09
  -7.96999979      -2.75368817E-09
  -7.96000004      -2.41904852E-09
  -7.94999981      -2.06697481E-09
  -7.94000006      -1.69804792E-09
  -7.92999983      -1.31268751E-09
  -7.92000008      -9.11244635E-10
  -7.90999985      -4.94124630E-10
  -7.90000010      -6.19236051E-11
  -7.88999987       3.84501042E-10
  -7.88000011       8.44020742E-10
  -7.86999989       1.31529210E-09
  -7.86000013       1.79688642E-09
  -7.84999990       2.28740427E-09
  -7.84000015       2.78562262E-09
  -7.82999992       3.29053829E-09
  -7.82000017       3.80134013E-09
  -7.80999994       4.31731184E-09
  -7.80000019       4.83769291E-09
  -7.78999996       5.36154099E-09
  -7.78000021       5.88766502E-09
  -7.76999998       6.41462172E-09
  -7.76000023       6.94081637E-09
  -7.75000000       7.46464934E-09
  -7.73999977       7.98468136E-09
  -7.73000002       8.49976445E-09
  -7.71999979       9.00907793E-09
  -7.71000004       9.51206847E-09
  -7.69999981       1.00083311E-08
  -7.69000006       1.04974545E-08
  -7.67999983       1.09788871E-08
  -7.67000008       1.14518866E-08
  -7.65999985       1.19155485E-08
  -7.65000010       1.23689610E-08
  -7.63999987       1.28113111E-08
  -7.63000011       1.32420590E-08
  -7.61999989       1.36610181E-08
  -7.61000013       1.40683243E-08
  -7.59999990       1.44643266E-08
  -7.59000015       1.48494523E-08
  -7.57999992       1.52240673E-08
  -7.57000017       1.55883733E-08
  -7.55999994       1.59424207E-08
  -7.55000019       1.62862008E-08
  -7.53999996       1.66197829E-08
  -7.53000021       1.69434351E-08
  -7.51999998       1.72577170E-08
  -7.51000023       1.75635027E-08
  -7.50000000       1.78618595E-08
  -7.48999977       1.81538979E-08
  -7.48000002       1.84406446E-08
  -7.46999979       1.87229237E-08
  -7.46000004       1.90013107E-08
  -7.44999981       1.92762037E-08
  -7.44000006       1.95479259E-08