  -16.0000000       0.00000000    
  -15.9899998       0.00000000    
  -15.9799995       0.00000000    
  -15.9700003       0.00000000    
  -15.9600000       0.00000000    
  -15.9499998       0.00000000    
  -15.9399996       0.00000000    
  -15.9300003       0.00000000    
  -15.9200001       0.00000000    
  -15.9099998       0.00000000    
  -15.8999996       0.00000000    
  -15.8900003       0.00000000    
  -15.8800001       0.00000000    
  -15.8699999      -0.00000000    
  -15.8599997      -4.20389539E-45
  -15.8500004      -9.38869971E-44
  -15.8400002      -1.10982838E-42
  -15.8299999      -9.39570620E-42
  -15.8199997      -6.33807295E-41
  -15.8100004      -3.58901964E-40
  -15.8000002      -1.75859454E-39
  -15.7900000      -7.60511582E-39
  -15.7799997      -2.94317071E-38
  -15.7700005      -1.02976447E-37
  -15.7600002      -3.28293402E-37
  -15.7500000      -9.59411975E-37
  -15.7399998      -2.58202959E-36
  -15.7299995      -6.42055746E-36
  -15.7200003      -1.47821112E-35
  -15.7100000      -3.15315196E-35
  -15.6999998      -6.22501688E-35
  -15.6899996      -1.13346951E-34
  -15.6800003      -1.88953209E-34
  -15.6700001      -2.84236646E-34
  -15.6599998      -3.74362074E-34
  -15.6499996      -4.00466038E-34
  -15.6400003      -2.58303129E-34
  -15.6300001       1.98555437E-34
  -15.6199999       1.12302588E-33
  -15.6099997       2.58731211E-33
  -15.6000004       4.43667935E-33
  -15.5900002       6.10860296E-33
  -15.5799999       6.49643932E-33
  -15.5699997       4.00195840E-33
  -15.5600004      -3.03912971E-33
  -15.5500002      -1.54212266E-32
  -15.5400000      -3.16861761E-32
  -15.5299997      -4.67414963E-32
  -15.5200005      -5.14119088E-32
  -15.5100002      -3.41842662E-32
  -15.5000000       1.38510028E-32
  -15.4899998       9.11441233E-32
  -15.4799995       1.77622110E-31
  -15.4700003       2.31994084E-31
  -15.4600000       2.01507850E-31
  -15.4499998       4.87114397E-32
  -15.4399996      -2.09014603E-31
  -15.4300003      -4.65888190E-31
  -15.4200001      -5.33166199E-31
  -15.4099998      -2.18717675E-31
  -15.3999996       5.09084786E-31
  -15.3900003       1.32301316E-30
  -15.3800001       1.43683674E-30
  -15.3699999      -2.02568757E-31
  -15.3599997      -4.27005865E-30
  -15.3500004      -1.00040791E-29
  -15.3400002      -1.41583596E-29
  -15.3299999      -1.08350261E-29
  -15.3199997       6.70039604E-30
  -15.3100004       4.15148433E-29
  -15.3000002       8.64499637E-29
  -15.2900000       1.18365740E-28
  -15.2799997       9.83407816E-29
  -15.2700005      -1.62525361E-29
  -15.2600002      -2.44682249E-28
  -15.2500000      -5.45396638E-28
  -15.2399998      -7.84487070E-28
  -15.2299995      -7.37583695E-28
  -15.2200003      -1.55162630E-28
  -15.2100000       1.09445524E-27
  -15.1999998       2.82929952E-27
  -15.1899996       4.38682892E-27
  -15.1800003       4.61958140E-27
  -15.1700001       2.19645627E-27
  -15.1599998      -3.72175716E-27
  -15.1499996      -1.25430848E-26
  -15.1400003      -2.14065002E-26
  -15.1300001      -2.50422585E-26
  -15.1199999      -1.69743854E-26
  -15.1099997       7.59817265E-27
  -15.1000004       4.76505698E-26
  -15.0900002       9.23843141E-26
  -15.0799999       1.19943034E-25
  -15.0699997       1.01525110E-25
  -15.0600004       1.25148338E-26
  -15.0500002      -1.50588419E-25
  -15.0400000      -3.52815353E-25
  -15.0299997      -5.12338041E-25
  -15.0200005      -5.11971960E-25
  -15.0100002      -2.38006238E-25
  -15.0000000       3.56120532E-25
  -14.9899998       1.17892975E-24
  -14.9799995       1.95597056E-24
  -14.9700003       2.25180720E-24
  -14.9600000       1.59086778E-24
  -14.9499998      -3.22514466E-25
  -14.9399996      -3.33604425E-24
  -14.9300003      -6.64126771E-24
  -14.9200001      -8.76874116E-24
  -14.9099998      -7.91370982E-24
  -14.8999996      -2.62881389E-24
  -14.8900003       7.24212019E-24
  -14.8800001       1.97089214E-23
  -14.8699999       3.03250754E-23
  -14.8599997       3.28895928E-23
  -14.8500004       2.13998952E-23
  -14.8400002      -6.97483518E-24
  -14.8299999      -4.87468834E-23
  -14.8199997      -9.21825872E-23
  -14.8100004      -1.18165356E-22
  -14.8000002      -1.04953980E-22
  -14.7900000      -3.67162971E-23
  -14.7799997       8.60839919E-23
  -14.7700005       2.38206585E-22
  -14.7600002       3.67870655E-22
  -14.7500000       4.05916596E-22
  -14.7399998       2.87318565E-22
  -14.7299995      -1.82953615E-23
  -14.7200003      -4.76034062E-22
  -14.7100000      -9.68270948E-22
  -14.6999998      -1.30410739E-21
  -14.6899996      -1.26446966E-21
  -14.6800003      -6.80403360E-22
  -14.6700001       4.72961972E-22
  -14.6599998       1.99869777E-21
  -14.6499996       3.45591496E-21
  -14.6400003       4.22679559E-21
  -14.6300001       3.68463767E-21
  -14.6199999       1.43900871E-21
  -14.6099997      -2.40665190E-21
  -14.6000004      -7.08121292E-21
  -14.5900002      -1.11581882E-20
  -14.5799999      -1.28252375E-20
  -14.5699997      -1.04107845E-20
  -14.5600004      -3.06985345E-21
  -14.5500002       8.56623719E-21
  -14.5400000       2.20314726E-20
  -14.5299997       3.31998794E-20
  -14.5200005       3.71281472E-20
  -14.5100002       2.95077910E-20
  -14.5000000       8.42965141E-21
  -14.4899998      -2.40494782E-20
  -14.4799995      -6.11533851E-20
  -14.4700003      -9.19862581E-20
  -14.4600000      -1.03742420E-19
  -14.4499998      -8.53225687E-20
  -14.4399996      -3.16195702E-20
  -14.4300003       5.27165403E-20
  -14.4200001       1.51425906E-19
  -14.4099998       2.37904537E-19
  -14.3999996       2.80173983E-19
  -14.3900003       2.49158795E-19
  -14.3800001       1.28734481E-19
  -14.3699999      -7.49872959E-20
  -14.3599997      -3.28191611E-19
  -14.3500004      -5.70531491E-19
  -14.3400002      -7.24636428E-19
  -14.3299999      -7.13722659E-19
  -14.3199997      -4.84649102E-19
  -14.3100004      -3.13909808E-20
  -14.3000002       5.87757527E-19
  -14.2900000       1.24621149E-18
  -14.2799997       1.76372029E-18
  -14.2700005       1.94134203E-18
  -14.2600002       1.61325666E-18
  -14.2500000       7.05928136E-19
  -14.2399998      -7.10130575E-19
  -14.2299995      -2.39348329E-18
  -14.2200003      -3.94587817E-18
  -14.2100000      -4.87679302E-18
  -14.1999998      -4.71618184E-18
  -14.1899996      -3.15805605E-18
  -14.1800003      -2.02538624E-19
  -14.1700001       3.74637751E-18
  -14.1599998       7.87090891E-18
  -14.1499996       1.10486423E-17
  -14.1400003       1.20859525E-17
  -14.1300001       1.00445725E-17
  -14.1199999       4.59193601E-18
  -14.1099997      -3.72292115E-18
  -14.1000004      -1.33733458E-17
  -14.0900002      -2.20206365E-17
  -14.0799999      -2.69666521E-17
  -14.0699997      -2.58380585E-17
  -14.0600004      -1.73599022E-17
  -14.0500002      -2.00983444E-18
  -14.0400000       1.76752830E-17
  -14.0299997       3.73216216E-17
  -14.0200005       5.15348676E-17
  -14.0100002       5.52099682E-17
  -14.0000000       4.50578812E-17
  -13.9899998       2.09404478E-17
  -13.9799995      -1.34299266E-17
  -13.9700003      -5.07733916E-17
  -13.9600000      -8.16292864E-17
  -13.9499998      -9.66527459E-17
  -13.9399996      -8.93064026E-17
  -13.9300003      -5.82072174E-17
  -13.9200001      -8.35012524E-18
  -13.9099998       4.93670786E-17
  -13.8999996       1.00468226E-16
  -13.8900003       1.30666796E-16
  -13.8800001       1.30139254E-16
  -13.8699999       9.70355518E-17
  -13.8599997       3.89795893E-17
  -13.8500004      -2.82547857E-17
  -13.8400002      -8.49229476E-17
  -13.8299999      -1.13430682E-16
  -13.8199997      -1.04663778E-16
  -13.8100004      -6.23909381E-17
  -13.8000002      -3.84332142E-18
  -13.7900000       4.44965929E-17
  -13.7799997       5.54148244E-17
  -13.7700005       1.17138924E-17
  -13.7600002      -8.41331158E-17
  -13.7500000      -2.05141626E-16
  -13.7399998      -3.02742334E-16
  -13.7299995      -3.18499291E-16
  -13.7200003      -2.02918601E-16
  -13.7100000       6.31644182E-17
  -13.6999998       4.51144412E-16
  -13.6899996       8.78066276E-16
  -13.6800003       1.21609780E-15
  -13.6700001       1.31947690E-15
  -13.6599998       1.06523425E-15
  -13.6499996       3.98793144E-16
  -13.6400003      -6.28175198E-16
  -13.6300001      -1.84107905E-15
  -13.6199999      -2.95737509E-15
  -13.6099997      -3.63691722E-15
  -13.6000004      -3.56209542E-15
  -13.5900002      -2.53238859E-15
  -13.5799999      -5.50311959E-16
  -13.5699997       2.12706215E-15
  -13.5600004       4.99311396E-15
  -13.5500002       7.36474904E-15
  -13.5400000       8.51915160E-15
  -13.5299997       7.87185326E-15
  -13.5200005       5.15810920E-15
  -13.5100002       5.70941764E-16
  -13.5000000      -5.18884167E-15
  -13.4899998      -1.09813138E-14
  -13.4799995      -1.54207430E-14
  -13.4700003      -1.71687056E-14
  -13.4600000      -1.52720379E-14
  -13.4499998      -9.46916766E-15
  -13.4399996      -3.82617170E-16
  -13.4300003       1.04705529E-14
  -13.4200001       2.08847459E-14
  -13.4099998       2.83746601E-14
  -13.3999996       3.07206483E-14
  -13.3900003       2.65395734E-14
  -13.3800001       1.57461968E-14
  -13.3699999      -2.24213724E-16
  -13.3599997      -1.85224574E-14
  -13.3500004      -3.53446588E-14
  -13.3400002      -4.66848850E-14
  -13.3299999      -4.92418199E-14
  -13.3199997      -4.12832576E-14
  -13.3100004      -2.32556352E-14
  -13.3000002       2.04077956E-15
  -13.2900000       2.98086344E-14
  -13.2799997       5.41235452E-14
  -13.2700005       6.91727152E-14
  -13.2600002       7.06112211E-14
  -13.2500000       5.67271788E-14
  -13.2399998       2.91177232E-14
  -13.2299995      -7.33797178E-15
  -13.2200003      -4.52771027E-14
  -13.2100000      -7.63138535E-14
  -13.1999998      -9.28830851E-14
  -13.1899996      -9.00683811E-14
  -13.1800003      -6.69798689E-14
  -13.1700001      -2.73135650E-14
  -13.1599998       2.11159012E-14
  -13.1499996       6.78509237E-14
  -13.1400003       1.02014805E-13
  -13.1300001       1.14822201E-13
  -13.1199999       1.01805988E-13
  -13.1099997       6.42092174E-14
  -13.1000004       9.14263816E-15
  -13.0900002      -5.16310796E-14
  -13.0799999      -1.04110161E-13
  -13.0699997      -1.35188410E-13
  -13.0600004      -1.35826991E-13
  -13.0500002      -1.03514690E-13
  -13.0400000      -4.33773399E-14
  -13.0299997       3.24322309E-14
  -13.0200005       1.07054516E-13
  -13.0100002       1.62537816E-13
  -13.0000000       1.83992822E-13
  -12.9899998       1.63346767E-13
  -12.9799995       1.01780041E-13
  -12.9700003       1.01700815E-14
  -12.9600000      -9.27120590E-14
  -12.9499998      -1.83994286E-13
  -12.9399996      -2.41736915E-13
  -12.9300003      -2.50109937E-13
  -12.9200001      -2.03503393E-13
  -12.9099998      -1.08524978E-13
  -12.8999996       1.67336102E-14
  -12.8900003       1.46174739E-13
  -12.8800001       2.51277542E-13
  -12.8699999       3.07599053E-13
  -12.8599997       3.00706156E-13
  -12.8500004       2.30083991E-13
  -12.8400002       1.09956979E-13
  -12.8299999      -3.33728271E-14
  -12.8199997      -1.67246615E-13
  -12.8100004      -2.60236602E-13
  -12.8000002      -2.89871751E-13
  -12.7900000      -2.48621951E-13
  -12.7799997      -1.46558099E-13
  -12.7700005      -9.81149095E-15
  -12.7600002       1.25071462E-13
  -12.7500000       2.19765626E-13
  -12.7399998       2.43863577E-13
  -12.7299995       1.83301738E-13
  -12.7200003       4.53310349E-14
  -12.7100000      -1.41456332E-13
  -12.6999998      -3.32419666E-13
  -12.6899996      -4.76568817E-13
  -12.6800003      -5.28604883E-13
  -12.6700001      -4.60509831E-13
  -12.6599998      -2.69801217E-13
  -12.6499996       1.78099909E-14
  -12.6400003       3.52405198E-13
  -12.6300001       6.69964301E-13
  -12.6199999       9.06523066E-13
  -12.6099997       1.01316210E-12
  -12.6000004       9.68173675E-13
  -12.5900002       7.83191166E-13
  -12.5799999       5.01326248E-13
  -12.5699997       1.87203700E-13
  -12.5600004      -8.92075449E-14
  -12.5500002      -2.71378433E-13
  -12.5400000      -3.33079078E-13
  -12.5299997      -2.88862386E-13
  -12.5200005      -1.94899137E-13
  -12.5100002      -1.38950049E-13
  -12.5000000      -2.20760720E-13
  -12.4899998      -5.26571842E-13
  -12.4799995      -1.10312042E-12
  -12.4700003      -1.93707745E-12
  -12.4600000      -2.94507452E-12
  -12.4499998      -3.97744641E-12
  -12.4399996      -4.83595585E-12
  -12.4300003      -5.30265849E-12
  -12.4200001      -5.17448454E-12
  -12.4099998      -4.29658349E-12
  -12.3999996      -2.58750985E-12
  -12.3900003      -5.08548925E-14
  -12.3800001       3.22913376E-12
  -12.3699999       7.10704369E-12
  -12.3599997       1.14064825E-11
  -12.3500004       1.59540818E-11
  -12.3400002       2.06095644E-11
  -12.3299999       2.52847292E-11
  -12.3199997       2.99468575E-11
  -12.3100004       3.46054539E-11
  -12.3000002       3.92852383E-11
  -12.2900000       4.39915916E-11
  -12.2799997       4.86767397E-11
  -12.2700005       5.32149602E-11
  -12.2600002       5.73935656E-11
  -12.2500000       6.09227876E-11
  -12.2399998       6.34638522E-11
  -12.2299995       6.46699777E-11
  -12.2200003       6.42324874E-11
  -12.2100000       6.19226614E-11
  -12.1999998       5.76205403E-11
  -12.1899996       5.13250206E-11
  -12.1800003       4.31429753E-11
  -12.1700001       3.32603597E-11
  -12.1599998       2.19017634E-11
  -12.1499996       9.28734780E-12
  -12.1400003      -4.40314755E-12
  -12.1300001      -1.90512137E-11
  -12.1199999      -3.46007181E-11
  -12.1099997      -5.10390896E-11
  -12.1000004      -6.83629195E-11
  -12.0900002      -8.65358687E-11
  -12.0799999      -1.05448511E-10
  -12.0699997      -1.24889737E-10
  -12.0600004      -1.44536855E-10
  -12.0500002      -1.63967576E-10
  -12.0400000      -1.82692972E-10
  -12.0299997      -2.00204811E-10
  -12.0200005      -2.16029389E-10
  -12.0100002      -2.29776503E-10
  -12.0000000      -2.41174136E-10
  -11.9899998      -2.50082483E-10
  -11.9799995      -2.56483751E-10
  -11.9700003      -2.60450217E-10
  -11.9600000      -2.62096789E-10
  -11.9499998      -2.61528077E-10
  -11.9399996      -2.58789851E-10
  -11.9300003      -2.53835813E-10
  -11.9200001      -2.46515863E-10
  -11.9099998      -2.36589165E-10
  -11.8999996      -2.23759053E-10
  -11.8900003      -2.07724005E-10
  -11.8800001      -1.88233581E-10
  -11.8699999      -1.65138736E-10
  -11.8599997      -1.38427089E-10
  -11.8500004      -1.08235101E-10
  -11.8400002      -7.48354712E-11
  -11.8299999      -3.86030895E-11
  -11.8199997       3.39845509E-14
  -11.8100004       4.06479711E-11
  -11.8000002       8.28569990E-11
  -11.7900000       1.26354760E-10
  -11.7799997       1.70916836E-10
  -11.7700005       2.16383758E-10
  -11.7600002       2.62624228E-10
  -11.7500000       3.09487713E-10
  -11.7399998       3.56757096E-10
  -11.7299995       4.04112133E-10
  -11.7200003       4.51112897E-10
  -11.7100000       4.97207053E-10
  -11.6999998       5.41760359E-10
  -11.6899996       5.84102933E-10
  -11.6800003       6.23585183E-10
  -11.6700001       6.59627630E-10
  -11.6599998       6.91758817E-10
  -11.6499996       7.19631577E-10
  -11.6400003       7.43016038E-10
  -11.6300001       7.61771479E-10
  -11.6199999       7.75804920E-10
  -11.6099997       7.85022602E-10
  -11.6000004       7.89288801E-10
  -11.5900002       7.88398236E-10
  -11.5799999       7.82067189E-10
  -11.5699997       7.69947217E-10
  -11.5600004       7.51657236E-10
  -11.5500002       7.26828819E-10
  -11.5400000       6.95157765E-10
  -11.5299997       6.56449728E-10
  -11.5200005       6.10655027E-10
  -11.5100002       5.57883961E-10
  -11.5000000       4.98400043E-10
  -11.4899998       4.32591379E-10
  -11.4799995       3.60925151E-10
  -11.4700003       2.83888163E-10
  -11.4600000       2.01928321E-10
  -11.4499998       1.15399766E-10
  -11.4399996       2.45290663E-11
  -11.4300003      -7.05979233E-11
  -11.4200001      -1.70019152E-10
  -11.4099998      -2.73853606E-10
  -11.3999996      -3.82240212E-10
  -11.3900003      -4.95262997E-10
  -11.3800001      -6.12884188E-10
  -11.3699999      -7.34892147E-10
  -11.3599997      -8.60881422E-10
  -11.3500004      -9.90266313E-10
  -11.3400002      -1.12233334E-09
  -11.3299999      -1.25631916E-09
  -11.3199997      -1.39150280E-09
  -11.3100004      -1.52729451E-09
  -11.3000002      -1.66329717E-09
  -11.2900000      -1.79933124E-09
  -11.2799997      -1.93541516E-09
  -11.2700005      -2.07169948E-09
  -11.2600002      -2.20837038E-09
  -11.2500000      -2.34554554E-09
  -11.2399998      -2.48317633E-09
  -11.2299995      -2.62098987E-09
  -11.2200003      -2.75847722E-09
  -11.2100000      -2.89493562E-09
  -11.1999998      -3.02955505E-09
  -11.1899996      -3.16153592E-09
  -11.1800003      -3.29020899E-09
  -11.1700001      -3.41513307E-09
  -11.1599998      -3.53614915E-09
  -11.1499996      -3.65337960E-09
  -11.1400003      -3.76717502E-09
  -11.1300001      -3.87801036E-09
  -11.1199999      -3.98637079E-09
  -11.1099997      -4.09264755E-09
  -11.1000004      -4.19703694E-09
  -11.0900002      -4.29951585E-09
  -11.0799999      -4.39985515E-09
  -11.0699997      -4.49767112E-09
  -11.0600004      -4.59251881E-09
  -11.0500002      -4.68399142E-09
  -11.0400000      -4.77180562E-09
  -11.0299997      -4.85586282E-09
  -11.0200005      -4.93625807E-09
  -11.0100002      -5.01326225E-09
  -11.0000000      -5.08725728E-09
  -10.9899998      -5.15867438E-09
  -10.9799995      -5.22790611E-09
  -10.9700003      -5.29525046E-09
  -10.9600000      -5.36086509E-09
  -10.9499998      -5.42474154E-09
  -10.9399996      -5.48672840E-09
  -10.9300003      -5.54655610E-09
  -10.9200001      -5.60386404E-09
  -10.9099998      -5.65826452E-09
  -10.8999996      -5.70936542E-09
  -10.8900003      -5.75681280E-09
  -10.8800001      -5.80031490E-09
  -10.8699999      -5.83964477E-09
  -10.8599997      -5.87464655E-09
  -10.8500004      -5.90522120E-09
  -10.8400002      -5.93131499E-09
  -10.8299999      -5.95288663E-09
  -10.8199997      -5.96991390E-09
  -10.8100004      -5.98234751E-09
  -10.8000002      -5.99012173E-09
  -10.7900000      -5.99314998E-09
  -10.7799997      -5.99131633E-09
  -10.7700005      -5.98453509E-09
  -10.7600002      -5.97273164E-09
  -10.7500000      -5.95589977E-09
  -10.7399998      -5.93407901E-09
  -10.7299995      -5.90738169E-09
  -10.7200003      -5.87597615E-09
  -10.7100000      -5.84006088E-09
  -10.6999998      -5.79982151E-09
  -10.6899996      -5.75542813E-09
  -10.6800003      -5.70698289E-09
  -10.6700001      -5.65451552E-09
  -10.6599998      -5.59801228E-09
  -10.6499996      -5.53742296E-09
  -10.6400003      -5.47273338E-09
  -10.6300001      -5.40399592E-09
  -10.6199999      -5.33137312E-09
  -10.6099997      -5.25517319E-09
  -10.6000004      -5.17585841E-09
  -10.5900002      -5.09403986E-09
  -10.5799999      -5.01042141E-09
  -10.5699997      -4.92576424E-09
  -10.5600004      -4.84082641E-09
  -10.5500002      -4.75629314E-09
  -10.5400000      -4.67276706E-09
  -10.5299997      -4.59076688E-09
  -10.5200005      -4.51068738E-09
  -10.5100002      -4.43287718E-09
  -10.5000000      -4.35769332E-09
  -10.4899998      -4.28549995E-09
  -10.4799995      -4.21676294E-09
  -10.4700003      -4.15203338E-09
  -10.4600000      -4.09197476E-09
  -10.4499998      -4.03730382E-09
  -10.4399996      -3.98875466E-09
  -10.4300003      -3.94702893E-09
  -10.4200001      -3.91270261E-09
  -10.4099998      -3.88619581E-09
  -10.3999996      -3.86770305E-09
  -10.3900003      -3.85722432E-09
  -10.3800001      -3.85457399E-09
  -10.3699999      -3.85941457E-09
  -10.3599997      -3.87130239E-09
  -10.3500004      -3.88981469E-09
  -10.3400002      -3.91456645E-09
  -10.3299999      -3.94527966E-09
  -10.3199997      -3.98184996E-09
  -10.3100004      -4.02428224E-09
  -10.3000002      -4.07275413E-09
  -10.2900000      -4.12753032E-09
  -10.2799997      -4.18889012E-09
  -10.2700005      -4.25709779E-09
  -10.2600002      -4.33231007E-09
  -10.2500000      -4.41454073E-09
  -10.2399998      -4.50361304E-09
  -10.2299995      -4.59917970E-09
  -10.2200003      -4.70074513E-09
  -10.2100000      -4.80771600E-09
  -10.1999998      -4.91948304E-09
  -10.1899996      -5.03554665E-09
  -10.1800003      -5.15554621E-09
  -10.1700001      -5.27933874E-09
  -10.1599998      -5.40700507E-09
  -10.1499996      -5.53881296E-09
  -10.1400003      -5.67514746E-09
  -10.1300001      -5.81645487E-09
  -10.1199999      -5.96310645E-09
  -10.1099997      -6.11533135E-09
  -10.1000004      -6.27315666E-09
  -10.0900002      -6.43641540E-09
  -10.0799999      -6.60474431E-09
  -10.0699997      -6.77766598E-09
  -10.0600004      -6.95469105E-09
  -10.0500002      -7.13531900E-09
  -10.0400000      -7.31919769E-09
  -10.0299997      -7.50608375E-09
  -10.0200005      -7.69585995E-09
  -10.0100002      -7.88847743E-09
  -10.0000000      -8.08389000E-09
  -9.98999977      -8.28201152E-09
  -9.97999954      -8.48268389E-09
  -9.97000027      -8.68563976E-09
  -9.96000004      -8.89052743E-09
  -9.94999981      -9.09696851E-09
  -9.93999958      -9.30464239E-09
  -9.93000031      -9.51332790E-09
  -9.92000008      -9.72295755E-09
  -9.90999985      -9.93363880E-09
  -9.89999962      -1.01456683E-08
  -9.89000034      -1.03594635E-08
  -9.88000011      -1.05754481E-08
  -9.86999989      -1.07940537E-08
  -9.85999966      -1.10155645E-08
  -9.85000038      -1.12401253E-08
  -9.84000015      -1.14676952E-08
  -9.82999992      -1.16980896E-08
  -9.81999969      -1.19310659E-08
  -9.81000042      -1.21663541E-08
  -9.80000019      -1.24037820E-08
  -9.78999996      -1.26433140E-08
  -9.77999973      -1.28850992E-08
  -9.77000046      -1.31294229E-08
  -9.76000023      -1.33766695E-08
  -9.75000000      -1.36272638E-08
  -9.73999977      -1.38815937E-08
  -9.72999954      -1.41398866E-08
  -9.72000027      -1.44022110E-08
  -9.71000004      -1.46684389E-08
  -9.69999981      -1.49383119E-08
  -9.68999958      -1.52114517E-08
  -9.68000031      -1.54874336E-08
  -9.67000008      -1.57658153E-08
  -9.65999985      -1.60461866E-08
  -9.64999962      -1.63281584E-08
  -9.64000034      -1.66113931E-08
  -9.63000011      -1.68955072E-08
  -9.61999989      -1.71801364E-08
  -9.60999966      -1.74648740E-08
  -9.60000038      -1.77492741E-08
  -9.59000015      -1.80328872E-08
  -9.57999992      -1.83152959E-08
  -9.56999969      -1.85960634E-08
  -9.56000042      -1.88747791E-08
  -9.55000019      -1.91510363E-08
  -9.53999996      -1.94243910E-08
  -9.52999973      -1.96943422E-08
  -9.52000046      -1.99602912E-08
  -9.51000023      -2.02216626E-08
  -9.50000000      -2.04778967E-08
  -9.48999977      -2.07284323E-08
  -9.47999954      -2.09728732E-08
  -9.47000027      -2.12109494E-08
  -9.46000004      -2.14425366E-08
  -9.44999981      -2.16676579E-08
  -9.43999958      -2.18864002E-08
  -9.43000031      -2.20988330E-08
  -9.42000008      -2.23050503E-08
  -9.40999985      -2.25050965E-08
  -9.39999962      -2.26989645E-08
  -9.39000034      -2.28867680E-08
  -9.38000011      -2.30687363E-08
  -9.36999989      -2.32453505E-08
  -9.35999966      -2.34173143E-08
  -9.35000038      -2.35855921E-08
  -9.34000015      -2.37513493E-08
  -9.32999992      -2.39159021E-08
  -9.31999969      -2.40805473E-08
  -9.31000042      -2.42465461E-08
  -9.30000019      -2.44150939E-08
  -9.28999996      -2.45871359E-08
  -9.27999973      -2.47634606E-08
  -9.27000046      -2.49446881E-08
  -9.26000023      -2.51313192E-08
  -9.25000000      -2.53236987E-08
  -9.23999977      -2.55221355E-08
  -9.22999954      -2.57269388E-08
  -9.22000027      -2.59384283E-08
  -9.21000004      -2.61570019E-08
  -9.19999981      -2.63832565E-08
  -9.18999958      -2.66179416E-08
  -9.18000031      -2.68620166E-08
  -9.17000008      -2.71165721E-08
  -9.15999985      -2.73827130E-08
  -9.14999962      -2.76615300E-08
  -9.14000034      -2.79538526E-08
  -9.13000011      -2.82602102E-08
  -9.11999989      -2.85808301E-08
  -9.10999966      -2.89156183E-08
  -9.10000038      -2.92642071E-08
  -9.09000015      -2.96261131E-08
  -9.07999992      -3.00008161E-08
  -9.06999969      -3.03879268E-08
  -9.06000042      -3.07870742E-08
  -9.05000019      -3.11980060E-08
  -9.03999996      -3.16205089E-08
  -9.02999973      -3.20542313E-08
  -9.02000046      -3.24988214E-08
  -9.01000023      -3.29538032E-08
  -9.00000000      -3.34185266E-08
  -8.98999977      -3.38924657E-08
  -8.97999954      -3.43750877E-08
  -8.97000027      -3.48659164E-08
  -8.96000004      -3.53645753E-08
  -8.94999981      -3.58706629E-08
  -8.93999958      -3.63836996E-08
  -8.93000031      -3.69030246E-08
  -8.92000008      -3.74276432E-08
  -8.90999985      -3.79565570E-08
  -8.89999962      -3.84883947E-08
  -8.89000034      -3.90220016E-08
  -8.88000011      -3.95562623E-08
  -8.86999989      -4.00903524E-08
  -8.85999966      -4.06236502E-08
  -8.85000038      -4.11558787E-08
  -8.84000015      -4.16868247E-08
  -8.82999992      -4.22162998E-08
  -8.81999969      -4.27441584E-08
  -8.81000042      -4.32700986E-08
  -8.80000019      -4.37937864E-08
  -8.78999996      -4.43148060E-08
  -8.77999973      -4.48328734E-08
  -8.77000046      -4.53478251E-08
  -8.76000023      -4.58597036E-08
  -8.75000000      -4.63687471E-08
  -8.73999977      -4.68753107E-08
  -8.72999954      -4.73799062E-08
  -8.72000027      -4.78830913E-08
  -8.71000004      -4.83854947E-08
  -8.69999981      -4.88879088E-08
  -8.68999958      -4.93912076E-08
  -8.68000031      -4.98963821E-08
  -8.67000008      -5.04046511E-08
  -8.65999985      -5.09173752E-08
  -8.64999962      -5.14359719E-08
  -8.64000034      -5.19619014E-08
  -8.63000011      -5.24964996E-08
  -8.61999989      -5.30410951E-08
  -8.60999966      -5.35968603E-08
  -8.60000038      -5.41650422E-08
  -8.59000015      -5.47468630E-08
  -8.57999992      -5.53437012E-08
  -8.56999969      -5.59570452E-08
  -8.56000042      -5.65883234E-08
  -8.55000019      -5.72388181E-08
  -8.53999996      -5.79098085E-08
  -8.52999973      -5.86023070E-08
  -8.52000046      -5.93170491E-08
  -8.51000023      -6.00547096E-08
  -8.50000000      -6.08155943E-08
  -8.48999977      -6.16000690E-08
  -8.47999954      -6.24082901E-08
  -8.47000027      -6.32404280E-08
  -8.46000004      -6.40963123E-08
  -8.44999981      -6.49755378E-08
  -8.43999958      -6.58771242E-08
  -8.43000031      -6.67997213E-08
  -8.42000008      -6.77416736E-08
  -8.40999985      -6.87010768E-08
  -8.39999962      -6.96758917E-08
  -8.39000034      -7.06642496E-08
  -8.38000011      -7.16645658E-08
  -8.36999989      -7.26755047E-08
  -8.35999966      -7.36956522E-08
  -8.35000038      -7.47237010E-08
  -8.34000015      -7.57579670E-08
  -8.32999992      -7.67966739E-08
  -8.31999969      -7.78373419E-08
  -8.31000042      -7.88774912E-08
  -8.30000019      -7.99148054E-08
  -8.28999996      -8.09469114E-08
  -8.27999973      -8.19720256E-08
  -8.27000046      -8.29888265E-08
  -8.26000023      -8.39961558E-08
  -8.25000000      -8.49933386E-08
  -8.23999977      -8.59792735E-08
  -8.22999954      -8.69526247E-08
  -8.22000027      -8.79118289E-08
  -8.21000004      -8.88548115E-08
  -8.19999981      -8.97794834E-08
  -8.18999958      -9.06836775E-08
  -8.18000031      -9.15656955E-08
  -8.17000008      -9.24244858E-08
  -8.15999985      -9.32593380E-08
  -8.14999962      -9.40700957E-08
  -8.14000034      -9.48570502E-08
  -8.13000011      -9.56203721E-08
  -8.11999989      -9.63604592E-08
  -8.10999966      -9.70774963E-08
  -8.10000038      -9.77717605E-08
  -8.09000015      -9.84434294E-08
  -8.07999992      -9.90931213E-08
  -8.06999969      -9.97216247E-08
  -8.06000042      -1.00329977E-07
  -8.05000019      -1.00919692E-07
  -8.03999996      -1.01492567E-07
  -8.02999973      -1.02050194E-07
  -8.02000046      -1.02594484E-07
  -8.01000023      -1.03127164E-07
  -8.00000000      -1.03650038E-07
  -7.98999977      -1.04164585E-07
  -7.98000002      -1.04672615E-07
  -7.96999979      -1.05175886E-07
  -7.96000004      -1.05676385E-07
  -7.94999981      -1.06176508E-07
  -7.94000006      -1.06678357E-07
  -7.92999983      -1.07184363E-07
  -7.92000008      -1.07696927E-07
  -7.90999985      -1.08218103E-07
  -7.90000010      -1.08750243E-07
  -7.88999987      -1.09294987E-07
  -7.88000011      -1.09854255E-07
  -7.86999989      -1.10429767E-07
  -7.86000013      -1.11022743E-07
  -7.84999990      -1.11635089E-07
  -7.84000015      -1.12268033E-07
  -7.82999992      -1.12922955E-07
  -7.82000017      -1.13601288E-07
  -7.80999994      -1.14304036E-07
  -7.80000019      -1.15032179E-07
  -7.78999996      -1.15786385E-07
  -7.78000021      -1.16567513E-07
  -7.76999998      -1.17375571E-07
  -7.76000023      -1.18210743E-07
  -7.75000000      -1.19072979E-07
  -7.73999977      -1.19962365E-07
  -7.73000002      -1.20879065E-07
  -7.71999979      -1.21823021E-07
  -7.71000004      -1.22794972E-07
  -7.69999981      -1.23795061E-07
  -7.69000006      -1.24824155E-07
  -7.67999983      -1.25882963E-07
  -7.67000008      -1.26972239E-07
  -7.65999985      -1.28092609E-07
  -7.65000010      -1.29244526E-07
  -7.63999987      -1.30428361E-07
  -7.63000011      -1.31644583E-07
  -7.61999989      -1.32893646E-07
  -7.61000013      -1.34176275E-07
  -7.59999990      -1.35493622E-07
  -7.59000015      -1.36846310E-07
  -7.57999992      -1.38235848E-07
  -7.57000017      -1.39663385E-07
  -7.55999994      -1.41129789E-07
  -7.55000019      -1.42635798E-07
  -7.53999996      -1.44181669E-07
  -7.53000021      -1.45767771E-07
  -7.51999998      -1.47394019E-07
  -7.51000023      -1.49060156E-07
  -7.50000000      -1.50766425E-07
  -7.48999977      -1.52513309E-07
  -7.48000002      -1.54300679E-07
  -7.46999979      -1.56128834E-07
  -7.46000004      -1.57998286E-07
  -7.44999981      -1.59909007E-07
  -7.44000006      -1.61861607E-07