  -16.0000000       0.00000000    
  -15.9899998       0.00000000    
  -15.9799995       0.00000000    
  -15.9700003       0.00000000    
  -15.9600000       0.00000000    
  -15.9499998       0.00000000    
  -15.9399996       0.00000000    
  -15.9300003       0.00000000    
  -15.9200001       0.00000000    
  -15.9099998       0.00000000    
  -15.8999996       0.00000000    
  -15.8900003       0.00000000    
  -15.8800001      -0.00000000    
  -15.8699999      -1.40129846E-45
  -15.8599997      -5.60519386E-45
  -15.8500004      -2.80259693E-44
  -15.8400002      -9.10844002E-44
  -15.8299999      -1.91977890E-43
  -15.8199997      -2.07392173E-43
  -15.8100004      -2.32615545E-43
  -15.8000002      -3.26222282E-42
  -15.7900000      -2.34311116E-41
  -15.7799997      -9.58193877E-41
  -15.7700005      -2.43921221E-40
  -15.7600002      -2.49781451E-40
  -15.7500000       1.12563363E-39
  -15.7399998       7.99241790E-39
  -15.7299995       3.05150061E-38
  -15.7200003       8.82908837E-38
  -15.7100000       2.09583871E-37
  -15.6999998       4.17530621E-37
  -15.6899996       6.91649981E-37
  -15.6800003       8.98343254E-37
  -15.6700001       7.04957115E-37
  -15.6599998      -4.69899096E-37
  -15.6499996      -3.37479018E-36
  -15.6400003      -8.60258679E-36
  -15.6300001      -1.59675496E-35
  -15.6199999      -2.36601902E-35
  -15.6099997      -2.74558717E-35
  -15.6000004      -2.04618023E-35
  -15.5900002       5.89053535E-36
  -15.5799999       5.85374835E-35
  -15.5699997       1.35454762E-34
  -15.5600004       2.12149111E-34
  -15.5500002       2.21478013E-34
  -15.5400000       3.41160517E-35
  -15.5299997      -5.34842721E-34
  -15.5200005      -1.64069808E-33
  -15.5100002      -3.17503228E-33
  -15.5000000      -4.34627098E-33
  -15.4899998      -3.18535386E-33
  -15.4799995       3.61436962E-33
  -15.4700003       1.97303773E-32
  -15.4600000       4.61278706E-32
  -15.4499998       7.53768884E-32
  -15.4399996       8.46958138E-32
  -15.4300003       3.23751950E-32
  -15.4200001      -1.33848276E-31
  -15.4099998      -4.46211825E-31
  -15.3999996      -8.59057290E-31
  -15.3900003      -1.17540059E-30
  -15.3800001      -9.98913658E-31
  -15.3699999       2.14730821E-31
  -15.3599997       2.91920913E-30
  -15.3500004       7.00353215E-30
  -15.3400002       1.11612102E-29
  -15.3299999       1.23976534E-29
  -15.3199997       6.21383617E-30
  -15.3100004      -1.18809715E-29
  -15.3000002      -4.31156703E-29
  -15.2900000      -8.08607284E-29
  -15.2799997      -1.06484137E-28
  -15.2700005      -8.90641669E-29
  -15.2600002       6.73455798E-30
  -15.2500000       2.01471255E-28
  -15.2399998       4.71754132E-28
  -15.2299995       7.20468918E-28
  -15.2200003       7.65506886E-28
  -15.2100000       3.72588048E-28
  -15.1999998      -6.46209393E-28
  -15.1899996      -2.26835066E-27
  -15.1800003      -4.07319970E-27
  -15.1700001      -5.12661482E-27
  -15.1599998      -4.07613636E-27
  -15.1499996       4.09920226E-28
  -15.1400003       8.81783173E-27
  -15.1300001       1.97335728E-26
  -15.1199999       2.89869189E-26
  -15.1099997       2.96758163E-26
  -15.1000004       1.38141115E-26
  -15.0900002      -2.39766907E-26
  -15.0799999      -8.11449876E-26
  -15.0699997      -1.41948063E-25
  -15.0600004      -1.75293558E-25
  -15.0500002      -1.39431633E-25
  -15.0400000       3.58933445E-27
  -15.0299997       2.63910408E-25
  -15.0200005       5.95921749E-25
  -15.0100002       8.78548572E-25
  -15.0000000       9.20795032E-25
  -14.9899998       5.08976064E-25
  -14.9799995      -4.97792876E-25
  -14.9700003      -2.03789356E-24
  -14.9600000      -3.72565122E-24
  -14.9499998      -4.80705172E-24
  -14.9399996      -4.27192083E-24
  -14.9300003      -1.17843621E-24
  -14.9200001       4.82253233E-24
  -14.9099998       1.28852872E-23
  -14.8999996       2.05351506E-23
  -14.8900003       2.37340510E-23
  -14.8800001       1.77569624E-23
  -14.8699999      -9.95881968E-25
  -14.8599997      -3.24975257E-23
  -14.8500004      -7.06446776E-23
  -14.8400002      -1.02061991E-22
  -14.8299999      -1.07544877E-22
  -14.8199997      -6.71704837E-23
  -14.8100004       3.09556561E-23
  -14.8000002       1.80061301E-22
  -14.7900000       3.45875496E-22
  -14.7799997       4.64754891E-22
  -14.7700005       4.53888704E-22
  -14.7600002       2.36348584E-22
  -14.7500000      -2.21267204E-22
  -14.7399998      -8.67775571E-22
  -14.7299995      -1.53899296E-21
  -14.7200003      -1.96176687E-21
  -14.7100000      -1.80743528E-21
  -14.6999998      -7.99918034E-22
  -14.6899996       1.13695692E-21
  -14.6800003       3.73359359E-21
  -14.6700001       6.29266503E-21
  -14.6599998       7.74043548E-21
  -14.6499996       6.86225159E-21
  -14.6400003       2.72340028E-21
  -14.6300001      -4.79938875E-21
  -14.6199999      -1.45349447E-20
  -14.6099997      -2.38043920E-20
  -14.6000004      -2.87022108E-20
  -14.5900002      -2.50101128E-20
  -14.5799999      -9.69784935E-21
  -14.5699997       1.72911024E-20
  -14.5600004       5.15308383E-20
  -14.5500002       8.36052383E-20
  -14.5400000       1.00279254E-19
  -14.5299997       8.76957563E-20
  -14.5200005       3.63246511E-20
  -14.5100002      -5.34063896E-20
  -14.5000000      -1.66618138E-19
  -14.4899998      -2.72828956E-19
  -14.4799995      -3.30078436E-19
  -14.4700003      -2.95134243E-19
  -14.4600000      -1.38680539E-19
  -14.4499998       1.37927378E-19
  -14.4399996       4.89782223E-19
  -14.4300003       8.25729272E-19
  -14.4200001       1.02108664E-18
  -14.4099998       9.47594638E-19
  -14.3999996       5.16958053E-19
  -14.3900003      -2.71947284E-19
  -14.3800001      -1.29735710E-18
  -14.3699999      -2.30740253E-18
  -14.3599997      -2.95497142E-18
  -14.3500004      -2.87872895E-18
  -14.3400002      -1.81992577E-18
  -14.3299999       2.51542626E-19
  -14.3199997       3.04122858E-18
  -14.3100004       5.90773676E-18
  -14.3000002       7.94776474E-18
  -14.2900000       8.19826894E-18
  -14.2799997       5.92957350E-18
  -14.2700005       9.64090895E-19
  -14.2600002      -6.07523463E-18
  -14.2500000      -1.36913702E-17
  -14.2399998      -1.96962176E-17
  -14.2299995      -2.16748138E-17
  -14.2200003      -1.76720140E-17
  -14.2100000      -6.95318758E-18
  -14.1999998       9.37940510E-18
  -14.1899996       2.81532973E-17
  -14.1800003       4.44647100E-17
  -14.1700001       5.26543672E-17
  -14.1599998       4.78043161E-17
  -14.1499996       2.74442232E-17
  -14.1400003      -6.99713652E-18
  -14.1300001      -4.95095655E-17
  -14.1199999      -9.00072298E-17
  -14.1099997      -1.16191427E-16
  -14.1000004      -1.16570977E-16
  -14.0900002      -8.40407826E-17
  -14.0799999      -1.90967615E-17
  -14.0699997       6.83552478E-17
  -14.0600004       1.59479032E-16
  -14.0500002       2.29693180E-16
  -14.0400000       2.54280852E-16
  -14.0299997       2.15366359E-16
  -14.0200005       1.08560229E-16
  -14.0100002      -5.27134279E-17
  -14.0000000      -2.36958896E-16
  -13.9899998      -3.99380693E-16
  -13.9799995      -4.91406588E-16
  -13.9700003      -4.73269336E-16
  -13.9600000      -3.26738274E-16
  -13.9499998      -6.44678960E-17
  -13.9399996       2.67309966E-16
  -13.9300003       5.94785424E-16
  -13.9200001       8.31244253E-16
  -13.9099998       8.97981450E-16
  -13.8999996       7.46841496E-16
  -13.8900003       3.78504031E-16
  -13.8800001      -1.49218075E-16
  -13.8699999      -7.27029713E-16
  -13.8599997      -1.21455588E-15
  -13.8500004      -1.47239250E-15
  -13.8400002      -1.39901912E-15
  -13.8299999      -9.63401404E-16
  -13.8199997      -2.23842035E-16
  -13.8100004       6.74063314E-16
  -13.8000002       1.52293792E-15
  -13.7900000       2.09922716E-15
  -13.7799997       2.21959965E-15
  -13.7700005       1.79461823E-15
  -13.7600002       8.64981681E-16
  -13.7500000      -3.91758191E-16
  -13.7399998      -1.68984756E-15
  -13.7299995      -2.69653299E-15
  -13.7200003      -3.11389894E-15
  -13.7100000      -2.76231208E-15
  -13.6999998      -1.64345356E-15
  -13.6899996       3.65719445E-17
  -13.6800003       1.89551659E-15
  -13.6700001       3.45397081E-15
  -13.6599998       4.25078275E-15
  -13.6499996       3.96907696E-15
  -13.6400003       2.54079815E-15
  -13.6300001       1.99145996E-16
  -13.6199999      -2.54203926E-15
  -13.6099997      -4.98635591E-15
  -13.6000004      -6.41500657E-15
  -13.5900002      -6.27529356E-15
  -13.5799999      -4.35178084E-15
  -13.5699997      -8.72883281E-16
  -13.5600004       3.48375037E-15
  -13.5500002       7.70228404E-15
  -13.5400000       1.06432078E-14
  -13.5299997       1.13199618E-14
  -13.5200005       9.17491519E-15
  -13.5100002       4.28402626E-15
  -13.5000000      -2.57134596E-15
  -13.4899998      -1.00009400E-14
  -13.4799995      -1.62676354E-14
  -13.4700003      -1.96700329E-14
  -13.4600000      -1.89648153E-14
  -13.4499998      -1.37285652E-14
  -13.4399996      -4.56220755E-15
  -13.4300003       6.93037741E-15
  -13.4200001       1.84094429E-14
  -13.4099998       2.72730616E-14
  -13.3999996       3.12430576E-14
  -13.3900003       2.89315419E-14
  -13.3800001       2.02481820E-14
  -13.3699999       6.53464997E-15
  -13.3599997      -9.63051304E-15
  -13.3500004      -2.49367126E-14
  -13.3400002      -3.60577962E-14
  -13.3299999      -4.04216862E-14
  -13.3199997      -3.68489554E-14
  -13.3100004      -2.58948475E-14
  -13.3000002      -9.79122230E-15
  -13.2900000       8.02203644E-15
  -13.2799997       2.36837866E-14
  -13.2700005       3.38370824E-14
  -13.2600002       3.64664557E-14
  -13.2500000       3.14274838E-14
  -13.2399998       2.05140436E-14
  -13.2299995       7.01837693E-15
  -13.2200003      -5.13081314E-15
  -13.2100000      -1.24493260E-14
  -13.1999998      -1.29209989E-14
  -13.1899996      -6.68040274E-15
  -13.1800003       3.86103240E-15
  -13.1700001       1.45305216E-14
  -13.1599998       2.04717055E-14
  -13.1499996       1.75461316E-14
  -13.1400003       3.70921953E-15
  -13.1300001      -2.00182058E-14
  -13.1199999      -4.92952575E-14
  -13.1099997      -7.70808181E-14
  -13.1000004      -9.50740680E-14
  -13.0900002      -9.57040504E-14
  -13.0799999      -7.42242300E-14
  -13.0699997      -3.03936496E-14
  -13.0600004       3.07272010E-14
  -13.0500002       9.91671887E-14
  -13.0400000       1.61661767E-13
  -13.0299997       2.04241599E-13
  -13.0200005       2.15276947E-13
  -13.0100002       1.88306049E-13
  -13.0000000       1.23967527E-13
  -12.9899998       3.05147482E-14
  -12.9799995      -7.73174385E-14
  -12.9700003      -1.80950158E-13
  -12.9600000      -2.61596896E-13
  -12.9499998      -3.04126651E-13
  -12.9399996      -3.00283968E-13
  -12.9300003      -2.50501985E-13
  -12.9200001      -1.63840567E-13
  -12.9099998      -5.60076955E-14
  -12.8999996       5.41173517E-14
  -12.8900003       1.48661438E-13
  -12.8800001       2.14634950E-13
  -12.8699999       2.46547222E-13
  -12.8599997       2.47079917E-13
  -12.8500004       2.25610641E-13
  -12.8400002       1.94930443E-13
  -12.8299999       1.66994728E-13
  -12.8199997       1.48854589E-13
  -12.8100004       1.39942650E-13
  -12.8000002       1.31604349E-13
  -12.7900000       1.09222601E-13
  -12.7799997       5.66008659E-14
  -12.7700005      -3.83843212E-14
  -12.7600002      -1.78308147E-13
  -12.7500000      -3.52467594E-13
  -12.7399998      -5.36183457E-13
  -12.7299995      -6.93784982E-13
  -12.7200003      -7.85049272E-13
  -12.7100000      -7.73962329E-13
  -12.6999998      -6.37949166E-13
  -12.6899996      -3.75394648E-13
  -12.6800003      -9.44676703E-15
  -12.6700001       4.13225281E-13
  -12.6599998       8.28986077E-13
  -12.6499996       1.16815932E-12
  -12.6400003       1.36828873E-12
  -12.6300001       1.38700412E-12
  -12.6199999       1.21165035E-12
  -12.6099997       8.63377512E-13
  -12.6000004       3.94491894E-13
  -12.5900002      -1.20696259E-13
  -12.5799999      -5.99835557E-13
  -12.5699997      -9.68471614E-13
  -12.5600004      -1.17459200E-12
  -12.5500002      -1.19861391E-12
  -12.5400000      -1.05658223E-12
  -12.5299997      -7.95822284E-13
  -12.5200005      -4.83963889E-13
  -12.5100002      -1.93762947E-13
  -12.5000000       1.28931721E-14
  -12.4899998       9.82054268E-14
  -12.4799995       5.59643918E-14
  -12.4700003      -8.82683615E-14
  -12.4600000      -2.84157490E-13
  -12.4499998      -4.68900851E-13
  -12.4399996      -5.81683464E-13
  -12.4300003      -5.76570909E-13
  -12.4200001      -4.30505376E-13
  -12.4099998      -1.44281912E-13
  -12.3999996       2.63832006E-13
  -12.3900003       7.70242756E-13
  -12.3800001       1.36072729E-12
  -12.3699999       2.04359294E-12
  -12.3599997       2.85732072E-12
  -12.3500004       3.86982503E-12
  -12.3400002       5.16835880E-12
  -12.3299999       6.84134433E-12
  -12.3199997       8.95552989E-12
  -12.3100004       1.15332709E-11
  -12.3000002       1.45351075E-11
  -12.2900000       1.78520185E-11
  -12.2799997       2.13098532E-11
  -12.2700005       2.46858887E-11
  -12.2600002       2.77348856E-11
  -12.2500000       3.02197885E-11
  -12.2399998       3.19411407E-11
  -12.2299995       3.27594583E-11
  -12.2200003       3.26061678E-11
  -12.2100000       3.14811892E-11
  -12.1999998       2.94382956E-11
  -12.1899996       2.65617285E-11
  -12.1800003       2.29398531E-11
  -12.1700001       1.86418658E-11
  -12.1599998       1.37030422E-11
  -12.1499996       8.12181919E-12
  -12.1400003       1.86915912E-12
  -12.1300001      -5.09203400E-12
  -12.1199999      -1.27825658E-11
  -12.1099997      -2.11833450E-11
  -12.1000004      -3.02187407E-11
  -12.0900002      -3.97508866E-11
  -12.0799999      -4.95868485E-11
  -12.0699997      -5.94972335E-11
  -12.0600004      -6.92420427E-11
  -12.0500002      -7.85983501E-11
  -12.0400000      -8.73833020E-11
  -12.0299997      -9.54674464E-11
  -12.0200005      -1.02775864E-10
  -12.0100002      -1.09276796E-10
  -12.0000000      -1.14961436E-10
  -11.9899998      -1.19819585E-10
  -11.9799995      -1.23817678E-10
  -11.9700003      -1.26884420E-10
  -11.9600000      -1.28907704E-10
  -11.9499998      -1.29743591E-10
  -11.9399996      -1.29234901E-10
  -11.9300003      -1.27235014E-10
  -11.9200001      -1.23630856E-10
  -11.9099998      -1.18359128E-10
  -11.8999996      -1.11412109E-10
  -11.8900003      -1.02830855E-10
  -11.8800001      -9.26883778E-11
  -11.8699999      -8.10661538E-11
  -11.8599997      -6.80305118E-11
  -11.8500004      -5.36149805E-11
  -11.8400002      -3.78134572E-11
  -11.8299999      -2.05866643E-11
  -11.8199997      -1.88149778E-12
  -11.8100004       1.83411290E-11
  -11.8000002       4.00749919E-11
  -11.7900000       6.32416411E-11
  -11.7799997       8.76731743E-11
  -11.7700005       1.13109223E-10
  -11.7600002       1.39209158E-10
  -11.7500000       1.65576997E-10
  -11.7399998       1.91794802E-10
  -11.7299995       2.17457025E-10
  -11.7200003       2.42200399E-10
  -11.7100000       2.65722916E-10
  -11.6999998       2.87789625E-10
  -11.6899996       3.08225778E-10
  -11.6800003       3.26898925E-10
  -11.6700001       3.43696432E-10
  -11.6599998       3.58503088E-10
  -11.6499996       3.71184666E-10
  -11.6400003       3.81580240E-10
  -11.6300001       3.89504706E-10
  -11.6199999       3.94760280E-10
  -11.6099997       3.97153033E-10
  -11.6000004       3.96510075E-10
  -11.5900002       3.92693850E-10
  -11.5799999       3.85608878E-10
  -11.5699997       3.75201703E-10
  -11.5600004       3.61452368E-10
  -11.5500002       3.44362844E-10
  -11.5400000       3.23943622E-10
  -11.5299997       3.00203640E-10
  -11.5200005       2.73145506E-10
  -11.5100002       2.42768666E-10
  -11.5000000       2.09076784E-10
  -11.4899998       1.72091036E-10
  -11.4799995       1.31863187E-10
  -11.4700003       8.84863363E-11
  -11.4600000       4.21002157E-11
  -11.4499998      -7.11032492E-12
  -11.4399996      -5.89225682E-11
  -11.4300003      -1.13088483E-10
  -11.4200001      -1.69347925E-10
  -11.4099998      -2.27441233E-10
  -11.3999996      -2.87116358E-10
  -11.3900003      -3.48131274E-10
  -11.3800001      -4.10249473E-10
  -11.3699999      -4.73233064E-10
  -11.3599997      -5.36831857E-10
  -11.3500004      -6.00774930E-10
  -11.3400002      -6.64765631E-10
  -11.3299999      -7.28482108E-10
  -11.3199997      -7.91584243E-10
  -11.3100004      -8.53725091E-10
  -11.3000002      -9.14565257E-10
  -11.2900000      -9.73788938E-10
  -11.2799997      -1.03111752E-09
  -11.2700005      -1.08632003E-09
  -11.2600002      -1.13921872E-09
  -11.2500000      -1.18969168E-09
  -11.2399998      -1.23767196E-09
  -11.2299995      -1.28314381E-09
  -11.2200003      -1.32614064E-09
  -11.2100000      -1.36674017E-09
  -11.1999998      -1.40506184E-09
  -11.1899996      -1.44126189E-09
  -11.1800003      -1.47552537E-09
  -11.1700001      -1.50805834E-09
  -11.1599998      -1.53907442E-09
  -11.1499996      -1.56878066E-09
  -11.1400003      -1.59736335E-09
  -11.1300001      -1.62497338E-09
  -11.1199999      -1.65172209E-09
  -11.1099997      -1.67767777E-09
  -11.1000004      -1.70287173E-09
  -11.0900002      -1.72731196E-09
  -11.0799999      -1.75099746E-09
  -11.0699997      -1.77393511E-09
  -11.0600004      -1.79615733E-09
  -11.0500002      -1.81772530E-09
  -11.0400000      -1.83873572E-09
  -11.0299997      -1.85931293E-09
  -11.0200005      -1.87960381E-09
  -11.0100002      -1.89976701E-09
  -11.0000000      -1.91996641E-09
  -10.9899998      -1.94036720E-09
  -10.9799995      -1.96114036E-09
  -10.9700003      -1.98247019E-09
  -10.9600000      -2.00456296E-09
  -10.9499998      -2.02765138E-09
  -10.9399996      -2.05200101E-09
  -10.9300003      -2.07789919E-09
  -10.9200001      -2.10564477E-09
  -10.9099998      -2.13552243E-09
  -10.8999996      -2.16778662E-09
  -10.8900003      -2.20263119E-09
  -10.8800001      -2.24017382E-09
  -10.8699999      -2.28044961E-09
  -10.8599997      -2.32340969E-09
  -10.8500004      -2.36893194E-09
  -10.8400002      -2.41683762E-09
  -10.8299999      -2.46690712E-09
  -10.8199997      -2.51889931E-09
  -10.8100004      -2.57255461E-09
  -10.8000002      -2.62760591E-09
  -10.7900000      -2.68377520E-09
  -10.7799997      -2.74076406E-09
  -10.7700005      -2.79824430E-09
  -10.7600002      -2.85585511E-09
  -10.7500000      -2.91319902E-09
  -10.7399998      -2.96985214E-09
  -10.7299995      -3.02537040E-09
  -10.7200003      -3.07931280E-09
  -10.7100000      -3.13126769E-09
  -10.6999998      -3.18086513E-09
  -10.6899996      -3.22779714E-09
  -10.6800003      -3.27182526E-09
  -10.6700001      -3.31279759E-09
  -10.6599998      -3.35062778E-09
  -10.6499996      -3.38529427E-09
  -10.6400003      -3.41682904E-09
  -10.6300001      -3.44530182E-09
  -10.6199999      -3.47080742E-09
  -10.6099997      -3.49347506E-09
  -10.6000004      -3.51344709E-09
  -10.5900002      -3.53090313E-09
  -10.5799999      -3.54604324E-09
  -10.5699997      -3.55911434E-09
  -10.5600004      -3.57038266E-09
  -10.5500002      -3.58014840E-09
  -10.5400000      -3.58870733E-09
  -10.5299997      -3.59634500E-09
  -10.5200005      -3.60330121E-09
  -10.5100002      -3.60976138E-09
  -10.5000000      -3.61584163E-09
  -10.4899998      -3.62158104E-09
  -10.4799995      -3.62695629E-09
  -10.4700003      -3.63190122E-09
  -10.4600000      -3.63630925E-09
  -10.4499998      -3.64007735E-09
  -10.4399996      -3.64309471E-09
  -10.4300003      -3.64526831E-09
  -10.4200001      -3.64650354E-09
  -10.4099998      -3.64669916E-09
  -10.3999996      -3.64574060E-09
  -10.3900003      -3.64348884E-09
  -10.3800001      -3.63978225E-09
  -10.3699999      -3.63444408E-09
  -10.3599997      -3.62728403E-09
  -10.3500004      -3.61813735E-09
  -10.3400002      -3.60686081E-09
  -10.3299999      -3.59335606E-09
  -10.3199997      -3.57756647E-09
  -10.3100004      -3.55947938E-09
  -10.3000002      -3.53910878E-09
  -10.2900000      -3.51648533E-09
  -10.2799997      -3.49165896E-09
  -10.2700005      -3.46467788E-09
  -10.2600002      -3.43558981E-09
  -10.2500000      -3.40445738E-09
  -10.2399998      -3.37134565E-09
  -10.2299995      -3.33633210E-09
  -10.2200003      -3.29948802E-09
  -10.2100000      -3.26089467E-09
  -10.1999998      -3.22060179E-09
  -10.1899996      -3.17864313E-09
  -10.1800003      -3.13501869E-09
  -10.1700001      -3.08970405E-09
  -10.1599998      -3.04265835E-09
  -10.1499996      -2.99384517E-09
  -10.1400003      -2.94324742E-09
  -10.1300001      -2.89089019E-09
  -10.1199999      -2.83684587E-09
  -10.1099997      -2.78124301E-09
  -10.1000004      -2.72426548E-09
  -10.0900002      -2.66613975E-09
  -10.0799999      -2.60711164E-09
  -10.0699997      -2.54744115E-09
  -10.0600004      -2.48738230E-09
  -10.0500002      -2.42717935E-09
  -10.0400000      -2.36704012E-09
  -10.0299997      -2.30714958E-09
  -10.0200005      -2.24765184E-09
  -10.0100002      -2.18866858E-09
  -10.0000000      -2.13030105E-09
  -9.98999977      -2.07264472E-09
  -9.97999954      -2.01581929E-09
  -9.97000027      -1.95997640E-09
  -9.96000004      -1.90534566E-09
  -9.94999981      -1.85222560E-09
  -9.93999958      -1.80099780E-09
  -9.93000031      -1.75211001E-09
  -9.92000008      -1.70604497E-09
  -9.90999985      -1.66328773E-09
  -9.89999962      -1.62428204E-09
  -9.89000034      -1.58940228E-09
  -9.88000011      -1.55892721E-09
  -9.86999989      -1.53304325E-09
  -9.85999966      -1.51185431E-09
  -9.85000038      -1.49540380E-09
  -9.84000015      -1.48370627E-09
  -9.82999992      -1.47676515E-09
  -9.81999969      -1.47459234E-09
  -9.81000042      -1.47720380E-09
  -9.80000019      -1.48461565E-09
  -9.78999996      -1.49684021E-09
  -9.77999973      -1.51386781E-09
  -9.77000046      -1.53567192E-09
  -9.76000023      -1.56221180E-09
  -9.75000000      -1.59343760E-09
  -9.73999977      -1.62930425E-09
  -9.72999954      -1.66975744E-09
  -9.72000027      -1.71473269E-09
  -9.71000004      -1.76412374E-09
  -9.69999981      -1.81775672E-09
  -9.68999958      -1.87535920E-09
  -9.68000031      -1.93654381E-09
  -9.67000008      -2.00080930E-09
  -9.65999985      -2.06755724E-09
  -9.64999962      -2.13612572E-09
  -9.64000034      -2.20583951E-09
  -9.63000011      -2.27604602E-09
  -9.61999989      -2.34615527E-09
  -9.60999966      -2.41564968E-09
  -9.60000038      -2.48409293E-09
  -9.59000015      -2.55110799E-09
  -9.57999992      -2.61636734E-09
  -9.56999969      -2.67957967E-09
  -9.56000042      -2.74048539E-09
  -9.55000019      -2.79887979E-09
  -9.53999996      -2.85461699E-09
  -9.52999973      -2.90764102E-09
  -9.52000046      -2.95800029E-09
  -9.51000023      -3.00586023E-09
  -9.50000000      -3.05148773E-09
  -9.48999977      -3.09523118E-09
  -9.47999954      -3.13749382E-09
  -9.47000027      -3.17870108E-09
  -9.46000004      -3.21926796E-09
  -9.44999981      -3.25959704E-09
  -9.43999958      -3.30006711E-09
  -9.43000031      -3.34103101E-09
  -9.42000008      -3.38282957E-09
  -9.40999985      -3.42577411E-09
  -9.39999962      -3.47016083E-09
  -9.39000034      -3.51625373E-09
  -9.38000011      -3.56427465E-09
  -9.36999989      -3.61439301E-09
  -9.35999966      -3.66672381E-09
  -9.35000038      -3.72133813E-09
  -9.34000015      -3.77825060E-09
  -9.32999992      -3.83743792E-09
  -9.31999969      -3.89884125E-09
  -9.31000042      -3.96235666E-09
  -9.30000019      -4.02782740E-09
  -9.28999996      -4.09502920E-09
  -9.27999973      -4.16364809E-09
  -9.27000046      -4.23328439E-09
  -9.26000023      -4.30346025E-09
  -9.25000000      -4.37362768E-09
  -9.23999977      -4.44320802E-09
  -9.22999954      -4.51162441E-09
  -9.22000027      -4.57832972E-09
  -9.21000004      -4.64281769E-09
  -9.19999981      -4.70461803E-09
  -9.18999958      -4.76327688E-09
  -9.18000031      -4.81832574E-09
  -9.17000008      -4.86926410E-09
  -9.15999985      -4.91554175E-09
  -9.14999962      -4.95656405E-09
  -9.14000034      -4.99174124E-09
  -9.13000011      -5.02051600E-09
  -9.11999989      -5.04244380E-09
  -9.10999966      -5.05722886E-09
  -9.10000038      -5.06474418E-09
  -9.09000015      -5.06505282E-09
  -9.07999992      -5.05837727E-09
  -9.06999969      -5.04504039E-09
  -9.06000042      -5.02546627E-09
  -9.05000019      -5.00011188E-09
  -9.03999996      -4.96950436E-09
  -9.02999973      -4.93425878E-09
  -9.02000046      -4.89510787E-09
  -9.01000023      -4.85296336E-09
  -9.00000000      -4.80894746E-09
  -8.98999977      -4.76440487E-09
  -8.97999954      -4.72086770E-09
  -8.97000027      -4.67998795E-09
  -8.96000004      -4.64347449E-09
  -8.94999981      -4.61297800E-09
  -8.93999958      -4.59005767E-09
  -8.93000031      -4.57611504E-09
  -8.92000008      -4.57242022E-09
  -8.90999985      -4.58011851E-09
  -8.89999962      -4.60028993E-09
  -8.89000034      -4.63397010E-09
  -8.88000011      -4.68218442E-09
  -8.86999989      -4.74592765E-09
  -8.85999966      -4.82613238E-09
  -8.85000038      -4.92364016E-09
  -8.84000015      -5.03915265E-09
  -8.82999992      -5.17318366E-09
  -8.81999969      -5.32609024E-09
  -8.81000042      -5.49808687E-09
  -8.80000019      -5.68929925E-09
  -8.78999996      -5.89980598E-09
  -8.77999973      -6.12968432E-09
  -8.77000046      -6.37901421E-09
  -8.76000023      -6.64786581E-09
  -8.75000000      -6.93628088E-09
  -8.73999977      -7.24421101E-09
  -8.72999954      -7.57149365E-09
  -8.72000027      -7.91782462E-09
  -8.71000004      -8.28277891E-09
  -8.69999981      -8.66580407E-09
  -8.68999958      -9.06630593E-09
  -8.68000031      -9.48365741E-09
  -8.67000008      -9.91722882E-09
  -8.65999985      -1.03664410E-08
  -8.64999962      -1.08307496E-08
  -8.64000034      -1.13096750E-08
  -8.63000011      -1.18027881E-08
  -8.61999989      -1.23097283E-08
  -8.60999966      -1.28301947E-08
  -8.60000038      -1.33639224E-08
  -8.59000015      -1.39106913E-08
  -8.57999992      -1.44702588E-08
  -8.56999969      -1.50423318E-08
  -8.56000042      -1.56265099E-08
  -8.55000019      -1.62222413E-08
  -8.53999996      -1.68287784E-08
  -8.52999973      -1.74452346E-08
  -8.52000046      -1.80706028E-08
  -8.51000023      -1.87037887E-08
  -8.50000000      -1.93437248E-08
  -8.48999977      -1.99893702E-08
  -8.47999954      -2.06397441E-08
  -8.47000027      -2.12938911E-08
  -8.46000004      -2.19508376E-08
  -8.44999981      -2.26095587E-08
  -8.43999958      -2.32688659E-08
  -8.43000031      -2.39274964E-08
  -8.42000008      -2.45840983E-08
  -8.40999985      -2.52373091E-08
  -8.39999962      -2.58858783E-08
  -8.39000034      -2.65287046E-08
  -8.38000011      -2.71648961E-08
  -8.36999989      -2.77937833E-08
  -8.35999966      -2.84147976E-08
  -8.35000038      -2.90274293E-08
  -8.34000015      -2.96310834E-08
  -8.32999992      -3.02250527E-08
  -8.31999969      -3.08084083E-08
  -8.31000042      -3.13801216E-08
  -8.30000019      -3.19390452E-08
  -8.28999996      -3.24840741E-08
  -8.27999973      -3.30141710E-08
  -8.27000046      -3.35284369E-08
  -8.26000023      -3.40260655E-08
  -8.25000000      -3.45063249E-08
  -8.23999977      -3.49684974E-08
  -8.22999954      -3.54118193E-08
  -8.22000027      -3.58353738E-08
  -8.21000004      -3.62382266E-08
  -8.19999981      -3.66194541E-08
  -8.18999958      -3.69782001E-08
  -8.18000031      -3.73138107E-08
  -8.17000008      -3.76259024E-08
  -8.15999985      -3.79143188E-08
  -8.14999962      -3.81790954E-08
  -8.14000034      -3.84203886E-08
  -8.13000011      -3.86382979E-08
  -8.11999989      -3.88328587E-08
  -8.10999966      -3.90038863E-08
  -8.10000038      -3.91510646E-08
  -8.09000015      -3.92739281E-08
  -8.07999992      -3.93720612E-08
  -8.06999969      -3.94451831E-08
  -8.06000042      -3.94932371E-08
  -8.05000019      -3.95164221E-08
  -8.03999996      -3.95151822E-08
  -8.02999973      -3.94901214E-08
  -8.02000046      -3.94419857E-08
  -8.01000023      -3.93714927E-08
  -8.00000000      -3.92792998E-08
  -7.98999977      -3.91660855E-08
  -7.98000002      -3.90325248E-08
  -7.96999979      -3.88794383E-08
  -7.96000004      -3.87078991E-08
  -7.94999981      -3.85191434E-08
  -7.94000006      -3.83148766E-08
  -7.92999983      -3.80969780E-08
  -7.92000008      -3.78675580E-08
  -7.90999985      -3.76287765E-08
  -7.90000010      -3.73827760E-08
  -7.88999987      -3.71315672E-08
  -7.88000011      -3.68770294E-08
  -7.86999989      -3.66209072E-08
  -7.86000013      -3.63650763E-08
  -7.84999990      -3.61114054E-08
  -7.84000015      -3.58619481E-08
  -7.82999992      -3.56189140E-08
  -7.82000017      -3.53847156E-08
  -7.80999994      -3.51617402E-08
  -7.80000019      -3.49522153E-08
  -7.78999996      -3.47581732E-08
  -7.78000021      -3.45812730E-08
  -7.76999998      -3.44227828E-08
  -7.76000023      -3.42837225E-08
  -7.75000000      -3.41648274E-08
  -7.73999977      -3.40668009E-08
  -7.73000002      -3.39903679E-08
  -7.71999979      -3.39362529E-08
  -7.71000004      -3.39052200E-08
  -7.69999981      -3.38979547E-08
  -7.69000006      -3.39148372E-08
  -7.67999983      -3.39559350E-08
  -7.67000008      -3.40210029E-08
  -7.65999985      -3.41094086E-08
  -7.65000010      -3.42202959E-08
  -7.63999987      -3.43528299E-08
  -7.63000011      -3.45062965E-08
  -7.61999989      -3.46802693E-08
  -7.61000013      -3.48745886E-08
  -7.59999990      -3.50892471E-08
  -7.59000015      -3.53243372E-08
  -7.57999992      -3.55798377E-08
  -7.57000017      -3.58552583E-08
  -7.55999994      -3.61499843E-08
  -7.55000019      -3.64629713E-08
  -7.53999996      -3.67931570E-08
  -7.53000021      -3.71394897E-08
  -7.51999998      -3.75012128E-08
  -7.51000023      -3.78778786E-08
  -7.50000000      -3.82694942E-08
  -7.48999977      -3.86762196E-08
  -7.48000002      -3.90982429E-08
  -7.46999979      -3.95355393E-08
  -7.46000004      -3.99876221E-08
  -7.44999981      -4.04537666E-08
  -7.44000006      -4.09327470E-08