  -16.0000000       0.00000000    
  -15.9899998       0.00000000    
  -15.9799995       0.00000000    
  -15.9700003       0.00000000    
  -15.9600000       0.00000000    
  -15.9499998       0.00000000    
  -15.9399996       0.00000000    
  -15.9300003       0.00000000    
  -15.9200001       0.00000000    
  -15.9099998       0.00000000    
  -15.8999996       0.00000000    
  -15.8900003       0.00000000    
  -15.8800001       0.00000000    
  -15.8699999      -0.00000000    
  -15.8599997      -0.00000000    
  -15.8500004       1.40129846E-45
  -15.8400002       5.60519386E-44
  -15.8299999       6.47399891E-43
  -15.8199997       4.94798488E-42
  -15.8100004       2.93263743E-41
  -15.8000002       1.43684941E-40
  -15.7900000       6.04046519E-40
  -15.7799997       2.23032906E-39
  -15.7700005       7.34345976E-39
  -15.7600002       2.17710228E-38
  -15.7500000       5.84372120E-38
  -15.7399998       1.42256558E-37
  -15.7299995       3.13273904E-37
  -15.7200003       6.18713898E-37
  -15.7100000       1.07417253E-36
  -15.6999998       1.56262796E-36
  -15.6899996       1.63810131E-36
  -15.6800003       2.30397861E-37
  -15.6700001      -4.66188547E-36
  -15.6599998      -1.60293808E-35
  -15.6499996      -3.71634462E-35
  -15.6400003      -6.95276554E-35
  -15.6300001      -1.08562436E-34
  -15.6199999      -1.37447570E-34
  -15.6099997      -1.20395589E-34
  -15.6000004       4.13264307E-37
  -15.5900002       2.97050086E-34
  -15.5799999       8.27607808E-34
  -15.5699997       1.57850708E-33
  -15.5600004       2.37518478E-33
  -15.5500002       2.77604617E-33
  -15.5400000       1.99492430E-33
  -15.5299997      -1.05926303E-33
  -15.5200005      -7.49012584E-33
  -15.5100002      -1.77093984E-32
  -15.5000000      -3.02145071E-32
  -15.4899998      -3.99518380E-32
  -15.4799995      -3.68236800E-32
  -15.4700003      -5.61856986E-33
  -15.4600000       7.05191463E-32
  -15.4499998       2.00506399E-31
  -15.4399996       3.67923361E-31
  -15.4300003       5.07582598E-31
  -15.4200001       4.85041789E-31
  -15.4099998       9.86028054E-32
  -15.3999996      -8.66264763E-31
  -15.3900003      -2.49833081E-30
  -15.3800001      -4.52642738E-30
  -15.3699999      -6.03531676E-30
  -15.3599997      -5.27656732E-30
  -15.3500004       1.58779582E-31
  -15.3400002       1.24591711E-29
  -15.3299999       3.17338336E-29
  -15.3199997       5.32866658E-29
  -15.3100004       6.49110915E-29
  -15.3000002       4.61898788E-29
  -15.2900000      -2.72279219E-29
  -15.2799997      -1.71373134E-28
  -15.2700005      -3.72836878E-28
  -15.2600002      -5.63131708E-28
  -15.2500000      -6.01125395E-28
  -15.2399998      -2.84971211E-28
  -15.2299995       5.81185039E-28
  -15.2200003       2.04974933E-27
  -15.2100000       3.83596557E-27
  -15.1999998       5.13597175E-27
  -15.1899996       4.58946294E-27
  -15.1800003       5.64238685E-28
  -15.1700001      -8.08673717E-27
  -15.1599998      -2.07968294E-26
  -15.1499996      -3.38907094E-26
  -15.1400003      -3.97366525E-26
  -15.1300001      -2.75149260E-26
  -15.1199999       1.33029898E-26
  -15.1099997       8.63018268E-26
  -15.1000004       1.79340748E-25
  -15.0900002       2.56947256E-25
  -15.0799999       2.59509353E-25
  -15.0699997       1.15914753E-25
  -15.0600004      -2.25719581E-25
  -15.0500002      -7.51078856E-25
  -15.0400000      -1.32931444E-24
  -15.0299997      -1.68515283E-24
  -15.0200005      -1.42832418E-24
  -15.0100002      -1.71951709E-25
  -15.0000000       2.25213123E-24
  -14.9899998       5.52037249E-24
  -14.9799995       8.58927610E-24
  -14.9700003       9.67131085E-24
  -14.9600000       6.58881635E-24
  -14.9499998      -2.38796341E-24
  -14.9399996      -1.72886235E-23
  -14.9300003      -3.51166765E-23
  -14.9200001      -4.90829602E-23
  -14.9099998      -4.92078369E-23
  -14.8999996      -2.49875557E-23
  -14.8900003       2.97305267E-23
  -14.8800001       1.10533246E-22
  -14.8699999       1.97035947E-22
  -14.8599997       2.51523945E-22
  -14.8500004       2.25098417E-22
  -14.8400002       7.34549725E-23
  -14.8299999      -2.18828677E-22
  -14.8199997      -6.11463077E-22
  -14.8100004      -9.90146401E-22
  -14.8000002      -1.17096968E-21
  -14.7900000      -9.40061686E-22
  -14.7799997      -1.32432656E-22
  -14.7700005       1.26169752E-21
  -14.7600002       2.99469230E-21
  -14.7500000       4.51231386E-21
  -14.7399998       5.01187562E-21
  -14.7299995       3.64594840E-21
  -14.7200003      -1.32688828E-22
  -14.7100000      -6.15432958E-21
  -14.6999998      -1.31847694E-20
  -14.6899996      -1.88373841E-20
  -14.6800003      -1.99293594E-20
  -14.6700001      -1.33772036E-20
  -14.6599998       2.45216784E-21
  -14.6499996       2.62572976E-20
  -14.6400003       5.27360598E-20
  -14.6300001       7.26039753E-20
  -14.6199999       7.42593963E-20
  -14.6099997       4.72668095E-20
  -14.6000004      -1.28309971E-20
  -14.5900002      -9.96484257E-20
  -14.5799999      -1.92973534E-19
  -14.5699997      -2.59790185E-19
  -14.5600004      -2.60857843E-19
  -14.5500002      -1.62937184E-19
  -14.5400000       4.54409892E-20
  -14.5299997       3.39134900E-19
  -14.5200005       6.48661543E-19
  -14.5100002       8.65817237E-19
  -14.5000000       8.66566714E-19
  -14.4899998       5.50254606E-19
  -14.4799995      -1.12429936E-19
  -14.4700003      -1.03689396E-18
  -14.4600000      -2.00568241E-18
  -14.4499998      -2.69021180E-18
  -14.4399996      -2.72231736E-18
  -14.4300003      -1.81015511E-18
  -14.4200001       1.25502583E-19
  -14.4099998       2.83556128E-18
  -14.3999996       5.69728753E-18
  -14.3900003       7.78330882E-18
  -14.3800001       8.06490509E-18
  -14.3699999       5.72943425E-18
  -14.3599997       5.43763151E-19
  -14.3500004      -6.84579679E-18
  -14.3400002      -1.48043757E-17
  -14.3299999      -2.08971383E-17
  -14.3199997      -2.24176716E-17
  -14.3100004      -1.71960576E-17
  -14.3000002      -4.51032347E-18
  -14.2900000       1.41700191E-17
  -14.2799997       3.49140794E-17
  -14.2700005       5.17808512E-17
  -14.2600002       5.80789448E-17
  -14.2500000       4.82810765E-17
  -14.2399998       2.01752429E-17
  -14.2299995      -2.33737848E-17
  -14.2200003      -7.37429399E-17
  -14.2100000      -1.17496387E-16
  -14.1999998      -1.39141613E-16
  -14.1899996      -1.25349944E-16
  -14.1800003      -6.97279904E-17
  -14.1700001       2.32076043E-17
  -14.1599998       1.36320212E-16
  -14.1499996       2.41563950E-16
  -14.1400003       3.05507949E-16
  -14.1300001       2.97980712E-16
  -14.1199999       2.01993350E-16
  -14.1099997       2.22364694E-17
  -14.1000004      -2.10790991E-16
  -14.0900002      -4.43347950E-16
  -14.0799999      -6.08560403E-16
  -14.0699997      -6.42836121E-16
  -14.0600004      -5.05157532E-16
  -14.0500002      -1.94185810E-16
  -14.0400000       2.42372602E-16
  -14.0299997       7.10585310E-16
  -14.0200005       1.08709818E-15
  -14.0100002       1.24797208E-15
  -14.0000000       1.10365555E-15
  -13.9899998       6.31229546E-16
  -13.9799995      -1.05902491E-16
  -13.9700003      -9.58957446E-16
  -13.9600000      -1.71898370E-15
  -13.9499998      -2.16366456E-15
  -13.9399996      -2.11634909E-15
  -13.9300003      -1.50281602E-15
  -13.9200001      -3.89377737E-16
  -13.9099998       1.01151700E-15
  -13.8999996       2.37514434E-15
  -13.8900003       3.33478121E-15
  -13.8800001       3.57464082E-15
  -13.8699999       2.92320070E-15
  -13.8599997       1.42122102E-15
  -13.8500004      -6.58107542E-16
  -13.8400002      -2.84936039E-15
  -13.8299999      -4.59300312E-15
  -13.8199997      -5.37267027E-15
  -13.8100004      -4.85945682E-15
  -13.8000002      -3.02481882E-15
  -13.7900000      -1.87217932E-16
  -13.7799997       3.02877023E-15
  -13.7700005       5.82102471E-15
  -13.7600002       7.40235984E-15
  -13.7500000       7.21285655E-15
  -13.7399998       5.09724904E-15
  -13.7299995       1.39530721E-15
  -13.7200003      -3.08957787E-15
  -13.7100000      -7.24969740E-15
  -13.6999998      -9.93273186E-15
  -13.6899996      -1.02442358E-14
  -13.6800003      -7.81719931E-15
  -13.6700001      -2.97299459E-15
  -13.6599998       3.28170295E-15
  -13.6499996       9.44024996E-15
  -13.6400003       1.38357360E-14
  -13.6300001       1.50631969E-14
  -13.6199999       1.23826832E-14
  -13.6099997       5.99509125E-15
  -13.6000004      -2.89612233E-15
  -13.5900002      -1.22780856E-14
  -13.5799999      -1.97553155E-14
  -13.5699997      -2.31259781E-14
  -13.5600004      -2.09751141E-14
  -13.5500002      -1.31334610E-14
  -13.5400000      -8.68290510E-16
  -13.5299997       1.32727369E-14
  -13.5200005       2.59631014E-14
  -13.5100002       3.38538368E-14
  -13.5000000       3.44188924E-14
  -13.4899998       2.66830185E-14
  -13.4799995       1.16337909E-14
  -13.4700003      -7.82080343E-15
  -13.4600000      -2.73857797E-14
  -13.4499998      -4.23181421E-14
  -13.4399996      -4.85732534E-14
  -13.4300003      -4.38863728E-14
  -13.4200001      -2.85064737E-14
  -13.4099998      -5.36007235E-15
  -13.3999996       2.04528370E-14
  -13.3900003       4.27656906E-14
  -13.3800001       5.58277281E-14
  -13.3699999       5.58142908E-14
  -13.3599997       4.19758358E-14
  -13.3500004       1.70916222E-14
  -13.3400002      -1.29578601E-14
  -13.3299999      -4.04735009E-14
  -13.3199997      -5.78225280E-14
  -13.3100004      -5.94889399E-14
  -13.3000002      -4.37651692E-14
  -13.2900000      -1.35996298E-14
  -13.2799997       2.37124485E-14
  -13.2700005       5.80372068E-14
  -13.2600002       7.88404783E-14
  -13.2500000       7.80142078E-14
  -13.2399998       5.23891538E-14
  -13.2299995       5.23702811E-15
  -13.2200003      -5.37486790E-14
  -13.2100000      -1.10164150E-13
  -13.1999998      -1.48052726E-13
  -13.1899996      -1.53863061E-13
  -13.1800003      -1.20286349E-13
  -13.1700001      -4.89815267E-14
  -13.1599998       4.86291068E-14
  -13.1499996       1.52912581E-13
  -13.1400003       2.39802752E-13
  -13.1300001       2.86111548E-13
  -13.1199999       2.75230956E-13
  -13.1099997       2.01874772E-13
  -13.1000004       7.46055913E-14
  -13.0900002      -8.46835419E-14
  -13.0799999      -2.44502660E-13
  -13.0699997      -3.70121522E-13
  -13.0600004      -4.31268248E-13
  -13.0500002      -4.09453667E-13
  -13.0400000      -3.03149162E-13
  -13.0299997      -1.29414356E-13
  -13.0200005       7.86908380E-14
  -13.0100002       2.78614452E-13
  -13.0000000       4.27482295E-13
  -12.9899998       4.91937166E-13
  -12.9799995       4.56344814E-13
  -12.9700003       3.27294832E-13
  -12.9600000       1.33072684E-13
  -12.9499998      -8.20952667E-14
  -12.9399996      -2.67962735E-13
  -12.9300003      -3.80202136E-13
  -12.9200001      -3.91568939E-13
  -12.9099998      -2.99497975E-13
  -12.8999996      -1.28021996E-13
  -12.8900003       7.68457563E-14
  -12.8800001       2.57567595E-13
  -12.8699999       3.59185609E-13
  -12.8599997       3.43821732E-13
  -12.8500004       2.01985862E-13
  -12.8400002      -4.23707869E-14
  -12.8299999      -3.34801929E-13
  -12.8199997      -6.01218185E-13
  -12.8100004      -7.64598942E-13
  -12.8000002      -7.63936820E-13
  -12.7900000      -5.70977293E-13
  -12.7799997      -2.00522867E-13
  -12.7700005       2.88668395E-13
  -12.7600002       8.03319379E-13
  -12.7500000       1.23392496E-12
  -12.7399998       1.47822499E-12
  -12.7299995       1.46473686E-12
  -12.7200003       1.17090235E-12
  -12.7100000       6.31360253E-13
  -12.6999998      -6.60858832E-14
  -12.6899996      -7.96508042E-13
  -12.6800003      -1.42281336E-12
  -12.6700001      -1.82435317E-12
  -12.6599998      -1.92286204E-12
  -12.6499996      -1.69979157E-12
  -12.6400003      -1.20088466E-12
  -12.6300001      -5.26642965E-13
  -12.6199999       1.89444760E-13
  -12.6099997       8.10171971E-13
  -12.6000004       1.22478709E-12
  -12.5900002       1.37311527E-12
  -12.5799999       1.25793267E-12
  -12.5699997       9.42535438E-13
  -12.5600004       5.33880991E-13
  -12.5500002       1.55111181E-13
  -12.5400000      -8.60809227E-14
  -12.5299997      -1.25611218E-13
  -12.5200005       3.93315582E-14
  -12.5100002       3.47832359E-13
  -12.5000000       6.89186284E-13
  -12.4899998       9.30439970E-13
  -12.4799995       9.51318993E-13
  -12.4700003       6.78205539E-13
  -12.4600000       1.08645935E-13
  -12.4499998      -6.80290459E-13
  -12.4399996      -1.54292627E-12
  -12.4300003      -2.29382724E-12
  -12.4200001      -2.74885995E-12
  -12.4099998      -2.76947519E-12
  -12.3999996      -2.29993585E-12
  -12.3900003      -1.38827979E-12
  -12.3800001      -1.85083014E-13
  -12.3699999       1.08105582E-12
  -12.3599997       2.14706529E-12
  -12.3500004       2.76913930E-12
  -12.3400002       2.77505232E-12
  -12.3299999       2.10326721E-12
  -12.3199997       8.19569076E-13
  -12.3100004      -8.93259642E-13
  -12.3000002      -2.77123441E-12
  -12.2900000      -4.52306682E-12
  -12.2799997      -5.89047084E-12
  -12.2700005      -6.70140029E-12
  -12.2600002      -6.90399907E-12
  -12.2500000      -6.57323501E-12
  -12.2399998      -5.88828942E-12
  -12.2299995      -5.08557259E-12
  -12.2200003      -4.39801364E-12
  -12.2100000      -3.99470040E-12
  -12.1999998      -3.93530824E-12
  -12.1899996      -4.15050850E-12
  -12.1800003      -4.45384138E-12
  -12.1700001      -4.58319884E-12
  -12.1599998      -4.26308381E-12
  -12.1499996      -3.27364980E-12
  -12.1400003      -1.51045517E-12
  -12.1300001       9.79454256E-13
  -12.1199999       3.99432570E-12
  -12.1099997       7.20954156E-12
  -12.1000004       1.02385288E-11
  -12.0900002       1.27099225E-11
  -12.0799999       1.43443347E-11
  -12.0699997       1.50137767E-11
  -12.0600004       1.47701296E-11
  -12.0500002       1.38360287E-11
  -12.0400000       1.25595350E-11
  -12.0299997       1.13421971E-11
  -12.0200005       1.05558340E-11
  -12.0100002       1.04659883E-11
  -12.0000000       1.11784297E-11
  -11.9899998       1.26201055E-11
  -11.9799995       1.45581724E-11
  -11.9700003       1.66523184E-11
  -11.9600000       1.85284513E-11
  -11.9499998       1.98573779E-11
  -11.9399996       2.04210746E-11
  -11.9300003       2.01525116E-11
  -11.9200001       1.91409007E-11
  -11.9099998       1.76022270E-11
  -11.8999996       1.58225863E-11
  -11.8900003       1.40874760E-11
  -11.8800001       1.26131336E-11
  -11.8699999       1.14952986E-11
  -11.8599997       1.06859356E-11
  -11.8500004       1.00028293E-11
  -11.8400002       9.16894859E-12
  -11.8299999       7.87274499E-12
  -11.8199997       5.83552694E-12
  -11.8100004       2.87207367E-12
  -11.8000002      -1.06866447E-12
  -11.7900000      -5.88979083E-12
  -11.7799997      -1.13621734E-11
  -11.7700005      -1.71647644E-11
  -11.7600002      -2.29404811E-11
  -11.7500000      -2.83560224E-11
  -11.7399998      -3.31534383E-11
  -11.7299995      -3.71838844E-11
  -11.7200003      -4.04190709E-11
  -11.7100000      -4.29391141E-11
  -11.6999998      -4.49019710E-11
  -11.6899996      -4.65016914E-11
  -11.6800003      -4.79247336E-11
  -11.6700001      -4.93132445E-11
  -11.6599998      -5.07414492E-11
  -11.6499996      -5.22086263E-11
  -11.6400003      -5.36479923E-11
  -11.6300001      -5.49481086E-11
  -11.6199999      -5.59807999E-11
  -11.6099997      -5.66296385E-11
  -11.6000004      -5.68127455E-11
  -11.5900002      -5.64960821E-11
  -11.5799999      -5.56956911E-11
  -11.5699997      -5.44692416E-11
  -11.5600004      -5.28995701E-11
  -11.5500002      -5.10749117E-11
  -11.5400000      -4.90684229E-11
  -11.5299997      -4.69230592E-11
  -11.5200005      -4.46413080E-11
  -11.5100002      -4.21840028E-11
  -11.5000000      -3.94738547E-11
  -11.4899998      -3.64057846E-11
  -11.4799995      -3.28586776E-11
  -11.4700003      -2.87083274E-11
  -11.4600000      -2.38385978E-11
  -11.4499998      -1.81506338E-11
  -11.4399996      -1.15690643E-11
  -11.4300003      -4.04693293E-12
  -11.4200001       4.43157880E-12
  -11.4099998       1.38481874E-11
  -11.3999996       2.41499060E-11
  -11.3900003       3.52479365E-11
  -11.3800001       4.70212064E-11
  -11.3699999       5.93206248E-11
  -11.3599997       7.19789020E-11
  -11.3500004       8.48227669E-11
  -11.3400002       9.76871223E-11
  -11.3299999       1.10427993E-10
  -11.3199997       1.22934343E-10
  -11.3100004       1.35131795E-10
  -11.3000002       1.46981899E-10
  -11.2900000       1.58473498E-10
  -11.2799997       1.69609535E-10
  -11.2700005       1.80392007E-10
  -11.2600002       1.90809882E-10
  -11.2500000       2.00832309E-10
  -11.2399998       2.10409606E-10
  -11.2299995       2.19483071E-10
  -11.2200003       2.27999772E-10
  -11.2100000       2.35929470E-10
  -11.1999998       2.43278758E-10
  -11.1899996       2.50097942E-10
  -11.1800003       2.56476396E-10
  -11.1700001       2.62529720E-10
  -11.1599998       2.68375905E-10
  -11.1499996       2.74111317E-10
  -11.1400003       2.79788359E-10
  -11.1300001       2.85400453E-10
  -11.1199999       2.90882457E-10
  -11.1099997       2.96120212E-10
  -11.1000004       3.00971637E-10
  -11.0900002       3.05295705E-10
  -11.0799999       3.08978315E-10
  -11.0699997       3.11949494E-10
  -11.0600004       3.14189175E-10
  -11.0500002       3.15723087E-10
  -11.0400000       3.16604076E-10
  -11.0299997       3.16888182E-10
  -11.0200005       3.16609489E-10
  -11.0100002       3.15767801E-10
  -11.0000000       3.14317128E-10
  -10.9899998       3.12183251E-10
  -10.9799995       3.09278464E-10
  -10.9700003       3.05530046E-10
  -10.9600000       3.00918429E-10
  -10.9499998       2.95490299E-10
  -10.9399996       2.89380714E-10
  -10.9300003       2.82801171E-10
  -10.9200001       2.76030726E-10
  -10.9099998       2.69379408E-10
  -10.8999996       2.63159494E-10
  -10.8900003       2.57649901E-10
  -10.8800001       2.53060628E-10
  -10.8699999       2.49530452E-10
  -10.8599997       2.47117715E-10
  -10.8500004       2.45813453E-10
  -10.8400002       2.45557352E-10
  -10.8299999       2.46259957E-10
  -10.8199997       2.47825954E-10
  -10.8100004       2.50172050E-10
  -10.8000002       2.53224164E-10
  -10.7900000       2.56917848E-10
  -10.7799997       2.61189875E-10
  -10.7700005       2.65976796E-10
  -10.7600002       2.71195733E-10
  -10.7500000       2.76737688E-10
  -10.7399998       2.82484064E-10
  -10.7299995       2.88298857E-10
  -10.7200003       2.94051616E-10
  -10.7100000       2.99633818E-10
  -10.6999998       3.04954312E-10
  -10.6899996       3.09956033E-10
  -10.6800003       3.14618054E-10
  -10.6700001       3.18946702E-10
  -10.6599998       3.22974314E-10
  -10.6499996       3.26738747E-10
  -10.6400003       3.30309585E-10
  -10.6300001       3.33760325E-10
  -10.6199999       3.37189776E-10
  -10.6099997       3.40726447E-10
  -10.6000004       3.44510698E-10
  -10.5900002       3.48705315E-10
  -10.5799999       3.53489904E-10
  -10.5699997       3.59026892E-10
  -10.5600004       3.65454500E-10
  -10.5500002       3.72871289E-10
  -10.5400000       3.81323945E-10
  -10.5299997       3.90816018E-10
  -10.5200005       4.01314204E-10
  -10.5100002       4.12773815E-10
  -10.5000000       4.25137897E-10
  -10.4899998       4.38387132E-10
  -10.4799995       4.52490767E-10
  -10.4700003       4.67441363E-10
  -10.4600000       4.83221907E-10
  -10.4499998       4.99787545E-10
  -10.4399996       5.17035137E-10
  -10.4300003       5.34790823E-10
  -10.4200001       5.52846713E-10
  -10.4099998       5.70941794E-10
  -10.3999996       5.88822602E-10
  -10.3900003       6.06280859E-10
  -10.3800001       6.23173568E-10
  -10.3699999       6.39451159E-10
  -10.3599997       6.55176302E-10
  -10.3500004       6.70469180E-10
  -10.3400002       6.85518697E-10
  -10.3299999       7.00515757E-10
  -10.3199997       7.15617066E-10
  -10.3100004       7.30937755E-10
  -10.3000002       7.46509465E-10
  -10.2900000       7.62285346E-10
  -10.2799997       7.78183407E-10
  -10.2700005       7.94084576E-10
  -10.2600002       8.09874945E-10
  -10.2500000       8.25476132E-10
  -10.2399998       8.40868042E-10
  -10.2299995       8.56093363E-10
  -10.2200003       8.71276939E-10
  -10.2100000       8.86596130E-10
  -10.1999998       9.02251773E-10
  -10.1899996       9.18491838E-10
  -10.1800003       9.35538647E-10
  -10.1700001       9.53595314E-10
  -10.1599998       9.72810832E-10
  -10.1499996       9.93264693E-10
  -10.1400003       1.01497277E-09
  -10.1300001       1.03788034E-09
  -10.1199999       1.06189213E-09
  -10.1099997       1.08687492E-09
  -10.1000004       1.11269682E-09
  -10.0900002       1.13925569E-09
  -10.0799999       1.16647403E-09
  -10.0699997       1.19431687E-09
  -10.0600004       1.22283561E-09
  -10.0500002       1.25210853E-09
  -10.0400000       1.28224087E-09
  -10.0299997       1.31339151E-09
  -10.0200005       1.34570299E-09
  -10.0100002       1.37929390E-09
  -10.0000000       1.41426160E-09
  -9.98999977       1.45065138E-09
  -9.97999954       1.48844215E-09
  -9.97000027       1.52758417E-09
  -9.96000004       1.56795066E-09
  -9.94999981       1.60939140E-09
  -9.93999958       1.65171132E-09
  -9.93000031       1.69470948E-09
  -9.92000008       1.73821946E-09
  -9.90999985       1.78209492E-09
  -9.89999962       1.82620430E-09
  -9.89000034       1.87048732E-09
  -9.88000011       1.91491001E-09
  -9.86999989       1.95947814E-09
  -9.85999966       2.00423256E-09
  -9.85000038       2.04927075E-09
  -9.84000015       2.09476503E-09
  -9.82999992       2.14095364E-09
  -9.81999969       2.18820606E-09
  -9.81000042       2.23699925E-09
  -9.80000019       2.28789587E-09
  -9.78999996       2.34148811E-09
  -9.77999973       2.39834197E-09
  -9.77000046       2.45891796E-09
  -9.76000023       2.52351340E-09
  -9.75000000       2.59221666E-09
  -9.73999977       2.66489275E-09
  -9.72999954       2.74121681E-09
  -9.72000027       2.82082513E-09
  -9.71000004       2.90333646E-09
  -9.69999981       2.98848390E-09
  -9.68999958       3.07616843E-09
  -9.68000031       3.16649729E-09
  -9.67000008       3.25972227E-09
  -9.65999985       3.35613892E-09
  -9.64999962       3.45603146E-09
  -9.64000034       3.55954710E-09
  -9.63000011       3.66661190E-09
  -9.61999989       3.77692810E-09
  -9.60999966       3.88997679E-09
  -9.60000038       4.00508471E-09
  -9.59000015       4.12149426E-09
  -9.57999992       4.23842383E-09
  -9.56999969       4.35513714E-09
  -9.56000042       4.47095472E-09
  -9.55000019       4.58526461E-09
  -9.53999996       4.69739225E-09
  -9.52999973       4.80673856E-09
  -9.52000046       4.91266716E-09
  -9.51000023       5.01457365E-09
  -9.50000000       5.11186160E-09
  -9.48999977       5.20404164E-09
  -9.47999954       5.29073185E-09
  -9.47000027       5.37164357E-09
  -9.46000004       5.44656320E-09
  -9.44999981       5.51533041E-09
  -9.43999958       5.57780355E-09
  -9.43000031       5.63376590E-09
  -9.42000008       5.68298608E-09
  -9.40999985       5.72521097E-09
  -9.39999962       5.76018522E-09
  -9.39000034       5.78784398E-09
  -9.38000011       5.80821080E-09
  -9.36999989       5.82165516E-09
  -9.35999966       5.82872284E-09
  -9.35000038       5.83028248E-09
  -9.34000015       5.82728621E-09
  -9.32999992       5.82090820E-09
  -9.31999969       5.81233506E-09
  -9.31000042       5.80272363E-09
  -9.30000019       5.79322101E-09
  -9.28999996       5.78484416E-09
  -9.27999973       5.77864645E-09
  -9.27000046       5.77556758E-09
  -9.26000023       5.77663117E-09
  -9.25000000       5.78288484E-09
  -9.23999977       5.79535486E-09
  -9.22999954       5.81509818E-09
  -9.22000027       5.84322324E-09
  -9.21000004       5.88077986E-09
  -9.19999981       5.92870419E-09
  -9.18999958       5.98801542E-09
  -9.18000031       6.05950845E-09
  -9.17000008       6.14399864E-09
  -9.15999985       6.24216101E-09
  -9.14999962       6.35460973E-09
  -9.14000034       6.48175291E-09
  -9.13000011       6.62391875E-09
  -9.11999989       6.78135059E-09
  -9.10999966       6.95408664E-09
  -9.10000038       7.14201720E-09
  -9.09000015       7.34491135E-09
  -9.07999992       7.56238805E-09
  -9.06999969       7.79388376E-09
  -9.06000042       8.03872702E-09
  -9.05000019       8.29607494E-09
  -9.03999996       8.56498517E-09
  -9.02999973       8.84434925E-09
  -9.02000046       9.13314668E-09
  -9.01000023       9.42997502E-09
  -9.00000000       9.73358105E-09
  -8.98999977       1.00426103E-08
  -8.97999954       1.03556212E-08
  -8.97000027       1.06710436E-08
  -8.96000004       1.09872875E-08
  -8.94999981       1.13025829E-08
  -8.93999958       1.16152492E-08
  -8.93000031       1.19235395E-08
  -8.92000008       1.22256747E-08
  -8.90999985       1.25198465E-08
  -8.89999962       1.28044562E-08
  -8.89000034       1.30776847E-08
  -8.88000011       1.33379991E-08
  -8.86999989       1.35837439E-08
  -8.85999966       1.38133540E-08
  -8.85000038       1.40252965E-08
  -8.84000015       1.42179539E-08
  -8.82999992       1.43899683E-08
  -8.81999969       1.45401344E-08
  -8.81000042       1.46673100E-08
  -8.80000019       1.47707411E-08
  -8.78999996       1.48498707E-08
  -8.77999973       1.49042840E-08
  -8.77000046       1.49338657E-08
  -8.76000023       1.49383457E-08
  -8.75000000       1.49177612E-08
  -8.73999977       1.48721071E-08
  -8.72999954       1.48014268E-08
  -8.72000027       1.47060772E-08
  -8.71000004       1.45863428E-08
  -8.69999981       1.44427066E-08
  -8.68999958       1.42759191E-08
  -8.68000031       1.40870959E-08
  -8.67000008       1.38773508E-08
  -8.65999985       1.36480498E-08
  -8.64999962       1.34004807E-08
  -8.64000034       1.31358817E-08
  -8.63000011       1.28554216E-08
  -8.61999989       1.25600668E-08
  -8.60999966       1.22509194E-08
  -8.60000038       1.19290400E-08
  -8.59000015       1.15954206E-08
  -8.57999992       1.12512879E-08
  -8.56999969       1.08981553E-08
  -8.56000042       1.05373195E-08
  -8.55000019       1.01704547E-08
  -8.53999996       9.79921655E-09
  -8.52999973       9.42519129E-09
  -8.52000046       9.05004693E-09
  -8.51000023       8.67506422E-09
  -8.50000000       8.30181079E-09
  -8.48999977       7.93134003E-09
  -8.47999954       7.56485363E-09
  -8.47000027       7.20336679E-09
  -8.46000004       6.84776502E-09
  -8.44999981       6.49889698E-09
  -8.43999958       6.15747053E-09
  -8.43000031       5.82405413E-09
  -8.42000008       5.49920154E-09
  -8.40999985       5.18369747E-09
  -8.39999962       4.87804508E-09
  -8.39000034       4.58296601E-09
  -8.38000011       4.29927605E-09
  -8.36999989       4.02768396E-09
  -8.35999966       3.76862808E-09
  -8.35000038       3.52267149E-09
  -8.34000015       3.28988192E-09
  -8.32999992       3.07029380E-09
  -8.31999969       2.86384938E-09
  -8.31000042       2.67015188E-09
  -8.30000019       2.48902210E-09
  -8.28999996       2.32042519E-09
  -8.27999973       2.16432006E-09
  -8.27000046       2.02090633E-09
  -8.26000023       1.89028171E-09
  -8.25000000       1.77262904E-09
  -8.23999977       1.66813419E-09
  -8.22999954       1.57673796E-09
  -8.22000027       1.49851553E-09
  -8.21000004       1.43311085E-09
  -8.19999981       1.38058220E-09
  -8.18999958       1.34085554E-09
  -8.18000031       1.31432876E-09
  -8.17000008       1.30153710E-09
  -8.15999985       1.30270617E-09
  -8.14999962       1.31852163E-09
  -8.14000034       1.34931799E-09
  -8.13000011       1.39560619E-09
  -8.11999989       1.45760759E-09
  -8.10999966       1.53555002E-09
  -8.10000038       1.62979463E-09
  -8.09000015       1.74104908E-09
  -8.07999992       1.87013427E-09
  -8.06999969       2.01792671E-09
  -8.06000042       2.18565344E-09
  -8.05000019       2.37420306E-09
  -8.03999996       2.58461452E-09
  -8.02999973       2.81739565E-09
  -8.02000046       3.07282155E-09
  -8.01000023       3.35105166E-09
  -8.00000000       3.65220987E-09
  -7.98999977       3.97636146E-09
  -7.98000002       4.32333636E-09
  -7.96999979       4.69358952E-09
  -7.96000004       5.08686870E-09
  -7.94999981       5.50299006E-09
  -7.94000006       5.94172667E-09
  -7.92999983       6.40209086E-09
  -7.92000008       6.88298218E-09
  -7.90999985       7.38309369E-09
  -7.90000010       7.90111976E-09
  -7.88999987       8.43591685E-09
  -7.88000011       8.98670383E-09
  -7.86999989       9.55266977E-09
  -7.86000013       1.01333963E-08
  -7.84999990       1.07283125E-08
  -7.84000015       1.13372138E-08
  -7.82999992       1.19589858E-08
  -7.82000017       1.25926602E-08
  -7.80999994       1.32363622E-08
  -7.80000019       1.38885179E-08
  -7.78999996       1.45473251E-08
  -7.78000021       1.52109187E-08
  -7.76999998       1.58774842E-08
  -7.76000023       1.65456999E-08
  -7.75000000       1.72139707E-08
  -7.73999977       1.78808559E-08
  -7.73000002       1.85445970E-08
  -7.71999979       1.92038190E-08
  -7.71000004       1.98568006E-08
  -7.69999981       2.05024939E-08
  -7.69000006       2.11398579E-08
  -7.67999983       2.17681873E-08
  -7.67000008       2.23871446E-08
  -7.65999985       2.29966819E-08
  -7.65000010       2.35968756E-08
  -7.63999987       2.41878126E-08
  -7.63000011       2.47691130E-08
  -7.61999989       2.53403112E-08
  -7.61000013       2.59006150E-08
  -7.59999990       2.64493991E-08
  -7.59000015       2.69859584E-08
  -7.57999992       2.75098611E-08
  -7.57000017       2.80206187E-08
  -7.55999994       2.85178672E-08
  -7.55000019       2.90021003E-08
  -7.53999996       2.94727709E-08
  -7.53000021       2.99299607E-08
  -7.51999998       3.03738368E-08
  -7.51000023       3.08044790E-08
  -7.50000000       3.12217665E-08
  -7.48999977       3.16262536E-08
  -7.48000002       3.20191269E-08
  -7.46999979       3.24009477E-08
  -7.46000004       3.27728173E-08
  -7.44999981       3.31362706E-08
  -7.44000006       3.34925403E-08