  -16.0000000       0.00000000    
  -15.9899998       0.00000000    
  -15.9799995       0.00000000    
  -15.9700003       0.00000000    
  -15.9600000       0.00000000    
  -15.9499998       0.00000000    
  -15.9399996       0.00000000    
  -15.9300003       0.00000000    
  -15.9200001       0.00000000    
  -15.9099998       0.00000000    
  -15.8999996       0.00000000    
  -15.8900003       0.00000000    
  -15.8800001       0.00000000    
  -15.8699999       0.00000000    
  -15.8599997      -0.00000000    
  -15.8500004      -4.20389539E-45
  -15.8400002      -4.20389539E-44
  -15.8299999      -3.04081767E-43
  -15.8199997      -1.73761010E-42
  -15.8100004      -8.32091028E-42
  -15.8000002      -3.43962721E-41
  -15.7900000      -1.24858496E-40
  -15.7799997      -4.01669593E-40
  -15.7700005      -1.14894983E-39
  -15.7600002      -2.91435749E-39
  -15.7500000      -6.48401118E-39
  -15.7399998      -1.23182305E-38
  -15.7299995      -1.86274241E-38
  -15.7200003      -1.69932578E-38
  -15.7100000       1.49312443E-38
  -15.6999998       1.21312560E-37
  -15.6899996       3.68249914E-37
  -15.6800003       8.19446877E-37
  -15.6700001       1.46584563E-36
  -15.6599998       2.09760129E-36
  -15.6499996       2.14514356E-36
  -15.6400003       5.85898762E-37
  -15.6300001      -3.91159951E-36
  -15.6199999      -1.24212186E-35
  -15.6099997      -2.47233582E-35
  -15.6000004      -3.80870673E-35
  -15.5900002      -4.65855041E-35
  -15.5799999      -4.18682102E-35
  -15.5699997      -1.58716648E-35
  -15.5600004       3.53504901E-35
  -15.5500002       1.09149805E-34
  -15.5400000       1.98150580E-34
  -15.5299997       2.96920919E-34
  -15.5200005       4.07633615E-34
  -15.5100002       5.31795435E-34
  -15.5000000       6.34682231E-34
  -15.4899998       5.84713803E-34
  -15.4799995       1.04634150E-34
  -15.4700003      -1.18913036E-33
  -15.4600000      -3.57429004E-33
  -15.4499998      -6.82161486E-33
  -15.4399996      -9.75229639E-33
  -15.4300003      -1.01013638E-32
  -15.4200001      -5.11485143E-33
  -15.4099998       6.93567895E-33
  -15.3999996       2.47972737E-32
  -15.3900003       4.31589716E-32
  -15.3800001       5.41366988E-32
  -15.3699999       5.19962117E-32
  -15.3599997       3.89782172E-32
  -15.3500004       2.64531662E-32
  -15.3400002       2.41340040E-32
  -15.3299999       1.49397559E-32
  -15.3199997      -7.30750824E-32
  -15.3100004      -3.66957974E-31
  -15.3000002      -9.78743210E-31
  -15.2900000      -1.83935243E-30
  -15.2799997      -2.47506147E-30
  -15.2700005      -1.87188429E-30
  -15.2600002       1.32520682E-30
  -15.2500000       8.03277920E-30
  -15.2399998       1.73428502E-29
  -15.2299995       2.49938792E-29
  -15.2200003       2.28094775E-29
  -15.2100000       6.56093614E-31
  -15.1999998      -4.78575024E-29
  -15.1899996      -1.16340264E-28
  -15.1800003      -1.76603611E-28
  -15.1700001      -1.76418529E-28
  -15.1599998      -5.24900229E-29
  -15.1499996       2.35714301E-28
  -15.1400003       6.55106852E-28
  -15.1300001       1.05041548E-27
  -15.1199999       1.13338541E-27
  -15.1099997       5.51512236E-28
  -15.1000004      -9.38168046E-28
  -15.0900002      -3.21189417E-27
  -15.0799999      -5.53316091E-27
  -15.0699997      -6.48498746E-27
  -15.0600004      -4.27303843E-27
  -15.0500002       2.48315637E-27
  -15.0400000       1.35615127E-26
  -15.0299997       2.59567840E-26
  -15.0200005       3.34250473E-26
  -15.0100002       2.75875844E-26
  -15.0000000       1.13925709E-27
  -14.9899998      -4.71155311E-26
  -14.9799995      -1.06934151E-25
  -14.9700003      -1.53825596E-25
  -14.9600000      -1.52153507E-25
  -14.9499998      -6.66298236E-26
  -14.9399996       1.18237381E-25
  -14.9300003       3.75822506E-25
  -14.9200001       6.22229126E-25
  -14.9099998       7.21158003E-25
  -14.8999996       5.19449178E-25
  -14.8900003      -8.52636673E-26
  -14.8800001      -1.05906716E-24
  -14.8699999      -2.16076654E-24
  -14.8599997      -2.93017887E-24
  -14.8500004      -2.77784647E-24
  -14.8400002      -1.19299346E-24
  -14.8299999       1.96177953E-24
  -14.8199997       6.16098553E-24
  -14.8100004       1.00735991E-23
  -14.8000002       1.17180507E-23
  -14.7900000       9.00805237E-24
  -14.7799997       6.50141983E-25
  -14.7700005      -1.28299793E-23
  -14.7600002      -2.83310654E-23
  -14.7500000      -4.01713879E-23
  -14.7399998      -4.12232077E-23
  -14.7299995      -2.52608976E-23
  -14.7200003       9.90052306E-24
  -14.7100000       5.94477563E-23
  -14.6999998       1.10142337E-22
  -14.6899996       1.41746188E-22
  -14.6800003       1.32016554E-22
  -14.6700001       6.48170213E-23
  -14.6599998      -6.05926901E-23
  -14.6499996      -2.22329705E-22
  -14.6400003      -3.74482546E-22
  -14.6300001      -4.54500759E-22
  -14.6199999      -4.00066656E-22
  -14.6099997      -1.72729388E-22
  -14.6000004       2.18046859E-22
  -14.5900002       6.99243732E-22
  -14.5799999       1.13590084E-21
  -14.5699997       1.35556212E-21
  -14.5600004       1.19476132E-21
  -14.5500002       5.58709057E-22
  -14.5400000      -5.22007765E-22
  -14.5299997      -1.85771679E-21
  -14.5200005      -3.10703780E-21
  -14.5100002      -3.83509164E-21
  -14.5000000      -3.61880734E-21
  -14.4899998      -2.18033016E-21
  -14.4799995       4.83108819E-22
  -14.4700003       4.01059772E-21
  -14.4600000       7.66481954E-21
  -14.4499998       1.04174448E-20
  -14.4399996       1.11362001E-20
  -14.4300003       8.85511224E-21
  -14.4200001       3.08843129E-21
  -14.4099998      -5.86945350E-21
  -14.3999996      -1.67304678E-20
  -14.3900003      -2.71662721E-20
  -14.3800001      -3.40093693E-20
  -14.3699999      -3.37646983E-20
  -14.3599997      -2.34477027E-20
  -14.3500004      -1.68110374E-21
  -14.3400002       3.01394630E-20
  -14.3299999       6.69382340E-20
  -14.3199997       9.97466081E-20
  -14.3100004       1.16634457E-19
  -14.3000002       1.05085639E-19
  -14.2900000       5.57660547E-20
  -14.2799997      -3.29006823E-20
  -14.2700005      -1.50534451E-19
  -14.2600002      -2.72634672E-19
  -14.2500000      -3.62193568E-19
  -14.2399998      -3.76311525E-19
  -14.2299995      -2.77817915E-19
  -14.2200003      -5.01180881E-20
  -14.2100000       2.88449977E-19
  -14.1999998       6.75909700E-19
  -14.1899996       1.00895107E-18
  -14.1800003       1.15998949E-18
  -14.1700001       1.00913346E-18
  -14.1599998       4.86161860E-19
  -14.1499996      -3.87682234E-19
  -14.1400003      -1.47203594E-18
  -14.1300001      -2.50822855E-18
  -14.1199999      -3.15857097E-18
  -14.1099997      -3.08489772E-18
  -14.1000004      -2.05454893E-18
  -14.0900002      -4.90799183E-20
  -14.0799999       2.65804688E-18
  -14.0699997       5.48939885E-18
  -14.0600004       7.64178732E-18
  -14.0500002       8.25848852E-18
  -14.0400000       6.67086298E-18
  -14.0299997       2.65593591E-18
  -14.0200005      -3.36385693E-18
  -14.0100002      -1.02557517E-17
  -14.0000000      -1.63038738E-17
  -13.9899998      -1.95435829E-17
  -13.9799995      -1.82599144E-17
  -13.9700003      -1.15472494E-17
  -13.9600000       2.16905161E-19
  -13.9499998       1.51426479E-17
  -13.9399996       2.99695212E-17
  -13.9300003       4.06294805E-17
  -13.9200001       4.31724454E-17
  -13.9099998       3.48798738E-17
  -13.8999996       1.52994267E-17
  -13.8900003      -1.31031439E-17
  -13.8800001      -4.49384297E-17
  -13.8699999      -7.26758769E-17
  -13.8599997      -8.81704719E-17
  -13.8500004      -8.46784859E-17
  -13.8400002      -5.89240124E-17
  -13.8299999      -1.26775248E-17
  -13.8199997       4.66678593E-17
  -13.8100004       1.06869419E-16
  -13.8000002       1.53015139E-16
  -13.7900000       1.70810110E-16
  -13.7799997       1.50325002E-16
  -13.7700005       8.93236014E-17
  -13.7600002      -4.76105598E-18
  -13.7500000      -1.14950577E-16
  -13.7399998      -2.17282533E-16
  -13.7299995      -2.85579805E-16
  -13.7200003      -2.97591950E-16
  -13.7100000      -2.41177888E-16
  -13.6999998      -1.18966995E-16
  -13.6899996       4.99372079E-17
  -13.6800003       2.32122656E-16
  -13.6700001       3.85971288E-16
  -13.6599998       4.70764554E-16
  -13.6499996       4.56934147E-16
  -13.6400003       3.35010424E-16
  -13.6300001       1.20774180E-16
  -13.6199999      -1.45281821E-16
  -13.6099997      -4.04880716E-16
  -13.6000004      -5.94411776E-16
  -13.5900002      -6.60450700E-16
  -13.5799999      -5.74716990E-16
  -13.5699997      -3.44451110E-16
  -13.5600004      -1.48113372E-17
  -13.5500002       3.38462296E-16
  -13.5400000       6.25515779E-16
  -13.5299997       7.64817018E-16
  -13.5200005       7.06315417E-16
  -13.5100002       4.49114868E-16
  -13.5000000       4.80379350E-17
  -13.4899998      -3.94333700E-16
  -13.4799995      -7.50069962E-16
  -13.4700003      -8.98698992E-16
  -13.4600000      -7.62895259E-16
  -13.4499998      -3.37598957E-16
  -13.4399996       2.96511348E-16
  -13.4300003       9.81375655E-16
  -13.4200001       1.51292017E-15
  -13.4099998       1.69054954E-15
  -13.3999996       1.37424372E-15
  -13.3900003       5.35091571E-16
  -13.3800001      -7.15333088E-16
  -13.3699999      -2.12796657E-15
  -13.3599997      -3.35606312E-15
  -13.3500004      -4.02736892E-15
  -13.3400002      -3.83527032E-15
  -13.3299999      -2.62875299E-15
  -13.3199997      -4.78436237E-16
  -13.3100004       2.30125956E-15
  -13.3000002       5.18569325E-15
  -13.2900000       7.52921658E-15
  -13.2799997       8.69645847E-15
  -13.2700005       8.21034287E-15
  -13.2600002       5.88441031E-15
  -13.2500000       1.90682299E-15
  -13.2399998      -3.14915267E-15
  -13.2299995      -8.39928120E-15
  -13.2200003      -1.28000104E-14
  -13.2100000      -1.53521791E-14
  -13.1999998      -1.53169510E-14
  -13.1899996      -1.23975334E-14
  -13.1800003      -6.84359931E-15
  -13.1700001       5.51240042E-16
  -13.1599998       8.56722750E-15
  -13.1499996       1.57747706E-14
  -13.1400003       2.08092532E-14
  -13.1300001       2.26484243E-14
  -13.1199999       2.08319842E-14
  -13.1099997       1.55721773E-14
  -13.1000004       7.72585866E-15
  -13.0900002      -1.37153851E-15
  -13.0799999      -1.01778691E-14
  -13.0699997      -1.72634073E-14
  -13.0600004      -2.16047527E-14
  -13.0500002      -2.27837667E-14
  -13.0400000      -2.10416113E-14
  -13.0299997      -1.71716635E-14
  -13.0200005      -1.22746949E-14
  -13.0100002      -7.43642158E-15
  -13.0000000      -3.41120984E-15
  -12.9899998      -3.99736368E-16
  -12.9799995       2.01031094E-15
  -12.9700003       4.70981998E-15
  -12.9600000       8.75951245E-15
  -12.9499998       1.49762591E-14
  -12.9399996       2.35206057E-14
  -12.9300003       3.36049073E-14
  -12.9200001       4.34248313E-14
  -12.9099998       5.03721007E-14
  -12.8999996       5.15214702E-14
  -12.8900003       4.43134400E-14
  -12.8800001       2.72943391E-14
  -12.8699999       7.41576551E-16
  -12.8599997      -3.29942000E-14
  -12.8500004      -6.95541579E-14
  -12.8400002      -1.03089602E-13
  -12.8299999      -1.27182905E-13
  -12.8199997      -1.36024506E-13
  -12.8100004      -1.25627644E-13
  -12.8000002      -9.48315997E-14
  -12.7900000      -4.58654619E-14
  -12.7799997       1.56837213E-14
  -12.7700005       8.15437534E-14
  -12.7600002       1.41987848E-13
  -12.7500000       1.87420852E-13
  -12.7399998       2.10035778E-13
  -12.7299995       2.05227423E-13
  -12.7200003       1.72485846E-13
  -12.7100000       1.15588366E-13
  -12.6999998       4.20447741E-14
  -12.6899996      -3.81017341E-14
  -12.6800003      -1.13886128E-13
  -12.6700001      -1.75135825E-13
  -12.6599998      -2.13965198E-13
  -12.6499996      -2.25786620E-13
  -12.6400003      -2.09690596E-13
  -12.6300001      -1.68191605E-13
  -12.6199999      -1.06476202E-13
  -12.6099997      -3.13873141E-14
  -12.6000004       4.95891881E-14
  -12.5900002       1.29110332E-13
  -12.5799999       2.00412075E-13
  -12.5699997       2.57408542E-13
  -12.5600004       2.94595159E-13
  -12.5500002       3.06975934E-13
  -12.5400000       2.90240136E-13
  -12.5299997       2.41332318E-13
  -12.5200005       1.59412875E-13
  -12.5100002       4.70271269E-14
  -12.5000000      -8.88537968E-14
  -12.4899998      -2.36341843E-13
  -12.4799995      -3.79086167E-13
  -12.4700003      -4.97920010E-13
  -12.4600000      -5.73701785E-13
  -12.4499998      -5.91054278E-13
  -12.4399996      -5.42424124E-13
  -12.4300003      -4.31697077E-13
  -12.4200001      -2.76558778E-13
  -12.4099998      -1.08918395E-13
  -12.3999996       2.69930190E-14
  -12.3900003       7.88413388E-14
  -12.3800001      -7.72256032E-15
  -12.3699999      -2.81923383E-13
  -12.3599997      -7.80731003E-13
  -12.3500004      -1.52285227E-12
  -12.3400002      -2.50478544E-12
  -12.3299999      -3.69956279E-12
  -12.3199997      -5.05832919E-12
  -12.3100004      -6.51449250E-12
  -12.3000002      -7.98971132E-12
  -12.2900000      -9.40081867E-12
  -12.2799997      -1.06666247E-11
  -12.2700005      -1.17137732E-11
  -12.2600002      -1.24809581E-11
  -12.2500000      -1.29213411E-11
  -12.2399998      -1.30031758E-11
  -12.2299995      -1.27090985E-11
  -12.2200003      -1.20345591E-11
  -12.2100000      -1.09859960E-11
  -12.1999998      -9.57911875E-12
  -12.1899996      -7.83753531E-12
  -12.1800003      -5.79168094E-12
  -12.1700001      -3.47783065E-12
  -12.1599998      -9.36864518E-13
  -12.1499996       1.78744812E-12
  -12.1400003       4.65083484E-12
  -12.1300001       7.61141584E-12
  -12.1199999       1.06328193E-11
  -12.1099997       1.36869448E-11
  -12.1000004       1.67558103E-11
  -12.0900002       1.98318549E-11
  -12.0799999       2.29164084E-11
  -12.0699997       2.60162534E-11
  -12.0600004       2.91385874E-11
  -12.0500002       3.22850427E-11
  -12.0400000       3.54456672E-11
  -12.0299997       3.85938989E-11
  -12.0200005       4.16832506E-11
  -12.0100002       4.46465538E-11
  -12.0000000       4.73978912E-11
  -11.9899998       4.98371448E-11
  -11.9799995       5.18564497E-11
  -11.9700003       5.33478539E-11
  -11.9600000       5.42109309E-11
  -11.9499998       5.43594857E-11
  -11.9399996       5.37264157E-11
  -11.9300003       5.22663753E-11
  -11.9200001       4.99559873E-11
  -11.9099998       4.67920702E-11
  -11.8999996       4.27885088E-11
  -11.8900003       3.79725938E-11
  -11.8800001       3.23816633E-11
  -11.8699999       2.60607560E-11
  -11.8599997       1.90613896E-11
  -11.8500004       1.14417642E-11
  -11.8400002       3.26765438E-12
  -11.8299999      -5.38634502E-12
  -11.8199997      -1.44362976E-11
  -11.8100004      -2.37893646E-11
  -11.8000002      -3.33456457E-11
  -11.7900000      -4.30015780E-11
  -11.7799997      -5.26539541E-11
  -11.7700005      -6.22043597E-11
  -11.7600002      -7.15629223E-11
  -11.7500000      -8.06505696E-11
  -11.7399998      -8.93995572E-11
  -11.7299995      -9.77521050E-11
  -11.7200003      -1.05657490E-10
  -11.7100000      -1.13068437E-10
  -11.6999998      -1.19937255E-10
  -11.6899996      -1.26213207E-10
  -11.6800003      -1.31840941E-10
  -11.6700001      -1.36760797E-10
  -11.6599998      -1.40910533E-10
  -11.6499996      -1.44227991E-10
  -11.6400003      -1.46654064E-10
  -11.6300001      -1.48135393E-10
  -11.6199999      -1.48626028E-10
  -11.6099997      -1.48087834E-10
  -11.6000004      -1.46490042E-10
  -11.5900002      -1.43807341E-10
  -11.5799999      -1.40018247E-10
  -11.5699997      -1.35103123E-10
  -11.5600004      -1.29042832E-10
  -11.5500002      -1.21818222E-10
  -11.5400000      -1.13410524E-10
  -11.5299997      -1.03802064E-10
  -11.5200005      -9.29780003E-11
  -11.5100002      -8.09274522E-11
  -11.5000000      -6.76451672E-11
  -11.4899998      -5.31329772E-11
  -11.4799995      -3.74011933E-11
  -11.4700003      -2.04704760E-11
  -11.4600000      -2.37436720E-12
  -11.4499998       1.68376112E-11
  -11.4399996       3.70960380E-11
  -11.4300003       5.83080251E-11
  -11.4200001       8.03546535E-11
  -11.4099998       1.03090418E-10
  -11.3999996       1.26346239E-10
  -11.3900003       1.49936355E-10
  -11.3800001       1.73669579E-10
  -11.3699999       1.97364111E-10
  -11.3599997       2.20863147E-10
  -11.3500004       2.44050113E-10
  -11.3400002       2.66859868E-10
  -11.3299999       2.89284402E-10
  -11.3199997       3.11370291E-10
  -11.3100004       3.33209266E-10
  -11.3000002       3.54922453E-10
  -11.2900000       3.76641440E-10
  -11.2799997       3.98488770E-10
  -11.2700005       4.20561863E-10
  -11.2600002       4.42922171E-10
  -11.2500000       4.65590816E-10
  -11.2399998       4.88549756E-10
  -11.2299995       5.11747533E-10
  -11.2200003       5.35106182E-10
  -11.2100000       5.58528446E-10
  -11.1999998       5.81902637E-10
  -11.1899996       6.05104522E-10
  -11.1800003       6.27999430E-10
  -11.1700001       6.50443588E-10
  -11.1599998       6.72287059E-10
  -11.1499996       6.93380853E-10
  -11.1400003       7.13585635E-10
  -11.1300001       7.32783501E-10
  -11.1199999       7.50888851E-10
  -11.1099997       7.67857111E-10
  -11.1000004       7.83689225E-10
  -11.0900002       7.98430655E-10
  -11.0799999       8.12167389E-10
  -11.0699997       8.25015278E-10
  -11.0600004       8.37111103E-10
  -11.0500002       8.48600967E-10
  -11.0400000       8.59632421E-10
  -11.0299997       8.70344963E-10
  -11.0200005       8.80866269E-10
  -11.0100002       8.91302976E-10
  -11.0000000       9.01737240E-10
  -10.9899998       9.12219078E-10
  -10.9799995       9.22765586E-10
  -10.9700003       9.33360278E-10
  -10.9600000       9.43957912E-10
  -10.9499998       9.54495372E-10
  -10.9399996       9.64907154E-10
  -10.9300003       9.75142078E-10
  -10.9200001       9.85177162E-10
  -10.9099998       9.95023730E-10
  -10.8999996       1.00472675E-09
  -10.8900003       1.01434861E-09
  -10.8800001       1.02394726E-09
  -10.8699999       1.03354902E-09
  -10.8599997       1.04312092E-09
  -10.8500004       1.05255171E-09
  -10.8400002       1.06164810E-09
  -10.8299999       1.07013953E-09
  -10.8199997       1.07770737E-09
  -10.8100004       1.08401665E-09
  -10.8000002       1.08876053E-09
  -10.7900000       1.09168852E-09
  -10.7799997       1.09264131E-09
  -10.7700005       1.09155973E-09
  -10.7600002       1.08847764E-09
  -10.7500000       1.08350684E-09
  -10.7399998       1.07680442E-09
  -10.7299995       1.06853693E-09
  -10.7200003       1.05885045E-09
  -10.7100000       1.04784337E-09
  -10.6999998       1.03555275E-09
  -10.6899996       1.02196107E-09
  -10.6800003       1.00700981E-09
  -10.6700001       9.90626692E-10
  -10.6599998       9.72764314E-10
  -10.6499996       9.53426560E-10
  -10.6400003       9.32694255E-10
  -10.6300001       9.10733433E-10
  -10.6199999       8.87785512E-10
  -10.6099997       8.64145144E-10
  -10.6000004       8.40116143E-10
  -10.5900002       8.15968404E-10
  -10.5799999       7.91904153E-10
  -10.5699997       7.68025366E-10
  -10.5600004       7.44328488E-10
  -10.5500002       7.20720039E-10
  -10.5400000       6.97049363E-10
  -10.5299997       6.73152867E-10
  -10.5200005       6.48897436E-10
  -10.5100002       6.24219287E-10
  -10.5000000       5.99136130E-10
  -10.4899998       5.73744163E-10
  -10.4799995       5.48192824E-10
  -10.4700003       5.22645482E-10
  -10.4600000       4.97241470E-10
  -10.4499998       4.72066219E-10
  -10.4399996       4.47133330E-10
  -10.4300003       4.22386931E-10
  -10.4200001       3.97727656E-10
  -10.4099998       3.73038378E-10
  -10.3999996       3.48222812E-10
  -10.3900003       3.23229554E-10
  -10.3800001       2.98063962E-10
  -10.3699999       2.72783546E-10
  -10.3599997       2.47483645E-10
  -10.3500004       2.22265956E-10
  -10.3400002       1.97214800E-10
  -10.3299999       1.72374531E-10
  -10.3199997       1.47734422E-10
  -10.3100004       1.23224597E-10
  -10.3000002       9.87278453E-11
  -10.2900000       7.40857237E-11
  -10.2799997       4.91237988E-11
  -10.2700005       2.36653839E-11
  -10.2600002      -2.45105802E-12
  -10.2500000      -2.93561980E-11
  -10.2399998      -5.71330205E-11
  -10.2299995      -8.58076388E-11
  -10.2200003      -1.15346802E-10
  -10.2100000      -1.45656195E-10
  -10.1999998      -1.76591977E-10
  -10.1899996      -2.07984269E-10
  -10.1800003      -2.39659903E-10
  -10.1700001      -2.71472594E-10
  -10.1599998      -3.03326420E-10
  -10.1499996      -3.35185074E-10
  -10.1400003      -3.67068487E-10
  -10.1300001      -3.99022621E-10
  -10.1199999      -4.31089747E-10
  -10.1099997      -4.63268063E-10
  -10.1000004      -4.95477159E-10
  -10.0900002      -5.27541510E-10
  -10.0799999      -5.59196744E-10
  -10.0699997      -5.90111959E-10
  -10.0600004      -6.19933771E-10
  -10.0500002      -6.48326171E-10
  -10.0400000      -6.75012934E-10
  -10.0299997      -6.99788616E-10
  -10.0200005      -7.22518545E-10
  -10.0100002      -7.43111184E-10
  -10.0000000      -7.61480212E-10
  -9.98999977      -7.77508669E-10
  -9.97999954      -7.91023635E-10
  -9.97000027      -8.01800959E-10
  -9.96000004      -8.09579959E-10
  -9.94999981      -8.14101231E-10
  -9.93999958      -8.15154888E-10
  -9.93000031      -8.12615031E-10
  -9.92000008      -8.06464395E-10
  -9.90999985      -7.96788246E-10
  -9.89999962      -7.83754783E-10
  -9.89000034      -7.67582164E-10
  -9.88000011      -7.48499485E-10
  -9.86999989      -7.26723792E-10
  -9.85999966      -7.02451430E-10
  -9.85000038      -6.75858036E-10
  -9.84000015      -6.47115250E-10
  -9.82999992      -6.16403317E-10
  -9.81999969      -5.83913917E-10
  -9.81000042      -5.49835621E-10
  -9.80000019      -5.14325527E-10
  -9.78999996      -4.77482165E-10
  -9.77999973      -4.39313169E-10
  -9.77000046      -3.99730110E-10
  -9.76000023      -3.58569646E-10
  -9.75000000      -3.15632714E-10
  -9.73999977      -2.70747202E-10
  -9.72999954      -2.23827290E-10
  -9.72000027      -1.74914083E-10
  -9.71000004      -1.24192448E-10
  -9.69999981      -7.19680426E-11
  -9.68999958      -1.86182424E-11
  -9.68000031       3.54709040E-11
  -9.67000008       8.99595884E-11
  -9.65999985       1.44590021E-10
  -9.64999962       1.99188069E-10
  -9.64000034       2.53635113E-10
  -9.63000011       3.07818826E-10
  -9.61999989       3.61588010E-10
  -9.60999966       4.14720702E-10
  -9.60000038       4.66928829E-10
  -9.59000015       5.17890009E-10
  -9.57999992       5.67307035E-10
  -9.56999969       6.14969353E-10
  -9.56000042       6.60799915E-10
  -9.55000019       7.04869552E-10
  -9.53999996       7.47372497E-10
  -9.52999973       7.88570376E-10
  -9.52000046       8.28719648E-10
  -9.51000023       8.68005945E-10
  -9.50000000       9.06506425E-10
  -9.48999977       9.44184619E-10
  -9.47999954       9.80922898E-10
  -9.47000027       1.01657960E-09
  -9.46000004       1.05104669E-09
  -9.44999981       1.08429188E-09
  -9.43999958       1.11637299E-09
  -9.43000031       1.14741883E-09
  -9.42000008       1.17758703E-09
  -9.40999985       1.20701715E-09
  -9.39999962       1.23579480E-09
  -9.39000034       1.26393651E-09
  -9.38000011       1.29140065E-09
  -9.36999989       1.31811728E-09
  -9.35999966       1.34401545E-09
  -9.35000038       1.36904277E-09
  -9.34000015       1.39315037E-09
  -9.32999992       1.41626322E-09
  -9.31999969       1.43822965E-09
  -9.31000042       1.45877499E-09
  -9.30000019       1.47748058E-09
  -9.28999996       1.49379553E-09
  -9.27999973       1.50707669E-09
  -9.27000046       1.51666024E-09
  -9.26000023       1.52193436E-09
  -9.25000000       1.52238511E-09
  -9.23999977       1.51760959E-09
  -9.22999954       1.50728829E-09
  -9.22000027       1.49112267E-09
  -9.21000004       1.46876844E-09
  -9.19999981       1.43978574E-09
  -9.18999958       1.40362078E-09
  -9.18000031       1.35964551E-09
  -9.17000008       1.30722388E-09
  -9.15999985       1.24581268E-09
  -9.14999962       1.17504440E-09
  -9.14000034       1.09478915E-09
  -9.13000011       1.00516517E-09
  -9.11999989       9.06506537E-10
  -9.10999966       7.99306843E-10
  -9.10000038       6.84155510E-10
  -9.09000015       5.61689140E-10
  -9.07999992       4.32577363E-10
  -9.06999969       2.97538549E-10
  -9.06000042       1.57372407E-10
  -9.05000019       1.29890439E-11
  -9.03999996      -1.34584593E-10
  -9.02999973      -2.84241103E-10
  -9.02000046      -4.34851877E-10
  -9.01000023      -5.85355986E-10
  -9.00000000      -7.34830030E-10
  -8.98999977      -8.82531881E-10
  -8.97999954      -1.02788777E-09
  -8.97000027      -1.17043886E-09
  -8.96000004      -1.30974420E-09
  -8.94999981      -1.44528989E-09
  -8.93999958      -1.57641156E-09
  -8.93000031      -1.70227488E-09
  -8.92000008      -1.82190185E-09
  -8.90999985      -1.93424032E-09
  -8.89999962      -2.03826001E-09
  -8.89000034      -2.13302820E-09
  -8.88000011      -2.21775998E-09
  -8.86999989      -2.29182140E-09
  -8.85999966      -2.35468711E-09
  -8.85000038      -2.40588549E-09
  -8.84000015      -2.44493958E-09
  -8.82999992      -2.47133647E-09
  -8.81999969      -2.48453058E-09
  -8.81000042      -2.48397702E-09
  -8.80000019      -2.46918486E-09
  -8.78999996      -2.43975840E-09
  -8.77999973      -2.39541764E-09
  -8.77000046      -2.33598074E-09
  -8.76000023      -2.26132468E-09
  -8.75000000      -2.17132734E-09
  -8.73999977      -2.06582818E-09
  -8.72999954      -1.94460936E-09
  -8.72000027      -1.80742443E-09
  -8.71000004      -1.65405523E-09
  -8.69999981      -1.48438373E-09
  -8.68999958      -1.29845734E-09
  -8.68000031      -1.09652554E-09
  -8.67000008      -8.79032791E-10
  -8.65999985      -6.46576015E-10
  -8.64999962      -3.99835665E-10
  -8.64000034      -1.39504797E-10
  -8.63000011       1.33764805E-10
  -8.61999989       4.19387164E-10
  -8.60999966       7.16837256E-10
  -8.60000038       1.02562348E-09
  -8.59000015       1.34525857E-09
  -8.57999992       1.67524161E-09
  -8.56999969       2.01505523E-09
  -8.56000042       2.36418352E-09
  -8.55000019       2.72213807E-09
  -8.53999996       3.08847392E-09
  -8.52999973       3.46279183E-09
  -8.52000046       3.84471655E-09
  -8.51000023       4.23386215E-09
  -8.50000000       4.62979433E-09
  -8.48999977       5.03200548E-09
  -8.47999954       5.43991385E-09
  -8.47000027       5.85288795E-09
  -8.46000004       6.27029095E-09
  -8.44999981       6.69152067E-09
  -8.43999958       7.11604020E-09
  -8.43000031       7.54337304E-09
  -8.42000008       7.97306310E-09
  -8.40999985       8.40462988E-09
  -8.39999962       8.83749163E-09
  -8.39000034       9.27092270E-09
  -8.38000011       9.70402958E-09
  -8.36999989       1.01357598E-08
  -8.35999966       1.05649409E-08
  -8.35000038       1.09903224E-08
  -8.34000015       1.14106289E-08
  -8.32999992       1.18245822E-08
  -8.31999969       1.22309061E-08
  -8.31000042       1.26283197E-08
  -8.30000019       1.30155371E-08
  -8.28999996       1.33912534E-08
  -8.27999973       1.37541694E-08
  -8.27000046       1.41030165E-08
  -8.26000023       1.44365764E-08
  -8.25000000       1.47537227E-08
  -8.23999977       1.50533914E-08
  -8.22999954       1.53345567E-08
  -8.22000027       1.55961803E-08
  -8.21000004       1.58371645E-08
  -8.19999981       1.60563225E-08
  -8.18999958       1.62523577E-08
  -8.18000031       1.64239324E-08
  -8.17000008       1.65697216E-08
  -8.15999985       1.66885030E-08
  -8.14999962       1.67791896E-08
  -8.14000034       1.68408789E-08
  -8.13000011       1.68728427E-08
  -8.11999989       1.68744752E-08
  -8.10999966       1.68452612E-08
  -8.10000038       1.67847229E-08
  -8.09000015       1.66924661E-08
  -8.07999992       1.65682046E-08
  -8.06999969       1.64118603E-08
  -8.06000042       1.62236748E-08
  -8.05000019       1.60042326E-08
  -8.03999996       1.57545230E-08
  -8.02999973       1.54758570E-08
  -8.02000046       1.51697765E-08
  -8.01000023       1.48379309E-08
  -8.00000000       1.44819534E-08
  -7.98999977       1.41034073E-08
  -7.98000002       1.37037803E-08
  -7.96999979       1.32845095E-08
  -7.96000004       1.28470647E-08
  -7.94999981       1.23930395E-08
  -7.94000006       1.19241674E-08
  -7.92999983       1.14423084E-08
  -7.92000008       1.09493810E-08
  -7.90999985       1.04472591E-08
  -7.90000010       9.93767646E-09
  -7.88999987       9.42215195E-09
  -7.88000011       8.90200091E-09
  -7.86999989       8.37835756E-09
  -7.86000013       7.85228327E-09
  -7.84999990       7.32483185E-09
  -7.84000015       6.79711487E-09
  -7.82999992       6.27029451E-09
  -7.82000017       5.74553161E-09
  -7.80999994       5.22393773E-09
  -7.80000019       4.70646278E-09
  -7.78999996       4.19384971E-09
  -7.78000021       3.68666231E-09
  -7.76999998       3.18534998E-09
  -7.76000023       2.69034439E-09
  -7.75000000       2.20219776E-09
  -7.73999977       1.72164671E-09
  -7.73000002       1.24969413E-09
  -7.71999979       7.87550802E-10
  -7.71000004       3.36559086E-10
  -7.69999981      -1.01912853E-10
  -7.69000006      -5.26585608E-10
  -7.67999983      -9.36364097E-10
  -7.67000008      -1.33032219E-09
  -7.65999985      -1.70767811E-09
  -7.65000010      -2.06772688E-09
  -7.63999987      -2.40979570E-09
  -7.63000011      -2.73317347E-09
  -7.61999989      -3.03710546E-09
  -7.61000013      -3.32080830E-09
  -7.59999990      -3.58355834E-09
  -7.59000015      -3.82478316E-09
  -7.57999992      -4.04406064E-09
  -7.57000017      -4.24116386E-09
  -7.55999994      -4.41608350E-09
  -7.55000019      -4.56896476E-09
  -7.53999996      -4.70007411E-09
  -7.53000021      -4.80975659E-09
  -7.51999998      -4.89843544E-09
  -7.51000023      -4.96659380E-09
  -7.50000000      -5.01485919E-09
  -7.48999977      -5.04399544E-09
  -7.48000002      -5.05495334E-09
  -7.46999979      -5.04882003E-09
  -7.46000004      -5.02683628E-09
  -7.44999981      -4.99025754E-09
  -7.44000006      -4.94030772E-09