  -16.0000000       0.00000000    
  -15.9899998       0.00000000    
  -15.9799995       0.00000000    
  -15.9700003       0.00000000    
  -15.9600000       0.00000000    
  -15.9499998       0.00000000    
  -15.9399996       0.00000000    
  -15.9300003       0.00000000    
  -15.9200001       0.00000000    
  -15.9099998       0.00000000    
  -15.8999996       0.00000000    
  -15.8900003       0.00000000    
  -15.8800001       0.00000000    
  -15.8699999       0.00000000    
  -15.8599997       2.80259693E-45
  -15.8500004       4.20389539E-44
  -15.8400002       3.85357078E-43
  -15.8299999       2.75775538E-42
  -15.8199997       1.60841038E-41
  -15.8100004       7.86688958E-41
  -15.8000002       3.28045372E-40
  -15.7900000       1.17698701E-39
  -15.7799997       3.64435271E-39
  -15.7700005       9.68873313E-39
  -15.7600002       2.16820557E-38
  -15.7500000       3.85622203E-38
  -15.7399998       4.38527554E-38
  -15.7299995      -2.04759735E-38
  -15.7200003      -2.95253542E-37
  -15.7100000      -1.04174608E-36
  -15.6999998      -2.61642521E-36
  -15.6899996      -5.27138474E-36
  -15.6800003      -8.64872982E-36
  -15.6700001      -1.09374849E-35
  -15.6599998      -7.98817216E-36
  -15.6499996       6.74071537E-36
  -15.6400003       3.99111527E-35
  -15.6300001       9.21502738E-35
  -15.6199999       1.47856790E-34
  -15.6099997       1.64447883E-34
  -15.6000004       7.00295192E-35
  -15.5900002      -2.16697585E-34
  -15.5799999      -7.31471472E-34
  -15.5699997      -1.37448268E-33
  -15.5600004      -1.81318626E-33
  -15.5500002      -1.44281729E-33
  -15.5400000       5.02009235E-34
  -15.5299997       4.59759718E-33
  -15.5200005       1.06215715E-32
  -15.5100002       1.67876580E-32
  -15.5000000       1.90896330E-32
  -15.4899998       1.11741685E-32
  -15.4799995      -1.47092238E-32
  -15.4700003      -6.49884630E-32
  -15.4600000      -1.39404590E-31
  -15.4499998      -2.22073993E-31
  -15.4399996      -2.68848535E-31
  -15.4300003      -1.93995042E-31
  -15.4200001       1.33630304E-31
  -15.4099998       8.63306467E-31
  -15.3999996       2.07141514E-30
  -15.3900003       3.57606559E-30
  -15.3800001       4.66338395E-30
  -15.3699999       3.82414794E-30
  -15.3599997      -1.24947066E-30
  -15.3500004      -1.29979417E-29
  -15.3400002      -3.22119276E-29
  -15.3299999      -5.49779092E-29
  -15.3199997      -6.90264968E-29
  -15.3100004      -5.15743997E-29
  -15.3000002       2.76307602E-29
  -15.2900000       1.93545379E-28
  -15.2799997       4.40479438E-28
  -15.2700005       6.97152840E-28
  -15.2600002       7.95864405E-28
  -15.2500000       4.72877335E-28
  -15.2399998      -5.63407839E-28
  -15.2299995      -2.46553719E-27
  -15.2200003      -4.98381212E-27
  -15.2100000      -7.17752336E-27
  -15.1999998      -7.26507383E-27
  -15.1899996      -2.86066387E-27
  -15.1800003       8.14821054E-27
  -15.1700001       2.59797010E-26
  -15.1599998       4.68596566E-26
  -15.1499996       6.12772237E-26
  -15.1400003       5.40191487E-26
  -15.1300001       7.68894250E-27
  -15.1199999      -8.90774832E-26
  -15.1099997      -2.29167495E-25
  -15.1000004      -3.73723100E-25
  -15.0900002      -4.45019462E-25
  -15.0799999      -3.35121572E-25
  -15.0699997       6.06214029E-26
  -15.0600004       7.82406445E-25
  -15.0500002       1.72741882E-24
  -15.0400000       2.58248586E-24
  -15.0299997       2.81415656E-24
  -15.0200005       1.76904247E-24
  -15.0100002      -1.07950951E-24
  -15.0000000      -5.75170674E-24
  -14.9899998      -1.13427083E-23
  -14.9799995      -1.57527555E-23
  -14.9700003      -1.58203136E-23
  -14.9600000      -8.09733297E-24
  -14.9499998       9.64329366E-24
  -14.9399996       3.63812205E-23
  -14.9300003       6.59319721E-23
  -14.9200001       8.61654655E-23
  -14.9099998       8.05532692E-23
  -14.8999996       3.29372273E-23
  -14.8900003      -6.45310940E-23
  -14.8800001      -2.01884374E-22
  -14.8699999      -3.43702506E-22
  -14.8599997      -4.28179260E-22
  -14.8500004      -3.77767893E-22
  -14.8400002      -1.24068231E-22
  -14.8299999       3.55239086E-22
  -14.8199997       9.96499597E-22
  -14.8100004       1.62335346E-21
  -14.8000002       1.95330583E-21
  -14.7900000       1.65515569E-21
  -14.7799997       4.62903680E-22
  -14.7700005      -1.66977090E-21
  -14.7600002      -4.41741831E-21
  -14.7500000      -6.99993919E-21
  -14.7399998      -8.24436942E-21
  -14.7299995      -6.84766122E-21
  -14.7200003      -1.84329505E-21
  -14.7100000       6.80979186E-21
  -14.6999998       1.76929555E-20
  -14.6899996       2.76978746E-20
  -14.6800003       3.23584170E-20
  -14.6700001       2.69070043E-20
  -14.6599998       8.00922960E-21
  -14.6499996      -2.41672028E-20
  -14.6400003      -6.42011903E-20
  -14.6300001      -1.00835242E-19
  -14.6199999      -1.18371536E-19
  -14.6099997      -1.00475858E-19
  -14.6000004      -3.60857833E-20
  -14.5900002       7.38362805E-20
  -14.5799999       2.10883648E-19
  -14.5699997       3.37793524E-19
  -14.5600004       4.03423404E-19
  -14.5500002       3.55156174E-19
  -14.5400000       1.57464247E-19
  -14.5299997      -1.87492105E-19
  -14.5200005      -6.23894153E-19
  -14.5100002      -1.03873485E-18
  -14.5000000      -1.27729715E-18
  -14.4899998      -1.18005648E-18
  -14.4799995      -6.36686811E-19
  -14.4700003       3.55011469E-19
  -14.4600000       1.64408206E-18
  -14.4499998       2.91656688E-18
  -14.4399996       3.73805773E-18
  -14.4300003       3.65412991E-18
  -14.4200001       2.33609743E-18
  -14.4099998      -2.60740564E-19
  -14.3999996      -3.77555755E-18
  -14.3900003      -7.41156476E-18
  -14.3800001      -1.00395473E-17
  -14.3699999      -1.04481158E-17
  -14.3599997      -7.70861276E-18
  -14.3500004      -1.57356553E-18
  -14.3400002       7.21065169E-18
  -14.3299999       1.68073191E-17
  -14.3199997       2.45107876E-17
  -14.3100004       2.73164370E-17
  -14.3000002       2.27666227E-17
  -14.2900000       9.88855462E-18
  -14.2799997      -1.00446726E-17
  -14.2700005      -3.32229086E-17
  -14.2600002      -5.37068486E-17
  -14.2500000      -6.46105747E-17
  -14.2399998      -5.99117653E-17
  -14.2299995      -3.65069844E-17
  -14.2200003       4.05118860E-18
  -14.2100000       5.47504462E-17
  -14.1999998       1.03737872E-16
  -14.1899996       1.36542399E-16
  -14.1800003       1.39638516E-16
  -14.1700001       1.04618191E-16
  -14.1599998       3.18778699E-17
  -14.1499996      -6.73870164E-17
  -14.1400003      -1.71860828E-16
  -14.1300001      -2.53869671E-16
  -14.1199999      -2.85813004E-16
  -14.1099997      -2.47975539E-16
  -14.1000004      -1.35748002E-16
  -14.0900002       3.59481742E-17
  -14.0799999       2.32872809E-16
  -14.0699997       4.07172126E-16
  -14.0600004       5.08010445E-16
  -14.0500002       4.95031571E-16
  -14.0400000       3.51351199E-16
  -14.0299997       9.23196562E-17
  -14.0200005      -2.33155930E-16
  -14.0100002      -5.50372098E-16
  -14.0000000      -7.75002377E-16
  -13.9899998      -8.34510306E-16
  -13.9799995      -6.89638238E-16
  -13.9700003      -3.49972441E-16
  -13.9600000       1.21654392E-16
  -13.9499998       6.18796055E-16
  -13.9399996       1.01439512E-15
  -13.9300003       1.19262641E-15
  -13.9200001       1.08191730E-15
  -13.9099998       6.80098000E-16
  -13.8999996       6.36066223E-17
  -13.8900003      -6.23919863E-16
  -13.8800001      -1.20316742E-15
  -13.8699999      -1.50455699E-15
  -13.8599997      -1.41662375E-15
  -13.8500004      -9.24193308E-16
  -13.8400002      -1.24369186E-16
  -13.8299999       7.86971429E-16
  -13.8199997       1.55814866E-15
  -13.8100004       1.94586719E-15
  -13.8000002       1.78540188E-15
  -13.7900000       1.04797775E-15
  -13.7799997      -1.32302814E-16
  -13.7700005      -1.47345235E-15
  -13.7600002      -2.60388728E-15
  -13.7500000      -3.15370314E-15
  -13.7399998      -2.85830040E-15
  -13.7299995      -1.64774293E-15
  -13.7200003       3.04286290E-16
  -13.7100000       2.59053232E-15
  -13.6999998       4.64440278E-15
  -13.6899996       5.86716344E-15
  -13.6800003       5.78149114E-15
  -13.6700001       4.17456080E-15
  -13.6599998       1.19201782E-15
  -13.6499996      -2.64772843E-15
  -13.6400003      -6.53261243E-15
  -13.6300001      -9.52075367E-15
  -13.6199999      -1.07577140E-14
  -13.6099997      -9.69863313E-15
  -13.6000004      -6.27991709E-15
  -13.5900002      -9.91752973E-16
  -13.5799999       5.17765999E-15
  -13.5699997       1.09261397E-14
  -13.5600004       1.49175072E-14
  -13.5500002       1.60977832E-14
  -13.5400000       1.39726250E-14
  -13.5299997       8.77317848E-15
  -13.5200005       1.45853250E-15
  -13.5100002      -6.46090135E-15
  -13.5000000      -1.32507344E-14
  -13.4899998      -1.73612532E-14
  -13.4799995      -1.78206110E-14
  -13.4700003      -1.45104181E-14
  -13.4600000      -8.24248693E-15
  -13.4499998      -5.99389736E-16
  -13.4399996       6.44018632E-15
  -13.4300003       1.10114486E-14
  -13.4200001       1.18851038E-14
  -13.4099998       8.86087942E-15
  -13.3999996       2.91283259E-15
  -13.3900003      -3.98006721E-15
  -13.3800001      -9.30708960E-15
  -13.3699999      -1.07083515E-14
  -13.3599997      -6.70471259E-15
  -13.3500004       2.71966779E-15
  -13.3400002       1.58613899E-14
  -13.3299999       2.94826622E-14
  -13.3199997       3.94485707E-14
  -13.3100004       4.17094947E-14
  -13.3000002       3.34175809E-14
  -13.2900000       1.39036511E-14
  -13.2799997      -1.47572147E-14
  -13.2700005      -4.77916690E-14
  -13.2600002      -7.84550715E-14
  -13.2500000      -9.93456687E-14
  -13.2399998      -1.04055084E-13
  -13.2299995      -8.87929595E-14
  -13.2200003      -5.35919677E-14
  -13.2100000      -2.76052294E-15
  -13.1999998       5.55984397E-14
  -13.1899996       1.10977098E-13
  -13.1800003       1.52514801E-13
  -13.1700001       1.71288520E-13
  -13.1599998       1.62328105E-13
  -13.1499996       1.25872335E-13
  -13.1400003       6.75297763E-14
  -13.1300001      -2.74984884E-15
  -13.1199999      -7.27087458E-14
  -13.1099997      -1.30380556E-13
  -13.1000004      -1.66658530E-13
  -13.0900002      -1.77212818E-13
  -13.0799999      -1.63269355E-13
  -13.0699997      -1.31024599E-13
  -13.0600004      -8.98067428E-14
  -13.0500002      -4.94226920E-14
  -13.0400000      -1.73674602E-14
  -13.0299997       3.34876593E-15
  -13.0200005       1.51136563E-14
  -13.0100002       2.50151208E-14
  -13.0000000       4.25896433E-14
  -12.9899998       7.65040700E-14
  -12.9799995       1.31000300E-13
  -12.9700003       2.03090637E-13
  -12.9600000       2.81407655E-13
  -12.9499998       3.47281990E-13
  -12.9399996       3.78108623E-13
  -12.9300003       3.52474885E-13
  -12.9200001       2.56003362E-13
  -12.9099998       8.65484103E-14
  -12.8999996      -1.42629344E-13
  -12.8900003      -4.02760155E-13
  -12.8800001      -6.52978973E-13
  -12.8699999      -8.46917805E-13
  -12.8599997      -9.41369270E-13
  -12.8500004      -9.05329685E-13
  -12.8400002      -7.27489358E-13
  -12.8299999      -4.20418610E-13
  -12.8199997      -2.02991531E-14
  -12.8100004       4.18053369E-13
  -12.8000002       8.30121074E-13
  -12.7900000       1.15290861E-12
  -12.7799997       1.33623982E-12
  -12.7700005       1.35179866E-12
  -12.7600002       1.19800632E-12
  -12.7500000       8.99696875E-13
  -12.7399998       5.02665943E-13
  -12.7299995       6.43012865E-14
  -12.7200003      -3.57617310E-13
  -12.7100000      -7.15454334E-13
  -12.6999998      -9.79255956E-13
  -12.6899996      -1.13967462E-12
  -12.6800003      -1.20578038E-12
  -12.6700001      -1.19851037E-12
  -12.6599998      -1.14160287E-12
  -12.6499996      -1.05252580E-12
  -12.6400003      -9.35959860E-13
  -12.6300001      -7.81800785E-13
  -12.6199999      -5.68516425E-13
  -12.6099997      -2.71296711E-13
  -12.6000004       1.26910133E-13
  -12.5900002       6.24333809E-13
  -12.5799999       1.19243341E-12
  -12.5699997       1.77373058E-12
  -12.5600004       2.28690699E-12
  -12.5500002       2.63898712E-12
  -12.5400000       2.74268650E-12
  -12.5299997       2.53553927E-12
  -12.5200005       1.99667604E-12
  -12.5100002       1.15724411E-12
  -12.5000000       1.01529923E-13
  -12.4899998      -1.04232866E-12
  -12.4799995      -2.12099544E-12
  -12.4700003      -2.98080809E-12
  -12.4600000      -3.49423463E-12
  -12.4499998      -3.58274174E-12
  -12.4399996      -3.23145807E-12
  -12.4300003      -2.49260378E-12
  -12.4200001      -1.47696059E-12
  -12.4099998      -3.35153292E-13
  -12.3999996       7.67372765E-13
  -12.3900003       1.67645650E-12
  -12.3800001       2.27110323E-12
  -12.3699999       2.47689152E-12
  -12.3599997       2.26869933E-12
  -12.3500004       1.66310954E-12
  -12.3400002       7.03287038E-13
  -12.3299999      -5.59112273E-13
  -12.3199997      -2.07978708E-12
  -12.3100004      -3.83088439E-12
  -12.3000002      -5.80060132E-12
  -12.2900000      -7.98319830E-12
  -12.2799997      -1.03619760E-11
  -12.2700005      -1.28899157E-11
  -12.2600002      -1.54737768E-11
  -12.2500000      -1.79670324E-11
  -12.2399998      -2.01752660E-11
  -12.2299995      -2.18748682E-11
  -12.2200003      -2.28426774E-11
  -12.2100000      -2.28913416E-11
  -12.1999998      -2.19033437E-11
  -12.1899996      -1.98563995E-11
  -12.1800003      -1.68342597E-11
  -12.1700001      -1.30197025E-11
  -12.1599998      -8.67019564E-12
  -12.1499996      -4.08028819E-12
  -12.1400003       4.62311016E-13
  -12.1300001       4.71854847E-12
  -12.1199999       8.52984610E-12
  -12.1099997       1.18338533E-11
  -12.1000004       1.46618152E-11
  -12.0900002       1.71188046E-11
  -12.0799999       1.93519246E-11
  -12.0699997       2.15138428E-11
  -12.0600004       2.37297664E-11
  -12.0500002       2.60750119E-11
  -12.0400000       2.85672354E-11
  -12.0299997       3.11742750E-11
  -12.0200005       3.38343867E-11
  -12.0100002       3.64828237E-11
  -12.0000000       3.90774323E-11
  -11.9899998       4.16159676E-11
  -11.9799995       4.41399521E-11
  -11.9700003       4.67235625E-11
  -11.9600000       4.94492364E-11
  -11.9499998       5.23755483E-11
  -11.9399996       5.55050034E-11
  -11.9300003       5.87594626E-11
  -11.9200001       6.19700263E-11
  -11.9099998       6.48850279E-11
  -11.8999996       6.71956102E-11
  -11.8900003       6.85751039E-11
  -11.8800001       6.87248661E-11
  -11.8699999       6.74180642E-11
  -11.8599997       6.45328166E-11
  -11.8500004       6.00686861E-11
  -11.8400002       5.41435195E-11
  -11.8299999       4.69718014E-11
  -11.8199997       3.88295021E-11
  -11.8100004       3.00124682E-11
  -11.8000002       2.07969059E-11
  -11.7900000       1.14092936E-11
  -11.7799997       2.01079930E-12
  -11.7700005      -7.30222653E-12
  -11.7600002      -1.64836929E-11
  -11.7500000      -2.55142574E-11
  -11.7399998      -3.43756516E-11
  -11.7299995      -4.30299164E-11
  -11.7200003      -5.14090159E-11
  -11.7100000      -5.94178248E-11
  -11.6999998      -6.69497444E-11
  -11.6899996      -7.39115227E-11
  -11.6800003      -8.02507713E-11
  -11.6700001      -8.59799454E-11
  -11.6599998      -9.11894102E-11
  -11.6499996      -9.60465527E-11
  -11.6400003      -1.00778899E-10
  -11.6300001      -1.05643952E-10
  -11.6199999      -1.10890873E-10
  -11.6099997      -1.16720841E-10
  -11.6000004      -1.23253394E-10
  -11.5900002      -1.30504857E-10
  -11.5799999      -1.38382528E-10
  -11.5699997      -1.46694698E-10
  -11.5600004      -1.55174248E-10
  -11.5500002      -1.63510219E-10
  -11.5400000      -1.71381659E-10
  -11.5299997      -1.78486434E-10
  -11.5200005      -1.84561685E-10
  -11.5100002      -1.89392724E-10
  -11.5000000      -1.92810726E-10
  -11.4899998      -1.94683145E-10
  -11.4799995      -1.94900041E-10
  -11.4700003      -1.93361729E-10
  -11.4600000      -1.89971497E-10
  -11.4499998      -1.84635182E-10
  -11.4399996      -1.77268200E-10
  -11.4300003      -1.67806796E-10
  -11.4200001      -1.56221008E-10
  -11.4099998      -1.42524409E-10
  -11.3999996      -1.26777921E-10
  -11.3900003      -1.09086087E-10
  -11.3800001      -8.95845967E-11
  -11.3699999      -6.84228646E-11
  -11.3599997      -4.57436623E-11
  -11.3500004      -2.16642017E-11
  -11.3400002       3.73792837E-12
  -11.3299999       3.04317752E-11
  -11.3199997       5.84327864E-11
  -11.3100004       8.77956943E-11
  -11.3000002       1.18603877E-10
  -11.2900000       1.50956733E-10
  -11.2799997       1.84959326E-10
  -11.2700005       2.20714988E-10
  -11.2600002       2.58321975E-10
  -11.2500000       2.97873975E-10
  -11.2399998       3.39462430E-10
  -11.2299995       3.83179044E-10
  -11.2200003       4.29117603E-10
  -11.2100000       4.77372364E-10
  -11.1999998       5.28034894E-10
  -11.1899996       5.81188209E-10
  -11.1800003       6.36899977E-10
  -11.1700001       6.95215496E-10
  -11.1599998       7.56152641E-10
  -11.1499996       8.19698309E-10
  -11.1400003       8.85806095E-10
  -11.1300001       9.54396562E-10
  -11.1199999       1.02535658E-09
  -11.1099997       1.09854448E-09
  -11.1000004       1.17379018E-09
  -11.0900002       1.25090183E-09
  -11.0799999       1.32967093E-09
  -11.0699997       1.40988443E-09
  -11.0600004       1.49133117E-09
  -11.0500002       1.57382041E-09
  -11.0400000       1.65719227E-09
  -11.0299997       1.74132919E-09
  -11.0200005       1.82616711E-09
  -11.0100002       1.91169702E-09
  -11.0000000       1.99796113E-09
  -10.9899998       2.08504591E-09
  -10.9799995       2.17306884E-09
  -10.9700003       2.26216001E-09
  -10.9600000       2.35244735E-09
  -10.9499998       2.44404319E-09
  -10.9399996       2.53703547E-09
  -10.9300003       2.63148481E-09
  -10.9200001       2.72742695E-09
  -10.9099998       2.82488122E-09
  -10.8999996       2.92385760E-09
  -10.8900003       3.02436631E-09
  -10.8800001       3.12641935E-09
  -10.8699999       3.23003091E-09
  -10.8599997       3.33520722E-09
  -10.8500004       3.44193429E-09
  -10.8400002       3.55015706E-09
  -10.8299999       3.65976693E-09
  -10.8199997       3.77058162E-09
  -10.8100004       3.88233934E-09
  -10.8000002       3.99469746E-09
  -10.7900000       4.10724965E-09
  -10.7799997       4.21954249E-09
  -10.7700005       4.33110081E-09
  -10.7600002       4.44146453E-09
  -10.7500000       4.55021709E-09
  -10.7399998       4.65701255E-09
  -10.7299995       4.76158757E-09
  -10.7200003       4.86378582E-09
  -10.7100000       4.96353669E-09
  -10.6999998       5.06085751E-09
  -10.6899996       5.15582732E-09
  -10.6800003       5.24857535E-09
  -10.6700001       5.33925437E-09
  -10.6599998       5.42803091E-09
  -10.6499996       5.51507551E-09
  -10.6400003       5.60055291E-09
  -10.6300001       5.68463809E-09
  -10.6199999       5.76752290E-09
  -10.6099997       5.84941917E-09
  -10.6000004       5.93056892E-09
  -10.5900002       6.01124706E-09
  -10.5799999       6.09175776E-09
  -10.5699997       6.17242213E-09
  -10.5600004       6.25356389E-09
  -10.5500002       6.33548058E-09
  -10.5400000       6.41843423E-09
  -10.5299997       6.50262155E-09
  -10.5200005       6.58817001E-09
  -10.5100002       6.67512401E-09
  -10.5000000       6.76345335E-09
  -10.4899998       6.85306478E-09
  -10.4799995       6.94380953E-09
  -10.4700003       7.03550906E-09
  -10.4600000       7.12796799E-09
  -10.4499998       7.22098692E-09
  -10.4399996       7.31436778E-09
  -10.4300003       7.40791961E-09
  -10.4200001       7.50145457E-09
  -10.4099998       7.59477192E-09
  -10.3999996       7.68767183E-09
  -10.3900003       7.77994291E-09
  -10.3800001       7.87136756E-09
  -10.3699999       7.96171840E-09
  -10.3599997       8.05079114E-09
  -10.3500004       8.13839840E-09
  -10.3400002       8.22439716E-09
  -10.3299999       8.30867819E-09
  -10.3199997       8.39118730E-09
  -10.3100004       8.47190407E-09
  -10.3000002       8.55085158E-09
  -10.2900000       8.62807781E-09
  -10.2799997       8.70364669E-09
  -10.2700005       8.77764528E-09
  -10.2600002       8.85017037E-09
  -10.2500000       8.92134366E-09
  -10.2399998       8.99129837E-09
  -10.2299995       9.06022368E-09
  -10.2200003       9.12834253E-09
  -10.2100000       9.19592757E-09
  -10.1999998       9.26332522E-09
  -10.1899996       9.33091204E-09
  -10.1800003       9.39912059E-09
  -10.1700001       9.46841361E-09
  -10.1599998       9.53926538E-09
  -10.1499996       9.61215907E-09
  -10.1400003       9.68755298E-09
  -10.1300001       9.76587433E-09
  -10.1199999       9.84751125E-09
  -10.1099997       9.93278704E-09
  -10.1000004       1.00219646E-08
  -10.0900002       1.01152517E-08
  -10.0799999       1.02127817E-08
  -10.0699997       1.03146407E-08
  -10.0600004       1.04208580E-08
  -10.0500002       1.05314291E-08
  -10.0400000       1.06463309E-08
  -10.0299997       1.07655138E-08
  -10.0200005       1.08889084E-08
  -10.0100002       1.10164580E-08
  -10.0000000       1.11480745E-08
  -9.98999977       1.12836505E-08
  -9.97999954       1.14230652E-08
  -9.97000027       1.15661489E-08
  -9.96000004       1.17127135E-08
  -9.94999981       1.18625252E-08
  -9.93999958       1.20153496E-08
  -9.93000031       1.21709247E-08
  -9.92000008       1.23290409E-08
  -9.90999985       1.24895072E-08
  -9.89999962       1.26522366E-08
  -9.89000034       1.28172317E-08
  -9.88000011       1.29846578E-08
  -9.86999989       1.31547999E-08
  -9.85999966       1.33281155E-08
  -9.85000038       1.35052129E-08
  -9.84000015       1.36868223E-08
  -9.82999992       1.38737803E-08
  -9.81999969       1.40670053E-08
  -9.81000042       1.42674548E-08
  -9.80000019       1.44761083E-08
  -9.78999996       1.46939216E-08
  -9.77999973       1.49218273E-08
  -9.77000046       1.51607225E-08
  -9.76000023       1.54114286E-08
  -9.75000000       1.56747202E-08
  -9.73999977       1.59512830E-08
  -9.72999954       1.62417049E-08
  -9.72000027       1.65464495E-08
  -9.71000004       1.68658687E-08
  -9.69999981       1.72001382E-08
  -9.68999958       1.75493096E-08
  -9.68000031       1.79132567E-08
  -9.67000008       1.82917219E-08
  -9.65999985       1.86843216E-08
  -9.64999962       1.90905585E-08
  -9.64000034       1.95098497E-08
  -9.63000011       1.99415062E-08
  -9.61999989       2.03847748E-08
  -9.60999966       2.08388187E-08
  -9.60000038       2.13026858E-08
  -9.59000015       2.17753087E-08
  -9.57999992       2.22555201E-08
  -9.56999969       2.27420003E-08
  -9.56000042       2.32333353E-08
  -9.55000019       2.37279938E-08
  -9.53999996       2.42243630E-08
  -9.52999973       2.47207836E-08
  -9.52000046       2.52155790E-08
  -9.51000023       2.57070880E-08
  -9.50000000       2.61937334E-08
  -9.48999977       2.66740035E-08
  -9.47999954       2.71465570E-08
  -9.47000027       2.76101897E-08
  -9.46000004       2.80639245E-08
  -9.44999981       2.85070030E-08
  -9.43999958       2.89389082E-08
  -9.43000031       2.93593505E-08
  -9.42000008       2.97682963E-08
  -9.40999985       3.01659036E-08
  -9.39999962       3.05525099E-08
  -9.39000034       3.09287103E-08
  -9.38000011       3.12952011E-08
  -9.36999989       3.16528848E-08
  -9.35999966       3.20028626E-08
  -9.35000038       3.23464278E-08
  -9.34000015       3.26851222E-08
  -9.32999992       3.30206866E-08
  -9.31999969       3.33551426E-08
  -9.31000042       3.36907178E-08
  -9.30000019       3.40298207E-08
  -9.28999996       3.43750699E-08
  -9.27999973       3.47291618E-08
  -9.27000046       3.50948675E-08
  -9.26000023       3.54749261E-08
  -9.25000000       3.58720769E-08
  -9.23999977       3.62889878E-08
  -9.22999954       3.67281885E-08
  -9.22000027       3.71920805E-08
  -9.21000004       3.76828986E-08
  -9.19999981       3.82027530E-08
  -9.18999958       3.87535692E-08
  -9.18000031       3.93370421E-08
  -9.17000008       3.99546423E-08
  -9.15999985       4.06076772E-08
  -9.14999962       4.12971453E-08
  -9.14000034       4.20237960E-08
  -9.13000011       4.27880877E-08
  -9.11999989       4.35901413E-08
  -9.10999966       4.44297896E-08
  -9.10000038       4.53065425E-08
  -9.09000015       4.62195793E-08
  -9.07999992       4.71677986E-08
  -9.06999969       4.81497757E-08
  -9.06000042       4.91638588E-08
  -9.05000019       5.02080475E-08
  -9.03999996       5.12801215E-08
  -9.02999973       5.23775547E-08
  -9.02000046       5.34975513E-08
  -9.01000023       5.46370487E-08
  -9.00000000       5.57926683E-08
  -8.98999977       5.69608609E-08
  -8.97999954       5.81378927E-08
  -8.97000027       5.93198060E-08
  -8.96000004       6.05026358E-08
  -8.94999981       6.16823428E-08
  -8.93999958       6.28548733E-08
  -8.93000031       6.40162199E-08
  -8.92000008       6.51624887E-08
  -8.90999985       6.62898856E-08
  -8.89999962       6.73947085E-08
  -8.89000034       6.84734403E-08
  -8.88000011       6.95227769E-08
  -8.86999989       7.05395209E-08
  -8.85999966       7.15208088E-08
  -8.85000038       7.24640330E-08
  -8.84000015       7.33668131E-08
  -8.82999992       7.42271098E-08
  -8.81999969       7.50430473E-08
  -8.81000042       7.58130980E-08
  -8.80000019       7.65359331E-08
  -8.78999996       7.72105508E-08
  -8.77999973       7.78361766E-08
  -8.77000046       7.84123060E-08
  -8.76000023       7.89386831E-08
  -8.75000000       7.94153650E-08
  -8.73999977       7.98426854E-08
  -8.72999954       8.02212909E-08
  -8.72000027       8.05520060E-08
  -8.71000004       8.08359744E-08
  -8.69999981       8.10744183E-08
  -8.68999958       8.12688441E-08
  -8.68000031       8.14209145E-08
  -8.67000008       8.15323631E-08
  -8.65999985       8.16051653E-08
  -8.64999962       8.16414385E-08
  -8.64000034       8.16433570E-08
  -8.63000011       8.16133081E-08
  -8.61999989       8.15536723E-08
  -8.60999966       8.14669434E-08
  -8.60000038       8.13554806E-08
  -8.59000015       8.12217067E-08
  -8.57999992       8.10679310E-08
  -8.56999969       8.08963705E-08
  -8.56000042       8.07090430E-08
  -8.55000019       8.05080447E-08
  -8.53999996       8.02952655E-08
  -8.52999973       8.00725388E-08
  -8.52000046       7.98416480E-08
  -8.51000023       7.96041704E-08
  -8.50000000       7.93616692E-08
  -8.48999977       7.91155443E-08
  -8.47999954       7.88670746E-08
  -8.47000027       7.86172336E-08
  -8.46000004       7.83671084E-08
  -8.44999981       7.81174521E-08
  -8.43999958       7.78690179E-08
  -8.43000031       7.76224098E-08
  -8.42000008       7.73781395E-08
  -8.40999985       7.71367255E-08
  -8.39999962       7.68985586E-08
  -8.39000034       7.66639019E-08
  -8.38000011       7.64332881E-08
  -8.36999989       7.62069945E-08
  -8.35999966       7.59854828E-08
  -8.35000038       7.57691012E-08
  -8.34000015       7.55584253E-08
  -8.32999992       7.53539808E-08
  -8.31999969       7.51563860E-08
  -8.31000042       7.49663940E-08
  -8.30000019       7.47848219E-08
  -8.28999996       7.46124016E-08
  -8.27999973       7.44502628E-08
  -8.27000046       7.42994999E-08
  -8.26000023       7.41614272E-08
  -8.25000000       7.40373878E-08
  -8.23999977       7.39290940E-08
  -8.22999954       7.38382440E-08
  -8.22000027       7.37668984E-08
  -8.21000004       7.37171248E-08
  -8.19999981       7.36911403E-08
  -8.18999958       7.36913250E-08
  -8.18000031       7.37202157E-08
  -8.17000008       7.37803916E-08
  -8.15999985       7.38747730E-08
  -8.14999962       7.40063015E-08
  -8.14000034       7.41781747E-08
  -8.13000011       7.43934692E-08
  -8.11999989       7.46556026E-08
  -8.10999966       7.49678861E-08
  -8.10000038       7.53336309E-08
  -8.09000015       7.57561196E-08
  -8.07999992       7.62384360E-08
  -8.06999969       7.67837705E-08
  -8.06000042       7.73951712E-08
  -8.05000019       7.80754377E-08
  -8.03999996       7.88272629E-08
  -8.02999973       7.96532831E-08
  -8.02000046       8.05558855E-08
  -8.01000023       8.15371024E-08
  -8.00000000       8.25988167E-08
  -7.98999977       8.37425063E-08
  -7.98000002       8.49693649E-08
  -7.96999979       8.62802878E-08
  -7.96000004       8.76757795E-08
  -7.94999981       8.91561314E-08
  -7.94000006       9.07214286E-08
  -7.92999983       9.23713728E-08
  -7.92000008       9.41052960E-08
  -7.90999985       9.59222888E-08
  -7.90000010       9.78209727E-08
  -7.88999987       9.97995215E-08
  -7.88000011       1.01855932E-07
  -7.86999989       1.03987617E-07
  -7.86000013       1.06191962E-07
  -7.84999990       1.08465763E-07
  -7.84000015       1.10805871E-07
  -7.82999992       1.13208898E-07
  -7.82000017       1.15671277E-07
  -7.80999994       1.18189526E-07
  -7.80000019       1.20759765E-07
  -7.78999996       1.23378214E-07
  -7.78000021       1.26041158E-07
  -7.76999998       1.28744958E-07
  -7.76000023       1.31485891E-07
  -7.75000000       1.34260716E-07
  -7.73999977       1.37066351E-07
  -7.73000002       1.39900010E-07
  -7.71999979       1.42759134E-07
  -7.71000004       1.45641380E-07
  -7.69999981       1.48544501E-07
  -7.69000006       1.51466438E-07
  -7.67999983       1.54405328E-07
  -7.67000008       1.57359395E-07
  -7.65999985       1.60327104E-07
  -7.65000010       1.63307092E-07
  -7.63999987       1.66298307E-07
  -7.63000011       1.69299994E-07
  -7.61999989       1.72311672E-07
  -7.61000013       1.75333071E-07
  -7.59999990       1.78363976E-07
  -7.59000015       1.81404346E-07
  -7.57999992       1.84453995E-07
  -7.57000017       1.87512967E-07
  -7.55999994       1.90581261E-07
  -7.55000019       1.93658963E-07
  -7.53999996       1.96746072E-07
  -7.53000021       1.99843015E-07
  -7.51999998       2.02950105E-07
  -7.51000023       2.06067682E-07
  -7.50000000       2.09196372E-07
  -7.48999977       2.12336644E-07
  -7.48000002       2.15489209E-07
  -7.46999979       2.18654677E-07
  -7.46000004       2.21833687E-07
  -7.44999981       2.25026739E-07
  -7.44000006       2.28234555E-07