  -16.0000000       0.00000000    
  -15.9899998       0.00000000    
  -15.9799995       0.00000000    
  -15.9700003       0.00000000    
  -15.9600000       0.00000000    
  -15.9499998       0.00000000    
  -15.9399996       0.00000000    
  -15.9300003       0.00000000    
  -15.9200001       0.00000000    
  -15.9099998       0.00000000    
  -15.8999996       0.00000000    
  -15.8900003       0.00000000    
  -15.8800001      -7.00649232E-45
  -15.8699999      -7.90369664E-38
  -15.8599997      -1.51969899E-36
  -15.8500004      -1.53294207E-35
  -15.8400002      -1.09668733E-34
  -15.8299999      -6.30445447E-34
  -15.8199997      -3.08854492E-33
  -15.8100004      -1.31826358E-32
  -15.8000002      -4.91045103E-32
  -15.7900000      -1.58131638E-31
  -15.7799997      -4.31544054E-31
  -15.7700005      -9.54996249E-31
  -15.7600002      -1.49939684E-30
  -15.7500000      -5.40407150E-31
  -15.7399998       6.95803055E-30
  -15.7299995       3.31706164E-29
  -15.7200003       1.00819935E-28
  -15.7100000       2.40676171E-28
  -15.6999998       4.71595917E-28
  -15.6899996       7.47745719E-28
  -15.6800003       8.64858293E-28
  -15.6700001       3.47919750E-28
  -15.6599998      -1.59532837E-27
  -15.6499996      -5.88967096E-27
  -15.6400003      -1.29598692E-26
  -15.6300001      -2.15041233E-26
  -15.6199999      -2.68277265E-26
  -15.6099997      -1.94779587E-26
  -15.6000004       1.42970393E-26
  -15.5900002       8.81047560E-26
  -15.5799999       2.04926514E-25
  -15.5699997       3.40203291E-25
  -15.5600004       4.22026631E-25
  -15.5500002       3.18512180E-25
  -15.5400000      -1.49307753E-25
  -15.5299997      -1.14381488E-24
  -15.5200005      -2.67226099E-24
  -15.5100002      -4.36986382E-24
  -15.5000000      -5.25482377E-24
  -15.4899998      -3.60090430E-24
  -15.4799995       2.80679846E-24
  -15.4700003       1.56853679E-23
  -15.4600000       3.42770098E-23
  -15.4499998       5.25542480E-23
  -15.4399996       5.66810444E-23
  -15.4300003       2.50815595E-23
  -15.4200001      -6.54506660E-23
  -15.4099998      -2.24412651E-22
  -15.3999996      -4.22933297E-22
  -15.3900003      -5.66803805E-22
  -15.3800001      -4.84643425E-22
  -15.3699999       4.16437400E-23
  -15.3599997       1.17604919E-21
  -15.3500004       2.84808907E-21
  -15.3400002       4.53042257E-21
  -15.3299999       5.08344572E-21
  -15.3199997       2.84828113E-21
  -15.3100004      -3.80670699E-21
  -15.3000002      -1.53724344E-20
  -15.2900000      -2.96644739E-20
  -15.2799997      -4.04366112E-20
  -15.2700005      -3.71817750E-20
  -15.2600002      -7.41460387E-21
  -15.2500000       5.75770504E-20
  -15.2399998       1.53743731E-19
  -15.2299995       2.54434914E-19
  -15.2200003       3.04791085E-19
  -15.2100000       2.27485137E-19
  -15.1999998      -5.34280190E-20
  -15.1899996      -5.68171183E-19
  -15.1800003      -1.24380895E-18
  -15.1700001      -1.85409598E-18
  -15.1599998      -2.01041305E-18
  -15.1499996      -1.23233616E-18
  -15.1400003       8.74906763E-19
  -15.1300001       4.34274495E-18
  -15.1199999       8.52690945E-18
  -15.1099997       1.18915046E-17
  -15.1000004       1.20741478E-17
  -15.0900002       6.41424757E-18
  -15.0799999      -6.96729515E-18
  -15.0699997      -2.76517165E-17
  -15.0600004      -5.13767768E-17
  -15.0500002      -6.91823159E-17
  -15.0400000      -6.81502659E-17
  -15.0299997      -3.45386419E-17
  -15.0200005       4.04400065E-17
  -15.0100002       1.52981588E-16
  -15.0000000       2.79393262E-16
  -14.9899998       3.72673506E-16
  -14.9799995       3.67193521E-16
  -14.9700003       1.94956875E-16
  -14.9600000      -1.85910735E-16
  -14.9499998      -7.54666969E-16
  -14.9399996      -1.39426345E-15
  -14.9300003      -1.87688377E-15
  -14.9200001      -1.88794221E-15
  -14.9099998      -1.10346487E-15
  -14.8999996       6.77453140E-16
  -14.8900003       3.36617267E-15
  -14.8800001       6.43317500E-15
  -14.8699999       8.84606905E-15
  -14.8599997       9.17966366E-15
  -14.8500004       5.96141788E-15
  -14.8400002      -1.74705479E-15
  -14.8299999      -1.36282993E-14
  -14.8199997      -2.74625141E-14
  -14.8100004      -3.88695695E-14
  -14.8000002      -4.17828241E-14
  -14.7900000      -2.98923890E-14
  -14.7799997       9.52200770E-16
  -14.7700005       4.98085900E-14
  -14.7600002       1.08048451E-13
  -14.7500000       1.58359640E-13
  -14.7399998       1.76635589E-13
  -14.7299995       1.37617131E-13
  -14.7200003       2.41327378E-14
  -14.7100000      -1.61791506E-13
  -14.6999998      -3.89257528E-13
  -14.6899996      -5.94876633E-13
  -14.6800003      -6.89741721E-13
  -14.6700001      -5.79848994E-13
  -14.6599998      -1.98970235E-13
  -14.6499996       4.52244308E-13
  -14.6400003       1.27279719E-12
  -14.6300001       2.04884525E-12
  -14.6199999       2.47722806E-12
  -14.6099997       2.23340010E-12
  -14.6000004       1.07959008E-12
  -14.5900002      -1.00807166E-12
  -14.5799999      -3.73135030E-12
  -14.5699997      -6.42899145E-12
  -14.5600004      -8.14797101E-12
  -14.5500002      -7.85076518E-12
  -14.5400000      -4.74307789E-12
  -14.5299997       1.34300535E-12
  -14.5200005       9.62317986E-12
  -14.5100002       1.82318900E-11
  -14.5000000       2.44150984E-11
  -14.4899998       2.51077457E-11
  -14.4799995       1.78487052E-11
  -14.4700003       1.84922390E-12
  -14.4600000      -2.10926242E-11
  -14.4499998      -4.62016606E-11
  -14.4399996      -6.61855501E-11
  -14.4300003      -7.27047658E-11
  -14.4200001      -5.87176002E-11
  -14.4099998      -2.12361292E-11
  -14.3999996       3.62832056E-11
  -14.3900003       1.02827268E-10
  -14.3800001       1.60782415E-10
  -14.3699999       1.89330218E-10
  -14.3599997       1.69981265E-10
  -14.3500004       9.31243416E-11
  -14.3400002      -3.61793408E-11
  -14.3299999      -1.95243821E-10
  -14.3199997      -3.45440621E-10
  -14.3100004      -4.39352971E-10
  -14.3000002      -4.32709979E-10
  -14.2900000      -2.98746389E-10
  -14.2799997      -4.11599990E-11
  -14.2700005       2.98741448E-10
  -14.2600002       6.44425902E-10
  -14.2500000       8.97820263E-10
  -14.2399998       9.62994795E-10
  -14.2299995       7.75002063E-10
  -14.2200003       3.26506155E-10
  -14.2100000      -3.16562249E-10
  -14.1999998      -1.01747966E-09
  -14.1899996      -1.59281099E-09
  -14.1800003      -1.85547844E-09
  -14.1700001      -1.66819147E-09
  -14.1599998      -9.93356397E-10
  -14.1499996       7.62320207E-11
  -14.1400003       1.31883993E-09
  -14.1300001       2.42329423E-09
  -14.1199999       3.06215675E-09
  -14.1099997       2.98304337E-09
  -14.1000004       2.09423745E-09
  -14.0900002       5.18221854E-10
  -14.0799999      -1.40862777E-09
  -14.0699997      -3.19936588E-09
  -14.0600004      -4.33458158E-09
  -14.0500002      -4.40923165E-09
  -14.0400000      -3.26896199E-09
  -14.0299997      -1.09325649E-09
  -14.0200005       1.60823943E-09
  -14.0100002       4.09923562E-09
  -14.0000000       5.60466829E-09
  -13.9899998       5.54006840E-09
  -13.9799995       3.71941900E-09
  -13.9700003       4.74626560E-10
  -13.9600000      -3.36327122E-09
  -13.9499998      -6.63929134E-09
  -13.9399996      -8.17749068E-09
  -13.9300003      -7.14267134E-09
  -13.9200001      -3.36060957E-09
  -13.9099998       2.50626231E-09
  -13.8999996       9.00476671E-09
  -13.8900003       1.41830157E-08
  -13.8800001       1.60840692E-08
  -13.8699999       1.33306566E-08
  -13.8599997       5.64725866E-09
  -13.8500004      -5.84420778E-09
  -13.8400002      -1.86756299E-08
  -13.8299999      -2.94767784E-08
  -13.8199997      -3.47503182E-08
  -13.8100004      -3.18192264E-08
  -13.8000002      -1.97093417E-08
  -13.7900000       2.81061369E-10
  -13.7799997       2.45301184E-08
  -13.7700005       4.76512625E-08
  -13.7600002       6.36054267E-08
  -13.7500000       6.71535716E-08
  -13.7399998       5.53174289E-08
  -13.7299995       2.84714492E-08
  -13.7200003      -9.26917387E-09
  -13.7100000      -5.05554993E-08
  -13.6999998      -8.61922160E-08
  -13.6899996      -1.07163807E-07
  -13.6800003      -1.06864540E-07
  -13.6700001      -8.29883646E-08
  -13.6599998      -3.85650694E-08
  -13.6499996       1.82145907E-08
  -13.6400003       7.54781979E-08
  -13.6300001       1.20220136E-07
  -13.6199999       1.41382614E-07
  -13.6099997       1.32746379E-07
  -13.6000004       9.48705789E-08
  -13.5900002       3.54868455E-08
  -13.5799999      -3.19075255E-08
  -13.5699997      -9.10748668E-08
  -13.5600004      -1.27047954E-07
  -13.5500002      -1.30179018E-07
  -13.5400000      -9.91428166E-08
  -13.5299997      -4.19890895E-08
  -13.5200005       2.52543533E-08
  -13.5100002       8.23212645E-08
  -13.5000000       1.10041960E-07
  -13.4899998       9.59994040E-08
  -13.4799995       3.89850854E-08
  -13.4700003      -4.91058216E-08
  -13.4600000      -1.44816397E-07
  -13.4499998      -2.18126885E-07
  -13.4399996      -2.39999792E-07
  -13.4300003      -1.90790004E-07
  -13.4200001      -6.73064235E-08
  -13.4099998       1.13515050E-07
  -13.3999996       3.15819989E-07
  -13.3900003       4.91242304E-07
  -13.3800001       5.89532135E-07
  -13.3699999       5.71170290E-07
  -13.3599997       4.18943415E-07
  -13.3500004       1.45377768E-07
  -13.3400002      -2.06367744E-07
  -13.3299999      -5.69156953E-07
  -13.3199997      -8.65176332E-07
  -13.3100004      -1.02329705E-06
  -13.3000002      -9.96495260E-07
  -13.2900000      -7.75003741E-07
  -13.2799997      -3.91517801E-07
  -13.2700005       8.35198932E-08
  -13.2600002       5.56194038E-07
  -13.2500000       9.30044905E-07
  -13.2399998       1.12893497E-06
  -13.2299995       1.11603595E-06
  -13.2200003       9.03982141E-07
  -13.2100000       5.52773201E-07
  -13.1999998       1.55288163E-07
  -13.1899996      -1.86703758E-07
  -13.1800003      -3.90272419E-07
  -13.1700001      -4.15621116E-07
  -13.1599998      -2.80002524E-07
  -13.1499996      -5.64857991E-08
  -13.1400003       1.43546302E-07
  -13.1300001       2.01031995E-07
  -13.1199999       2.59527067E-08
  -13.1099997      -4.09291772E-07
  -13.1000004      -1.04948322E-06
  -13.0900002      -1.75649870E-06
  -13.0799999      -2.33227684E-06
  -13.0699997      -2.56197245E-06
  -13.0600004      -2.26874272E-06
  -13.0500002      -1.36755489E-06
  -13.0400000       9.56935864E-08
  -13.0299997       1.93171036E-06
  -13.0200005       3.82838243E-06
  -13.0100002       5.40363499E-06
  -13.0000000       6.28160660E-06
  -12.9899998       6.17697879E-06
  -12.9799995       4.96831444E-06
  -12.9700003       2.74249487E-06
  -12.9600000      -2.02683736E-07
  -12.9499998      -3.40193264E-06
  -12.9399996      -6.30571594E-06
  -12.9300003      -8.38742471E-06
  -12.9200001      -9.25168206E-06
  -12.9099998      -8.71995326E-06
  -12.8999996      -6.87247575E-06
  -12.8900003      -4.03569038E-06
  -12.8800001      -7.15527221E-07
  -12.8699999       2.50965081E-06
  -12.8599997       5.11290818E-06
  -12.8500004       6.73102977E-06
  -12.8400002       7.23800576E-06
  -12.8299999       6.76153059E-06
  -12.8199997       5.63707317E-06
  -12.8100004       4.30943692E-06
  -12.8000002       3.20532604E-06
  -12.7900000       2.60891329E-06
  -12.7799997       2.57298393E-06
  -12.7700005       2.89144396E-06
  -12.7600002       3.14444310E-06
  -12.7500000       2.80981908E-06
  -12.7399998       1.41664668E-06
  -12.7299995      -1.29566706E-06
  -12.7200003      -5.25416772E-06
  -12.7100000      -1.00006600E-05
  -12.6999998      -1.47327983E-05
  -12.6899996      -1.84381079E-05
  -12.6800003      -2.00983304E-05
  -12.6700001      -1.89225084E-05
  -12.6599998      -1.45573013E-05
  -12.6499996      -7.22295681E-06
  -12.6400003       2.26196948E-06
  -12.6300001       1.25822617E-05
  -12.6199999       2.21409828E-05
  -12.6099997       2.93481808E-05
  -12.6000004       3.29255163E-05
  -12.5900002       3.21618973E-05
  -12.5799999       2.70637811E-05
  -12.5699997       1.83651628E-05
  -12.5600004       7.39182224E-06
  -12.5500002      -4.19284743E-06
  -12.5400000      -1.47065675E-05
  -12.5299997      -2.27620385E-05
  -12.5200005      -2.75078528E-05
  -12.5100002      -2.87441981E-05
  -12.5000000      -2.68906497E-05
  -12.4899998      -2.28178869E-05
  -12.4799995      -1.75878995E-05
  -12.4700003      -1.21692492E-05
  -12.4600000      -7.19998343E-06
  -12.4499998      -2.85939814E-06
  -12.4399996       1.11743498E-06
  -12.4300003       5.28494775E-06
  -12.4200001       1.02317463E-05
  -12.4099998       1.62912911E-05
  -12.3999996       2.32990878E-05
  -12.3900003       3.04672685E-05
  -12.3800001       3.64227162E-05
  -12.3699999       3.94153212E-05
  -12.3599997       3.76601856E-05
  -12.3500004       2.97418010E-05
  -12.3400002       1.49881535E-05
  -12.3299999      -6.27686450E-06
  -12.3199997      -3.26700501E-05
  -12.3100004      -6.19017519E-05
  -12.3000002      -9.11235256E-05
  -12.2900000      -1.17403397E-04
  -12.2799997      -1.38229574E-04
  -12.2700005      -1.51934146E-04
  -12.2600002      -1.57945105E-04
  -12.2500000      -1.56809227E-04
  -12.2399998      -1.49983520E-04
  -12.2299995      -1.39444644E-04
  -12.2200003      -1.27204039E-04
  -12.2100000      -1.14847535E-04
  -12.1999998      -1.03200895E-04
  -12.1899996      -9.22054242E-05
  -12.1800003      -8.10255151E-05
  -12.1700001      -6.83641483E-05
  -12.1599998      -5.29045574E-05
  -12.1499996      -3.37646597E-05
  -12.1400003      -1.08493186E-05
  -12.1300001       1.49961788E-05
  -12.1199999       4.20830620E-05
  -12.1099997       6.82123864E-05
  -12.1000004       9.11779862E-05
  -12.0900002       1.09323781E-04
  -12.0799999       1.22026788E-04
  -12.0699997       1.29980006E-04
  -12.0600004       1.35202616E-04
  -12.0500002       1.40749456E-04
  -12.0400000       1.50173568E-04
  -12.0299997       1.66841346E-04
  -12.0200005       1.93240732E-04
  -12.0100002       2.30428748E-04
  -12.0000000       2.77733750E-04
  -11.9899998       3.32782103E-04
  -11.9799995       3.91834474E-04
  -11.9700003       4.50377323E-04
  -11.9600000       5.03838295E-04
  -11.9499998       5.48279320E-04
  -11.9399996       5.80933178E-04
  -11.9300003       6.00478088E-04
  -11.9200001       6.07010268E-04
  -11.9099998       6.01737585E-04
  -11.8999996       5.86479728E-04
  -11.8900003       5.63098234E-04
  -11.8800001       5.32995269E-04
  -11.8699999       4.96787892E-04
  -11.8599997       4.54241381E-04
  -11.8500004       4.04457649E-04
  -11.8400002       3.46275687E-04
  -11.8299999       2.78773980E-04
  -11.8199997       2.01760471E-04
  -11.8100004       1.16115509E-04
  -11.8000002       2.39030778E-05
  -11.7900000      -7.17850053E-05
  -11.7799997      -1.67233113E-04
  -11.7700005      -2.58671585E-04
  -11.7600002      -3.42898100E-04
  -11.7500000      -4.17817238E-04
  -11.7399998      -4.82791249E-04
  -11.7299995      -5.38721157E-04
  -11.7200003      -5.87849237E-04
  -11.7100000      -6.33324729E-04
  -11.6999998      -6.78610930E-04
  -11.6899996      -7.26871658E-04
  -11.6800003      -7.80433416E-04
  -11.6700001      -8.40447203E-04
  -11.6599998      -9.06767440E-04
  -11.6499996      -9.78091382E-04
  -11.6400003      -1.05227111E-03
  -11.6300001      -1.12673966E-03
  -11.6199999      -1.19893765E-03
  -11.6099997      -1.26665644E-03
  -11.6000004      -1.32822292E-03
  -11.5900002      -1.38251600E-03
  -11.5799999      -1.42881658E-03
  -11.5699997      -1.46656833E-03
  -11.5600004      -1.49509951E-03
  -11.5500002      -1.51340954E-03
  -11.5400000      -1.52005965E-03
  -11.5299997      -1.51320745E-03
  -11.5200005      -1.49077864E-03
  -11.5100002      -1.45073223E-03
  -11.5000000      -1.39136182E-03
  -11.4899998      -1.31157460E-03
  -11.4799995      -1.21107604E-03
  -11.4700003      -1.09043776E-03
  -11.4600000      -9.51036636E-04
  -11.4499998      -7.94887077E-04
  -11.4399996      -6.24410517E-04
  -11.4300003      -4.42165474E-04
  -11.4200001      -2.50625366E-04
  -11.4099998      -5.19878413E-05
  -11.3999996       1.51936430E-04
  -11.3900003       3.59775440E-04
  -11.3800001       5.70613658E-04
  -11.3699999       7.83953408E-04
  -11.3599997       9.99696436E-04
  -11.3500004       1.21809542E-03
  -11.3400002       1.43971702E-03
  -11.3299999       1.66536716E-03
  -11.3199997       1.89600850E-03
  -11.3100004       2.13263300E-03
  -11.3000002       2.37611565E-03
  -11.2900000       2.62706401E-03
  -11.2799997       2.88565969E-03
  -11.2700005       3.15157068E-03
  -11.2600002       3.42391361E-03
  -11.2500000       3.70129431E-03
  -11.2399998       3.98191251E-03
  -11.2299995       4.26371815E-03
  -11.2200003       4.54460131E-03
  -11.2100000       4.82252846E-03
  -11.1999998       5.09569515E-03
  -11.1899996       5.36257122E-03
  -11.1800003       5.62193803E-03
  -11.1700001       5.87283773E-03
  -11.1599998       6.11454993E-03
  -11.1499996       6.34653540E-03
  -11.1400003       6.56840438E-03
  -11.1300001       6.77990168E-03
  -11.1199999       6.98091229E-03
  -11.1099997       7.17146881E-03
  -11.1000004       7.35172909E-03
  -11.0900002       7.52196880E-03
  -11.0799999       7.68252322E-03
  -11.0699997       7.83375930E-03
  -11.0600004       7.97604024E-03
  -11.0500002       8.10973719E-03
  -11.0400000       8.23527202E-03
  -11.0299997       8.35323334E-03
  -11.0200005       8.46448727E-03
  -11.0100002       8.57028458E-03
  -11.0000000       8.67234543E-03
  -10.9899998       8.77286028E-03
  -10.9799995       8.87440890E-03
  -10.9700003       8.97976756E-03
  -10.9600000       9.09171440E-03
  -10.9499998       9.21276398E-03
  -10.9399996       9.34496988E-03
  -10.9300003       9.48980357E-03
  -10.9200001       9.64813307E-03
  -10.9099998       9.82032157E-03
  -10.8999996       1.00064194E-02
  -10.8900003       1.02063566E-02
  -10.8800001       1.04201622E-02
  -10.8699999       1.06480625E-02
  -10.8599997       1.08904997E-02
  -10.8500004       1.11480011E-02
  -10.8400002       1.14209577E-02
  -10.8299999       1.17093194E-02
  -10.8199997       1.20123615E-02
  -10.8100004       1.23284776E-02
  -10.8000002       1.26550961E-02
  -10.7900000       1.29888272E-02
  -10.7799997       1.33256447E-02
  -10.7700005       1.36613185E-02
  -10.7600002       1.39917601E-02
  -10.7500000       1.43134641E-02
  -10.7399998       1.46237835E-02
  -10.7299995       1.49210654E-02
  -10.7200003       1.52046960E-02
  -10.7100000       1.54749257E-02
  -10.6999998       1.57325957E-02
  -10.6899996       1.59788541E-02
  -10.6800003       1.62148327E-02
  -10.6700001       1.64413955E-02
  -10.6599998       1.66590158E-02
  -10.6499996       1.68677028E-02
  -10.6400003       1.70671213E-02
  -10.6300001       1.72567461E-02
  -10.6199999       1.74360052E-02
  -10.6099997       1.76045746E-02
  -10.6000004       1.77624952E-02
  -10.5900002       1.79102998E-02
  -10.5799999       1.80490650E-02
  -10.5699997       1.81803741E-02
  -10.5600004       1.83061548E-02
  -10.5500002       1.84285957E-02
  -10.5400000       1.85498353E-02
  -10.5299997       1.86718591E-02
  -10.5200005       1.87962186E-02
  -10.5100002       1.89239252E-02
  -10.5000000       1.90553647E-02
  -10.4899998       1.91903058E-02
  -10.4799995       1.93279441E-02
  -10.4700003       1.94671135E-02
  -10.4600000       1.96064059E-02
  -10.4499998       1.97444391E-02
  -10.4399996       1.98800210E-02
  -10.4300003       2.00122744E-02
  -10.4200001       2.01407000E-02
  -10.4099998       2.02651750E-02
  -10.3999996       2.03858260E-02
  -10.3900003       2.05029268E-02
  -10.3800001       2.06167046E-02
  -10.3699999       2.07272246E-02
  -10.3599997       2.08343267E-02
  -10.3500004       2.09375266E-02
  -10.3400002       2.10361965E-02
  -10.3299999       2.11295225E-02
  -10.3199997       2.12166719E-02
  -10.3100004       2.12969482E-02
  -10.3000002       2.13698149E-02
  -10.2900000       2.14349758E-02
  -10.2799997       2.14924049E-02
  -10.2700005       2.15422865E-02
  -10.2600002       2.15849932E-02
  -10.2500000       2.16210801E-02
  -10.2399998       2.16513406E-02
  -10.2299995       2.16768421E-02
  -10.2200003       2.16990728E-02
  -10.2100000       2.17199847E-02
  -10.1999998       2.17421483E-02
  -10.1899996       2.17687953E-02
  -10.1800003       2.18037274E-02
  -10.1700001       2.18512081E-02
  -10.1599998       2.19156984E-02
  -10.1499996       2.20015571E-02
  -10.1400003       2.21127104E-02
  -10.1300001       2.22523175E-02
  -10.1199999       2.24225018E-02
  -10.1099997       2.26241816E-02
  -10.1000004       2.28571631E-02
  -10.0900002       2.31201686E-02
  -10.0799999       2.34110933E-02
  -10.0699997       2.37274021E-02
  -10.0600004       2.40665227E-02
  -10.0500002       2.44260188E-02
  -10.0400000       2.48041078E-02
  -10.0299997       2.51995884E-02
  -10.0200005       2.56119799E-02
  -10.0100002       2.60413792E-02
  -10.0000000       2.64882538E-02
  -9.98999977       2.69531198E-02
  -9.97999954       2.74363756E-02
  -9.97000027       2.79380437E-02
  -9.96000004       2.84576062E-02
  -9.94999981       2.89940313E-02
  -9.93999958       2.95458827E-02
  -9.93000031       3.01114712E-02
  -9.92000008       3.06890830E-02
  -9.90999985       3.12772468E-02
  -9.89999962       3.18749025E-02
  -9.89000034       3.24816443E-02
  -9.88000011       3.30977067E-02
  -9.86999989       3.37240547E-02
  -9.85999966       3.43624167E-02
  -9.85000038       3.50150727E-02
  -9.84000015       3.56848799E-02
  -9.82999992       3.63752022E-02
  -9.81999969       3.70896049E-02
  -9.81000042       3.78320441E-02
  -9.80000019       3.86066139E-02
  -9.78999996       3.94174568E-02
  -9.77999973       4.02686596E-02
  -9.77000046       4.11642604E-02
  -9.76000023       4.21079136E-02
  -9.75000000       4.31029089E-02
  -9.73999977       4.41520214E-02
  -9.72999954       4.52572964E-02
  -9.72000027       4.64200154E-02
  -9.71000004       4.76405732E-02
  -9.69999981       4.89184745E-02
  -9.68999958       5.02523258E-02
  -9.68000031       5.16399108E-02
  -9.67000008       5.30784056E-02
  -9.65999985       5.45643829E-02
  -9.64999962       5.60941361E-02
  -9.64000034       5.76634705E-02
  -9.63000011       5.92679642E-02
  -9.61999989       6.09026663E-02
  -9.60999966       6.25618622E-02
  -9.60000038       6.42388538E-02
  -9.59000015       6.59255311E-02
  -9.57999992       6.76124245E-02
  -9.56999969       6.92883059E-02
  -9.56000042       7.09407479E-02
  -9.55000019       7.25561380E-02
  -9.53999996       7.41205066E-02
  -9.52999973       7.56199732E-02
  -9.52000046       7.70415962E-02
  -9.51000023       7.83737525E-02
  -9.50000000       7.96069130E-02
  -9.48999977       8.07336643E-02
  -9.47999954       8.17488581E-02
  -9.47000027       8.26496407E-02
  -9.46000004       8.34353641E-02
  -9.44999981       8.41070265E-02
  -9.43999958       8.46675485E-02
  -9.43000031       8.51210877E-02
  -9.42000008       8.54729190E-02
  -9.40999985       8.57292935E-02
  -9.39999962       8.58970955E-02
  -9.39000034       8.59835297E-02
  -9.38000011       8.59961510E-02
  -9.36999989       8.59427005E-02
  -9.35999966       8.58315080E-02
  -9.35000038       8.56711715E-02
  -9.34000015       8.54713097E-02
  -9.32999992       8.52429345E-02
  -9.31999969       8.49986374E-02
  -9.31000042       8.47531855E-02
  -9.30000019       8.45231265E-02
  -9.28999996       8.43270719E-02
  -9.27999973       8.41852501E-02
  -9.27000046       8.41186643E-02
  -9.26000023       8.41487721E-02
  -9.25000000       8.42964426E-02
  -9.23999977       8.45815167E-02
  -9.22999954       8.50219801E-02
  -9.22000027       8.56333002E-02
  -9.21000004       8.64286199E-02
  -9.19999981       8.74182135E-02
  -9.18999958       8.86097625E-02
  -9.18000031       9.00086686E-02
  -9.17000008       9.16183144E-02
  -9.15999985       9.34402719E-02
  -9.14999962       9.54751745E-02
  -9.14000034       9.77221057E-02
  -9.13000011      0.100179635    
  -9.11999989      0.102845006    
  -9.10999966      0.105714709    
  -9.10000038      0.108783670    
  -9.09000015      0.112045318    
  -9.07999992      0.115491003    
  -9.06999969      0.119110346    
  -9.06000042      0.122890413    
  -9.05000019      0.126815885    
  -9.03999996      0.130869061    
  -9.02999973      0.135029793    
  -9.02000046      0.139275253    
  -9.01000023      0.143580407    
  -9.00000000      0.147918597    
  -8.98999977      0.152261198    
  -8.97999954      0.156579360    
  -8.97000027      0.160844296    
  -8.96000004      0.165028185    
  -8.94999981      0.169104636    
  -8.93999958      0.173049793    
  -8.93000031      0.176841438    
  -8.92000008      0.180459678    
  -8.90999985      0.183885768    
  -8.89999962      0.187101722    
  -8.89000034      0.190090403    
  -8.88000011      0.192834631    
  -8.86999989      0.195317924    
  -8.85999966      0.197524607    
  -8.85000038      0.199440762    
  -8.84000015      0.201054826    
  -8.82999992      0.202357680    
  -8.81999969      0.203343123    
  -8.81000042      0.204007640    
  -8.80000019      0.204350024    
  -8.78999996      0.204370886    
  -8.77999973      0.204072759    
  -8.77000046      0.203459427    
  -8.76000023      0.202537313    
  -8.75000000      0.201314837    
  -8.73999977      0.199803516    
  -8.72999954      0.198018089    
  -8.72000027      0.195975974    
  -8.71000004      0.193696976    
  -8.69999981      0.191202849    
  -8.68999958      0.188515499    
  -8.68000031      0.185657501    
  -8.67000008      0.182650879    
  -8.65999985      0.179517657    
  -8.64999962      0.176279217    
  -8.64000034      0.172958314    
  -8.63000011      0.169577673    
  -8.61999989      0.166160911    
  -8.60999966      0.162732050    
  -8.60000038      0.159314185    
  -8.59000015      0.155930012    
  -8.57999992      0.152600154    
  -8.56999969      0.149343416    
  -8.56000042      0.146177039    
  -8.55000019      0.143116161    
  -8.53999996      0.140175745    
  -8.52999973      0.137369633    
  -8.52000046      0.134711027    
  -8.51000023      0.132212579    
  -8.50000000      0.129884988    
  -8.48999977      0.127737105    
  -8.47999954      0.125774652    
  -8.47000027      0.124001279    
  -8.46000004      0.122417592    
  -8.44999981      0.121022835    
  -8.43999958      0.119815737    
  -8.43000031      0.118794546    
  -8.42000008      0.117957883    
  -8.40999985      0.117304578    
  -8.39999962      0.116831921    
  -8.39000034      0.116536327    
  -8.38000011      0.116411678    
  -8.36999989      0.116449103    
  -8.35999966      0.116637476    
  -8.35000038      0.116964065    
  -8.34000015      0.117415421    
  -8.32999992      0.117979676    
  -8.31999969      0.118646227    
  -8.31000042      0.119406678    
  -8.30000019      0.120255440    
  -8.28999996      0.121188462    
  -8.27999973      0.122203343    
  -8.27000046      0.123297356    
  -8.26000023      0.124468639    
  -8.25000000      0.125714749    
  -8.23999977      0.127034888    
  -8.22999954      0.128427580    
  -8.22000027      0.129893348    
  -8.21000004      0.131433219    
  -8.19999981      0.133049369    
  -8.18999958      0.134744644    
  -8.18000031      0.136521831    
  -8.17000008      0.138384938    
  -8.15999985      0.140337735    
  -8.14999962      0.142385572    
  -8.14000034      0.144535780    
  -8.13000011      0.146797135    
  -8.11999989      0.149180666    
  -8.10999966      0.151699692    
  -8.10000038      0.154368013    
  -8.09000015      0.157200634    
  -8.07999992      0.160211682    
  -8.06999969      0.163414255    
  -8.06000042      0.166821435    
  -8.05000019      0.170443773    
  -8.03999996      0.174292386    
  -8.02999973      0.178377047    
  -8.02000046      0.182707086    
  -8.01000023      0.187290132    
  -8.00000000      0.192132518    
  -7.98999977      0.197238326    
  -7.98000002      0.202608541    
  -7.96999979      0.208241522    
  -7.96000004      0.214134276    
  -7.94999981      0.220281914    
  -7.94000006      0.226678714    
  -7.92999983      0.233319044    
  -7.92000008      0.240196347    
  -7.90999985      0.247304261    
  -7.90000010      0.254633248    
  -7.88999987      0.262171805    
  -7.88000011      0.269904941    
  -7.86999989      0.277814478    
  -7.86000013      0.285879046    
  -7.84999990      0.294075578    
  -7.84000015      0.302379757    
  -7.82999992      0.310768723    
  -7.82000017      0.319219828    
  -7.80999994      0.327711463    
  -7.80000019      0.336223245    
  -7.78999996      0.344734520    
  -7.78000021      0.353224665    
  -7.76999998      0.361672878    
  -7.76000023      0.370057702    
  -7.75000000      0.378360242    
  -7.73999977      0.386562079    
  -7.73000002      0.394648552    
  -7.71999979      0.402607620    
  -7.71000004      0.410429627    
  -7.69999981      0.418107092    
  -7.69000006      0.425633281    
  -7.67999983      0.433003336    
  -7.67000008      0.440211207    
  -7.65999985      0.447251409    
  -7.65000010      0.454121381    
  -7.63999987      0.460819125    
  -7.63000011      0.467345119    
  -7.61999989      0.473704010    
  -7.61000013      0.479901016    
  -7.59999990      0.485944629    
  -7.59000015      0.491842687    
  -7.57999992      0.497604579    
  -7.57000017      0.503238320    
  -7.55999994      0.508752406    
  -7.55000019      0.514155805    
  -7.53999996      0.519459188    
  -7.53000021      0.524675429    
  -7.51999998      0.529818773    
  -7.51000023      0.534906864    
  -7.50000000      0.539956927    
  -7.48999977      0.544987798    
  -7.48000002      0.550016403    
  -7.46999979      0.555059731    
  -7.46000004      0.560133159    
  -7.44999981      0.565251291    
  -7.44000006      0.570428908    