  -16.0000000       0.00000000    
  -15.9899998       0.00000000    
  -15.9799995       0.00000000    
  -15.9700003       0.00000000    
  -15.9600000       0.00000000    
  -15.9499998       0.00000000    
  -15.9399996       0.00000000    
  -15.9300003       0.00000000    
  -15.9200001       0.00000000    
  -15.9099998       0.00000000    
  -15.8999996       0.00000000    
  -15.8900003      -0.00000000    
  -15.8800001       0.00000000    
  -15.8699999       0.00000000    
  -15.8599997       0.00000000    
  -15.8500004       5.60519386E-45
  -15.8400002       5.32493416E-44
  -15.8299999       3.96567465E-43
  -15.8199997       2.44946972E-42
  -15.8100004       1.27616251E-41
  -15.8000002       5.76283993E-41
  -15.7900000       2.29559313E-40
  -15.7799997       8.17025668E-40
  -15.7700005       2.62274307E-39
  -15.7600002       7.64701324E-39
  -15.7500000       2.03543170E-38
  -15.7399998       4.96300399E-38
  -15.7299995       1.11063105E-37
  -15.7200003       2.28144260E-37
  -15.7100000       4.29363903E-37
  -15.6999998       7.36660092E-37
  -15.6899996       1.14078798E-36
  -15.6800003       1.56324193E-36
  -15.6700001       1.81415929E-36
  -15.6599998       1.56990377E-36
  -15.6499996       4.05696981E-37
  -15.6400003      -2.08462828E-36
  -15.6300001      -6.08169166E-36
  -15.6199999      -1.13070338E-35
  -15.6099997      -1.68868287E-35
  -15.6000004      -2.14490181E-35
  -15.5900002      -2.34804451E-35
  -15.5799999      -2.17331270E-35
  -15.5699997      -1.51995523E-35
  -15.5600004      -2.13290541E-36
  -15.5500002       2.18909965E-35
  -15.5400000       6.56461708E-35
  -15.5299997       1.40790152E-34
  -15.5200005       2.53489273E-34
  -15.5100002       3.86780069E-34
  -15.5000000       4.76740836E-34
  -15.4899998       3.94879180E-34
  -15.4799995      -4.04277131E-35
  -15.4700003      -9.95878998E-34
  -15.4600000      -2.48099470E-33
  -15.4499998      -4.14724913E-33
  -15.4399996      -5.10155548E-33
  -15.4300003      -3.87671168E-33
  -15.4200001       1.24879184E-33
  -15.4099998       1.14087927E-32
  -15.3999996       2.57622341E-32
  -15.3900003       3.98577338E-32
  -15.3800001       4.45179547E-32
  -15.3699999       2.64990016E-32
  -15.3599997      -2.76240732E-32
  -15.3500004      -1.23409815E-31
  -15.3400002      -2.47054941E-31
  -15.3299999      -3.54039385E-31
  -15.3199997      -3.64945457E-31
  -15.3100004      -1.77831101E-31
  -15.3000002       2.94745569E-31
  -15.2900000       1.06339930E-30
  -15.2799997       1.98775587E-30
  -15.2700005       2.72158050E-30
  -15.2600002       2.72184626E-30
  -15.2500000       1.36430649E-30
  -15.2399998      -1.81789825E-30
  -15.2299995      -6.80585876E-30
  -15.2200003      -1.27685905E-29
  -15.2100000      -1.78702962E-29
  -15.1999998      -1.93372770E-29
  -15.1899996      -1.38555553E-29
  -15.1800003       1.69808923E-30
  -15.1700001       2.92017713E-29
  -15.1599998       6.78410027E-29
  -15.1499996       1.12072090E-28
  -15.1400003       1.48882100E-28
  -15.1300001       1.54885994E-28
  -15.1199999       9.53107341E-29
  -15.1099997      -7.09277147E-29
  -15.1000004      -3.74328944E-28
  -15.0900002      -8.01757462E-28
  -15.0799999      -1.25007462E-27
  -15.0699997      -1.48351543E-27
  -15.0600004      -1.13042275E-27
  -15.0500002       2.31546733E-28
  -15.0400000       2.85990023E-27
  -15.0299997       6.50477831E-27
  -15.0200005       1.00333531E-26
  -15.0100002       1.12343122E-26
  -15.0000000       7.11054106E-27
  -14.9899998      -5.04783812E-27
  -14.9799995      -2.57384113E-26
  -14.9700003      -5.08681794E-26
  -14.9600000      -6.99665820E-26
  -14.9499998      -6.66060469E-26
  -14.9399996      -2.27248162E-26
  -14.9300003       7.23289924E-26
  -14.9200001       2.09316772E-25
  -14.9099998       3.47550249E-25
  -14.8999996       4.11643398E-25
  -14.8900003       3.05143601E-25
  -14.8800001      -5.31650958E-26
  -14.8699999      -6.72685656E-25
  -14.8599997      -1.42964019E-24
  -14.8500004      -2.03071651E-24
  -14.8400002      -2.04013058E-24
  -14.8299999      -1.00254281E-24
  -14.8199997       1.33339285E-24
  -14.8100004       4.73582034E-24
  -14.8000002       8.26056801E-24
  -14.7900000       1.02253121E-23
  -14.7799997       8.54058839E-24
  -14.7700005       1.47309598E-24
  -14.7600002      -1.12513653E-23
  -14.7500000      -2.73289627E-23
  -14.7399998      -4.12850165E-23
  -14.7299995      -4.50376594E-23
  -14.7200003      -3.00831065E-23
  -14.7100000       8.72814480E-24
  -14.6999998       6.86369635E-23
  -14.6899996       1.35324305E-22
  -14.6800003       1.82427682E-22
  -14.6700001       1.76352632E-22
  -14.6599998       8.72888349E-23
  -14.6499996      -9.49997420E-23
  -14.6400003      -3.45046346E-22
  -14.6300001      -5.92327204E-22
  -14.6199999      -7.26703008E-22
  -14.6099997      -6.24486476E-22
  -14.6000004      -1.94966670E-22
  -14.5900002       5.61911404E-22
  -14.5799999       1.50586645E-21
  -14.5699997       2.34037527E-21
  -14.5600004       2.65512718E-21
  -14.5500002       2.03902303E-21
  -14.5400000       2.52026620E-22
  -14.5299997      -2.58660165E-21
  -14.5200005      -5.86416690E-21
  -14.5100002      -8.47690249E-21
  -14.5000000      -9.03469202E-21
  -14.4899998      -6.28218270E-21
  -14.4799995       3.31432147E-22
  -14.4700003       1.00936633E-20
  -14.4600000       2.07101372E-20
  -14.4499998       2.84633915E-20
  -14.4399996       2.90036955E-20
  -14.4300003       1.87455525E-20
  -14.4200001      -3.40537535E-21
  -14.4099998      -3.45184538E-20
  -14.3999996      -6.69704811E-20
  -14.3900003      -8.92694480E-20
  -14.3800001      -8.86877139E-20
  -14.3699999      -5.54670548E-20
  -14.3599997       1.23292587E-20
  -14.3500004       1.04855793E-19
  -14.3400002       1.99234632E-19
  -14.3299999       2.62545291E-19
  -14.3199997       2.59626145E-19
  -14.3100004       1.64721968E-19
  -14.3000002      -2.57351560E-20
  -14.2900000      -2.83340999E-19
  -14.2799997      -5.45502091E-19
  -14.2700005      -7.24327166E-19
  -14.2600002      -7.27527734E-19
  -14.2500000      -4.88351045E-19
  -14.2399998       2.60117526E-21
  -14.2299995       6.73877679E-19
  -14.2200003       1.36882768E-18
  -14.2100000       1.86827199E-18
  -14.1999998       1.94154758E-18
  -14.1899996       1.41818534E-18
  -14.1800003       2.63204657E-19
  -14.1700001      -1.36753645E-18
  -14.1599998      -3.11612606E-18
  -14.1499996      -4.47270206E-18
  -14.1400003      -4.88928097E-18
  -14.1300001      -3.93998740E-18
  -14.1199999      -1.49056623E-18
  -14.1099997       2.17341665E-18
  -14.1000004       6.31138807E-18
  -14.0900002       9.82241988E-18
  -14.0799999       1.14762343E-17
  -14.0699997       1.02468744E-17
  -14.0600004       5.67508270E-18
  -14.0500002      -1.84220484E-18
  -14.0400000      -1.09405795E-17
  -14.0299997      -1.94331642E-17
  -14.0200005      -2.47329650E-17
  -14.0100002      -2.44968182E-17
  -14.0000000      -1.73569690E-17
  -13.9899998      -3.54998167E-18
  -13.9799995       1.47617130E-17
  -13.9700003       3.36375279E-17
  -13.9600000       4.80399203E-17
  -13.9499998       5.29763390E-17
  -13.9399996       4.48835910E-17
  -13.9300003       2.29224371E-17
  -13.9200001      -1.01939944E-17
  -13.9099998      -4.81630279E-17
  -13.8999996      -8.20201458E-17
  -13.8900003      -1.01976540E-16
  -13.8800001      -9.98528893E-17
  -13.8699999      -7.15742576E-17
  -13.8599997      -1.90704356E-17
  -13.8500004       4.90394754E-17
  -13.8400002       1.18392574E-16
  -13.8299999       1.71516271E-16
  -13.8199997       1.91773275E-16
  -13.8100004       1.67823961E-16
  -13.8000002       9.75314830E-17
  -13.7900000      -9.81307274E-18
  -13.7799997      -1.33827698E-16
  -13.7700005      -2.46308393E-16
  -13.7600002      -3.17094354E-16
  -13.7500000      -3.21458030E-16
  -13.7399998      -2.47357682E-16
  -13.7299995      -1.00642522E-16
  -13.7200003       9.34966482E-17
  -13.7100000       2.93841606E-16
  -13.6999998       4.51159500E-16
  -13.6899996       5.19594574E-16
  -13.6800003       4.69011831E-16
  -13.6700001       2.95204508E-16
  -13.6599998       2.49340592E-17
  -13.6499996      -2.86355846E-16
  -13.6400003      -5.64712684E-16
  -13.6300001      -7.34286033E-16
  -13.6199999      -7.36968057E-16
  -13.6099997      -5.50301477E-16
  -13.6000004      -1.98598865E-16
  -13.5900002       2.46751974E-16
  -13.5799999       6.79538746E-16
  -13.5699997       9.82149314E-16
  -13.5600004       1.05556134E-15
  -13.5500002       8.48782706E-16
  -13.5400000       3.79706580E-16
  -13.5299997      -2.59566365E-16
  -13.5200005      -9.16718136E-16
  -13.5100002      -1.41163705E-15
  -13.5000000      -1.58126122E-15
  -13.4899998      -1.32658605E-15
  -13.4799995      -6.49472518E-16
  -13.4700003       3.32183505E-16
  -13.4600000       1.39820142E-15
  -13.4499998       2.26939312E-15
  -13.4399996       2.67317436E-15
  -13.4300003       2.41735135E-15
  -13.4200001       1.45378065E-15
  -13.4099998      -8.63119029E-17
  -13.3999996      -1.89864108E-15
  -13.3900003      -3.55807963E-15
  -13.3800001      -4.60972186E-15
  -13.3699999      -4.68081079E-15
  -13.3599997      -3.58781007E-15
  -13.3500004      -1.41079627E-15
  -13.3400002       1.48793323E-15
  -13.3299999       4.51307794E-15
  -13.3199997       6.94997606E-15
  -13.3100004       8.12282658E-15
  -13.3000002       7.56424986E-15
  -13.2900000       5.15621227E-15
  -13.2799997       1.20446899E-15
  -13.2700005      -3.57946510E-15
  -13.2600002      -8.19558332E-15
  -13.2500000      -1.15555174E-14
  -13.2399998      -1.27275340E-14
  -13.2299995      -1.11733488E-14
  -13.2200003      -6.91987590E-15
  -13.2100000      -6.18158133E-16
  -13.1999998       6.53683066E-15
  -13.1899996       1.30217924E-14
  -13.1800003       1.73002685E-14
  -13.1700001       1.81742506E-14
  -13.1599998       1.50940339E-14
  -13.1499996       8.34999574E-15
  -13.1400003      -9.10325367E-16
  -13.1300001      -1.08608911E-14
  -13.1199999      -1.93490989E-14
  -13.1099997      -2.43554515E-14
  -13.1000004      -2.44640344E-14
  -13.0900002      -1.92353491E-14
  -13.0799999      -9.38601105E-15
  -13.0699997       3.28286783E-15
  -13.0600004       1.62126612E-14
  -13.0500002       2.66132026E-14
  -13.0400000       3.20798347E-14
  -13.0299997       3.11629079E-14
  -13.0200005       2.37521760E-14
  -13.0100002       1.11723663E-14
  -13.0000000      -4.05182276E-15
  -12.9899998      -1.87258944E-14
  -12.9799995      -2.97015593E-14
  -12.9700003      -3.46164646E-14
  -12.9600000      -3.24791463E-14
  -12.9499998      -2.39470936E-14
  -12.9399996      -1.12116542E-14
  -12.9300003       2.50378916E-15
  -12.9200001       1.37300627E-14
  -12.9099998       1.96417606E-14
  -12.8999996       1.88320496E-14
  -12.8900003       1.17683471E-14
  -12.8800001       7.91116808E-16
  -12.8699999      -1.03771616E-14
  -12.8599997      -1.75247034E-14
  -12.8500004      -1.70508766E-14
  -12.8400002      -7.01382159E-15
  -12.8299999       1.21400226E-14
  -12.8199997       3.73712054E-14
  -12.8100004       6.34600201E-14
  -12.8000002       8.39862508E-14
  -12.7900000       9.26859636E-14
  -12.7799997       8.48922983E-14
  -12.7700005       5.87307438E-14
  -12.7600002       1.57778403E-14
  -12.7500000      -3.89969666E-14
  -12.7399998      -9.80268316E-14
  -12.7299995      -1.52528706E-13
  -12.7200003      -1.94174700E-13
  -12.7100000      -2.16677235E-13
  -12.6999998      -2.16918212E-13
  -12.6899996      -1.95348579E-13
  -12.6800003      -1.55550621E-13
  -12.6700001      -1.03060416E-13
  -12.6599998      -4.37355637E-14
  -12.6499996       1.79124615E-14
  -12.6400003       7.99652906E-14
  -12.6300001       1.43540846E-13
  -12.6199999       2.12220527E-13
  -12.6099997       2.90490424E-13
  -12.6000004       3.81477673E-13
  -12.5900002       4.84473952E-13
  -12.5799999       5.92848741E-13
  -12.5699997       6.92938925E-13
  -12.5600004       7.64345943E-13
  -12.5500002       7.81812440E-13
  -12.5400000       7.18528969E-13
  -12.5299997       5.50420603E-13
  -12.5200005       2.60733817E-13
  -12.5100002      -1.55837569E-13
  -12.5000000      -6.90185864E-13
  -12.4899998      -1.31746252E-12
  -12.4799995      -1.99756054E-12
  -12.4700003      -2.67723474E-12
  -12.4600000      -3.29340917E-12
  -12.4499998      -3.77704769E-12
  -12.4399996      -4.05698305E-12
  -12.4300003      -4.06323152E-12
  -12.4200001      -3.72959649E-12
  -12.4099998      -2.99570113E-12
  -12.3999996      -1.80882262E-12
  -12.3900003      -1.26035480E-13
  -12.3800001       2.08284713E-12
  -12.3699999       4.83131807E-12
  -12.3599997       8.11134059E-12
  -12.3500004       1.18881936E-11
  -12.3400002       1.60959145E-11
  -12.3299999       2.06345167E-11
  -12.3199997       2.53700082E-11
  -12.3100004       3.01380101E-11
  -12.3000002       3.47511984E-11
  -12.2900000       3.90101458E-11
  -12.2799997       4.27163686E-11
  -12.2700005       4.56860105E-11
  -12.2600002       4.77621762E-11
  -12.2500000       4.88242329E-11
  -12.2399998       4.87925117E-11
  -12.2299995       4.76281237E-11
  -12.2200003       4.53278352E-11
  -12.2100000       4.19153982E-11
  -12.1999998       3.74309819E-11
  -12.1899996       3.19207820E-11
  -12.1800003       2.54289888E-11
  -12.1700001       1.79934193E-11
  -12.1599998       9.64556039E-12
  -12.1499996       4.14932710E-13
  -12.1400003      -9.66352172E-12
  -12.1300001      -2.05406941E-11
  -12.1199999      -3.21451789E-11
  -12.1099997      -4.43777064E-11
  -12.1000004      -5.71092340E-11
  -12.0900002      -7.01833244E-11
  -12.0799999      -8.34223246E-11
  -12.0699997      -9.66357619E-11
  -12.0600004      -1.09629757E-10
  -12.0500002      -1.22214933E-10
  -12.0400000      -1.34212197E-10
  -12.0299997      -1.45454676E-10
  -12.0200005      -1.55786758E-10
  -12.0100002      -1.65060438E-10
  -12.0000000      -1.73131259E-10
  -11.9899998      -1.79854659E-10
  -11.9799995      -1.85085211E-10
  -11.9700003      -1.88678753E-10
  -11.9600000      -1.90497784E-10
  -11.9499998      -1.90418917E-10
  -11.9399996      -1.88341009E-10
  -11.9300003      -1.84191787E-10
  -11.9200001      -1.77930948E-10
  -11.9099998      -1.69549305E-10
  -11.8999996      -1.59062943E-10
  -11.8900003      -1.46504628E-10
  -11.8800001      -1.31912634E-10
  -11.8699999      -1.15321176E-10
  -11.8599997      -9.67538966E-11
  -11.8500004      -7.62221328E-11
  -11.8400002      -5.37292814E-11
  -11.8299999      -2.92802969E-11
  -11.8199997      -2.89516024E-12
  -11.8100004       2.53756634E-11
  -11.8000002       5.54379077E-11
  -11.7900000       8.71431954E-11
  -11.7799997       1.20283963E-10
  -11.7700005       1.54594809E-10
  -11.7600002       1.89758806E-10
  -11.7500000       2.25418281E-10
  -11.7399998       2.61188154E-10
  -11.7299995       2.96669189E-10
  -11.7200003       3.31460637E-10
  -11.7100000       3.65170588E-10
  -11.6999998       3.97423650E-10
  -11.6899996       4.27867103E-10
  -11.6800003       4.56174515E-10
  -11.6700001       4.82049345E-10
  -11.6599998       5.05226083E-10
  -11.6499996       5.25472610E-10
  -11.6400003       5.42589251E-10
  -11.6300001       5.56407198E-10
  -11.6199999       5.66784342E-10
  -11.6099997       5.73598946E-10
  -11.6000004       5.76741321E-10
  -11.5900002       5.76103720E-10
  -11.5799999       5.71572401E-10
  -11.5699997       5.63020464E-10
  -11.5600004       5.50304580E-10
  -11.5500002       5.33266487E-10
  -11.5400000       5.11739540E-10
  -11.5299997       4.85559870E-10
  -11.5200005       4.54580956E-10
  -11.5100002       4.18689500E-10
  -11.5000000       3.77820747E-10
  -11.4899998       3.31971256E-10
  -11.4799995       2.81205281E-10
  -11.4700003       2.25656979E-10
  -11.4600000       1.65524192E-10
  -11.4499998       1.01057655E-10
  -11.4399996       3.25442867E-11
  -11.4300003      -3.97113974E-11
  -11.4200001      -1.15406157E-10
  -11.4099998      -1.94255029E-10
  -11.3999996      -2.76002832E-10
  -11.3900003      -3.60431740E-10
  -11.3800001      -4.47361731E-10
  -11.3699999      -5.36646283E-10
  -11.3599997      -6.28163521E-10
  -11.3500004      -7.21806559E-10
  -11.3400002      -8.17472423E-10
  -11.3299999      -9.15053089E-10
  -11.3199997      -1.01442865E-09
  -11.3100004      -1.11546283E-09
  -11.3000002      -1.21799970E-09
  -11.2900000      -1.32186317E-09
  -11.2799997      -1.42685197E-09
  -11.2700005      -1.53273860E-09
  -11.2600002      -1.63926395E-09
  -11.2500000      -1.74613490E-09
  -11.2399998      -1.85302229E-09
  -11.2299995      -1.95956473E-09
  -11.2200003      -2.06537720E-09
  -11.2100000      -2.17006590E-09
  -11.1999998      -2.27325025E-09
  -11.1899996      -2.37458542E-09
  -11.1800003      -2.47378629E-09
  -11.1700001      -2.57064703E-09
  -11.1599998      -2.66505218E-09
  -11.1499996      -2.75697731E-09
  -11.1400003      -2.84648061E-09
  -11.1300001      -2.93367797E-09
  -11.1199999      -3.01872793E-09
  -11.1099997      -3.10179726E-09
  -11.1000004      -3.18303917E-09
  -11.0900002      -3.26257910E-09
  -11.0799999      -3.34050632E-09
  -11.0699997      -3.41687412E-09
  -11.0600004      -3.49170626E-09
  -11.0500002      -3.56501029E-09
  -11.0400000      -3.63678887E-09
  -11.0299997      -3.70704623E-09
  -11.0200005      -3.77579479E-09
  -11.0100002      -3.84304943E-09
  -11.0000000      -3.90883104E-09
  -10.9899998      -3.97315603E-09
  -10.9799995      -4.03604217E-09
  -10.9700003      -4.09750101E-09
  -10.9600000      -4.15754942E-09
  -10.9499998      -4.21621182E-09
  -10.9399996      -4.27351932E-09
  -10.9300003      -4.32951985E-09
  -10.9200001      -4.38426673E-09
  -10.9099998      -4.43781101E-09
  -10.8999996      -4.49018822E-09
  -10.8900003      -4.54140059E-09
  -10.8800001      -4.59139349E-09
  -10.8699999      -4.64005678E-09
  -10.8599997      -4.68720618E-09
  -10.8500004      -4.73259121E-09
  -10.8400002      -4.77590545E-09
  -10.8299999      -4.81678830E-09
  -10.8199997      -4.85486584E-09
  -10.8100004      -4.88975616E-09
  -10.8000002      -4.92110130E-09
  -10.7900000      -4.94858643E-09
  -10.7799997      -4.97196728E-09
  -10.7700005      -4.99107733E-09
  -10.7600002      -5.00585084E-09
  -10.7500000      -5.01631847E-09
  -10.7399998      -5.02259967E-09
  -10.7299995      -5.02489605E-09
  -10.7200003      -5.02346076E-09
  -10.7100000      -5.01857356E-09
  -10.6999998      -5.01051689E-09
  -10.6899996      -4.99953190E-09
  -10.6800003      -4.98582819E-09
  -10.6700001      -4.96954744E-09
  -10.6599998      -4.95079577E-09
  -10.6499996      -4.92964691E-09
  -10.6400003      -4.90615504E-09
  -10.6300001      -4.88038321E-09
  -10.6199999      -4.85241980E-09
  -10.6099997      -4.82236473E-09
  -10.6000004      -4.79036100E-09
  -10.5900002      -4.75655826E-09
  -10.5799999      -4.72112438E-09
  -10.5699997      -4.68423345E-09
  -10.5600004      -4.64608085E-09
  -10.5500002      -4.60687710E-09
  -10.5400000      -4.56686422E-09
  -10.5299997      -4.52632953E-09
  -10.5200005      -4.48561321E-09
  -10.5100002      -4.44508474E-09
  -10.5000000      -4.40515624E-09
  -10.4899998      -4.36624736E-09
  -10.4799995      -4.32876179E-09
  -10.4700003      -4.29307745E-09
  -10.4600000      -4.25953051E-09
  -10.4499998      -4.22842517E-09
  -10.4399996      -4.20002211E-09
  -10.4300003      -4.17457136E-09
  -10.4200001      -4.15232471E-09
  -10.4099998      -4.13354817E-09
  -10.3999996      -4.11852596E-09
  -10.3900003      -4.10752143E-09
  -10.3800001      -4.10081924E-09
  -10.3699999      -4.09864809E-09
  -10.3599997      -4.10118695E-09
  -10.3500004      -4.10857259E-09
  -10.3400002      -4.12086187E-09
  -10.3299999      -4.13808010E-09
  -10.3199997      -4.16020196E-09
  -10.3100004      -4.18719770E-09
  -10.3000002      -4.21903934E-09
  -10.2900000      -4.25571089E-09
  -10.2799997      -4.29720659E-09
  -10.2700005      -4.34352776E-09
  -10.2600002      -4.39469394E-09
  -10.2500000      -4.45068915E-09
  -10.2399998      -4.51150539E-09
  -10.2299995      -4.57709470E-09
  -10.2200003      -4.64737671E-09
  -10.2100000      -4.72224748E-09
  -10.1999998      -4.80154361E-09
  -10.1899996      -4.88507323E-09
  -10.1800003      -4.97261121E-09
  -10.1700001      -5.06389597E-09
  -10.1599998      -5.15864285E-09
  -10.1499996      -5.25656807E-09
  -10.1400003      -5.35742384E-09
  -10.1300001      -5.46101653E-09
  -10.1199999      -5.56722313E-09
  -10.1099997      -5.67604541E-09
  -10.1000004      -5.78758419E-09
  -10.0900002      -5.90204374E-09
  -10.0799999      -6.01969941E-09
  -10.0699997      -6.14089357E-09
  -10.0600004      -6.26596330E-09
  -10.0500002      -6.39523101E-09
  -10.0400000      -6.52895160E-09
  -10.0299997      -6.66732669E-09
  -10.0200005      -6.81047618E-09
  -10.0100002      -6.95845914E-09
  -10.0000000      -7.11128845E-09
  -9.98999977      -7.26894811E-09
  -9.97999954      -7.43140038E-09
  -9.97000027      -7.59860175E-09
  -9.96000004      -7.77049447E-09
  -9.94999981      -7.94700483E-09
  -9.93999958      -8.12806800E-09
  -9.93000031      -8.31358005E-09
  -9.92000008      -8.50343085E-09
  -9.90999985      -8.69748717E-09
  -9.89999962      -8.89563179E-09
  -9.89000034      -9.09772968E-09
  -9.88000011      -9.30366362E-09
  -9.86999989      -9.51331280E-09
  -9.85999966      -9.72657599E-09
  -9.85000038      -9.94335725E-09
  -9.84000015      -1.01635731E-08
  -9.82999992      -1.03871711E-08
  -9.81999969      -1.06140829E-08
  -9.81000042      -1.08443059E-08
  -9.80000019      -1.10778595E-08
  -9.78999996      -1.13148051E-08
  -9.77999973      -1.15552590E-08
  -9.77000046      -1.17993366E-08
  -9.76000023      -1.20472334E-08
  -9.75000000      -1.22990995E-08
  -9.73999977      -1.25551098E-08
  -9.72999954      -1.28154030E-08
  -9.72000027      -1.30800641E-08
  -9.71000004      -1.33491600E-08
  -9.69999981      -1.36226674E-08
  -9.68999958      -1.39005634E-08
  -9.68000031      -1.41827563E-08
  -9.67000008      -1.44690970E-08
  -9.65999985      -1.47593786E-08
  -9.64999962      -1.50533062E-08
  -9.64000034      -1.53505155E-08
  -9.63000011      -1.56505173E-08
  -9.61999989      -1.59527485E-08
  -9.60999966      -1.62565517E-08
  -9.60000038      -1.65612271E-08
  -9.59000015      -1.68660375E-08
  -9.57999992      -1.71702368E-08
  -9.56999969      -1.74731092E-08
  -9.56000042      -1.77739548E-08
  -9.55000019      -1.80721251E-08
  -9.53999996      -1.83669595E-08
  -9.52999973      -1.86578166E-08
  -9.52000046      -1.89440570E-08
  -9.51000023      -1.92250180E-08
  -9.50000000      -1.95000531E-08
  -9.48999977      -1.97685210E-08
  -9.47999954      -2.00298018E-08
  -9.47000027      -2.02833252E-08
  -9.46000004      -2.05285815E-08
  -9.44999981      -2.07651851E-08
  -9.43999958      -2.09927844E-08
  -9.43000031      -2.12111733E-08
  -9.42000008      -2.14202416E-08
  -9.40999985      -2.16200320E-08
  -9.39999962      -2.18107381E-08
  -9.39000034      -2.19927241E-08
  -9.38000011      -2.21665566E-08
  -9.36999989      -2.23330083E-08
  -9.35999966      -2.24930226E-08
  -9.35000038      -2.26477077E-08
  -9.34000015      -2.27982895E-08
  -9.32999992      -2.29460628E-08
  -9.31999969      -2.30923973E-08
  -9.31000042      -2.32386341E-08
  -9.30000019      -2.33862139E-08
  -9.28999996      -2.35365842E-08
  -9.27999973      -2.36912481E-08
  -9.27000046      -2.38518805E-08
  -9.26000023      -2.40201032E-08
  -9.25000000      -2.41976377E-08
  -9.23999977      -2.43862033E-08
  -9.22999954      -2.45874752E-08
  -9.22000027      -2.48029970E-08
  -9.21000004      -2.50341898E-08
  -9.19999981      -2.52823344E-08
  -9.18999958      -2.55484824E-08
  -9.18000031      -2.58336179E-08
  -9.17000008      -2.61385225E-08
  -9.15999985      -2.64638746E-08
  -9.14999962      -2.68101754E-08
  -9.14000034      -2.71777765E-08
  -9.13000011      -2.75668146E-08
  -9.11999989      -2.79772774E-08
  -9.10999966      -2.84088664E-08
  -9.10000038      -2.88610575E-08
  -9.09000015      -2.93332061E-08
  -9.07999992      -2.98244309E-08
  -9.06999969      -3.03337195E-08
  -9.06000042      -3.08599759E-08
  -9.05000019      -3.14019459E-08
  -9.03999996      -3.19582654E-08
  -9.02999973      -3.25274421E-08
  -9.02000046      -3.31077494E-08
  -9.01000023      -3.36974075E-08
  -9.00000000      -3.42944020E-08
  -8.98999977      -3.48966580E-08
  -8.97999954      -3.55021221E-08
  -8.97000027      -3.61086983E-08
  -8.96000004      -3.67144288E-08
  -8.94999981      -3.73174771E-08
  -8.93999958      -3.79161236E-08
  -8.93000031      -3.85087588E-08
  -8.92000008      -3.90938872E-08
  -8.90999985      -3.96701374E-08
  -8.89999962      -4.02362055E-08
  -8.89000034      -4.07908836E-08
  -8.88000011      -4.13329957E-08
  -8.86999989      -4.18614334E-08
  -8.85999966      -4.23752837E-08
  -8.85000038      -4.28736193E-08
  -8.84000015      -4.33555734E-08
  -8.82999992      -4.38203323E-08
  -8.81999969      -4.42671642E-08
  -8.81000042      -4.46954260E-08
  -8.80000019      -4.51046347E-08
  -8.78999996      -4.54945202E-08
  -8.77999973      -4.58649865E-08
  -8.77000046      -4.62160230E-08
  -8.76000023      -4.65481449E-08
  -8.75000000      -4.68618815E-08
  -8.73999977      -4.71579398E-08
  -8.72999954      -4.74371831E-08
  -8.72000027      -4.77005493E-08
  -8.71000004      -4.79490616E-08
  -8.69999981      -4.81837965E-08
  -8.68999958      -4.84060969E-08
  -8.68000031      -4.86174692E-08
  -8.67000008      -4.88196683E-08
  -8.65999985      -4.90145915E-08
  -8.64999962      -4.92043952E-08
  -8.64000034      -4.93912360E-08
  -8.63000011      -4.95772809E-08
  -8.61999989      -4.97646049E-08
  -8.60999966      -4.99553430E-08
  -8.60000038      -5.01513568E-08
  -8.59000015      -5.03545792E-08
  -8.57999992      -5.05669426E-08
  -8.56999969      -5.07903302E-08
  -8.56000042      -5.10266887E-08
  -8.55000019      -5.12779224E-08
  -8.53999996      -5.15457543E-08
  -8.52999973      -5.18316980E-08
  -8.52000046      -5.21370289E-08
  -8.51000023      -5.24625285E-08
  -8.50000000      -5.28087689E-08
  -8.48999977      -5.31761586E-08
  -8.47999954      -5.35647864E-08
  -8.47000027      -5.39747447E-08
  -8.46000004      -5.44060654E-08
  -8.44999981      -5.48588126E-08
  -8.43999958      -5.53328050E-08
  -8.43000031      -5.58277655E-08
  -8.42000008      -5.63431719E-08
  -8.40999985      -5.68781253E-08
  -8.39999962      -5.74315706E-08
  -8.39000034      -5.80020902E-08
  -8.38000011      -5.85884656E-08
  -8.36999989      -5.91893219E-08
  -8.35999966      -5.98035186E-08
  -8.35000038      -6.04298549E-08
  -8.34000015      -6.10672046E-08
  -8.32999992      -6.17144167E-08
  -8.31999969      -6.23701695E-08
  -8.31000042      -6.30329708E-08
  -8.30000019      -6.37011084E-08
  -8.28999996      -6.43728697E-08
  -8.27999973      -6.50466632E-08
  -8.27000046      -6.57211245E-08
  -8.26000023      -6.63951383E-08
  -8.25000000      -6.70680009E-08
  -8.23999977      -6.77394212E-08
  -8.22999954      -6.84091503E-08
  -8.22000027      -6.90770676E-08
  -8.21000004      -6.97429741E-08
  -8.19999981      -7.04064931E-08
  -8.18999958      -7.10672552E-08
  -8.18000031      -7.17248483E-08
  -8.17000008      -7.23790166E-08
  -8.15999985      -7.30299448E-08
  -8.14999962      -7.36781161E-08
  -8.14000034      -7.43243191E-08
  -8.13000011      -7.49696838E-08
  -8.11999989      -7.56153113E-08
  -8.10999966      -7.62624950E-08
  -8.10000038      -7.69118245E-08
  -8.09000015      -7.75642945E-08
  -8.07999992      -7.82203671E-08
  -8.06999969      -7.88806034E-08
  -8.06000042      -7.95456288E-08
  -8.05000019      -8.02162816E-08
  -8.03999996      -8.08935638E-08
  -8.02999973      -8.15787260E-08
  -8.02000046      -8.22731394E-08
  -8.01000023      -8.29779765E-08
  -8.00000000      -8.36946015E-08
  -7.98999977      -8.44239167E-08
  -7.98000002      -8.51667252E-08
  -7.96999979      -8.59236877E-08
  -7.96000004      -8.66956213E-08
  -7.94999981      -8.74833219E-08
  -7.94000006      -8.82876279E-08
  -7.92999983      -8.91095837E-08
  -7.92000008      -8.99502197E-08
  -7.90999985      -9.08108220E-08
  -7.90000010      -9.16921508E-08
  -7.88999987      -9.25949379E-08
  -7.88000011      -9.35196951E-08
  -7.86999989      -9.44667775E-08
  -7.86000013      -9.54362633E-08
  -7.84999990      -9.64282592E-08
  -7.84000015      -9.74428076E-08
  -7.82999992      -9.84800153E-08
  -7.82000017      -9.95401024E-08
  -7.80999994      -1.00623318E-07
  -7.80000019      -1.01729583E-07
  -7.78999996      -1.02858984E-07
  -7.78000021      -1.04010965E-07
  -7.76999998      -1.05185137E-07
  -7.76000023      -1.06380647E-07
  -7.75000000      -1.07596847E-07
  -7.73999977      -1.08832680E-07
  -7.73000002      -1.10087299E-07
  -7.71999979      -1.11359981E-07
  -7.71000004      -1.12650248E-07
  -7.69999981      -1.13957284E-07
  -7.69000006      -1.15280940E-07
  -7.67999983      -1.16620377E-07
  -7.67000008      -1.17975326E-07
  -7.65999985      -1.19345060E-07
  -7.65000010      -1.20729197E-07
  -7.63999987      -1.22127162E-07
  -7.63000011      -1.23538371E-07
  -7.61999989      -1.24962540E-07
  -7.61000013      -1.26399570E-07
  -7.59999990      -1.27849333E-07
  -7.59000015      -1.29312014E-07
  -7.57999992      -1.30788095E-07
  -7.57000017      -1.32277520E-07
  -7.55999994      -1.33780887E-07
  -7.55000019      -1.35298222E-07
  -7.53999996      -1.36829954E-07
  -7.53000021      -1.38376208E-07
  -7.51999998      -1.39937470E-07
  -7.51000023      -1.41513866E-07
  -7.50000000      -1.43106192E-07
  -7.48999977      -1.44715500E-07
  -7.48000002      -1.46342558E-07
  -7.46999979      -1.47988686E-07
  -7.46000004      -1.49655136E-07
  -7.44999981      -1.51343201E-07
  -7.44000006      -1.53053492E-07