  -16.0000000       0.00000000    
  -15.9899998       0.00000000    
  -15.9799995       0.00000000    
  -15.9700003       0.00000000    
  -15.9600000       0.00000000    
  -15.9499998       0.00000000    
  -15.9399996       0.00000000    
  -15.9300003       0.00000000    
  -15.9200001       0.00000000    
  -15.9099998       0.00000000    
  -15.8999996       0.00000000    
  -15.8900003       1.14331942E-40
  -15.8800001       7.99120577E-39
  -15.8699999       1.45492963E-37
  -15.8599997       1.52441148E-36
  -15.8500004       1.14257958E-35
  -15.8400002       6.76683310E-35
  -15.8299999       3.33909915E-34
  -15.8199997       1.41418720E-33
  -15.8100004       5.22730803E-33
  -15.8000002       1.70184399E-32
  -15.7900000       4.90103268E-32
  -15.7799997       1.24876573E-31
  -15.7700005       2.80231223E-31
  -15.7600002       5.47028380E-31
  -15.7500000       9.02413095E-31
  -15.7399998       1.16631045E-30
  -15.7299995       8.66293915E-31
  -15.7200003      -8.30410305E-31
  -15.7100000      -4.90482409E-30
  -15.6999998      -1.17236028E-29
  -15.6899996      -1.96329118E-29
  -15.6800003      -2.34371200E-29
  -15.6700001      -1.43859323E-29
  -15.6599998       1.56460156E-29
  -15.6499996       6.34729815E-29
  -15.6400003       9.90718225E-29
  -15.6300001       5.61997733E-29
  -15.6199999      -1.46904219E-28
  -15.6099997      -5.25613389E-28
  -15.6000004      -8.73119281E-28
  -15.5900002      -5.87267848E-28
  -15.5799999       1.33425538E-27
  -15.5699997       5.80254073E-27
  -15.5600004       1.23145524E-26
  -15.5500002       1.68401681E-26
  -15.5400000       9.95590380E-27
  -15.5299997      -2.22019278E-26
  -15.5200005      -9.03336579E-26
  -15.5100002      -1.84754725E-25
  -15.5000000      -2.51046601E-25
  -15.4899998      -1.72547201E-25
  -15.4799995       2.11560391E-25
  -15.4700003       1.01578020E-24
  -15.4600000       2.12532065E-24
  -15.4499998       2.96068491E-24
  -15.4399996       2.33674287E-24
  -15.4300003      -1.32032212E-24
  -15.4200001      -9.10331443E-24
  -15.4099998      -1.99993342E-23
  -15.3999996      -2.89391225E-23
  -15.3900003      -2.57777971E-23
  -15.3800001       2.75821666E-24
  -15.3699999       6.61131955E-23
  -15.3599997       1.57553092E-22
  -15.3500004       2.39950939E-22
  -15.3400002       2.38766436E-22
  -15.3299999       5.58694833E-23
  -15.3199997      -3.83090571E-22
  -15.3100004      -1.04671417E-21
  -15.3000002      -1.70493738E-21
  -15.2900000      -1.88161658E-21
  -15.2799997      -9.33985058E-22
  -15.2700005       1.66838351E-21
  -15.2600002       5.86132266E-21
  -15.2500000       1.04346354E-20
  -15.2399998       1.27215402E-20
  -15.2299995       8.96730750E-21
  -15.2200003      -4.23406573E-21
  -15.2100000      -2.73994111E-20
  -15.1999998      -5.51664522E-20
  -15.1899996      -7.43762679E-20
  -15.1800003      -6.53855320E-20
  -15.1700001      -8.56892068E-21
  -15.1599998       1.03621620E-19
  -15.1499996       2.51805333E-19
  -15.1400003       3.78759307E-19
  -15.1300001       3.92207610E-19
  -15.1199999       1.90613781E-19
  -15.1099997      -2.85089633E-19
  -15.1000004      -9.83869093E-19
  -15.0900002      -1.68796120E-18
  -15.0799999      -2.00799810E-18
  -15.0699997      -1.47124122E-18
  -15.0600004       2.78144134E-19
  -15.0500002       3.19695463E-18
  -15.0400000       6.57595807E-18
  -15.0299997       8.94479448E-18
  -15.0200005       8.32018047E-18
  -15.0100002       2.90067715E-18
  -15.0000000      -7.85836967E-18
  -14.9899998      -2.21019682E-17
  -14.9799995      -3.49179638E-17
  -14.9700003      -3.88239570E-17
  -14.9600000      -2.58882088E-17
  -14.9499998       8.55475566E-18
  -14.9399996       6.14685722E-17
  -14.9300003       1.18738031E-16
  -14.9200001       1.55183450E-16
  -14.9099998       1.40021217E-16
  -14.8999996       4.83650486E-17
  -14.8900003      -1.23235816E-16
  -14.8800001      -3.42346312E-16
  -14.8699999      -5.34819250E-16
  -14.8599997      -5.95286550E-16
  -14.8500004      -4.18245176E-16
  -14.8400002       5.32813238E-17
  -14.8299999       7.74351538E-16
  -14.8199997       1.56192283E-15
  -14.8100004       2.10160436E-15
  -14.8000002       2.01706582E-15
  -14.7900000       1.00380138E-15
  -14.7799997      -9.98934436E-16
  -14.7700005      -3.65438686E-15
  -14.7600002      -6.16917643E-15
  -14.7500000      -7.40151704E-15
  -14.7399998      -6.17230791E-15
  -14.7299995      -1.74453667E-15
  -14.7200003       5.65168673E-15
  -14.7100000       1.44475936E-14
  -14.6999998       2.17439795E-14
  -14.6899996       2.38700237E-14
  -14.6800003       1.75125078E-14
  -14.6700001       1.21063486E-15
  -14.6599998      -2.32261991E-14
  -14.6499996      -4.99781457E-14
  -14.6400003      -6.97357821E-14
  -14.6300001      -7.18075501E-14
  -14.6199999      -4.76488051E-14
  -14.6099997       4.97352166E-15
  -14.6000004       7.85242233E-14
  -14.5900002       1.54547111E-13
  -14.5799999       2.06149713E-13
  -14.5699997       2.04588909E-13
  -14.5600004       1.29059835E-13
  -14.5500002      -2.27246150E-14
  -14.5400000      -2.26735013E-13
  -14.5299997      -4.31422313E-13
  -14.5200005      -5.65864250E-13
  -14.5100002      -5.57601112E-13
  -14.5000000      -3.57179781E-13
  -14.4899998       3.69177243E-14
  -14.4799995       5.61437724E-13
  -14.4700003       1.08796674E-12
  -14.4600000       1.44430149E-12
  -14.4499998       1.45710473E-12
  -14.4399996       1.00814279E-12
  -14.4300003       8.96105157E-14
  -14.4200001      -1.15966958E-12
  -14.4099998      -2.45426574E-12
  -14.3999996      -3.40838165E-12
  -14.3900003      -3.62633708E-12
  -14.3800001      -2.82086377E-12
  -14.3699999      -9.30102675E-13
  -14.3599997       1.80251820E-12
  -14.3500004       4.81863421E-12
  -14.3400002       7.32535126E-12
  -14.3299999       8.46349119E-12
  -14.3199997       7.53561016E-12
  -14.3100004       4.24258502E-12
  -14.3000002      -1.13546629E-12
  -14.2900000      -7.67582005E-12
  -14.2799997      -1.39096026E-11
  -14.2700005      -1.80860119E-11
  -14.2600002      -1.85693544E-11
  -14.2500000      -1.42935715E-11
  -14.2399998      -5.16970971E-12
  -14.2299995       7.66576299E-12
  -14.2200003       2.18564455E-11
  -14.2100000       3.41360759E-11
  -14.1999998       4.09322298E-11
  -14.1899996       3.91796005E-11
  -14.1800003       2.71942503E-11
  -14.1700001       5.41276442E-12
  -14.1599998      -2.32108482E-11
  -14.1499996      -5.33241853E-11
  -14.1400003      -7.79062856E-11
  -14.1300001      -8.95786431E-11
  -14.1199999      -8.23229540E-11
  -14.1099997      -5.32857022E-11
  -14.1000004      -4.24783212E-12
  -14.0900002       5.76902762E-11
  -14.0799999       1.20576008E-10
  -14.0699997       1.69395623E-10
  -14.0600004       1.89060309E-10
  -14.0500002       1.68121919E-10
  -14.0400000       1.02442457E-10
  -14.0299997      -2.13411276E-12
  -14.0200005      -1.29025096E-10
  -14.0100002      -2.52691174E-10
  -14.0000000      -3.43049839E-10
  -13.9899998      -3.71949860E-10
  -13.9799995      -3.20456606E-10
  -13.9700003      -1.85247845E-10
  -13.9600000       1.76815715E-11
  -13.9499998       2.53447041E-10
  -13.9399996       4.73429296E-10
  -13.9300003       6.24661045E-10
  -13.9200001       6.61749655E-10
  -13.9099998       5.58748603E-10
  -13.8999996       3.18031212E-10
  -13.8900003      -2.64138572E-11
  -13.8800001      -4.12774565E-10
  -13.8699999      -7.62209740E-10
  -13.8599997      -9.94816340E-10
  -13.8500004      -1.04750675E-09
  -13.8400002      -8.89759488E-10
  -13.8299999      -5.33396494E-10
  -13.8199997      -3.36593288E-11
  -13.8100004       5.19270460E-10
  -13.8000002       1.01702824E-09
  -13.7900000       1.35484646E-09
  -13.7799997       1.45383716E-09
  -13.7700005       1.27898436E-09
  -13.7600002       8.48805692E-10
  -13.7500000       2.34298608E-10
  -13.7399998      -4.53018012E-10
  -13.7299995      -1.08195486E-09
  -13.7200003      -1.52750368E-09
  -13.7100000      -1.69666936E-09
  -13.6999998      -1.54908986E-09
  -13.6899996      -1.10796572E-09
  -13.6800003      -4.58451027E-10
  -13.6700001       2.67110223E-10
  -13.6599998       9.15192366E-10
  -13.6499996       1.34392586E-09
  -13.6400003       1.45638523E-09
  -13.6300001       1.22698363E-09
  -13.6199999       7.14017956E-10
  -13.6099997       5.34979908E-11
  -13.6000004      -5.67085934E-10
  -13.5900002      -9.51722368E-10
  -13.5799999      -9.47540491E-10
  -13.5699997      -4.93466878E-10
  -13.5600004       3.47237100E-10
  -13.5500002       1.38181555E-09
  -13.5400000       2.31651742E-09
  -13.5299997       2.81722534E-09
  -13.5200005       2.59211186E-09
  -13.5100002       1.47861112E-09
  -13.5000000      -4.86863216E-10
  -13.4899998      -3.03720937E-09
  -13.4799995      -5.69499070E-09
  -13.4700003      -7.84788590E-09
  -13.4600000      -8.86898466E-09
  -13.4499998      -8.25934166E-09
  -13.4399996      -5.78226844E-09
  -13.4300003      -1.55740743E-09
  -13.4200001       3.91110389E-09
  -13.4099998       9.78545334E-09
  -13.3999996       1.50203334E-08
  -13.3900003       1.85442666E-08
  -13.3800001       1.94629202E-08
  -13.3699999       1.72448029E-08
  -13.3599997       1.18519834E-08
  -13.3500004       3.78805565E-09
  -13.3400002      -5.94936189E-09
  -13.3299999      -1.60056697E-08
  -13.3199997      -2.48737937E-08
  -13.3100004      -3.11309272E-08
  -13.3000002      -3.36665416E-08
  -13.2900000      -3.18618270E-08
  -13.2799997      -2.56895092E-08
  -13.2700005      -1.57178732E-08
  -13.2600002      -3.02004555E-09
  -13.2500000       1.09916112E-08
  -13.2399998       2.47719907E-08
  -13.2299995       3.68485154E-08
  -13.2200003       4.59847698E-08
  -13.2100000       5.12731120E-08
  -13.1999998       5.21472501E-08
  -13.1899996       4.83294222E-08
  -13.1800003       3.97489721E-08
  -13.1700001       2.64813433E-08
  -13.1599998       8.75465478E-09
  -13.1499996      -1.29491804E-08
  -13.1400003      -3.77068723E-08
  -13.1300001      -6.39284821E-08
  -13.1199999      -8.91798564E-08
  -13.1099997      -1.10155284E-07
  -13.1000004      -1.22890796E-07
  -13.0900002      -1.23264428E-07
  -13.0799999      -1.07756442E-07
  -13.0699997      -7.43613953E-08
  -13.0600004      -2.34682727E-08
  -13.0500002       4.15154027E-08
  -13.0400000       1.14006738E-07
  -13.0299997       1.84705740E-07
  -13.0200005       2.42696558E-07
  -13.0100002       2.77078840E-07
  -13.0000000       2.78877621E-07
  -12.9899998       2.42888120E-07
  -12.9799995       1.69075619E-07
  -12.9700003       6.32121484E-08
  -12.9600000      -6.34475015E-08
  -12.9499998      -1.95467976E-07
  -12.9399996      -3.15338241E-07
  -12.9300003      -4.06041465E-07
  -12.9200001      -4.53651410E-07
  -12.9099998      -4.49505507E-07
  -12.8999996      -3.91576464E-07
  -12.8900003      -2.84817190E-07
  -12.8800001      -1.40442481E-07
  -12.8699999       2.56957513E-08
  -12.8599997       1.95328525E-07
  -12.8500004       3.50182773E-07
  -12.8400002       4.74178648E-07
  -12.8299999       5.55077804E-07
  -12.8199997       5.85388534E-07
  -12.8100004       5.62500531E-07
  -12.8000002       4.88194416E-07
  -12.7900000       3.67791330E-07
  -12.7799997       2.09257266E-07
  -12.7700005       2.25484200E-08
  -12.7600002      -1.80645685E-07
  -12.7500000      -3.86774587E-07
  -12.7399998      -5.80123071E-07
  -12.7299995      -7.42690759E-07
  -12.7200003      -8.54670986E-07
  -12.7100000      -8.95878884E-07
  -12.6999998      -8.48274794E-07
  -12.6899996      -6.99415580E-07
  -12.6800003      -4.46334781E-07
  -12.6700001      -9.90314248E-08
  -12.6599998       3.17364112E-07
  -12.6499996       7.62655361E-07
  -12.6400003       1.18445496E-06
  -12.6300001       1.52394205E-06
  -12.6199999       1.72395653E-06
  -12.6099997       1.73827698E-06
  -12.6000004       1.54049417E-06
  -12.5900002       1.13076214E-06
  -12.5799999       5.38916197E-07
  -12.5699997      -1.76987541E-07
  -12.5600004      -9.36855884E-07
  -12.5500002      -1.64871869E-06
  -12.5400000      -2.22134099E-06
  -12.5299997      -2.57726401E-06
  -12.5200005      -2.66413235E-06
  -12.5100002      -2.46247532E-06
  -12.5000000      -1.98876000E-06
  -12.4899998      -1.29340583E-06
  -12.4799995      -4.54320030E-07
  -12.4700003       4.32750085E-07
  -12.4600000       1.26534860E-06
  -12.4499998       1.94516383E-06
  -12.4399996       2.38716643E-06
  -12.4300003       2.52612335E-06
  -12.4200001       2.32025900E-06
  -12.4099998       1.75242110E-06
  -12.3999996       8.29522889E-07
  -12.3900003      -4.18865341E-07
  -12.3800001      -1.94204904E-06
  -12.3699999      -3.66956010E-06
  -12.3599997      -5.51249923E-06
  -12.3500004      -7.36549828E-06
  -12.3400002      -9.11017469E-06
  -12.3299999      -1.06208854E-05
  -12.3199997      -1.17732079E-05
  -12.3100004      -1.24549269E-05
  -12.3000002      -1.25784991E-05
  -12.2900000      -1.20932737E-05
  -12.2799997      -1.09952653E-05
  -12.2700005      -9.33231331E-06
  -12.2600002      -7.20287153E-06
  -12.2500000      -4.74773560E-06
  -12.2399998      -2.13520343E-06
  -12.2299995       4.58500210E-07
  -12.2200003       2.87061721E-06
  -12.2100000       4.97166366E-06
  -12.1999998       6.68028906E-06
  -12.1899996       7.97072789E-06
  -12.1800003       8.87163515E-06
  -12.1700001       9.45676402E-06
  -12.1599998       9.82942220E-06
  -12.1499996       1.01037085E-05
  -12.1400003       1.03859957E-05
  -12.1300001       1.07598025E-05
  -12.1199999       1.12762746E-05
  -12.1099997       1.19512106E-05
  -12.1000004       1.27680860E-05
  -12.0900002       1.36855579E-05
  -12.0799999       1.46470829E-05
  -12.0699997       1.55904072E-05
  -12.0600004       1.64550274E-05
  -12.0500002       1.71866850E-05
  -12.0400000       1.77388047E-05
  -12.0299997       1.80717598E-05
  -12.0200005       1.81512514E-05
  -12.0100002       1.79471990E-05
  -12.0000000       1.74342422E-05
  -11.9899998       1.65942038E-05
  -11.9799995       1.54201880E-05
  -11.9700003       1.39212061E-05
  -11.9600000       1.21258163E-05
  -11.9499998       1.00832167E-05
  -11.9399996       7.86056717E-06
  -11.9300003       5.53614336E-06
  -11.9200001       3.18887419E-06
  -11.9099998       8.85915142E-07
  -11.8999996      -1.32935520E-06
  -11.8900003      -3.44606383E-06
  -11.8800001      -5.48876733E-06
  -11.8699999      -7.51298376E-06
  -11.8599997      -9.59310273E-06
  -11.8500004      -1.18042208E-05
  -11.8400002      -1.42010967E-05
  -11.8299999      -1.67983526E-05
  -11.8199997      -1.95565171E-05
  -11.8100004      -2.23774277E-05
  -11.8000002      -2.51110796E-05
  -11.7900000      -2.75734765E-05
  -11.7799997      -2.95727259E-05
  -11.7700005      -3.09386414E-05
  -11.7600002      -3.15502111E-05
  -11.7500000      -3.13554337E-05
  -11.7399998      -3.03797187E-05
  -11.7299995      -2.87212770E-05
  -11.7200003      -2.65346498E-05
  -11.7100000      -2.40061581E-05
  -11.6999998      -2.13262483E-05
  -11.6899996      -1.86643229E-05
  -11.6800003      -1.61505668E-05
  -11.6700001      -1.38674068E-05
  -11.6599998      -1.18510025E-05
  -11.6499996      -1.01007117E-05
  -11.6400003      -8.59313877E-06
  -11.6300001      -7.29651674E-06
  -11.6199999      -6.18172498E-06
  -11.6099997      -5.22745768E-06
  -11.6000004      -4.41886095E-06
  -11.5900002      -3.74071988E-06
  -11.5799999      -3.16776527E-06
  -11.5699997      -2.65542894E-06
  -11.5600004      -2.13428257E-06
  -11.5500002      -1.51057282E-06
  -11.5400000      -6.73820466E-07
  -11.5299997       4.89238801E-07
  -11.5200005       2.07676203E-06
  -11.5100002       4.15348813E-06
  -11.5000000       6.73595969E-06
  -11.4899998       9.78484604E-06
  -11.4799995       1.32065725E-05
  -11.4700003       1.68645583E-05
  -11.4600000       2.05981451E-05
  -11.4499998       2.42454444E-05
  -11.4399996       2.76652063E-05
  -11.4300003       3.07527662E-05
  -11.4200001       3.34465221E-05
  -11.4099998       3.57235767E-05
  -11.3999996       3.75859781E-05
  -11.3900003       3.90416717E-05
  -11.3800001       4.00857571E-05
  -11.3699999       4.06880135E-05
  -11.3599997       4.07909465E-05
  -11.3500004       4.03202648E-05
  -11.3400002       3.92057591E-05
  -11.3299999       3.74081064E-05
  -11.3199997       3.49444890E-05
  -11.3100004       3.19062638E-05
  -11.3000002       2.84630987E-05
  -11.2900000       2.48511842E-05
  -11.2799997       2.13468593E-05
  -11.2700005       1.82302774E-05
  -11.2600002       1.57459817E-05
  -11.2500000       1.40679176E-05
  -11.2399998       1.32751120E-05
  -11.2299995       1.33420308E-05
  -11.2200003       1.41443943E-05
  -11.2100000       1.54785794E-05
  -11.1999998       1.70905441E-05
  -11.1899996       1.87093337E-05
  -11.1800003       2.00801642E-05
  -11.1700001       2.09929149E-05
  -11.1599998       2.13031035E-05
  -11.1499996       2.09433019E-05
  -11.1400003       1.99242786E-05
  -11.1300001       1.83259326E-05
  -11.1199999       1.62792476E-05
  -11.1099997       1.39415779E-05
  -11.1000004       1.14688755E-05
  -11.0900002       8.98953294E-06
  -11.0799999       6.58488443E-06
  -11.0699997       4.28095609E-06
  -11.0600004       2.05405149E-06
  -11.0500002      -1.49798737E-07
  -11.0400000      -2.38513621E-06
  -11.0299997      -4.67356767E-06
  -11.0200005      -6.97488349E-06
  -11.0100002      -9.17103353E-06
  -11.0000000      -1.10690489E-05
  -10.9899998      -1.24248791E-05
  -10.9799995      -1.29851242E-05
  -10.9700003      -1.25389543E-05
  -10.9600000      -1.09691418E-05
  -10.9499998      -8.29043620E-06
  -10.9399996      -4.66533811E-06
  -10.9300003      -3.91751541E-07
  -10.9200001       4.13709722E-06
  -10.9099998       8.49408207E-06
  -10.8999996       1.22895599E-05
  -10.8900003       1.52387493E-05
  -10.8800001       1.72114196E-05
  -10.8699999       1.82532676E-05
  -10.8599997       1.85739173E-05
  -10.8500004       1.85027893E-05
  -10.8400002       1.84207693E-05
  -10.8299999       1.86803481E-05
  -10.8199997       1.95295979E-05
  -10.8100004       2.10549260E-05
  -10.8000002       2.31540253E-05
  -10.7900000       2.55448249E-05
  -10.7799997       2.78091338E-05
  -10.7700005       2.94627407E-05
  -10.7600002       3.00384982E-05
  -10.7500000       2.91662454E-05
  -10.7399998       2.66341212E-05
  -10.7299995       2.24201394E-05
  -10.7200003       1.66891186E-05
  -10.7100000       9.75794683E-06
  -10.6999998       2.03850846E-06
  -10.6899996      -6.02767432E-06
  -10.6800003      -1.40283373E-05
  -10.6700001      -2.16209155E-05
  -10.6599998      -2.85480492E-05
  -10.6499996      -3.46289344E-05
  -10.6400003      -3.97336262E-05
  -10.6300001      -4.37517265E-05
  -10.6199999      -4.65676312E-05
  -10.6099997      -4.80517192E-05
  -10.6000004      -4.80715607E-05
  -10.5900002      -4.65204394E-05
  -10.5799999      -4.33551140E-05
  -10.5699997      -3.86312495E-05
  -10.5600004      -3.25254005E-05
  -10.5500002      -2.53355065E-05
  -10.5400000      -1.74576471E-05
  -10.5299997      -9.34267246E-06
  -10.5200005      -1.44147498E-06
  -10.5100002       5.84994223E-06
  -10.5000000       1.22348865E-05
  -10.4899998       1.75420901E-05
  -10.4799995       2.17301476E-05
  -10.4700003       2.48716624E-05
  -10.4600000       2.71220215E-05
  -10.4499998       2.86797458E-05
  -10.4399996       2.97454699E-05
  -10.4300003       3.04854857E-05
  -10.4200001       3.10042087E-05
  -10.4099998       3.13283272E-05
  -10.3999996       3.14042481E-05
  -10.3900003       3.11097538E-05
  -10.3800001       3.02796034E-05
  -10.3699999       2.87435487E-05
  -10.3599997       2.63725833E-05
  -10.3500004       2.31265312E-05
  -10.3400002       1.90935716E-05
  -10.3299999       1.45110025E-05
  -10.3199997       9.75816238E-06
  -10.3100004       5.31631304E-06
  -10.3000002       1.69753730E-06
  -10.2900000      -6.47820286E-07
  -10.2799997      -1.42815259E-06
  -10.2700005      -5.91045250E-07
  -10.2600002       1.63343532E-06
  -10.2500000       4.74129092E-06
  -10.2399998       8.01961050E-06
  -10.2299995       1.06600501E-05
  -10.2200003       1.19009674E-05
  -10.2100000       1.11702420E-05
  -10.1999998       8.19908200E-06
  -10.1899996       3.08177323E-06
  -10.1800003      -3.73220610E-06
  -10.1700001      -1.15128887E-05
  -10.1599998      -1.93757696E-05
  -10.1499996      -2.64323589E-05
  -10.1400003      -3.19338687E-05
  -10.1300001      -3.53794894E-05
  -10.1199999      -3.65697706E-05
  -10.1099997      -3.55992270E-05
  -10.1000004      -3.27965281E-05
  -10.0900002      -2.86313862E-05
  -10.0799999      -2.36130654E-05
  -10.0699997      -1.82043059E-05
  -10.0600004      -1.27671301E-05
  -10.0500002      -7.54688790E-06
  -10.0400000      -2.68971007E-06
  -10.0299997       1.71967770E-06
  -10.0200005       5.61628258E-06
  -10.0100002       8.92428307E-06
  -10.0000000       1.15466246E-05
  -9.98999977       1.33758667E-05
  -9.97999954       1.43201160E-05
  -9.97000027       1.43333264E-05
  -9.96000004       1.34385455E-05
  -9.94999981       1.17358386E-05
  -9.93999958       9.39219717E-06
  -9.93000031       6.61656668E-06
  -9.92000008       3.62731839E-06
  -9.90999985       6.21408276E-07
  -9.89999962      -2.24720566E-06
  -9.89000034      -4.87583020E-06
  -9.88000011      -7.20784237E-06
  -9.86999989      -9.21778064E-06
  -9.85999966      -1.08915501E-05
  -9.85000038      -1.22066522E-05
  -9.84000015      -1.31153010E-05
  -9.82999992      -1.35317814E-05
  -9.81999969      -1.33240874E-05
  -9.81000042      -1.23104974E-05
  -9.80000019      -1.02628137E-05
  -9.78999996      -6.91963987E-06
  -9.77999973      -2.01325702E-06
  -9.77000046       4.68849203E-06
  -9.76000023       1.33279200E-05
  -9.75000000       2.38986704E-05
  -9.73999977       3.61953680E-05
  -9.72999954       4.97865913E-05
  -9.72000027       6.40240032E-05
  -9.71000004       7.80942428E-05
  -9.69999981       9.11099269E-05
  -9.68999958       1.02226120E-04
  -9.68000031       1.10760186E-04
  -9.67000008       1.16290263E-04
  -9.65999985       1.18710879E-04
  -9.64999962       1.18233838E-04
  -9.64000034       1.15334726E-04
  -9.63000011       1.10658628E-04
  -9.61999989       1.04906634E-04
  -9.60999966       9.87280291E-05
  -9.60000038       9.26385110E-05
  -9.59000015       8.69760770E-05
  -9.57999992       8.18949338E-05
  -9.56999969       7.73892680E-05
  -9.56000042       7.33330235E-05
  -9.55000019       6.95230046E-05
  -9.53999996       6.57171113E-05
  -9.52999973       6.16662437E-05
  -9.52000046       5.71431447E-05
  -9.51000023       5.19732457E-05
  -9.50000000       4.60693955E-05
  -9.48999977       3.94667622E-05
  -9.47999954       3.23481436E-05
  -9.47000027       2.50473313E-05
  -9.46000004       1.80206680E-05
  -9.44999981       1.17846621E-05
  -9.43999958       6.82852988E-06
  -9.43000031       3.52073198E-06
  -9.42000008       2.03390732E-06
  -9.40999985       2.31043191E-06
  -9.39999962       4.08086453E-06
  -9.39000034       6.93212542E-06
  -9.38000011       1.04071041E-05
  -9.36999989       1.41064511E-05
  -9.35999966       1.77623424E-05
  -9.35000038       2.12622017E-05
  -9.34000015       2.46171949E-05
  -9.32999992       2.78886491E-05
  -9.31999969       3.11003787E-05
  -9.31000042       3.41700979E-05
  -9.30000019       3.68870933E-05
  -9.28999996       3.89467423E-05
  -9.27999973       4.00327117E-05
  -9.27000046       3.99190139E-05
  -9.26000023       3.85559470E-05
  -9.25000000       3.61072889E-05
  -9.23999977       3.29218128E-05
  -9.22999954       2.94435777E-05
  -9.22000027       2.60871875E-05
  -9.21000004       2.31163158E-05
  -9.19999981       2.05646920E-05
  -9.18999958       1.82248750E-05
  -9.18000031       1.57092945E-05
  -9.17000008       1.25644810E-05
  -9.15999985       8.40320990E-06
  -9.14999962       3.01473506E-06
  -9.14000034      -3.57792328E-06
  -9.13000011      -1.11263716E-05
  -9.11999989      -1.92214684E-05
  -9.10999966      -2.73879796E-05
  -9.10000038      -3.51763520E-05
  -9.09000015      -4.22238591E-05
  -9.07999992      -4.82725918E-05
  -9.06999969      -5.31497863E-05
  -9.06000042      -5.67304232E-05
  -9.05000019      -5.89066876E-05
  -9.03999996      -5.95835154E-05
  -9.02999973      -5.87046343E-05
  -9.02000046      -5.62979694E-05
  -9.01000023      -5.25173891E-05
  -9.00000000      -4.76563218E-05
  -8.98999977      -4.21185578E-05
  -8.97999954      -3.63477338E-05
  -8.97000027      -3.07351838E-05
  -8.96000004      -2.55370614E-05
  -8.94999981      -2.08309884E-05
  -8.93999958      -1.65304336E-05
  -8.93000031      -1.24545422E-05
  -8.92000008      -8.42971440E-06
  -8.90999985      -4.38664028E-06
  -8.89999962      -4.16329158E-07
  -8.89000034       3.23773088E-06
  -8.88000011       6.25087432E-06
  -8.86999989       8.32703881E-06
  -8.85999966       9.30699571E-06
  -8.85000038       9.23365678E-06
  -8.84000015       8.34724142E-06
  -8.82999992       7.00913097E-06
  -8.81999969       5.57923022E-06
  -8.81000042       4.29082365E-06
  -8.80000019       3.16916839E-06
  -8.78999996       2.02596834E-06
  -8.77999973       5.34940000E-07
  -8.77000046      -1.63576567E-06
  -8.76000023      -4.67958853E-06
  -8.75000000      -8.54666541E-06
  -8.73999977      -1.29153568E-05
  -8.72999954      -1.72504551E-05
  -8.72000027      -2.09274749E-05
  -8.71000004      -2.33797346E-05
  -8.69999981      -2.42172337E-05
  -8.68999958      -2.32785933E-05
  -8.68000031      -2.06034892E-05
  -8.67000008      -1.63426794E-05
  -8.65999985      -1.06463185E-05
  -8.64999962      -3.57804038E-06
  -8.64000034       4.91061382E-06
  -8.63000011       1.49361249E-05
  -8.61999989       2.65905383E-05
  -8.60999966       3.98434713E-05
  -8.60000038       5.44851282E-05
  -8.59000015       7.01422978E-05
  -8.57999992       8.63684909E-05
  -8.56999969       1.02777434E-04
  -8.56000042       1.19167576E-04
  -8.55000019       1.35582188E-04
  -8.53999996       1.52271154E-04
  -8.52999973       1.69556122E-04
  -8.52000046       1.87640006E-04
  -8.51000023       2.06429031E-04
  -8.50000000       2.25438649E-04
  -8.48999977       2.43830262E-04
  -8.47999954       2.60584668E-04
  -8.47000027       2.74765946E-04
  -8.46000004       2.85796472E-04
  -8.44999981       2.93650344E-04
  -8.43999958       2.98894331E-04
  -8.43000031       3.02553060E-04
  -8.42000008       3.05829570E-04
  -8.40999985       3.09764931E-04
  -8.39999962       3.14938690E-04
  -8.39000034       3.21305444E-04
  -8.38000011       3.28217866E-04
  -8.36999989       3.34627955E-04
  -8.35999966       3.39402322E-04
  -8.35000038       3.41650302E-04
  -8.34000015       3.40964209E-04
  -8.32999992       3.37499223E-04
  -8.31999969       3.31877614E-04
  -8.31000042       3.24956171E-04
  -8.30000019       3.17540660E-04
  -8.28999996       3.10143369E-04
  -8.27999973       3.02860164E-04
  -8.27000046       2.95399950E-04
  -8.26000023       2.87245435E-04
  -8.25000000       2.77882355E-04
  -8.23999977       2.67011405E-04
  -8.22999954       2.54670071E-04
  -8.22000027       2.41224974E-04
  -8.21000004       2.27240627E-04
  -8.19999981       2.13276362E-04
  -8.18999958       1.99682487E-04
  -8.18000031       1.86467834E-04
  -8.17000008       1.73282519E-04
  -8.15999985       1.59520903E-04
  -8.14999962       1.44509366E-04
  -8.14000034       1.27716165E-04
  -8.13000011       1.08916618E-04
  -8.11999989       8.82633467E-05
  -8.10999966       6.62431266E-05
  -8.10000038       4.35385882E-05
  -8.09000015       2.08411639E-05
  -8.07999992      -1.32499463E-06
  -8.06999969      -2.27157652E-05
  -8.06000042      -4.33852802E-05
  -8.05000019      -6.36080658E-05
  -8.03999996      -8.37330444E-05
  -8.02999973      -1.04014609E-04
  -8.02000046      -1.24471757E-04
  -8.01000023      -1.44815916E-04
  -8.00000000      -1.64468292E-04
  -7.98999977      -1.82661810E-04
  -7.98000002      -1.98599926E-04
  -7.96999979      -2.11629900E-04
  -7.96000004      -2.21383627E-04
  -7.94999981      -2.27847981E-04
  -7.94000006      -2.31344500E-04
  -7.92999983      -2.32423175E-04
  -7.92000008      -2.31696889E-04
  -7.90999985      -2.29662721E-04
  -7.90000010      -2.26560122E-04
  -7.88999987      -2.22308547E-04
  -7.88000011      -2.16546192E-04
  -7.86999989      -2.08762111E-04
  -7.86000013      -1.98486130E-04
  -7.84999990      -1.85480152E-04
  -7.84000015      -1.69870502E-04
  -7.82999992      -1.52176814E-04
  -7.82000017      -1.33221998E-04
  -7.80999994      -1.13946189E-04
  -7.80000019      -9.51788970E-05
  -7.78999996      -7.74407017E-05
  -7.78000021      -6.08392475E-05
  -7.76999998      -4.50950502E-05
  -7.76000023      -2.96917351E-05
  -7.75000000      -1.41020946E-05
  -7.73999977       1.98643443E-06
  -7.73000002       1.85232002E-05
  -7.71999979       3.50766313E-05
  -7.71000004       5.09551173E-05
  -7.69999981       6.54260730E-05
  -7.69000006       7.79568800E-05
  -7.67999983       8.83920147E-05
  -7.67000008       9.70018809E-05
  -7.65999985       1.04383616E-04
  -7.65000010       1.11249043E-04
  -7.63999987       1.18175136E-04
  -7.63000011       1.25409453E-04
  -7.61999989       1.32802947E-04
  -7.61000013       1.39898053E-04
  -7.59999990       1.46140766E-04
  -7.59000015       1.51139902E-04
  -7.57999992       1.54875161E-04
  -7.57000017       1.57772913E-04
  -7.55999994       1.60614174E-04
  -7.55000019       1.64302677E-04
  -7.53999996       1.69571096E-04
  -7.53000021       1.76731162E-04
  -7.51999998       1.85558412E-04
  -7.51000023       1.95356901E-04
  -7.50000000       2.05185090E-04
  -7.48999977       2.14165964E-04
  -7.48000002       2.21774593E-04
  -7.46999979       2.28004064E-04
  -7.46000004       2.33352897E-04
  -7.44999981       2.38643275E-04
  -7.44000006       2.44735536E-04