  -16.0000000       0.00000000    
  -15.9899998       0.00000000    
  -15.9799995       0.00000000    
  -15.9700003       0.00000000    
  -15.9600000       0.00000000    
  -15.9499998       0.00000000    
  -15.9399996       0.00000000    
  -15.9300003       0.00000000    
  -15.9200001       0.00000000    
  -15.9099998       0.00000000    
  -15.8999996       0.00000000    
  -15.8900003       0.00000000    
  -15.8800001      -0.00000000    
  -15.8699999      -4.20389539E-45
  -15.8599997      -5.32493416E-44
  -15.8500004      -3.08285662E-43
  -15.8400002      -9.19251793E-43
  -15.8299999      -4.91995891E-42
  -15.8199997      -7.65543364E-41
  -15.8100004      -8.19068761E-40
  -15.8000002      -5.94609054E-39
  -15.7900000      -3.26434747E-38
  -15.7799997      -1.44500855E-37
  -15.7700005      -5.35240455E-37
  -15.7600002      -1.69495556E-36
  -15.7500000      -4.63860948E-36
  -15.7399998      -1.09824118E-35
  -15.7299995      -2.22272063E-35
  -15.7200003      -3.70014713E-35
  -15.7100000      -4.47065929E-35
  -15.6999998      -1.51838356E-35
  -15.6899996       1.11520136E-34
  -15.6800003       4.22269484E-34
  -15.6700001       9.90580824E-34
  -15.6599998       1.77063465E-33
  -15.6499996       2.41888599E-33
  -15.6400003       2.10641645E-33
  -15.6300001      -4.90029524E-34
  -15.6199999      -6.69292027E-33
  -15.6099997      -1.64751572E-32
  -15.6000004      -2.62073703E-32
  -15.5900002      -2.62849941E-32
  -15.5799999      -7.93200629E-34
  -15.5699997       6.72189400E-32
  -15.5600004       1.81095766E-31
  -15.5500002       3.05783156E-31
  -15.5400000       3.40083752E-31
  -15.5299997       1.06163538E-31
  -15.5200005      -6.09592374E-31
  -15.5100002      -1.92572475E-30
  -15.5000000      -3.62691879E-30
  -15.4899998      -4.86156553E-30
  -15.4799995      -3.92845059E-30
  -15.4700003       1.56372760E-30
  -15.4600000       1.37964262E-29
  -15.4499998       3.28149423E-29
  -15.4399996       5.36785865E-29
  -15.4300003       6.35792447E-29
  -15.4200001       4.09319847E-29
  -15.4099998      -4.05121771E-29
  -15.3999996      -1.99295170E-28
  -15.3900003      -4.24183374E-28
  -15.3800001      -6.45810388E-28
  -15.3699999      -7.13568070E-28
  -15.3599997      -3.99008147E-28
  -15.3500004       5.46312562E-28
  -15.3400002       2.25470082E-27
  -15.3299999       4.52804157E-27
  -15.3199997       6.59542259E-27
  -15.3100004       6.96416499E-27
  -15.3000002       3.55624389E-27
  -15.2900000      -5.65406809E-27
  -15.2799997      -2.13707612E-26
  -15.2700005      -4.11959373E-26
  -15.2600002      -5.78894667E-26
  -15.2500000      -5.87382071E-26
  -15.2399998      -2.74878274E-26
  -15.2299995       4.98209172E-26
  -15.2200003       1.74772799E-25
  -15.2100000       3.24044018E-25
  -15.1999998       4.39238245E-25
  -15.1899996       4.26923091E-25
  -15.1800003       1.77935478E-25
  -15.1700001      -3.87734182E-25
  -15.1599998      -1.25279375E-24
  -15.1499996      -2.22817391E-24
  -15.1400003      -2.90670394E-24
  -15.1300001      -2.69272089E-24
  -15.1199999      -9.53880253E-25
  -15.1099997       2.68576550E-24
  -15.1000004       7.95089199E-24
  -15.0900002       1.35406665E-23
  -15.0799999       1.69805749E-23
  -15.0699997       1.49456940E-23
  -15.0600004       4.24594876E-24
  -15.0500002      -1.65264324E-23
  -15.0400000      -4.50139336E-23
  -15.0299997      -7.34980885E-23
  -15.0200005      -8.87321664E-23
  -15.0100002      -7.42746306E-23
  -15.0000000      -1.59311706E-23
  -14.9899998       9.01505699E-23
  -14.9799995       2.28738815E-22
  -14.9700003       3.59743368E-22
  -14.9600000       4.19984119E-22
  -14.9499998       3.36522509E-22
  -14.9399996       5.28321952E-23
  -14.9300003      -4.35921507E-22
  -14.9200001      -1.04858875E-21
  -14.9099998      -1.60045857E-21
  -14.8999996      -1.82009664E-21
  -14.8900003      -1.41358856E-21
  -14.8800001      -1.76072706E-22
  -14.8699999       1.87002050E-21
  -14.8599997       4.35365796E-21
  -14.8500004       6.51146360E-21
  -14.8400002       7.28271541E-21
  -14.8299999       5.57912603E-21
  -14.8199997       7.12015604E-22
  -14.8100004      -7.11480340E-21
  -14.8000002      -1.64125849E-20
  -14.7900000      -2.43261152E-20
  -14.7799997      -2.70541326E-20
  -14.7700005      -2.08565885E-20
  -14.7600002      -3.54108750E-21
  -14.7500000       2.39209615E-20
  -14.7399998       5.62165192E-20
  -14.7299995       8.36163794E-20
  -14.7200003       9.35503533E-20
  -14.7100000       7.39944594E-20
  -14.6999998       1.82111114E-20
  -14.6899996      -7.03346957E-20
  -14.6800003      -1.74647063E-19
  -14.6700001      -2.64390421E-19
  -14.6599998      -3.01049902E-19
  -14.6499996      -2.48280174E-19
  -14.6400003      -8.58445907E-20
  -14.6300001       1.76418522E-19
  -14.6199999       4.89616735E-19
  -14.6099997       7.67023903E-19
  -14.6000004       8.99093317E-19
  -14.5900002       7.82344218E-19
  -14.5799999       3.57308756E-19
  -14.5699997      -3.54249041E-19
  -14.5600004      -1.22599468E-18
  -14.5500002      -2.03066285E-18
  -14.5400000      -2.47915708E-18
  -14.5299997      -2.29439181E-18
  -14.5200005      -1.30709467E-18
  -14.5100002       4.51011337E-19
  -14.5000000       2.68857563E-18
  -14.4899998       4.86136445E-18
  -14.4799995       6.26349969E-18
  -14.4700003       6.20039946E-18
  -14.4600000       4.21294170E-18
  -14.4499998       2.96321867E-19
  -14.4399996      -4.95822813E-18
  -14.4300003      -1.03669810E-17
  -14.4200001      -1.43438081E-17
  -14.4099998      -1.52703315E-17
  -14.3999996      -1.19807492E-17
  -14.3900003      -4.24207294E-18
  -14.3800001       6.92003170E-18
  -14.3699999       1.91907556E-17
  -14.3599997       2.93162801E-17
  -14.3500004       3.38244608E-17
  -14.3400002       2.99894563E-17
  -14.3299999       1.68095111E-17
  -14.3199997      -4.29084268E-18
  -14.3100004      -2.93058874E-17
  -14.3000002      -5.22093043E-17
  -14.2900000      -6.62211748E-17
  -14.2799997      -6.55616604E-17
  -14.2700005      -4.72824114E-17
  -14.2600002      -1.26623931E-17
  -14.2500000       3.23169903E-17
  -14.2399998       7.77271975E-17
  -14.2299995       1.11687634E-16
  -14.2200003       1.23255139E-16
  -14.2100000       1.05546777E-16
  -14.1999998       5.82588864E-17
  -14.1899996      -1.12158081E-17
  -14.1800003      -8.85971515E-17
  -14.1700001      -1.55510498E-16
  -14.1599998      -1.93770698E-16
  -14.1499996      -1.90180059E-16
  -14.1400003      -1.40589854E-16
  -14.1300001      -5.20261003E-17
  -14.1199999       5.79250231E-17
  -14.1099997       1.64605885E-16
  -14.1000004       2.41999881E-16
  -14.0900002       2.69331066E-16
  -14.0799999       2.36837771E-16
  -14.0699997       1.49073564E-16
  -14.0600004       2.46324162E-17
  -14.0500002      -1.07906558E-16
  -14.0400000      -2.16976079E-16
  -14.0299997      -2.76230017E-16
  -14.0200005      -2.71768695E-16
  -14.0100002      -2.06291989E-16
  -14.0000000      -9.88184701E-17
  -13.9899998       2.02298285E-17
  -13.9799995       1.17462413E-16
  -13.9700003       1.66268663E-16
  -13.9600000       1.55129121E-16
  -13.9499998       9.19410060E-17
  -13.9399996       2.76140909E-18
  -13.9300003      -7.51432309E-17
  -13.9200001      -1.04411634E-16
  -13.9099998      -5.99920680E-17
  -13.8999996       6.06899768E-17
  -13.8900003       2.33050395E-16
  -13.8800001       4.08185468E-16
  -13.8699999       5.23389070E-16
  -13.8599997       5.18396922E-16
  -13.8500004       3.53632682E-16
  -13.8400002       2.57572446E-17
  -13.8299999      -4.24010506E-16
  -13.8199997      -9.11976128E-16
  -13.8100004      -1.32536135E-15
  -13.8000002      -1.54517974E-15
  -13.7900000      -1.47422887E-15
  -13.7799997      -1.06409763E-15
  -13.7700005      -3.34665629E-16
  -13.7600002       6.19419154E-16
  -13.7500000       1.63835008E-15
  -13.7399998       2.52258842E-15
  -13.7299995       3.07027293E-15
  -13.7200003       3.11968439E-15
  -13.7100000       2.58805856E-15
  -13.6999998       1.49800180E-15
  -13.6899996      -1.53537675E-17
  -13.6800003      -1.71981654E-15
  -13.6700001      -3.32292952E-15
  -13.6599998      -4.52416391E-15
  -13.6499996      -5.07281510E-15
  -13.6400003      -4.81991520E-15
  -13.6300001      -3.75296540E-15
  -13.6199999      -2.00527194E-15
  -13.6099997       1.63343117E-16
  -13.6000004       2.41166204E-15
  -13.5900002       4.37941995E-15
  -13.5799999       5.75418026E-15
  -13.5699997       6.32858295E-15
  -13.5600004       6.03559129E-15
  -13.5500002       4.95415722E-15
  -13.5400000       3.28436962E-15
  -13.5299997       1.29846509E-15
  -13.5200005      -7.20206598E-16
  -13.5100002      -2.53506288E-15
  -13.5000000      -3.99663179E-15
  -13.4899998      -5.05545770E-15
  -13.4799995      -5.74495904E-15
  -13.4700003      -6.13985427E-15
  -13.4600000      -6.30299451E-15
  -13.4499998      -6.23733209E-15
  -13.4399996      -5.85950584E-15
  -13.4300003      -5.00651317E-15
  -13.4200001      -3.47834482E-15
  -13.4099998      -1.10929817E-15
  -13.3999996       2.14854418E-15
  -13.3900003       6.15201851E-15
  -13.3800001       1.05266138E-14
  -13.3699999       1.46768905E-14
  -13.3599997       1.78548802E-14
  -13.3500004       1.92804435E-14
  -13.3400002       1.82944294E-14
  -13.3299999       1.45155104E-14
  -13.3199997       7.96682683E-15
  -13.3100004      -8.58138502E-16
  -13.3000002      -1.10114207E-14
  -13.2900000      -2.11938909E-14
  -13.2799997      -2.99344459E-14
  -13.2700005      -3.58169068E-14
  -13.2600002      -3.77156666E-14
  -13.2500000      -3.49967925E-14
  -13.2399998      -2.76462186E-14
  -13.2299995      -1.62991873E-14
  -13.2200003      -2.16348330E-15
  -13.2100000       1.31511631E-14
  -13.1999998       2.78666996E-14
  -13.1899996       4.02906502E-14
  -13.1800003       4.90443630E-14
  -13.1700001       5.32254532E-14
  -13.1599998       5.24788783E-14
  -13.1499996       4.69712499E-14
  -13.1400003       3.72838899E-14
  -13.1300001       2.42576650E-14
  -13.1199999       8.83258852E-15
  -13.1099997      -8.07511830E-15
  -13.1000004      -2.56273003E-14
  -13.0900002      -4.30375916E-14
  -13.0799999      -5.94766275E-14
  -13.0699997      -7.39444449E-14
  -13.0600004      -8.51612617E-14
  -13.0500002      -9.15328265E-14
  -13.0400000      -9.12358297E-14
  -13.0299997      -8.24470022E-14
  -13.0200005      -6.37044806E-14
  -13.0100002      -3.43536540E-14
  -13.0000000       5.00398351E-15
  -12.9899998       5.21616204E-14
  -12.9799995       1.03162169E-13
  -12.9700003       1.52441563E-13
  -12.9600000       1.93304858E-13
  -12.9499998       2.18718896E-13
  -12.9399996       2.22342950E-13
  -12.9300003       1.99657551E-13
  -12.9200001       1.49009264E-13
  -12.9099998       7.23747098E-14
  -12.8999996      -2.43324444E-14
  -12.8900003      -1.31531382E-13
  -12.8800001      -2.36858113E-13
  -12.8699999      -3.26593434E-13
  -12.8599997      -3.87469028E-13
  -12.8500004      -4.08599071E-13
  -12.8400002      -3.83241317E-13
  -12.8299999      -3.10095835E-13
  -12.8199997      -1.93904639E-13
  -12.8100004      -4.52178883E-14
  -12.8000002       1.20675022E-13
  -12.7900000       2.85512607E-13
  -12.7799997       4.30273303E-13
  -12.7700005       5.37501955E-13
  -12.7600002       5.93407322E-13
  -12.7500000       5.89435564E-13
  -12.7399998       5.23130259E-13
  -12.7299995       3.98223989E-13
  -12.7200003       2.24046666E-13
  -12.7100000       1.44458149E-14
  -12.6999998      -2.13531639E-13
  -12.6899996      -4.40954266E-13
  -12.6800003      -6.48156767E-13
  -12.6700001      -8.15673917E-13
  -12.6599998      -9.25035981E-13
  -12.6499996      -9.59595142E-13
  -12.6400003      -9.05583117E-13
  -12.6300001      -7.53552223E-13
  -12.6199999      -5.00218194E-13
  -12.6099997      -1.50540767E-13
  -12.6000004       2.80310904E-13
  -12.5900002       7.65614514E-13
  -12.5799999       1.26692569E-12
  -12.5699997       1.73555647E-12
  -12.5600004       2.11597233E-12
  -12.5500002       2.35103451E-12
  -12.5400000       2.38866912E-12
  -12.5299997       2.18916421E-12
  -12.5200005       1.73207748E-12
  -12.5100002       1.02162278E-12
  -12.5000000       8.95646472E-14
  -12.4899998      -1.00506701E-12
  -12.4799995      -2.17963451E-12
  -12.4700003      -3.33459952E-12
  -12.4600000      -4.36245571E-12
  -12.4499998      -5.15767030E-12
  -12.4399996      -5.62629457E-12
  -12.4300003      -5.69394878E-12
  -12.4200001      -5.31119506E-12
  -12.4099998      -4.45576648E-12
  -12.3999996      -3.13169412E-12
  -12.3900003      -1.36583626E-12
  -12.3800001       7.97312628E-13
  -12.3699999       3.30143920E-12
  -12.3599997       6.08386952E-12
  -12.3500004       9.07986793E-12
  -12.3400002       1.22254420E-11
  -12.3299999       1.54586326E-11
  -12.3199997       1.87196716E-11
  -12.3100004       2.19506271E-11
  -12.3000002       2.50951031E-11
  -12.2900000       2.80984385E-11
  -12.2799997       3.09086159E-11
  -12.2700005       3.34776165E-11
  -12.2600002       3.57627365E-11
  -12.2500000       3.77272519E-11
  -12.2399998       3.93398369E-11
  -12.2299995       4.05722296E-11
  -12.2200003       4.13954183E-11
  -12.2100000       4.17745318E-11
  -12.1999998       4.16636760E-11
  -12.1899996       4.10016153E-11
  -12.1800003       3.97097702E-11
  -12.1700001       3.76932409E-11
  -12.1599998       3.48454737E-11
  -12.1499996       3.10562999E-11
  -12.1400003       2.62223802E-11
  -12.1300001       2.02587513E-11
  -12.1199999       1.31096202E-11
  -12.1099997       4.75673884E-12
  -12.1000004      -4.77593876E-12
  -12.0900002      -1.54219745E-11
  -12.0799999      -2.70764140E-11
  -12.0699997      -3.96029806E-11
  -12.0600004      -5.28431639E-11
  -12.0500002      -6.66252123E-11
  -12.0400000      -8.07715769E-11
  -12.0299997      -9.51036333E-11
  -12.0200005      -1.09443232E-10
  -12.0100002      -1.23611482E-10
  -12.0000000      -1.37425918E-10
  -11.9899998      -1.50697607E-10
  -11.9799995      -1.63229555E-10
  -11.9700003      -1.74818049E-10
  -11.9600000      -1.85256699E-10
  -11.9499998      -1.94343708E-10
  -11.9399996      -2.01890796E-10
  -11.9300003      -2.07731915E-10
  -11.9200001      -2.11730578E-10
  -11.9099998      -2.13783741E-10
  -11.8999996      -2.13821502E-10
  -11.8900003      -2.11802659E-10
  -11.8800001      -2.07707185E-10
  -11.8699999      -2.01527017E-10
  -11.8599997      -1.93257646E-10
  -11.8500004      -1.82891799E-10
  -11.8400002      -1.70417333E-10
  -11.8299999      -1.55818997E-10
  -11.8199997      -1.39084091E-10
  -11.8100004      -1.20210342E-10
  -11.8000002      -9.92140467E-11
  -11.7900000      -7.61364374E-11
  -11.7799997      -5.10467224E-11
  -11.7700005      -2.40411475E-11
  -11.7600002       4.76187752E-12
  -11.7500000       3.52290003E-11
  -11.7399998       6.72197506E-11
  -11.7299995       1.00592625E-10
  -11.7200003       1.35207498E-10
  -11.7100000       1.70923442E-10
  -11.6999998       2.07590944E-10
  -11.6899996       2.45041099E-10
  -11.6800003       2.83071955E-10
  -11.6700001       3.21435628E-10
  -11.6599998       3.59829000E-10
  -11.6499996       3.97888916E-10
  -11.6400003       4.35194963E-10
  -11.6300001       4.71279127E-10
  -11.6199999       5.05641584E-10
  -11.6099997       5.37771827E-10
  -11.6000004       5.67171532E-10
  -11.5900002       5.93376737E-10
  -11.5799999       6.15977491E-10
  -11.5699997       6.34632014E-10
  -11.5600004       6.49073517E-10
  -11.5500002       6.59110655E-10
  -11.5400000       6.64620581E-10
  -11.5299997       6.65536737E-10
  -11.5200005       6.61832422E-10
  -11.5100002       6.53504029E-10
  -11.5000000       6.40553111E-10
  -11.4899998       6.22973062E-10
  -11.4799995       6.00737460E-10
  -11.4700003       5.73794956E-10
  -11.4600000       5.42066669E-10
  -11.4499998       5.05448627E-10
  -11.4399996       4.63816402E-10
  -11.4300003       4.17031160E-10
  -11.4200001       3.64947489E-10
  -11.4099998       3.07420700E-10
  -11.3999996       2.44313847E-10
  -11.3900003       1.75505860E-10
  -11.3800001       1.00898970E-10
  -11.3699999       2.04266933E-11
  -11.3599997      -6.59376720E-11
  -11.3500004      -1.58173516E-10
  -11.3400002      -2.56207278E-10
  -11.3299999      -3.59908464E-10
  -11.3199997      -4.69090600E-10
  -11.3100004      -5.83515680E-10
  -11.3000002      -7.02903902E-10
  -11.2900000      -8.26946678E-10
  -11.2799997      -9.55321822E-10
  -11.2700005      -1.08770926E-09
  -11.2600002      -1.22380561E-09
  -11.2500000      -1.36333067E-09
  -11.2399998      -1.50603630E-09
  -11.2299995      -1.65170300E-09
  -11.2200003      -1.80013349E-09
  -11.2100000      -1.95114569E-09
  -11.1999998      -2.10456097E-09
  -11.1899996      -2.26019248E-09
  -11.1800003      -2.41784104E-09
  -11.1700001      -2.57728927E-09
  -11.1599998      -2.73830181E-09
  -11.1499996      -2.90063107E-09
  -11.1400003      -3.06402281E-09
  -11.1300001      -3.22822857E-09
  -11.1199999      -3.39300810E-09
  -11.1099997      -3.55814400E-09
  -11.1000004      -3.72344000E-09
  -11.0900002      -3.88873023E-09
  -11.0799999      -4.05387546E-09
  -11.0699997      -4.21876178E-09
  -11.0600004      -4.38330039E-09
  -11.0500002      -4.54742288E-09
  -11.0400000      -4.71107997E-09
  -11.0299997      -4.87424323E-09
  -11.0200005      -5.03689979E-09
  -11.0100002      -5.19906340E-09
  -11.0000000      -5.36076739E-09
  -10.9899998      -5.52207036E-09
  -10.9799995      -5.68306380E-09
  -10.9700003      -5.84385385E-09
  -10.9600000      -6.00457151E-09
  -10.9499998      -6.16535578E-09
  -10.9399996      -6.32634700E-09
  -10.9300003      -6.48766951E-09
  -10.9200001      -6.64942101E-09
  -10.9099998      -6.81165568E-09
  -10.8999996      -6.97438196E-09
  -10.8900003      -7.13755233E-09
  -10.8800001      -7.30106953E-09
  -10.8699999      -7.46479589E-09
  -10.8599997      -7.62856356E-09
  -10.8500004      -7.79218645E-09
  -10.8400002      -7.95547450E-09
  -10.8299999      -8.11824830E-09
  -10.8199997      -8.28033730E-09
  -10.8100004      -8.44158077E-09
  -10.8000002      -8.60182237E-09
  -10.7900000      -8.76090134E-09
  -10.7799997      -8.91864804E-09
  -10.7700005      -9.07486353E-09
  -10.7600002      -9.22933285E-09
  -10.7500000      -9.38182776E-09
  -10.7399998      -9.53211465E-09
  -10.7299995      -9.67997327E-09
  -10.7200003      -9.82522064E-09
  -10.7100000      -9.96772886E-09
  -10.6999998      -1.01074296E-08
  -10.6899996      -1.02443396E-08
  -10.6800003      -1.03785416E-08
  -10.6700001      -1.05101776E-08
  -10.6599998      -1.06394351E-08
  -10.6499996      -1.07665175E-08
  -10.6400003      -1.08916183E-08
  -10.6300001      -1.10148983E-08
  -10.6199999      -1.11364651E-08
  -10.6099997      -1.12563674E-08
  -10.6000004      -1.13745928E-08
  -10.5900002      -1.14910668E-08
  -10.5799999      -1.16056755E-08
  -10.5699997      -1.17182788E-08
  -10.5600004      -1.18287264E-08
  -10.5500002      -1.19368888E-08
  -10.5400000      -1.20426540E-08
  -10.5299997      -1.21459518E-08
  -10.5200005      -1.22467512E-08
  -10.5100002      -1.23450636E-08
  -10.5000000      -1.24409443E-08
  -10.4899998      -1.25344872E-08
  -10.4799995      -1.26258222E-08
  -10.4700003      -1.27151152E-08
  -10.4600000      -1.28025874E-08
  -10.4499998      -1.28884814E-08
  -10.4399996      -1.29730857E-08
  -10.4300003      -1.30567246E-08
  -10.4200001      -1.31397426E-08
  -10.4099998      -1.32224907E-08
  -10.3999996      -1.33053097E-08
  -10.3900003      -1.33884903E-08
  -10.3800001      -1.34722677E-08
  -10.3699999      -1.35567850E-08
  -10.3599997      -1.36420857E-08
  -10.3500004      -1.37280995E-08
  -10.3400002      -1.38146623E-08
  -10.3299999      -1.39015333E-08
  -10.3199997      -1.39884175E-08
  -10.3100004      -1.40750096E-08
  -10.3000002      -1.41610315E-08
  -10.2900000      -1.42462735E-08
  -10.2799997      -1.43306087E-08
  -10.2700005      -1.44140175E-08
  -10.2600002      -1.44965835E-08
  -10.2500000      -1.45784842E-08
  -10.2399998      -1.46599657E-08
  -10.2299995      -1.47413139E-08
  -10.2200003      -1.48228247E-08
  -10.2100000      -1.49047725E-08
  -10.1999998      -1.49873944E-08
  -10.1899996      -1.50708779E-08
  -10.1800003      -1.51553650E-08
  -10.1700001      -1.52409481E-08
  -10.1599998      -1.53276858E-08
  -10.1499996      -1.54156368E-08
  -10.1400003      -1.55048561E-08
  -10.1300001      -1.55954059E-08
  -10.1199999      -1.56873927E-08
  -10.1099997      -1.57809463E-08
  -10.1000004      -1.58762372E-08
  -10.0900002      -1.59734785E-08
  -10.0799999      -1.60729083E-08
  -10.0699997      -1.61747824E-08
  -10.0600004      -1.62793725E-08
  -10.0500002      -1.63869522E-08
  -10.0400000      -1.64977774E-08
  -10.0299997      -1.66120824E-08
  -10.0200005      -1.67300982E-08
  -10.0100002      -1.68520220E-08
  -10.0000000      -1.69780687E-08
  -9.98999977      -1.71084444E-08
  -9.97999954      -1.72433801E-08
  -9.97000027      -1.73831491E-08
  -9.96000004      -1.75280483E-08
  -9.94999981      -1.76784312E-08
  -9.93999958      -1.78346689E-08
  -9.93000031      -1.79971718E-08
  -9.92000008      -1.81663768E-08
  -9.90999985      -1.83427105E-08
  -9.89999962      -1.85266398E-08
  -9.89000034      -1.87186320E-08
  -9.88000011      -1.89191844E-08
  -9.86999989      -1.91288105E-08
  -9.85999966      -1.93480805E-08
  -9.85000038      -1.95775751E-08
  -9.84000015      -1.98179020E-08
  -9.82999992      -2.00696810E-08
  -9.81999969      -2.03335375E-08
  -9.81000042      -2.06100736E-08
  -9.80000019      -2.08998703E-08
  -9.78999996      -2.12034568E-08
  -9.77999973      -2.15213269E-08
  -9.77000046      -2.18539302E-08
  -9.76000023      -2.22016574E-08
  -9.75000000      -2.25648424E-08
  -9.73999977      -2.29437500E-08
  -9.72999954      -2.33385684E-08
  -9.72000027      -2.37494220E-08
  -9.71000004      -2.41763178E-08
  -9.69999981      -2.46191956E-08
  -9.68999958      -2.50778633E-08
  -9.68000031      -2.55520352E-08
  -9.67000008      -2.60413131E-08
  -9.65999985      -2.65451980E-08
  -9.64999962      -2.70630789E-08
  -9.64000034      -2.75942575E-08
  -9.63000011      -2.81379293E-08
  -9.61999989      -2.86932362E-08
  -9.60999966      -2.92592457E-08
  -9.60000038      -2.98349896E-08
  -9.59000015      -3.04194963E-08
  -9.57999992      -3.10117727E-08
  -9.56999969      -3.16108171E-08
  -9.56000042      -3.22156417E-08
  -9.55000019      -3.28252412E-08
  -9.53999996      -3.34385923E-08
  -9.52999973      -3.40546578E-08
  -9.52000046      -3.46723574E-08
  -9.51000023      -3.52906255E-08
  -9.50000000      -3.59083820E-08
  -9.48999977      -3.65246073E-08
  -9.47999954      -3.71383280E-08
  -9.47000027      -3.77486735E-08
  -9.46000004      -3.83549157E-08
  -9.44999981      -3.89564470E-08
  -9.43999958      -3.95528055E-08
  -9.43000031      -4.01436857E-08
  -9.42000008      -4.07289171E-08
  -9.40999985      -4.13085068E-08
  -9.39999962      -4.18825721E-08
  -9.39000034      -4.24513935E-08
  -9.38000011      -4.30153619E-08
  -9.36999989      -4.35750387E-08
  -9.35999966      -4.41311343E-08
  -9.35000038      -4.46845227E-08
  -9.34000015      -4.52362379E-08
  -9.32999992      -4.57874734E-08
  -9.31999969      -4.63396397E-08
  -9.31000042      -4.68943000E-08
  -9.30000019      -4.74532023E-08
  -9.28999996      -4.80182614E-08
  -9.27999973      -4.85914988E-08
  -9.27000046      -4.91750143E-08
  -9.26000023      -4.97709287E-08
  -9.25000000      -5.03813631E-08
  -9.23999977      -5.10083353E-08
  -9.22999954      -5.16538172E-08
  -9.22000027      -5.23196135E-08
  -9.21000004      -5.30074260E-08
  -9.19999981      -5.37188676E-08
  -9.18999958      -5.44554055E-08
  -9.18000031      -5.52183934E-08
  -9.17000008      -5.60091031E-08
  -9.15999985      -5.68285792E-08
  -9.14999962      -5.76777275E-08
  -9.14000034      -5.85572764E-08
  -9.13000011      -5.94677125E-08
  -9.11999989      -6.04093131E-08
  -9.10999966      -6.13821314E-08
  -9.10000038      -6.23860288E-08
  -9.09000015      -6.34206430E-08
  -9.07999992      -6.44854481E-08
  -9.06999969      -6.55797550E-08
  -9.06000042      -6.67026185E-08
  -9.05000019      -6.78528949E-08
  -9.03999996      -6.90291557E-08
  -9.02999973      -7.02297456E-08
  -9.02000046      -7.14527886E-08
  -9.01000023      -7.26961602E-08
  -9.00000000      -7.39575086E-08
  -8.98999977      -7.52343539E-08
  -8.97999954      -7.65241310E-08
  -8.97000027      -7.78241258E-08
  -8.96000004      -7.91316239E-08
  -8.94999981      -8.04438471E-08
  -8.93999958      -8.17580528E-08
  -8.93000031      -8.30715265E-08
  -8.92000008      -8.43815187E-08
  -8.90999985      -8.56854641E-08
  -8.89999962      -8.69808403E-08
  -8.89000034      -8.82651889E-08
  -8.88000011      -8.95362717E-08
  -8.86999989      -9.07918931E-08
  -8.85999966      -9.20300280E-08
  -8.85000038      -9.32486799E-08
  -8.84000015      -9.44460012E-08
  -8.82999992      -9.56202655E-08
  -8.81999969      -9.67699094E-08
  -8.81000042      -9.78935901E-08
  -8.80000019      -9.89901991E-08
  -8.78999996      -1.00058884E-07
  -8.77999973      -1.01099076E-07
  -8.77000046      -1.02110434E-07
  -8.76000023      -1.03092901E-07
  -8.75000000      -1.04046528E-07
  -8.73999977      -1.04971555E-07
  -8.72999954      -1.05868338E-07
  -8.72000027      -1.06737467E-07
  -8.71000004      -1.07579609E-07
  -8.69999981      -1.08395724E-07
  -8.68999958      -1.09186928E-07
  -8.68000031      -1.09954662E-07
  -8.67000008      -1.10700498E-07
  -8.65999985      -1.11426246E-07
  -8.64999962      -1.12133783E-07
  -8.64000034      -1.12825141E-07
  -8.63000011      -1.13502345E-07
  -8.61999989      -1.14167413E-07
  -8.60999966      -1.14822512E-07
  -8.60000038      -1.15469682E-07
  -8.59000015      -1.16111124E-07
  -8.57999992      -1.16749042E-07
  -8.56999969      -1.17385625E-07
  -8.56000042      -1.18023031E-07
  -8.55000019      -1.18663337E-07
  -8.53999996      -1.19308410E-07
  -8.52999973      -1.19960092E-07
  -8.52000046      -1.20619973E-07
  -8.51000023      -1.21289531E-07
  -8.50000000      -1.21970174E-07
  -8.48999977      -1.22663295E-07
  -8.47999954      -1.23370143E-07
  -8.47000027      -1.24091997E-07
  -8.46000004      -1.24830080E-07
  -8.44999981      -1.25585316E-07
  -8.43999958      -1.26358643E-07
  -8.43000031      -1.27150585E-07
  -8.42000008      -1.27961528E-07
  -8.40999985      -1.28791669E-07
  -8.39999962      -1.29640981E-07
  -8.39000034      -1.30509264E-07
  -8.38000011      -1.31396334E-07
  -8.36999989      -1.32301921E-07
  -8.35999966      -1.33225626E-07
  -8.35000038      -1.34167053E-07
  -8.34000015      -1.35125703E-07
  -8.32999992      -1.36100937E-07
  -8.31999969      -1.37092101E-07
  -8.31000042      -1.38098372E-07
  -8.30000019      -1.39118981E-07
  -8.28999996      -1.40153176E-07
  -8.27999973      -1.41200289E-07
  -8.27000046      -1.42259637E-07
  -8.26000023      -1.43330823E-07
  -8.25000000      -1.44413434E-07
  -8.23999977      -1.45507286E-07
  -8.22999954      -1.46612152E-07
  -8.22000027      -1.47727917E-07
  -8.21000004      -1.48854582E-07
  -8.19999981      -1.49992218E-07
  -8.18999958      -1.51141052E-07
  -8.18000031      -1.52301467E-07
  -8.17000008      -1.53474105E-07
  -8.15999985      -1.54659745E-07
  -8.14999962      -1.55859340E-07
  -8.14000034      -1.57074126E-07
  -8.13000011      -1.58305255E-07
  -8.11999989      -1.59554190E-07
  -8.10999966      -1.60822452E-07
  -8.10000038      -1.62111647E-07
  -8.09000015      -1.63423408E-07
  -8.07999992      -1.64759641E-07
  -8.06999969      -1.66122064E-07
  -8.06000042      -1.67512724E-07
  -8.05000019      -1.68933667E-07
  -8.03999996      -1.70386897E-07
  -8.02999973      -1.71874333E-07
  -8.02000046      -1.73397979E-07
  -8.01000023      -1.74959609E-07
  -8.00000000      -1.76560889E-07
  -7.98999977      -1.78203337E-07
  -7.98000002      -1.79888275E-07
  -7.96999979      -1.81616983E-07
  -7.96000004      -1.83390370E-07
  -7.94999981      -1.85209487E-07
  -7.94000006      -1.87075003E-07
  -7.92999983      -1.88987684E-07
  -7.92000008      -1.90948043E-07
  -7.90999985      -1.92956392E-07
  -7.90000010      -1.95012845E-07
  -7.88999987      -1.97117444E-07
  -7.88000011      -1.99269991E-07
  -7.86999989      -2.01469831E-07
  -7.86000013      -2.03716482E-07
  -7.84999990      -2.06009119E-07
  -7.84000015      -2.08346833E-07
  -7.82999992      -2.10728800E-07
  -7.82000017      -2.13154166E-07
  -7.80999994      -2.15621910E-07
  -7.80000019      -2.18131277E-07
  -7.78999996      -2.20681414E-07
  -7.78000021      -2.23271286E-07
  -7.76999998      -2.25900109E-07
  -7.76000023      -2.28566932E-07
  -7.75000000      -2.31270846E-07
  -7.73999977      -2.34010997E-07
  -7.73000002      -2.36786590E-07
  -7.71999979      -2.39596829E-07
  -7.71000004      -2.42441104E-07
  -7.69999981      -2.45318887E-07
  -7.69000006      -2.48229611E-07
  -7.67999983      -2.51172736E-07
  -7.67000008      -2.54148034E-07
  -7.65999985      -2.57155023E-07
  -7.65000010      -2.60193701E-07
  -7.63999987      -2.63263985E-07
  -7.63000011      -2.66365902E-07
  -7.61999989      -2.69499736E-07
  -7.61000013      -2.72666028E-07
  -7.59999990      -2.75865318E-07
  -7.59000015      -2.79098145E-07
  -7.57999992      -2.82365363E-07
  -7.57000017      -2.85667141E-07
  -7.55999994      -2.89004333E-07
  -7.55000019      -2.92377280E-07
  -7.53999996      -2.95786464E-07
  -7.53000021      -2.99232568E-07
  -7.51999998      -3.02716330E-07
  -7.51000023      -3.06238803E-07
  -7.50000000      -3.09800868E-07
  -7.48999977      -3.13403632E-07
  -7.48000002      -3.17048148E-07
  -7.46999979      -3.20735325E-07
  -7.46000004      -3.24466214E-07
  -7.44999981      -3.28241754E-07
  -7.44000006      -3.32062882E-07