  -16.0000000       0.00000000    
  -15.9899998       0.00000000    
  -15.9799995       0.00000000    
  -15.9700003       0.00000000    
  -15.9600000       0.00000000    
  -15.9499998       0.00000000    
  -15.9399996       0.00000000    
  -15.9300003       0.00000000    
  -15.9200001       0.00000000    
  -15.9099998       0.00000000    
  -15.8999996       0.00000000    
  -15.8900003       0.00000000    
  -15.8800001      -4.50433378E-41
  -15.8699999      -7.42468182E-40
  -15.8599997      -4.44714539E-39
  -15.8500004       4.92980864E-39
  -15.8400002       3.38426852E-37
  -15.8299999       3.76250889E-36
  -15.8199997       2.85116470E-35
  -15.8100004       1.73151420E-34
  -15.8000002       8.89994232E-34
  -15.7900000       3.96862064E-33
  -15.7799997       1.55694638E-32
  -15.7700005       5.42581450E-32
  -15.7600002       1.69193651E-31
  -15.7500000       4.74733221E-31
  -15.7399998       1.20319934E-30
  -15.7299995       2.75964640E-30
  -15.7200003       5.72291926E-30
  -15.7100000       1.06762347E-29
  -15.6999998       1.76881785E-29
  -15.6899996       2.52555258E-29
  -15.6800003       2.86458577E-29
  -15.6700001       1.79340836E-29
  -15.6599998      -2.33267371E-29
  -15.6499996      -1.16954323E-28
  -15.6400003      -2.83679201E-28
  -15.6300001      -5.27977757E-28
  -15.6199999      -8.11653227E-28
  -15.6099997      -1.01774073E-27
  -15.6000004      -9.16175371E-28
  -15.5900002      -1.59713639E-28
  -15.5799999       1.64049750E-27
  -15.5699997       4.69951327E-27
  -15.5600004       8.67038716E-27
  -15.5500002       1.21499132E-26
  -15.5400000       1.23329628E-26
  -15.5299997       5.29637013E-27
  -15.5200005      -1.24981398E-26
  -15.5100002      -4.11622721E-26
  -15.5000000      -7.33711208E-26
  -15.4899998      -9.14482136E-26
  -15.4799995      -6.91169542E-26
  -15.4700003       1.82775929E-26
  -15.4600000       1.73951250E-25
  -15.4499998       3.55670093E-25
  -15.4399996       4.61958770E-25
  -15.4300003       3.49575057E-25
  -15.4200001      -1.00332464E-25
  -15.4099998      -8.71061592E-25
  -15.3999996      -1.69657968E-24
  -15.3900003      -2.02965411E-24
  -15.3800001      -1.19196104E-24
  -15.3699999       1.24150495E-24
  -15.3599997       4.90246958E-24
  -15.3500004       8.20015941E-24
  -15.3400002       8.41909435E-24
  -15.3299999       2.72686062E-24
  -15.3199997      -9.87205544E-24
  -15.3100004      -2.62634593E-23
  -15.3000002      -3.80094136E-23
  -15.2900000      -3.29292693E-23
  -15.2799997      -6.09183635E-25
  -15.2700005       5.89109333E-23
  -15.2600002       1.26839594E-22
  -15.2500000       1.63755079E-22
  -15.2399998       1.20312471E-22
  -15.2299995      -3.72923738E-23
  -15.2200003      -2.93290861E-22
  -15.2100000      -5.56090241E-22
  -15.1999998      -6.62484934E-22
  -15.1899996      -4.30781920E-22
  -15.1800003       2.37889576E-22
  -15.1700001       1.24209913E-21
  -15.1599998       2.20935923E-21
  -15.1499996       2.54521960E-21
  -15.1400003       1.64592715E-21
  -15.1300001      -7.56429256E-22
  -15.1199999      -4.24590556E-21
  -15.1099997      -7.57603737E-21
  -15.1000004      -8.91795374E-21
  -15.0900002      -6.56054029E-21
  -15.0799999       1.23523286E-22
  -15.0699997       9.88399730E-21
  -15.0600004       1.95125977E-20
  -15.0500002       2.48233768E-20
  -15.0400000       2.25214204E-20
  -15.0299997       1.21220378E-20
  -15.0200005      -3.35334921E-21
  -15.0100002      -1.89302739E-20
  -15.0000000      -3.13541293E-20
  -14.9899998      -4.29617545E-20
  -14.9799995      -6.23292805E-20
  -14.9700003      -9.83957188E-20
  -14.9600000      -1.47599226E-19
  -14.9499998      -1.78985147E-19
  -14.9399996      -1.28243652E-19
  -14.9300003       8.57700087E-20
  -14.9200001       5.13642868E-19
  -14.9099998       1.10406547E-18
  -14.8999996       1.63802358E-18
  -14.8900003       1.71834685E-18
  -14.8800001       8.67525623E-19
  -14.8699999      -1.24170625E-18
  -14.8599997      -4.46286026E-18
  -14.8500004      -7.88537133E-18
  -14.8400002      -9.77383790E-18
  -14.8299999      -7.93698657E-18
  -14.8199997      -6.15667118E-19
  -14.8100004       1.22538701E-17
  -14.8000002       2.78483323E-17
  -14.7900000       4.00313131E-17
  -14.7799997       4.04076670E-17
  -14.7700005       2.12221574E-17
  -14.7600002      -2.02868428E-17
  -14.7500000      -7.74578345E-17
  -14.7399998      -1.31921146E-16
  -14.7299995      -1.55847167E-16
  -14.7200003      -1.20172323E-16
  -14.7100000      -8.04217665E-18
  -14.6999998       1.70284751E-16
  -14.6899996       3.67559677E-16
  -14.6800003       5.02132248E-16
  -14.6700001       4.78282395E-16
  -14.6599998       2.23728401E-16
  -14.6499996      -2.64659203E-16
  -14.6400003      -8.84325955E-16
  -14.6300001      -1.42115093E-15
  -14.6199999      -1.59187952E-15
  -14.6099997      -1.13855638E-15
  -14.6000004       4.32944182E-17
  -14.5900002       1.78491420E-15
  -14.5799999       3.59040707E-15
  -14.5699997       4.70256472E-15
  -14.5600004       4.31302782E-15
  -14.5500002       1.88880915E-15
  -14.5400000      -2.47571637E-15
  -14.5299997      -7.82157508E-15
  -14.5200005      -1.23521790E-14
  -14.5100002      -1.38233482E-14
  -14.5000000      -1.02820398E-14
  -14.4899998      -9.88291785E-16
  -14.4799995       1.27846139E-14
  -14.4700003       2.74451601E-14
  -14.4600000       3.75854370E-14
  -14.4499998       3.73943565E-14
  -14.4399996       2.27608188E-14
  -14.4300003      -6.50139715E-15
  -14.4200001      -4.51232849E-14
  -14.4099998      -8.23668458E-14
  -14.3999996      -1.04048999E-13
  -14.3900003      -9.65264584E-14
  -14.3800001      -5.18105693E-14
  -14.3699999       2.76810909E-14
  -14.3599997       1.26552984E-13
  -14.3500004       2.17594782E-13
  -14.3400002       2.67360136E-13
  -14.3299999       2.45505954E-13
  -14.3199997       1.35769990E-13
  -14.3100004      -5.45987985E-14
  -14.3000002      -2.90423393E-13
  -14.2900000      -5.11833739E-13
  -14.2799997      -6.45973672E-13
  -14.2700005      -6.25591972E-13
  -14.2600002      -4.10497076E-13
  -14.2500000      -6.33693046E-15
  -14.2399998       5.25169751E-13
  -14.2299995       1.06907528E-12
  -14.2200003       1.47501412E-12
  -14.2100000       1.58852250E-12
  -14.1999998       1.29086130E-12
  -14.1899996       5.39702560E-13
  -14.1800003      -5.98705384E-13
  -14.1700001      -1.93527898E-12
  -14.1599998      -3.16994564E-12
  -14.1499996      -3.93447254E-12
  -14.1400003      -3.86622635E-12
  -14.1300001      -2.70572020E-12
  -14.1199999      -4.01968525E-13
  -14.1099997       2.79902729E-12
  -14.1000004       6.31419222E-12
  -14.0900002       9.26291249E-12
  -14.0799999       1.06084109E-11
  -14.0699997       9.40063565E-12
  -14.0600004       5.08860011E-12
  -14.0500002      -2.16711479E-12
  -14.0400000      -1.12795918E-11
  -14.0299997      -2.02261593E-11
  -14.0200005      -2.63257593E-11
  -14.0100002      -2.68224366E-11
  -14.0000000      -1.97005676E-11
  -13.9899998      -4.55319289E-12
  -13.9799995       1.67568025E-11
  -13.9700003       3.99221073E-11
  -13.9600000       5.87210489E-11
  -13.9499998       6.63078620E-11
  -13.9399996       5.70942252E-11
  -13.9300003       2.88093178E-11
  -13.9200001      -1.58523108E-11
  -13.9099998      -6.86256954E-11
  -13.8999996      -1.16588808E-10
  -13.8900003      -1.44724288E-10
  -13.8800001      -1.39784476E-10
  -13.8699999      -9.46127413E-11
  -13.8599997      -1.17435471E-11
  -13.8500004       9.49734111E-11
  -13.8400002       2.01663866E-10
  -13.8299999       2.78914114E-10
  -13.8199997       2.98835012E-10
  -13.8100004       2.43211173E-10
  -13.8000002       1.10608980E-10
  -13.7900000      -7.97875585E-11
  -13.7799997      -2.89324537E-10
  -13.7700005      -4.66614802E-10
  -13.7600002      -5.59000068E-10
  -13.7500000      -5.26384603E-10
  -13.7399998      -3.54077212E-10
  -13.7299995      -6.09862785E-11
  -13.7200003       2.99750391E-10
  -13.7100000       6.49012344E-10
  -13.6999998       8.97954044E-10
  -13.6899996       9.69134661E-10
  -13.6800003       8.17727386E-10
  -13.6700001       4.47354931E-10
  -13.6599998      -8.41837502E-11
  -13.6499996      -6.71999012E-10
  -13.6400003      -1.18380916E-09
  -13.6300001      -1.48881141E-09
  -13.6199999      -1.48965307E-09
  -13.6099997      -1.14990328E-09
  -13.6000004      -5.09779219E-10
  -13.5900002       3.15078380E-10
  -13.5799999       1.15337639E-09
  -13.5699997       1.81363469E-09
  -13.5600004       2.12837614E-09
  -13.5500002       1.99696704E-09
  -13.5400000       1.41634426E-09
  -13.5299997       4.90460672E-10
  -13.5200005      -5.86255045E-10
  -13.5100002      -1.57017466E-09
  -13.5000000      -2.22651098E-09
  -13.4899998      -2.39074494E-09
  -13.4799995      -2.01728589E-09
  -13.4700003      -1.20051746E-09
  -13.4600000      -1.58913160E-10
  -13.4499998       8.18056012E-10
  -13.4399996       1.44982382E-09
  -13.4300003       1.55169511E-09
  -13.4200001       1.10378306E-09
  -13.4099998       2.78043394E-10
  -13.3999996      -5.91926341E-10
  -13.3900003      -1.09893905E-09
  -13.3800001      -8.91273888E-10
  -13.3699999       1.90312419E-10
  -13.3599997       2.00918993E-09
  -13.3500004       4.10283763E-09
  -13.3400002       5.75158721E-09
  -13.3299999       6.14643403E-09
  -13.3199997       4.62682115E-09
  -13.3100004       9.31521860E-10
  -13.3000002      -4.60858374E-09
  -13.2900000      -1.10060254E-08
  -13.2799997      -1.67268031E-08
  -13.2700005      -1.99816910E-08
  -13.2600002      -1.91560154E-08
  -13.2500000      -1.32882878E-08
  -13.2399998      -2.47949794E-09
  -13.2299995       1.18895134E-08
  -13.2200003       2.72256298E-08
  -13.2100000       4.01110398E-08
  -13.1999998       4.69712198E-08
  -13.1899996       4.49057502E-08
  -13.1800003       3.25061364E-08
  -13.1700001       1.04613296E-08
  -13.1599998      -1.82281514E-08
  -13.1499996      -4.85395155E-08
  -13.1400003      -7.42271453E-08
  -13.1300001      -8.90264857E-08
  -13.1199999      -8.80411690E-08
  -13.1099997      -6.90265054E-08
  -13.1000004      -3.32618662E-08
  -13.0900002       1.42401033E-08
  -13.0799999       6.53223395E-08
  -13.0699997       1.10046066E-07
  -13.0600004       1.38617281E-07
  -13.0500002       1.43519273E-07
  -13.0400000       1.21390684E-07
  -13.0299997       7.41949151E-08
  -13.0200005       9.32617361E-09
  -13.0100002      -6.14975235E-08
  -13.0000000      -1.24438259E-07
  -12.9899998      -1.66448714E-07
  -12.9799995      -1.78275826E-07
  -12.9700003      -1.56850732E-07
  -12.9600000      -1.06412081E-07
  -12.9499998      -3.79494587E-08
  -12.9399996       3.30772245E-08
  -12.9300003       9.03503619E-08
  -12.9200001       1.20856996E-07
  -12.9099998       1.18566554E-07
  -12.8999996       8.65925998E-08
  -12.8900003       3.70669468E-08
  -12.8800001      -1.15312568E-08
  -12.8699999      -3.91928801E-08
  -12.8599997      -3.03031698E-08
  -12.8500004       2.08175610E-08
  -12.8400002       1.06367736E-07
  -12.8299999       2.04811414E-07
  -12.8199997       2.84517540E-07
  -12.8100004       3.10922587E-07
  -12.8000002       2.55833413E-07
  -12.7900000       1.06697755E-07
  -12.7799997      -1.26641808E-07
  -12.7700005      -4.09905965E-07
  -12.7600002      -6.88326509E-07
  -12.7500000      -8.96480628E-07
  -12.7399998      -9.72366706E-07
  -12.7299995      -8.72770045E-07
  -12.7200003      -5.86273359E-07
  -12.7100000      -1.40353322E-07
  -12.6999998       3.99861051E-07
  -12.6899996       9.41842416E-07
  -12.6800003       1.38339522E-06
  -12.6700001       1.63431343E-06
  -12.6599998       1.63708330E-06
  -12.6499996       1.38152313E-06
  -12.6400003       9.09320761E-07
  -12.6300001       3.06580262E-07
  -12.6199999      -3.14629773E-07
  -12.6099997      -8.41877863E-07
  -12.6000004      -1.18915352E-06
  -12.5900002      -1.31806723E-06
  -12.5799999      -1.24761573E-06
  -12.5699997      -1.04910589E-06
  -12.5600004      -8.26418500E-07
  -12.5500002      -6.85624855E-07
  -12.5400000      -7.01076260E-07
  -12.5299997      -8.86703106E-07
  -12.5200005      -1.18072126E-06
  -12.5100002      -1.44938781E-06
  -12.5000000      -1.51117274E-06
  -12.4899998      -1.17789023E-06
  -12.4799995      -3.04879649E-07
  -12.4700003       1.16043702E-06
  -12.4600000       3.14261547E-06
  -12.4499998       5.42405951E-06
  -12.4399996       7.65717232E-06
  -12.4300003       9.40214431E-06
  -12.4200001       1.01842488E-05
  -12.4099998       9.56025087E-06
  -12.3999996       7.18195088E-06
  -12.3900003       2.84538351E-06
  -12.3800001      -3.48247636E-06
  -12.3699999      -1.16629772E-05
  -12.3599997      -2.14097636E-05
  -12.3500004      -3.23309105E-05
  -12.3400002      -4.39805699E-05
  -12.3299999      -5.59107539E-05
  -12.3199997      -6.77139033E-05
  -12.3100004      -7.90508202E-05
  -12.3000002      -8.96615238E-05
  -12.2900000      -9.93568392E-05
  -12.2799997      -1.07997941E-04
  -12.2700005      -1.15462921E-04
  -12.2600002      -1.21611527E-04
  -12.2500000      -1.26247935E-04
  -12.2399998      -1.29094420E-04
  -12.2299995      -1.29773383E-04
  -12.2200003      -1.27811494E-04
  -12.2100000      -1.22662677E-04
  -12.1999998      -1.13753405E-04
  -12.1899996      -1.00550445E-04
  -12.1800003      -8.26363394E-05
  -12.1700001      -5.97917096E-05
  -12.1599998      -3.20620093E-05
  -12.1499996       2.02216214E-07
  -12.1400003       3.63461513E-05
  -12.1300001       7.54537541E-05
  -12.1199999       1.16437986E-04
  -12.1099997       1.58162162E-04
  -12.1000004       1.99573245E-04
  -12.0900002       2.39824469E-04
  -12.0799999       2.78360094E-04
  -12.0699997       3.14946315E-04
  -12.0600004       3.49636393E-04
  -12.0500002       3.82676575E-04
  -12.0400000       4.14366514E-04
  -12.0299997       4.44907928E-04
  -12.0200005       4.74262837E-04
  -12.0100002       5.02062263E-04
  -12.0000000       5.27575030E-04
  -11.9899998       5.49753255E-04
  -11.9799995       5.67335519E-04
  -11.9700003       5.78997366E-04
  -11.9600000       5.83511428E-04
  -11.9499998       5.79884450E-04
  -11.9399996       5.67451934E-04
  -11.9300003       5.45909628E-04
  -11.9200001       5.15280117E-04
  -11.9099998       4.75841545E-04
  -11.8999996       4.28022584E-04
  -11.8900003       3.72307957E-04
  -11.8800001       3.09173454E-04
  -11.8699999       2.39063811E-04
  -11.8599997       1.62415949E-04
  -11.8500004       7.97163302E-05
  -11.8400002      -8.42734607E-06
  -11.8299999      -1.01237019E-04
  -11.8199997      -1.97745452E-04
  -11.8100004      -2.96832179E-04
  -11.8000002      -3.97308322E-04
  -11.7900000      -4.98033129E-04
  -11.7799997      -5.98041515E-04
  -11.7700005      -6.96636969E-04
  -11.7600002      -7.93438812E-04
  -11.7500000      -8.88350420E-04
  -11.7399998      -9.81455669E-04
  -11.7299995      -1.07285497E-03
  -11.7200003      -1.16247486E-03
  -11.7100000      -1.24988612E-03
  -11.6999998      -1.33417652E-03
  -11.6899996      -1.41389901E-03
  -11.6800003      -1.48712122E-03
  -11.6700001      -1.55157410E-03
  -11.6599998      -1.60486391E-03
  -11.6499996      -1.64474000E-03
  -11.6400003      -1.66935602E-03
  -11.6300001      -1.67748996E-03
  -11.6199999      -1.66869292E-03
  -11.6099997      -1.64333347E-03
  -11.6000004      -1.60253572E-03
  -11.5900002      -1.54800504E-03
  -11.5799999      -1.48177252E-03
  -11.5699997      -1.40587054E-03
  -11.5600004      -1.32199470E-03
  -11.5500002      -1.23119156E-03
  -11.5400000      -1.13361701E-03
  -11.5299997      -1.02842797E-03
  -11.5200005      -9.13820404E-04
  -11.5100002      -7.87253433E-04
  -11.5000000      -6.45831926E-04
  -11.4899998      -4.86814242E-04
  -11.4799995      -3.08171730E-04
  -11.4700003      -1.09105989E-04
  -11.4600000       1.09581153E-04
  -11.4499998       3.45350098E-04
  -11.4399996       5.94074605E-04
  -11.4300003       8.50491284E-04
  -11.4200001       1.10889110E-03
  -11.4099998       1.36393437E-03
  -11.3999996       1.61147129E-03
  -11.3900003       1.84918009E-03
  -11.3800001       2.07690918E-03
  -11.3699999       2.29664054E-03
  -11.3599997       2.51206430E-03
  -11.3500004       2.72782799E-03
  -11.3400002       2.94861500E-03
  -11.3299999       3.17821815E-03
  -11.3199997       3.41877923E-03
  -11.3100004       3.67035856E-03
  -11.3000002       3.93088907E-03
  -11.2900000       4.19653207E-03
  -11.2799997       4.46233572E-03
  -11.2700005       4.72307159E-03
  -11.2600002       4.97407140E-03
  -11.2500000       5.21191396E-03
  -11.2399998       5.43484464E-03
  -11.2299995       5.64287417E-03
  -11.2200003       5.83756110E-03
  -11.2100000       6.02156064E-03
  -11.1999998       6.19801646E-03
  -11.1899996       6.36996888E-03
  -11.1800003       6.53982116E-03
  -11.1700001       6.70898985E-03
  -11.1599998       6.87775435E-03
  -11.1499996       7.04530580E-03
  -11.1400003       7.20996223E-03
  -11.1300001       7.36950478E-03
  -11.1199999       7.52156181E-03
  -11.1099997       7.66397640E-03
  -11.1000004       7.79513828E-03
  -11.0900002       7.91417807E-03
  -11.0799999       8.02106969E-03
  -11.0699997       8.11659452E-03
  -11.0600004       8.20217934E-03
  -11.0500002       8.27964302E-03
  -11.0400000       8.35089665E-03
  -11.0299997       8.41763802E-03
  -11.0200005       8.48109089E-03
  -11.0100002       8.54187086E-03
  -11.0000000       8.59996211E-03
  -10.9899998       8.65484681E-03
  -10.9799995       8.70576035E-03
  -10.9700003       8.75204522E-03
  -10.9600000       8.79345648E-03
  -10.9499998       8.83044302E-03
  -10.9399996       8.86424258E-03
  -10.9300003       8.89677368E-03
  -10.9200001       8.93030595E-03
  -10.9099998       8.96693300E-03
  -10.8999996       9.00796894E-03
  -10.8900003       9.05335136E-03
  -10.8800001       9.10123810E-03
  -10.8699999       9.14791506E-03
  -10.8599997       9.18811280E-03
  -10.8500004       9.21568833E-03
  -10.8400002       9.22468305E-03
  -10.8299999       9.21045244E-03
  -10.8199997       9.17073432E-03
  -10.8100004       9.10632592E-03
  -10.8000002       9.02117975E-03
  -10.7900000       8.92181695E-03
  -10.7799997       8.81611835E-03
  -10.7700005       8.71166028E-03
  -10.7600002       8.61396734E-03
  -10.7500000       8.52507912E-03
  -10.7399998       8.44274554E-03
  -10.7299995       8.36056285E-03
  -10.7200003       8.26900732E-03
  -10.7100000       8.15727096E-03
  -10.6999998       8.01542960E-03
  -10.6899996       7.83652719E-03
  -10.6800003       7.61806406E-03
  -10.6700001       7.36252824E-03
  -10.6599998       7.07687996E-03
  -10.6499996       6.77106343E-03
  -10.6400003       6.45596813E-03
  -10.6300001       6.14128355E-03
  -10.6199999       5.83380554E-03
  -10.6099997       5.53652598E-03
  -10.6000004       5.24871517E-03
  -10.5900002       4.96686250E-03
  -10.5799999       4.68620099E-03
  -10.5699997       4.40229336E-03
  -10.5600004       4.11235122E-03
  -10.5500002       3.81586491E-03
  -10.5400000       3.51449987E-03
  -10.5299997       3.21135507E-03
  -10.5200005       2.90986453E-03
  -10.5100002       2.61273724E-03
  -10.5000000       2.32127565E-03
  -10.4899998       2.03520176E-03
  -10.4799995       1.75312138E-03
  -10.4700003       1.47331099E-03
  -10.4600000       1.19463436E-03
  -10.4499998       9.17247031E-04
  -10.4399996       6.42820203E-04
  -10.4300003       3.74264142E-04
  -10.4200001       1.14982839E-04
  -10.4099998      -1.32069283E-04
  -10.3999996      -3.65269050E-04
  -10.3900003      -5.84845548E-04
  -10.3800001      -7.92931416E-04
  -10.3699999      -9.93084162E-04
  -10.3599997      -1.18945714E-03
  -10.3500004      -1.38586701E-03
  -10.3400002      -1.58500194E-03
  -10.3299999      -1.78795785E-03
  -10.3199997      -1.99427316E-03
  -10.3100004      -2.20230920E-03
  -10.3000002      -2.40996154E-03
  -10.2900000      -2.61533493E-03
  -10.2799997      -2.81736394E-03
  -10.2700005      -3.01608187E-03
  -10.2600002      -3.21260677E-03
  -10.2500000      -3.40888975E-03
  -10.2399998      -3.60729615E-03
  -10.2299995      -3.81023553E-03
  -10.2200003      -4.01986390E-03
  -10.2100000      -4.23794007E-03
  -10.1999998      -4.46575508E-03
  -10.1899996      -4.70409635E-03
  -10.1800003      -4.95312922E-03
  -10.1700001      -5.21222129E-03
  -10.1599998      -5.47965383E-03
  -10.1499996      -5.75246150E-03
  -10.1400003      -6.02643611E-03
  -10.1300001      -6.29646005E-03
  -10.1199999      -6.55718334E-03
  -10.1099997      -6.80397311E-03
  -10.1000004      -7.03392131E-03
  -10.0900002      -7.24657718E-03
  -10.0799999      -7.44423922E-03
  -10.0699997      -7.63155194E-03
  -10.0600004      -7.81444088E-03
  -10.0500002      -7.99858849E-03
  -10.0400000      -8.18783790E-03
  -10.0299997      -8.38294625E-03
  -10.0200005      -8.58103670E-03
  -10.0100002      -8.77597556E-03
  -10.0000000      -8.95961095E-03
  -9.98999977      -9.12349299E-03
  -9.97999954      -9.26068425E-03
  -9.97000027      -9.36707947E-03
  -9.96000004      -9.44188517E-03
  -9.94999981      -9.48712509E-03
  -9.93999958      -9.50634666E-03
  -9.93000031      -9.50300787E-03
  -9.92000008      -9.47903655E-03
  -9.90999985      -9.43406485E-03
  -9.89999962      -9.36561264E-03
  -9.89000034      -9.27012600E-03
  -9.88000011      -9.14453063E-03
  -9.86999989      -8.98771361E-03
  -9.85999966      -8.80146213E-03
  -9.85000038      -8.59042816E-03
  -9.84000015      -8.36115889E-03
  -9.82999992      -8.12043529E-03
  -9.81999969      -7.87353422E-03
  -9.81000042      -7.62290647E-03
  -9.80000019      -7.36777904E-03
  -9.78999996      -7.10471766E-03
  -9.77999973      -6.82899123E-03
  -9.77000046      -6.53618248E-03
  -9.76000023      -6.22353004E-03
  -9.75000000      -5.89045044E-03
  -9.73999977      -5.53825963E-03
  -9.72999954      -5.16913924E-03
  -9.72000027      -4.78490023E-03
  -9.71000004      -4.38610977E-03
  -9.69999981      -3.97197297E-03
  -9.68999958      -3.54111404E-03
  -9.68000031      -3.09296465E-03
  -9.67000008      -2.62931245E-03
  -9.65999985      -2.15523900E-03
  -9.64999962      -1.67910557E-03
  -9.64000034      -1.21136708E-03
  -9.63000011      -7.62591662E-04
  -9.61999989      -3.41161125E-04
  -9.60999966       4.84521297E-05
  -9.60000038       4.06419538E-04
  -9.59000015       7.36963470E-04
  -9.57999992       1.04672043E-03
  -9.56999969       1.34266529E-03
  -9.56000042       1.63028610E-03
  -9.55000019       1.91264390E-03
  -9.53999996       2.19053845E-03
  -9.52999973       2.46357848E-03
  -9.52000046       2.73158960E-03
  -9.51000023       2.99565843E-03
  -9.50000000       3.25834705E-03
  -9.48999977       3.52282356E-03
  -9.47999954       3.79141350E-03
  -9.47000027       4.06400673E-03
  -9.46000004       4.33730846E-03
  -9.44999981       4.60522994E-03
  -9.43999958       4.86065308E-03
  -9.43000031       5.09783952E-03
  -9.42000008       5.31481393E-03
  -9.40999985       5.51465340E-03
  -9.39999962       5.70509210E-03
  -9.39000034       5.89639926E-03
  -9.38000011       6.09804969E-03
  -9.36999989       6.31544366E-03
  -9.35999966       6.54770993E-03
  -9.35000038       6.78748032E-03
  -9.34000015       7.02281622E-03
  -9.32999992       7.24069821E-03
  -9.31999969       7.43081095E-03
  -9.31000042       7.58841122E-03
  -9.30000019       7.71497097E-03
  -9.28999996       7.81658757E-03
  -9.27999973       7.90035911E-03
  -9.27000046       7.97026698E-03
  -9.26000023       8.02388042E-03
  -9.25000000       8.05120263E-03
  -9.23999977       8.03617947E-03
  -9.22999954       7.96042010E-03
  -9.22000027       7.80788856E-03
  -9.21000004       7.56904529E-03
  -9.19999981       7.24293431E-03
  -9.18999958       6.83661457E-03
  -9.18000031       6.36215368E-03
  -9.17000008       5.83227072E-03
  -9.15999985       5.25627332E-03
  -9.14999962       4.63762926E-03
  -9.14000034       3.97401396E-03
  -9.13000011       3.25969188E-03
  -9.11999989       2.48915772E-03
  -9.10999966       1.66065188E-03
  -9.10000038       7.78079499E-04
  -9.09000015      -1.49305313E-04
  -9.07999992      -1.10950775E-03
  -9.06999969      -2.09144526E-03
  -9.06000042      -3.08840023E-03
  -9.05000019      -4.09978628E-03
  -9.03999996      -5.13056666E-03
  -9.02999973      -6.18846202E-03
  -9.02000046      -7.28000049E-03
  -9.01000023      -8.40689521E-03
  -9.00000000      -9.56406631E-03
  -8.98999977      -1.07401861E-02
  -8.97999954      -1.19203180E-02
  -8.97000027      -1.30898105E-02
  -8.96000004      -1.42378388E-02
  -8.94999981      -1.53591689E-02
  -8.93999958      -1.64534412E-02
  -8.93000031      -1.75222866E-02
  -8.92000008      -1.85651742E-02
  -8.90999985      -1.95758697E-02
  -8.89999962      -2.05407050E-02
  -8.89000034      -2.14396659E-02
  -8.88000011      -2.22498830E-02
  -8.86999989      -2.29506008E-02
  -8.85999966      -2.35277787E-02
  -8.85000038      -2.39767618E-02
  -8.84000015      -2.43021622E-02
  -8.82999992      -2.45148931E-02
  -8.81999969      -2.46274769E-02
  -8.81000042      -2.46492215E-02
  -8.80000019      -2.45829057E-02
  -8.78999996      -2.44240761E-02
  -8.77999973      -2.41630170E-02
  -8.77000046      -2.37886291E-02
  -8.76000023      -2.32926924E-02
  -8.75000000      -2.26729810E-02
  -8.73999977      -2.19342783E-02
  -8.72999954      -2.10868604E-02
  -8.72000027      -2.01433338E-02
  -8.71000004      -1.91149376E-02
  -8.69999981      -1.80087518E-02
  -8.68999958      -1.68266948E-02
  -8.68000031      -1.55666033E-02
  -8.67000008      -1.42247165E-02
  -8.65999985      -1.27986250E-02
  -8.64999962      -1.12893498E-02
  -8.64000034      -9.70186759E-03
  -8.63000011      -8.04383028E-03
  -8.61999989      -6.32309914E-03
  -8.60999966      -4.54501202E-03
  -8.60000038      -2.71055475E-03
  -8.59000015      -8.16012267E-04
  -8.57999992       1.14568195E-03
  -8.56999969       3.18247965E-03
  -8.56000042       5.30050090E-03
  -8.55000019       7.50198727E-03
  -8.53999996       9.78465937E-03
  -8.52999973       1.21425325E-02
  -8.52000046       1.45677300E-02
  -8.51000023       1.70525946E-02
  -8.50000000       1.95912793E-02
  -8.48999977       2.21803766E-02
  -8.47999954       2.48183254E-02
  -8.47000027       2.75041666E-02
  -8.46000004       3.02360617E-02
  -8.44999981       3.30102928E-02
  -8.43999958       3.58210206E-02
  -8.43000031       3.86607908E-02
  -8.42000008       4.15215306E-02
  -8.40999985       4.43954207E-02
  -8.39999962       4.72753383E-02
  -8.39000034       5.01546971E-02
  -8.38000011       5.30267470E-02
  -8.36999989       5.58837131E-02
  -8.35999966       5.87162264E-02
  -8.35000038       6.15133233E-02
  -8.34000015       6.42629936E-02
  -8.32999992       6.69531077E-02
  -8.31999969       6.95724413E-02
  -8.31000042       7.21112043E-02
  -8.30000019       7.45610669E-02
  -8.28999996       7.69148022E-02
  -8.27999973       7.91655332E-02
  -8.27000046       8.13061520E-02
  -8.26000023       8.33291486E-02
  -8.25000000       8.52268487E-02
  -8.23999977       8.69918913E-02
  -8.22999954       8.86178836E-02
  -8.22000027       9.00994837E-02
  -8.21000004       9.14322734E-02
  -8.19999981       9.26120803E-02
  -8.18999958       9.36340764E-02
  -8.18000031       9.44925770E-02
  -8.17000008       9.51808318E-02
  -8.15999985       9.56918821E-02
  -8.14999962       9.60196480E-02
  -8.14000034       9.61600468E-02
  -8.13000011       9.61116701E-02
  -8.11999989       9.58757624E-02
  -8.10999966       9.54552069E-02
  -8.10000038       9.48532894E-02
  -8.09000015       9.40723121E-02
  -8.07999992       9.31129754E-02
  -8.06999969       9.19744074E-02
  -8.06000042       9.06554163E-02
  -8.05000019       8.91559273E-02
  -8.03999996       8.74783918E-02
  -8.02999973       8.56283009E-02
  -8.02000046       8.36139247E-02
  -8.01000023       8.14446211E-02
  -8.00000000       7.91288465E-02
  -7.98999977       7.66723007E-02
  -7.98000002       7.40770474E-02
  -7.96999979       7.13418126E-02
  -7.96000004       6.84635565E-02
  -7.94999981       6.54400364E-02
  -7.94000006       6.22720942E-02
  -7.92999983       5.89653477E-02
  -7.92000008       5.55304550E-02
  -7.90999985       5.19821905E-02
  -7.90000010       4.83375713E-02
  -7.88999987       4.46137376E-02
  -7.88000011       4.08264250E-02
  -7.86999989       3.69895697E-02
  -7.86000013       3.31155807E-02
  -7.84999990       2.92166919E-02
  -7.84000015       2.53061652E-02
  -7.82999992       2.13989522E-02
  -7.82000017       1.75114498E-02
  -7.80999994       1.36603350E-02
  -7.80000019       9.86090489E-03
  -7.78999996       6.12559076E-03
  -7.78000021       2.46317522E-03
  -7.76999998      -1.12096046E-03
  -7.76000023      -4.62340377E-03
  -7.75000000      -8.04112293E-03
  -7.73999977      -1.13694947E-02
  -7.73000002      -1.46014942E-02
  -7.71999979      -1.77279003E-02
  -7.71000004      -2.07384154E-02
  -7.69999981      -2.36236118E-02
  -7.69000006      -2.63769440E-02
  -7.67999983      -2.89958622E-02
  -7.67000008      -3.14822942E-02
  -7.65999985      -3.38415466E-02
  -7.65000010      -3.60807478E-02
  -7.63999987      -3.82066071E-02
  -7.63000011      -4.02237512E-02
  -7.61999989      -4.21333872E-02
  -7.61000013      -4.39332277E-02
  -7.59999990      -4.56181280E-02
  -7.59000015      -4.71811630E-02
  -7.57999992      -4.86151576E-02
  -7.57000017      -4.99139130E-02
  -7.55999994      -5.10730967E-02
  -7.55000019      -5.20907305E-02
  -7.53999996      -5.29670641E-02
  -7.53000021      -5.37045598E-02
  -7.51999998      -5.43073118E-02
  -7.51000023      -5.47805876E-02
  -7.50000000      -5.51304929E-02
  -7.48999977      -5.53635694E-02
  -7.48000002      -5.54864891E-02
  -7.46999979      -5.55059537E-02
  -7.46000004      -5.54284975E-02
  -7.44999981      -5.52604459E-02
  -7.44000006      -5.50076775E-02