  -16.0000000       0.00000000    
  -15.9899998       0.00000000    
  -15.9799995       0.00000000    
  -15.9700003       0.00000000    
  -15.9600000       0.00000000    
  -15.9499998       0.00000000    
  -15.9399996       0.00000000    
  -15.9300003       0.00000000    
  -15.9200001       0.00000000    
  -15.9099998       0.00000000    
  -15.8999996       0.00000000    
  -15.8900003       2.47861000E-37
  -15.8800001       3.81542120E-36
  -15.8699999       2.90573250E-35
  -15.8599997       1.50318739E-34
  -15.8500004       6.38689840E-34
  -15.8400002       2.62536488E-33
  -15.8299999       1.11695473E-32
  -15.8199997       4.63793530E-32
  -15.8100004       1.73399581E-31
  -15.8000002       5.59316998E-31
  -15.7900000       1.53029165E-30
  -15.7799997       3.50488142E-30
  -15.7700005       6.52454509E-30
  -15.7600002       9.00375634E-30
  -15.7500000       5.54621519E-30
  -15.7399998      -1.54674864E-29
  -15.7299995      -7.22914175E-29
  -15.7200003      -1.84459624E-28
  -15.7100000      -3.57732989E-28
  -15.6999998      -5.58024046E-28
  -15.6899996      -6.78665357E-28
  -15.6800003      -5.13223593E-28
  -15.6700001       2.43974542E-28
  -15.6599998       1.93165554E-27
  -15.6499996       4.72665425E-27
  -15.6400003       8.23839337E-27
  -15.6300001       1.08649512E-26
  -15.6199999       9.13404247E-27
  -15.6099997      -2.20131616E-27
  -15.6000004      -2.78571746E-26
  -15.5900002      -6.59346338E-26
  -15.5799999      -9.82731115E-26
  -15.5699997      -8.23855699E-26
  -15.5600004       4.24355645E-26
  -15.5500002       3.17196976E-25
  -15.5400000       6.83313535E-25
  -15.5299997       8.82259374E-25
  -15.5200005       4.14065250E-25
  -15.5100002      -1.30638590E-24
  -15.5000000      -4.45664760E-24
  -15.4899998      -7.98578804E-24
  -15.4799995      -8.82226774E-24
  -15.4700003      -1.94569604E-24
  -15.4600000       1.75304473E-23
  -15.4499998       4.94891763E-23
  -15.4399996       8.19575615E-23
  -15.4300003       8.59284159E-23
  -15.4200001       1.86371418E-23
  -15.4099998      -1.56953773E-22
  -15.3999996      -4.33238724E-22
  -15.3900003      -7.08918675E-22
  -15.3800001      -7.58232200E-22
  -15.3699999      -2.64335374E-22
  -15.3599997       1.03720189E-21
  -15.3500004       3.09448610E-21
  -15.3400002       5.22573897E-21
  -15.3299999       5.93816362E-21
  -15.3199997       3.15043369E-21
  -15.3100004      -4.93003119E-21
  -15.3000002      -1.82431259E-20
  -15.2900000      -3.30452903E-20
  -15.2799997      -4.08157539E-20
  -15.2700005      -2.93402450E-20
  -15.2600002       1.27253910E-20
  -15.2500000       8.76352235E-20
  -15.2399998       1.78724960E-19
  -15.2299995       2.43842453E-19
  -15.2200003       2.19005838E-19
  -15.2100000       3.87356887E-20
  -15.1999998      -3.25437953E-19
  -15.1899996      -8.16630493E-19
  -15.1800003      -1.25534450E-18
  -15.1700001      -1.34413303E-18
  -15.1599998      -7.44366909E-19
  -15.1499996       7.63425977E-19
  -15.1400003       3.06335132E-18
  -15.1300001       5.51183281E-18
  -15.1199999       6.89361321E-18
  -15.1099997       5.65773424E-18
  -15.1000004       5.05103159E-19
  -15.0900002      -8.74091018E-18
  -15.0799999      -2.02473647E-17
  -15.0699997      -2.97229784E-17
  -15.0600004      -3.09349403E-17
  -15.0500002      -1.75636467E-17
  -15.0400000       1.36777846E-17
  -15.0299997       5.94193083E-17
  -15.0200005       1.06993337E-16
  -15.0100002       1.34692493E-16
  -15.0000000       1.16576258E-16
  -14.9899998       3.22484038E-17
  -14.9799995      -1.20122189E-16
  -14.9700003      -3.11812045E-16
  -14.9600000      -4.78814490E-16
  -14.9499998      -5.30700976E-16
  -14.9399996      -3.76604957E-16
  -14.9300003       3.40826702E-17
  -14.9200001       6.66712338E-16
  -14.9099998       1.36992343E-15
  -14.8999996       1.87886011E-15
  -14.8900003       1.86965222E-15
  -14.8800001       1.06766671E-15
  -14.8699999      -6.10096180E-16
  -14.8599997      -2.92245192E-15
  -14.8500004      -5.24232714E-15
  -14.8400002      -6.62591481E-15
  -14.8299999      -6.04594034E-15
  -14.8199997      -2.76930858E-15
  -14.8100004       3.20892249E-15
  -14.8000002       1.08256384E-14
  -14.7900000       1.78820158E-14
  -14.7799997       2.13941684E-14
  -14.7700005       1.84036949E-14
  -14.7600002       7.12618221E-15
  -14.7500000      -1.18662243E-14
  -14.7399998      -3.48675421E-14
  -14.7299995      -5.51242401E-14
  -14.7200003      -6.40931196E-14
  -14.7100000      -5.38566587E-14
  -14.6999998      -2.02446380E-14
  -14.6899996       3.42151302E-14
  -14.6800003       9.86490281E-14
  -14.6700001       1.54552139E-13
  -14.6599998       1.79447115E-13
  -14.6499996       1.53220386E-13
  -14.6400003       6.58406638E-14
  -14.6300001      -7.57391993E-14
  -14.6199999      -2.44116224E-13
  -14.6099997      -3.93676302E-13
  -14.6000004      -4.69573545E-13
  -14.5900002      -4.22556169E-13
  -14.5799999      -2.26549302E-13
  -14.5699997       1.05869042E-13
  -14.5600004       5.15638530E-13
  -14.5500002       9.01657980E-13
  -14.5400000       1.13947187E-12
  -14.5299997       1.11230556E-12
  -14.5200005       7.48246571E-13
  -14.5100002       5.40235818E-14
  -14.5000000      -8.65475389E-13
  -14.4899998      -1.81117718E-12
  -14.4799995      -2.52182325E-12
  -14.4700003      -2.73157690E-12
  -14.4600000      -2.24309482E-12
  -14.4499998      -9.99419948E-13
  -14.4399996       8.65173872E-13
  -14.4300003       3.01378041E-12
  -14.4200001       4.94680382E-12
  -14.4099998       6.09417551E-12
  -14.3999996       5.94759702E-12
  -14.3900003       4.20781118E-12
  -14.3800001       9.12865378E-13
  -14.3699999      -3.48934293E-12
  -14.3599997      -8.15515103E-12
  -14.3500004      -1.19624293E-11
  -14.3400002      -1.37261296E-11
  -14.3299999      -1.24818168E-11
  -14.3199997      -7.78299647E-12
  -14.3100004       5.87860381E-14
  -14.3000002       9.86529348E-12
  -14.2900000       1.96744565E-11
  -14.2799997       2.70417803E-11
  -14.2700005       2.95379658E-11
  -14.2600002       2.53654268E-11
  -14.2500000       1.39636965E-11
  -14.2399998      -3.55384602E-12
  -14.2299995      -2.42870186E-11
  -14.2200003      -4.38662683E-11
  -14.2100000      -5.72199926E-11
  -14.1999998      -5.96959704E-11
  -14.1899996      -4.83250592E-11
  -14.1800003      -2.29298386E-11
  -14.1700001       1.32443206E-11
  -14.1599998       5.36392632E-11
  -14.1499996       8.93570148E-11
  -14.1400003       1.10914972E-10
  -14.1300001       1.10481728E-10
  -14.1199999       8.41076306E-11
  -14.1099997       3.33853986E-11
  -14.1000004      -3.39801659E-11
  -14.0900002      -1.05013234E-10
  -14.0799999      -1.63734706E-10
  -14.0699997      -1.94512184E-10
  -14.0600004      -1.85830976E-10
  -14.0500002      -1.33632758E-10
  -14.0400000      -4.33559542E-11
  -14.0299997       6.99742833E-11
  -14.0200005       1.83881188E-10
  -14.0100002       2.72581874E-10
  -14.0000000       3.12436937E-10
  -13.9899998       2.87630059E-10
  -13.9799995       1.94827571E-10
  -13.9700003       4.56525789E-11
  -13.9600000      -1.33847683E-10
  -13.9499998      -3.07027875E-10
  -13.9399996      -4.33381497E-10
  -13.9300003      -4.77140216E-10
  -13.9200001      -4.16149948E-10
  -13.9099998      -2.49110427E-10
  -13.8999996       6.95663470E-13
  -13.8900003       2.86659030E-10
  -13.8800001       5.45735845E-10
  -13.8699999       7.10499437E-10
  -13.8599997       7.24568627E-10
  -13.8500004       5.58425362E-10
  -13.8400002       2.21877669E-10
  -13.8299999      -2.30671246E-10
  -13.8199997      -7.05044745E-10
  -13.8100004      -1.08321918E-09
  -13.8000002      -1.24871979E-09
  -13.7900000      -1.11697107E-09
  -13.7799997      -6.63701705E-10
  -13.7700005       5.65233207E-11
  -13.7600002       9.08712439E-10
  -13.7500000       1.69680736E-09
  -13.7399998       2.20312812E-09
  -13.7299995       2.24137042E-09
  -13.7200003       1.71152581E-09
  -13.7100000       6.42238873E-10
  -13.6999998      -7.93251964E-10
  -13.6899996      -2.29680319E-09
  -13.6800003      -3.50175422E-09
  -13.6700001      -4.05713996E-09
  -13.6599998      -3.72165587E-09
  -13.6499996      -2.44344167E-09
  -13.6400003      -4.01819744E-10
  -13.6300001       2.00625516E-09
  -13.6199999       4.23971924E-09
  -13.6099997       5.73559111E-09
  -13.6000004       6.05344841E-09
  -13.5900002       5.00568564E-09
  -13.5799999       2.73586243E-09
  -13.5699997      -2.83447765E-10
  -13.5600004      -3.34328498E-09
  -13.5500002      -5.66730218E-09
  -13.5400000      -6.61971011E-09
  -13.5299997      -5.89832894E-09
  -13.5200005      -3.65589070E-09
  -13.5100002      -5.05130160E-10
  -13.5000000       2.60991695E-09
  -13.4899998       4.65804684E-09
  -13.4799995       4.82632245E-09
  -13.4700003       2.80683254E-09
  -13.4600000      -1.02217135E-09
  -13.4499998      -5.59103164E-09
  -13.4399996      -9.34057898E-09
  -13.4300003      -1.06083142E-08
  -13.4200001      -8.11985679E-09
  -13.4099998      -1.46381796E-09
  -13.3999996       8.58831850E-09
  -13.3900003       2.00357402E-08
  -13.3800001       2.99387146E-08
  -13.3699999       3.50281617E-08
  -13.3599997       3.25268559E-08
  -13.3500004       2.10000657E-08
  -13.3400002       1.01524145E-09
  -13.3299999      -2.45951135E-08
  -13.3199997      -5.10028144E-08
  -13.3100004      -7.22044291E-08
  -13.3000002      -8.22729760E-08
  -13.2900000      -7.67942794E-08
  -13.2799997      -5.41582850E-08
  -13.2700005      -1.63674034E-08
  -13.2600002       3.09019690E-08
  -13.2500000       7.90974184E-08
  -13.2399998       1.18362891E-07
  -13.2299995       1.39600544E-07
  -13.2200003       1.36584617E-07
  -13.2100000       1.07630740E-07
  -13.1999998       5.63785605E-08
  -13.1899996      -8.58099725E-09
  -13.1800003      -7.52487566E-08
  -13.1700001      -1.30661633E-07
  -13.1599998      -1.63726838E-07
  -13.1499996      -1.67796159E-07
  -13.1400003      -1.42341804E-07
  -13.1300001      -9.32661806E-08
  -13.1199999      -3.16800808E-08
  -13.1099997       2.86482411E-08
  -13.1000004       7.46222710E-08
  -13.0900002       9.71361516E-08
  -13.0799999       9.35359665E-08
  -13.0699997       6.85279744E-08
  -13.0600004       3.31788712E-08
  -13.0500002       2.11539786E-09
  -13.0400000      -1.04954241E-08
  -13.0299997       4.76787232E-09
  -13.0200005       4.91431891E-08
  -13.0100002       1.14101276E-07
  -13.0000000       1.82250503E-07
  -12.9899998       2.30788402E-07
  -12.9799995       2.36913763E-07
  -12.9700003       1.84046314E-07
  -12.9600000       6.73640059E-08
  -12.9499998      -1.02826647E-07
  -12.9399996      -3.01005514E-07
  -12.9300003      -4.90065474E-07
  -12.9200001      -6.28220789E-07
  -12.9099998      -6.77917512E-07
  -12.8999996      -6.14853832E-07
  -12.8900003      -4.34996963E-07
  -12.8800001      -1.57755295E-07
  -12.8699999       1.75798334E-07
  -12.8599997       5.09685833E-07
  -12.8500004       7.83637574E-07
  -12.8400002       9.45432760E-07
  -12.8299999       9.62284048E-07
  -12.8199997       8.28611462E-07
  -12.8100004       5.68224323E-07
  -12.8000002       2.30112121E-07
  -12.7900000      -1.21497138E-07
  -12.7799997      -4.20770846E-07
  -12.7700005      -6.14591102E-07
  -12.7600002      -6.74236730E-07
  -12.7500000      -6.01610964E-07
  -12.7399998      -4.28380105E-07
  -12.7299995      -2.08050281E-07
  -12.7200003      -2.73837331E-09
  -12.7100000       1.32239904E-07
  -12.6999998       1.62178281E-07
  -12.6899996       8.16630319E-08
  -12.6800003      -8.42305070E-08
  -12.6700001      -2.86764788E-07
  -12.6599998      -4.66878731E-07
  -12.6499996      -5.71744465E-07
  -12.6400003      -5.70227144E-07
  -12.6300001      -4.62955569E-07
  -12.6199999      -2.83859890E-07
  -12.6099997      -9.20764123E-08
  -12.6000004       4.44015420E-08
  -12.5900002       6.96276956E-08
  -12.5799999      -4.00845188E-08
  -12.5699997      -2.62225797E-07
  -12.5600004      -5.24949087E-07
  -12.5500002      -7.16954503E-07
  -12.5400000      -7.09576796E-07
  -12.5299997      -3.87131792E-07
  -12.5200005       3.20830424E-07
  -12.5100002       1.41279349E-06
  -12.5000000       2.80087147E-06
  -12.4899998       4.31324906E-06
  -12.4799995       5.71445253E-06
  -12.4700003       6.74046578E-06
  -12.4600000       7.14213957E-06
  -12.4499998       6.72814485E-06
  -12.4399996       5.39840585E-06
  -12.4300003       3.16069008E-06
  -12.4200001       1.26633907E-07
  -12.4099998      -3.51206586E-06
  -12.3999996      -7.52195092E-06
  -12.3900003      -1.16719211E-05
  -12.3800001      -1.57729755E-05
  -12.3699999      -1.97043719E-05
  -12.3599997      -2.34200252E-05
  -12.3500004      -2.69338489E-05
  -12.3400002      -3.02877033E-05
  -12.3299999      -3.35102231E-05
  -12.3199997      -3.65771921E-05
  -12.3100004      -3.93842311E-05
  -12.3000002      -4.17399242E-05
  -12.2900000      -4.33827263E-05
  -12.2799997      -4.40194126E-05
  -12.2700005      -4.33772766E-05
  -12.2600002      -4.12586705E-05
  -12.2500000      -3.75851705E-05
  -12.2399998      -3.24207176E-05
  -12.2299995      -2.59671942E-05
  -12.2200003      -1.85323315E-05
  -12.2100000      -1.04761230E-05
  -12.1999998      -2.14697434E-06
  -12.1899996       6.17819842E-06
  -12.1800003       1.43364223E-05
  -12.1700001       2.22936123E-05
  -12.1599998       3.01281252E-05
  -12.1499996       3.79860467E-05
  -12.1400003       4.60180090E-05
  -12.1300001       5.43118113E-05
  -12.1199999       6.28366688E-05
  -12.1099997       7.14125563E-05
  -12.1000004       7.97131361E-05
  -12.0900002       8.73030513E-05
  -12.0799999       9.37031218E-05
  -12.0699997       9.84701328E-05
  -12.0600004       1.01274542E-04
  -12.0500002       1.01959369E-04
  -12.0400000       1.00567333E-04
  -12.0299997       9.73296846E-05
  -12.0200005       9.26191060E-05
  -12.0100002       8.68758580E-05
  -12.0000000       8.05231466E-05
  -11.9899998       7.38892777E-05
  -11.9799995       6.71532471E-05
  -11.9700003       6.03248518E-05
  -11.9600000       5.32627673E-05
  -11.9499998       4.57260830E-05
  -11.9399996       3.74469892E-05
  -11.9300003       2.82082819E-05
  -11.9200001       1.79081599E-05
  -11.9099998       6.59845227E-06
  -11.8999996      -5.51178800E-06
  -11.8900003      -1.80872921E-05
  -11.8800001      -3.07242299E-05
  -11.8699999      -4.30209548E-05
  -11.8599997      -5.46455012E-05
  -11.8500004      -6.53844909E-05
  -11.8400002      -7.51631815E-05
  -11.8299999      -8.40324719E-05
  -11.8199997      -9.21272149E-05
  -11.8100004      -9.96061790E-05
  -11.8000002      -1.06588363E-04
  -11.7900000      -1.13101116E-04
  -11.7799997      -1.19052347E-04
  -11.7700005      -1.24233964E-04
  -11.7600002      -1.28355983E-04
  -11.7500000      -1.31103880E-04
  -11.7399998      -1.32206464E-04
  -11.7299995      -1.31498833E-04
  -11.7200003      -1.28966072E-04
  -11.7100000      -1.24757542E-04
  -11.6999998      -1.19168129E-04
  -11.6899996      -1.12589434E-04
  -11.6800003      -1.05441599E-04
  -11.6700001      -9.80991972E-05
  -11.6599998      -9.08268557E-05
  -11.6499996      -8.37375555E-05
  -11.6400003      -7.67812453E-05
  -11.6300001      -6.97654104E-05
  -11.6199999      -6.24021195E-05
  -11.6099997      -5.43704446E-05
  -11.6000004      -4.53814864E-05
  -11.5900002      -3.52324641E-05
  -11.5799999      -2.38404155E-05
  -11.5699997      -1.12510888E-05
  -11.5600004       2.37563700E-06
  -11.5500002       1.67973449E-05
  -11.5400000       3.17281520E-05
  -11.5299997       4.68752405E-05
  -11.5200005       6.19649727E-05
  -11.5100002       7.67546735E-05
  -11.5000000       9.10301678E-05
  -11.4899998       1.04593862E-04
  -11.4799995       1.17249874E-04
  -11.4700003       1.28793181E-04
  -11.4600000       1.39008000E-04
  -11.4499998       1.47677478E-04
  -11.4399996       1.54603156E-04
  -11.4300003       1.59629810E-04
  -11.4200001       1.62669559E-04
  -11.4099998       1.63719858E-04
  -11.3999996       1.62870376E-04
  -11.3900003       1.60298077E-04
  -11.3800001       1.56251102E-04
  -11.3699999       1.51025175E-04
  -11.3599997       1.44936785E-04
  -11.3500004       1.38297852E-04
  -11.3400002       1.31394801E-04
  -11.3299999       1.24473881E-04
  -11.3199997       1.17732518E-04
  -11.3100004       1.11315720E-04
  -11.3000002       1.05316016E-04
  -11.2900000       9.97754105E-05
  -11.2799997       9.46887376E-05
  -11.2700005       9.00085142E-05
  -11.2600002       8.56512197E-05
  -11.2500000       8.15054955E-05
  -11.2399998       7.74418513E-05
  -11.2299995       7.33229535E-05
  -11.2200003       6.90132583E-05
  -11.2100000       6.43868043E-05
  -11.1999998       5.93323748E-05
  -11.1899996       5.37562701E-05
  -11.1800003       4.75842280E-05
  -11.1700001       4.07642074E-05
  -11.1599998       3.32721975E-05
  -11.1499996       2.51219917E-05
  -11.1400003       1.63783952E-05
  -11.1300001       7.17107969E-06
  -11.1199999      -2.29501802E-06
  -11.1099997      -1.17377986E-05
  -11.1000004      -2.08087640E-05
  -11.0900002      -2.91185752E-05
  -11.0799999      -3.62756655E-05
  -11.0699997      -4.19329299E-05
  -11.0600004      -4.58339637E-05
  -11.0500002      -4.78492657E-05
  -11.0400000      -4.79935043E-05
  -11.0299997      -4.64182667E-05
  -11.0200005      -4.33801360E-05
  -11.0100002      -3.91894864E-05
  -11.0000000      -3.41505547E-05
  -10.9899998      -2.85061287E-05
  -10.9799995      -2.24000196E-05
  -10.9700003      -1.58664952E-05
  -10.9600000      -8.85002828E-06
  -10.9499998      -1.25104737E-06
  -10.9399996       7.01296585E-06
  -10.9300003       1.59461470E-05
  -10.9200001       2.54280421E-05
  -10.9099998       3.51949966E-05
  -10.8999996       4.48547107E-05
  -10.8900003       5.39322864E-05
  -10.8800001       6.19380007E-05
  -10.8699999       6.84422921E-05
  -10.8599997       7.31419495E-05
  -10.8500004       7.59033574E-05
  -10.8400002       7.67745150E-05
  -10.8299999       7.59642353E-05
  -10.8199997       7.37943774E-05
  -10.8100004       7.06357750E-05
  -10.8000002       6.68415887E-05
  -10.7900000       6.26904657E-05
  -10.7799997       5.83494584E-05
  -10.7700005       5.38611712E-05
  -10.7600002       4.91549290E-05
  -10.7500000       4.40775329E-05
  -10.7399998       3.84360719E-05
  -10.7299995       3.20448671E-05
  -10.7200003       2.47687749E-05
  -10.7100000       1.65570382E-05
  -10.6999998       7.46376782E-06
  -10.6899996      -2.34665208E-06
  -10.6800003      -1.26090090E-05
  -10.6700001      -2.29795860E-05
  -10.6599998      -3.30681105E-05
  -10.6499996      -4.24750142E-05
  -10.6400003      -5.08288649E-05
  -10.6300001      -5.78190666E-05
  -10.6199999      -6.32192023E-05
  -10.6099997      -6.68981302E-05
  -10.6000004      -6.88182408E-05
  -10.5900002      -6.90220113E-05
  -10.5799999      -6.76111376E-05
  -10.5699997      -6.47226552E-05
  -10.5600004      -6.05080822E-05
  -10.5500002      -5.51191115E-05
  -10.5400000      -4.87026045E-05
  -10.5299997      -4.14040151E-05
  -10.5200005      -3.33765383E-05
  -10.5100002      -2.47913522E-05
  -10.5000000      -1.58441489E-05
  -10.4899998      -6.75369893E-06
  -10.4799995       2.24912537E-06
  -10.4700003       1.09414077E-05
  -10.4600000       1.91332110E-05
  -10.4499998       2.66927309E-05
  -10.4399996       3.35648838E-05
  -10.4300003       3.97780022E-05
  -10.4200001       4.54360124E-05
  -10.4099998       5.06956458E-05
  -10.3999996       5.57328021E-05
  -10.3900003       6.07040420E-05
  -10.3800001       6.57119235E-05
  -10.3699999       7.07814470E-05
  -10.3599997       7.58537717E-05
  -10.3500004       8.07992110E-05
  -10.3400002       8.54469836E-05
  -10.3299999       8.96255806E-05
  -10.3199997       9.32046169E-05
  -10.3100004       9.61282931E-05
  -10.3000002       9.84323269E-05
  -10.2900000       1.00239842E-04
  -10.2799997       1.01736870E-04
  -10.2700005       1.03131599E-04
  -10.2600002       1.04606115E-04
  -10.2500000       1.06270571E-04
  -10.2399998       1.08128035E-04
  -10.2299995       1.10057386E-04
  -10.2200003       1.11816284E-04
  -10.2100000       1.13064118E-04
  -10.1999998       1.13401038E-04
  -10.1899996       1.12417947E-04
  -10.1800003       1.09751913E-04
  -10.1700001       1.05140418E-04
  -10.1599998       9.84689614E-05
  -10.1499996       8.98058424E-05
  -10.1400003       7.94185908E-05
  -10.1300001       6.77664648E-05
  -10.1199999       5.54664221E-05
  -10.1099997       4.32325614E-05
  -10.1000004       3.17945778E-05
  -10.0900002       2.18060686E-05
  -10.0799999       1.37573934E-05
  -10.0699997       7.91013099E-06
  -10.0600004       4.26694623E-06
  -10.0500002       2.58550949E-06
  -10.0400000       2.43549880E-06
  -10.0299997       3.28789451E-06
  -10.0200005       4.61881200E-06
  -10.0100002       6.00522708E-06
  -10.0000000       7.19318905E-06
  -9.98999977       8.12521375E-06
  -9.97999954       8.92435764E-06
  -9.97000027       9.84281996E-06
  -9.96000004       1.11909176E-05
  -9.94999981       1.32657615E-05
  -9.93999958       1.62958277E-05
  -9.93000031       2.04119096E-05
  -9.92000008       2.56453968E-05
  -9.90999985       3.19471983E-05
  -9.89999962       3.92158436E-05
  -9.89000034       4.73231230E-05
  -9.88000011       5.61294910E-05
  -9.86999989       6.54865289E-05
  -9.85999966       7.52308551E-05
  -9.85000038       8.51766017E-05
  -9.84000015       9.51136317E-05
  -9.82999992       1.04817060E-04
  -9.81999969       1.14067705E-04
  -9.81000042       1.22679543E-04
  -9.80000019       1.30527696E-04
  -9.78999996       1.37569456E-04
  -9.77999973       1.43854122E-04
  -9.77000046       1.49519052E-04
  -9.76000023       1.54773850E-04
  -9.75000000       1.59874282E-04
  -9.73999977       1.65088772E-04
  -9.72999954       1.70659201E-04
  -9.72000027       1.76757763E-04
  -9.71000004       1.83442229E-04
  -9.69999981       1.90616513E-04
  -9.68999958       1.98004476E-04
  -9.68000031       2.05147997E-04
  -9.67000008       2.11440449E-04
  -9.65999985       2.16198518E-04
  -9.64999962       2.18768066E-04
  -9.64000034       2.18647969E-04
  -9.63000011       2.15606735E-04
  -9.61999989       2.09762147E-04
  -9.60999966       2.01600706E-04
  -9.60000038       1.91922110E-04
  -9.59000015       1.81715615E-04
  -9.57999992       1.71990221E-04
  -9.56999969       1.63596516E-04
  -9.56000042       1.57080969E-04
  -9.55000019       1.52606983E-04
  -9.53999996       1.49961081E-04
  -9.52999973       1.48640160E-04
  -9.52000046       1.47994724E-04
  -9.51000023       1.47390267E-04
  -9.50000000       1.46345556E-04
  -9.48999977       1.44615755E-04
  -9.47999954       1.42206176E-04
  -9.47000027       1.39321011E-04
  -9.46000004       1.36271279E-04
  -9.44999981       1.33371970E-04
  -9.43999958       1.30858854E-04
  -9.43000031       1.28845102E-04
  -9.42000008       1.27321793E-04
  -9.40999985       1.26192768E-04
  -9.39999962       1.25325983E-04
  -9.39000034       1.24600178E-04
  -9.38000011       1.23932099E-04
  -9.36999989       1.23280333E-04
  -9.35999966       1.22630387E-04
  -9.35000038       1.21972334E-04
  -9.34000015       1.21284836E-04
  -9.32999992       1.20531993E-04
  -9.31999969       1.19675460E-04
  -9.31000042       1.18693919E-04
  -9.30000019       1.17601005E-04
  -9.28999996       1.16452233E-04
  -9.27999973       1.15335759E-04
  -9.27000046       1.14351154E-04
  -9.26000023       1.13582573E-04
  -9.25000000       1.13077898E-04
  -9.23999977       1.12842121E-04
  -9.22999954       1.12846959E-04
  -9.22000027       1.13054673E-04
  -9.21000004       1.13445232E-04
  -9.19999981       1.14038048E-04
  -9.18999958       1.14899805E-04
  -9.18000031       1.16135408E-04
  -9.17000008       1.17865653E-04
  -9.15999985       1.20200079E-04
  -9.14999962       1.23213409E-04
  -9.14000034       1.26932238E-04
  -9.13000011       1.31334644E-04
  -9.11999989       1.36359318E-04
  -9.10999966       1.41920464E-04
  -9.10000038       1.47921717E-04
  -9.09000015       1.54267545E-04
  -9.07999992       1.60872456E-04
  -9.06999969       1.67671082E-04
  -9.06000042       1.74631263E-04
  -9.05000019       1.81769414E-04
  -9.03999996       1.89163795E-04
  -9.02999973       1.96956229E-04
  -9.02000046       2.05335673E-04
  -9.01000023       2.14498854E-04
  -9.00000000       2.24592397E-04
  -8.98999977       2.35650936E-04
  -8.97999954       2.47549964E-04
  -8.97000027       2.59991037E-04
  -8.96000004       2.72534322E-04
  -8.94999981       2.84672307E-04
  -8.93999958       2.95931211E-04
  -8.93000031       3.05969617E-04
  -8.92000008       3.14642704E-04
  -8.90999985       3.22008564E-04
  -8.89999962       3.28270020E-04
  -8.89000034       3.33664851E-04
  -8.88000011       3.38338054E-04
  -8.86999989       3.42238229E-04
  -8.85999966       3.45074368E-04
  -8.85000038       3.46354092E-04
  -8.84000015       3.45497450E-04
  -8.82999992       3.41995881E-04
  -8.81999969       3.35569261E-04
  -8.81000042       3.26273090E-04
  -8.80000019       3.14520032E-04
  -8.78999996       3.01008840E-04
  -8.77999973       2.86578288E-04
  -8.77000046       2.72032456E-04
  -8.76000023       2.57987616E-04
  -8.75000000       2.44784984E-04
  -8.73999977       2.32491890E-04
  -8.72999954       2.20984701E-04
  -8.72000027       2.10080820E-04
  -8.71000004       1.99672417E-04
  -8.69999981       1.89819344E-04
  -8.68999958       1.80774223E-04
  -8.68000031       1.72936707E-04
  -8.67000008       1.66760205E-04
  -8.65999985       1.62649361E-04
  -8.64999962       1.60885538E-04
  -8.64000034       1.61602104E-04
  -8.63000011       1.64816025E-04
  -8.61999989       1.70492291E-04
  -8.60999966       1.78611794E-04
  -8.60000038       1.89209517E-04
  -8.59000015       2.02366165E-04
  -8.57999992       2.18155488E-04
  -8.56999969       2.36570486E-04
  -8.56000042       2.57461827E-04
  -8.55000019       2.80519133E-04
  -8.53999996       3.05309251E-04
  -8.52999973       3.31364019E-04
  -8.52000046       3.58288235E-04
  -8.51000023       3.85848922E-04
  -8.50000000       4.14009759E-04
  -8.48999977       4.42895398E-04
  -8.47999954       4.72692336E-04
  -8.47000027       5.03519317E-04
  -8.46000004       5.35311294E-04
  -8.44999981       5.67760551E-04
  -8.43999958       6.00333093E-04
  -8.43000031       6.32360170E-04
  -8.42000008       6.63174724E-04
  -8.40999985       6.92241592E-04
  -8.39999962       7.19243486E-04
  -8.39000034       7.44090823E-04
  -8.38000011       7.66855665E-04
  -8.36999989       7.87655532E-04
  -8.35999966       8.06529773E-04
  -8.35000038       8.23355513E-04
  -8.34000015       8.37829080E-04
  -8.32999992       8.49517819E-04
  -8.31999969       8.57964915E-04
  -8.31000042       8.62804067E-04
  -8.30000019       8.63846857E-04
  -8.28999996       8.61113076E-04
  -8.27999973       8.54800688E-04
  -8.27000046       8.45210976E-04
  -8.26000023       8.32663209E-04
  -8.25000000       8.17430613E-04
  -8.23999977       7.99720932E-04
  -8.22999954       7.79700466E-04
  -8.22000027       7.57542497E-04
  -8.21000004       7.33474328E-04
  -8.19999981       7.07788800E-04
  -8.18999958       6.80816127E-04
  -8.18000031       6.52859744E-04
  -8.17000008       6.24125416E-04
  -8.15999985       5.94678684E-04
  -8.14999962       5.64455404E-04
  -8.14000034       5.33333572E-04
  -8.13000011       5.01250033E-04
  -8.11999989       4.68319835E-04
  -8.10999966       4.34917427E-04
  -8.10000038       4.01684432E-04
  -8.09000015       3.69452231E-04
  -8.07999992       3.39101651E-04
  -8.06999969       3.11401003E-04
  -8.06000042       2.86875176E-04
  -8.05000019       2.65751063E-04
  -8.03999996       2.47994409E-04
  -8.02999973       2.33425293E-04
  -8.02000046       2.21870752E-04
  -8.01000023       2.13300198E-04
  -8.00000000       2.07894525E-04
  -7.98999977       2.06027165E-04
  -7.98000002       2.08162950E-04
  -7.96999979       2.14711996E-04
  -7.96000004       2.25889991E-04
  -7.94999981       2.41632704E-04
  -7.94000006       2.61590700E-04
  -7.92999983       2.85204034E-04
  -7.92000008       3.11826414E-04
  -7.90999985       3.40853498E-04
  -7.90000010       3.71811882E-04
  -7.88999987       4.04381630E-04
  -7.88000011       4.38352115E-04
  -7.86999989       4.73533175E-04
  -7.86000013       5.09662495E-04
  -7.84999990       5.46346360E-04
  -7.84000015       5.83058572E-04
  -7.82999992       6.19199127E-04
  -7.82000017       6.54194097E-04
  -7.80999994       6.87603606E-04
  -7.80000019       7.19202391E-04
  -7.78999996       7.49008730E-04
  -7.78000021       7.77253532E-04
  -7.76999998       8.04303214E-04
  -7.76000023       8.30555509E-04
  -7.75000000       8.56335100E-04
  -7.73999977       8.81813059E-04
  -7.73000002       9.06961097E-04
  -7.71999979       9.31544520E-04
  -7.71000004       9.55155760E-04
  -7.69999981       9.77269141E-04
  -7.69000006       9.97325405E-04
  -7.67999983       1.01482286E-03
  -7.67000008       1.02941075E-03
  -7.65999985       1.04096695E-03
  -7.65000010       1.04964385E-03
  -7.63999987       1.05586264E-03
  -7.63000011       1.06025452E-03
  -7.61999989       1.06355140E-03
  -7.61000013       1.06644758E-03
  -7.59999990       1.06947299E-03
  -7.59000015       1.07290212E-03
  -7.57999992       1.07674301E-03
  -7.57000017       1.08079519E-03
  -7.55999994       1.08476914E-03
  -7.55000019       1.08842051E-03
  -7.53999996       1.09165523E-03
  -7.53000021       1.09456619E-03
  -7.51999998       1.09738950E-03
  -7.51000023       1.10040093E-03
  -7.50000000       1.10379292E-03
  -7.48999977       1.10758701E-03
  -7.48000002       1.11163268E-03
  -7.46999979       1.11569173E-03
  -7.46000004       1.11959549E-03
  -7.44999981       1.12340553E-03
  -7.44000006       1.12751895E-03