  -16.0000000       0.00000000    
  -15.9899998       0.00000000    
  -15.9799995       0.00000000    
  -15.9700003       0.00000000    
  -15.9600000       0.00000000    
  -15.9499998       0.00000000    
  -15.9399996       0.00000000    
  -15.9300003       0.00000000    
  -15.9200001       0.00000000    
  -15.9099998       0.00000000    
  -15.8999996       0.00000000    
  -15.8900003       0.00000000    
  -15.8800001       5.60519386E-45
  -15.8699999       8.26766094E-44
  -15.8599997       3.06884364E-43
  -15.8500004      -2.87406315E-42
  -15.8400002      -4.94658358E-41
  -15.8299999      -4.00669066E-40
  -15.8199997      -2.31689147E-39
  -15.8100004      -1.06856155E-38
  -15.8000002      -4.13470152E-38
  -15.7900000      -1.37976174E-37
  -15.7799997      -4.03103570E-37
  -15.7700005      -1.03712767E-36
  -15.7600002      -2.34129934E-36
  -15.7500000      -4.55295673E-36
  -15.7399998      -7.23508092E-36
  -15.7299995      -7.79316236E-36
  -15.7200003       1.26241261E-36
  -15.7100000       3.60662186E-35
  -15.6999998       1.24255688E-34
  -15.6899996       3.02249375E-34
  -15.6800003       5.99431268E-34
  -15.6700001       1.00180909E-33
  -15.6599998       1.39504235E-33
  -15.6499996       1.50401802E-33
  -15.6400003       8.68887221E-34
  -15.6300001      -1.09083607E-33
  -15.6199999      -4.89622638E-33
  -15.6099997      -1.07539946E-32
  -15.6000004      -1.83395456E-32
  -15.5900002      -2.66836894E-32
  -15.5799999      -3.39104465E-32
  -15.5699997      -3.59867310E-32
  -15.5600004      -2.32692236E-32
  -15.5500002       2.53503203E-32
  -15.5400000       1.46908159E-31
  -15.5299997       3.86128876E-31
  -15.5200005       7.55258318E-31
  -15.5100002       1.14398574E-30
  -15.5000000       1.18755031E-30
  -15.4899998       1.66165307E-31
  -15.4799995      -2.89311071E-30
  -15.4700003      -8.66104388E-30
  -15.4600000      -1.62978135E-29
  -15.4499998      -2.17267588E-29
  -15.4399996      -1.62447812E-29
  -15.4300003       1.26954879E-29
  -15.4200001       7.59921822E-29
  -15.4099998       1.70746533E-28
  -15.3999996       2.62651224E-28
  -15.3900003       2.70435014E-28
  -15.3800001       6.81794668E-29
  -15.3699999      -4.72780172E-28
  -15.3599997      -1.38493372E-27
  -15.3500004      -2.45456671E-27
  -15.3400002      -3.07333622E-27
  -15.3299999      -2.20587850E-27
  -15.3199997       1.36501055E-27
  -15.3100004       8.37254594E-27
  -15.3000002       1.79788472E-26
  -15.2900000       2.65636152E-26
  -15.2799997       2.70932491E-26
  -15.2700005       1.01244388E-26
  -15.2600002      -3.25091736E-26
  -15.2500000      -1.00988734E-25
  -15.2399998      -1.79078291E-25
  -15.2299995      -2.27659144E-25
  -15.2200003      -1.86245770E-25
  -15.2100000       1.07655339E-26
  -15.1999998       3.99139928E-25
  -15.1899996       9.34892469E-25
  -15.1800003       1.44555428E-24
  -15.1700001       1.61242962E-24
  -15.1599998       1.02163295E-24
  -15.1499996      -6.85436458E-25
  -15.1400003      -3.56225880E-24
  -15.1300001      -7.06407743E-24
  -15.1199999      -9.83782203E-24
  -15.1099997      -9.77789227E-24
  -15.1000004      -4.53184695E-24
  -15.0900002       7.45729541E-24
  -15.0799999       2.55033871E-23
  -15.0699997       4.52681520E-23
  -15.0600004       5.81476126E-23
  -15.0500002       5.23608666E-23
  -15.0400000       1.64428574E-23
  -15.0299997      -5.48631113E-23
  -15.0200005      -1.53513834E-22
  -15.0100002      -2.52502890E-22
  -15.0000000      -3.05355914E-22
  -14.9899998      -2.54549915E-22
  -14.9799995      -5.08620120E-23
  -14.9700003       3.18194127E-22
  -14.9600000       7.98134779E-22
  -14.9499998       1.24824816E-21
  -14.9399996       1.44905029E-21
  -14.9300003       1.14980125E-21
  -14.9200001       1.59491380E-22
  -14.9099998      -1.53264390E-21
  -14.8999996      -3.64234402E-21
  -14.8900003      -5.53461863E-21
  -14.8800001      -6.28548173E-21
  -14.8699999      -4.90198782E-21
  -14.8599997      -6.96715641E-22
  -14.8500004       6.25463411E-21
  -14.8400002       1.47174269E-20
  -14.8299999       2.21606840E-20
  -14.8199997       2.50717410E-20
  -14.8100004       1.98321415E-20
  -14.8000002       4.09241550E-21
  -14.7900000      -2.16487707E-20
  -14.7799997      -5.27828569E-20
  -14.7700005      -8.02982930E-20
  -14.7600002      -9.20398245E-20
  -14.7500000      -7.57768979E-20
  -14.7399998      -2.37587468E-20
  -14.7299995       6.22834625E-20
  -14.7200003       1.67365392E-19
  -14.7100000       2.62668567E-19
  -14.6999998       3.09772832E-19
  -14.6899996       2.70234116E-19
  -14.6800003       1.19298056E-19
  -14.6700001      -1.39474594E-19
  -14.6599998      -4.63543537E-19
  -14.6499996      -7.70088090E-19
  -14.6400003      -9.48255039E-19
  -14.6300001      -8.85959550E-19
  -14.6199999      -5.07500276E-19
  -14.6099997       1.86928601E-19
  -14.6000004       1.09267509E-18
  -14.5900002       1.99670047E-18
  -14.5799999       2.60838419E-18
  -14.5699997       2.62683508E-18
  -14.5600004       1.83478048E-18
  -14.5500002       1.96880153E-19
  -14.5400000      -2.06833162E-18
  -14.5299997      -4.47478614E-18
  -14.5200005      -6.33616337E-18
  -14.5100002      -6.91726809E-18
  -14.5000000      -5.64631790E-18
  -14.4899998      -2.33858621E-18
  -14.4799995       2.63581144E-18
  -14.4700003       8.30795392E-18
  -14.4600000       1.32370396E-17
  -14.4499998       1.58137312E-17
  -14.4399996       1.46916773E-17
  -14.4300003       9.24704214E-18
  -14.4200001      -6.67967344E-20
  -14.4099998      -1.16007804E-17
  -14.3999996      -2.27163715E-17
  -14.3900003      -3.03248151E-17
  -14.3800001      -3.16678289E-17
  -14.3699999      -2.51564732E-17
  -14.3599997      -1.10311061E-17
  -14.3500004       8.38483457E-18
  -14.3400002       2.89828800E-17
  -14.3299999       4.57231032E-17
  -14.3199997       5.38802356E-17
  -14.3100004       5.03737905E-17
  -14.3000002       3.48017945E-17
  -14.2900000       9.83288537E-18
  -14.2799997      -1.92399183E-17
  -14.2700005      -4.57475216E-17
  -14.2600002      -6.34042013E-17
  -14.2500000      -6.80902853E-17
  -14.2399998      -5.91028356E-17
  -14.2299995      -3.94238780E-17
  -14.2200003      -1.48244596E-17
  -14.2100000       8.01152630E-18
  -14.1999998       2.38018607E-17
  -14.1899996       3.06516110E-17
  -14.1800003       3.09457829E-17
  -14.1700001       3.06527691E-17
  -14.1599998       3.70288493E-17
  -14.1499996       5.52903106E-17
  -14.1400003       8.53026698E-17
  -14.1300001       1.19549463E-16
  -14.1199999       1.43460488E-16
  -14.1099997       1.38591623E-16
  -14.1000004       8.82748952E-17
  -14.0900002      -1.55672678E-17
  -14.0799999      -1.66435886E-16
  -14.0699997      -3.40271267E-16
  -14.0600004      -4.97173718E-16
  -14.0500002      -5.88441624E-16
  -14.0400000      -5.68052429E-16
  -14.0299997      -4.06220881E-16
  -14.0200005      -1.01605983E-16
  -14.0100002       3.11502799E-16
  -14.0000000       7.63934198E-16
  -13.9899998       1.16153903E-15
  -13.9799995       1.40320124E-15
  -13.9700003       1.40362031E-15
  -13.9600000       1.11584394E-15
  -13.9499998       5.47969436E-16
  -13.9399996      -2.30739028E-16
  -13.9300003      -1.09693922E-15
  -13.9200001      -1.89315845E-15
  -13.9099998      -2.45714072E-15
  -13.8999996      -2.65465695E-15
  -13.8900003      -2.40869256E-15
  -13.8800001      -1.71843757E-15
  -13.8699999      -6.63609498E-16
  -13.8599997       6.07145540E-16
  -13.8500004       1.90143968E-15
  -13.8400002       3.01659815E-15
  -13.8299999       3.77428140E-15
  -13.8199997       4.04921644E-15
  -13.8100004       3.78663199E-15
  -13.8000002       3.00593888E-15
  -13.7900000       1.79157167E-15
  -13.7799997       2.74861821E-16
  -13.7700005      -1.38747078E-15
  -13.7600002      -3.03256536E-15
  -13.7500000      -4.50437425E-15
  -13.7399998      -5.65908091E-15
  -13.7299995      -6.36489356E-15
  -13.7200003      -6.50068437E-15
  -13.7100000      -5.95903518E-15
  -13.6999998      -4.65832334E-15
  -13.6899996      -2.56566047E-15
  -13.6800003       2.71760621E-16
  -13.6700001       3.69388697E-15
  -13.6599998       7.40410812E-15
  -13.6499996       1.09663535E-14
  -13.6400003       1.38328248E-14
  -13.6300001       1.54069127E-14
  -13.6199999       1.51379729E-14
  -13.6099997       1.26357021E-14
  -13.6000004       7.78382197E-15
  -13.5900002       8.28022987E-16
  -13.5799999      -7.58654292E-15
  -13.5699997      -1.64467354E-14
  -13.5600004      -2.44787135E-14
  -13.5500002      -3.03227224E-14
  -13.5400000      -3.27513454E-14
  -13.5299997      -3.08947983E-14
  -13.5200005      -2.44308900E-14
  -13.5100002      -1.36998762E-14
  -13.5000000       2.83827506E-16
  -13.4899998       1.59325525E-14
  -13.4799995       3.12864494E-14
  -13.4700003       4.42821811E-14
  -13.4600000       5.30429751E-14
  -13.4499998       5.61401342E-14
  -13.4399996       5.27834680E-14
  -13.4300003       4.29146939E-14
  -13.4200001       2.71995087E-14
  -13.4099998       6.93507167E-15
  -13.3999996      -1.60962992E-14
  -13.3900003      -3.97918833E-14
  -13.3800001      -6.18842271E-14
  -13.3699999      -8.00759063E-14
  -13.3599997      -9.21606880E-14
  -13.3500004      -9.61537978E-14
  -13.3400002      -9.04584364E-14
  -13.3299999      -7.40863601E-14
  -13.3199997      -4.69270754E-14
  -13.3100004      -1.00287549E-14
  -13.3000002       3.41762785E-14
  -13.2900000       8.17878480E-14
  -13.2799997       1.27580279E-13
  -13.2700005       1.65426632E-13
  -13.2600002       1.89009290E-13
  -13.2500000       1.92753623E-13
  -13.2399998       1.72854041E-13
  -13.2299995       1.28211230E-13
  -13.2200003       6.10809417E-14
  -13.2100000      -2.27404121E-14
  -13.1999998      -1.14301025E-13
  -13.1899996      -2.02457056E-13
  -13.1800003      -2.75307934E-13
  -13.1700001      -3.21894583E-13
  -13.1599998      -3.33882770E-13
  -13.1499996      -3.06940102E-13
  -13.1400003      -2.41556639E-13
  -13.1300001      -1.43158367E-13
  -13.1199999      -2.14892801E-14
  -13.1099997       1.10625241E-13
  -13.1000004       2.38913544E-13
  -13.0900002       3.49408003E-13
  -13.0799999       4.30031444E-13
  -13.0699997       4.71797840E-13
  -13.0600004       4.69512124E-13
  -13.0500002       4.21967257E-13
  -13.0400000       3.31743964E-13
  -13.0299997       2.04771692E-13
  -13.0200005       4.98135062E-14
  -13.0100002      -1.22011545E-13
  -13.0000000      -2.97648326E-13
  -12.9899998      -4.62537777E-13
  -12.9799995      -6.01201001E-13
  -12.9700003      -6.98127320E-13
  -12.9600000      -7.39068149E-13
  -12.9499998      -7.12724693E-13
  -12.9399996      -6.12674299E-13
  -12.9300003      -4.39235914E-13
  -12.9200001      -2.00881466E-13
  -12.9099998       8.52149365E-14
  -12.8999996       3.93812370E-13
  -12.8900003       6.93572749E-13
  -12.8800001       9.50272847E-13
  -12.8699999       1.13091437E-12
  -12.8599997       1.20817288E-12
  -12.8500004       1.16450155E-12
  -12.8400002       9.95209666E-13
  -12.8299999       7.09959110E-13
  -12.8199997       3.32366459E-13
  -12.8100004      -1.02299557E-13
  -12.8000002      -5.51017619E-13
  -12.7900000      -9.67950438E-13
  -12.7799997      -1.30969899E-12
  -12.7700005      -1.54013618E-12
  -12.7600002      -1.63418530E-12
  -12.7500000      -1.58012080E-12
  -12.7399998      -1.38024282E-12
  -12.7299995      -1.05003441E-12
  -12.7200003      -6.16124827E-13
  -12.7100000      -1.13499488E-13
  -12.6999998       4.17601392E-13
  -12.6899996       9.34741976E-13
  -12.6800003       1.39609570E-12
  -12.6700001       1.76296597E-12
  -12.6599998       2.00209207E-12
  -12.6499996       2.08786872E-12
  -12.6400003       2.00454345E-12
  -12.6300001       1.74833054E-12
  -12.6199999       1.32919435E-12
  -12.6099997       7.71912102E-13
  -12.6000004       1.15921961E-13
  -12.5900002      -5.86470325E-13
  -12.5799999      -1.27377514E-12
  -12.5699997      -1.88081321E-12
  -12.5600004      -2.34556515E-12
  -12.5500002      -2.61654305E-12
  -12.5400000      -2.65959216E-12
  -12.5299997      -2.46297470E-12
  -12.5200005      -2.03974706E-12
  -12.5100002      -1.42685625E-12
  -12.5000000      -6.80928458E-13
  -12.4899998       1.28644342E-13
  -12.4799995       9.28187540E-13
  -12.4700003       1.64835279E-12
  -12.4600000       2.23136440E-12
  -12.4499998       2.63572389E-12
  -12.4399996       2.83774415E-12
  -12.4300003       2.82999405E-12
  -12.4200001       2.61743903E-12
  -12.4099998       2.21255327E-12
  -12.3999996       1.63088651E-12
  -12.3900003       8.88381545E-13
  -12.3800001       1.23470002E-15
  -12.3699999      -1.01168683E-12
  -12.3599997      -2.12461754E-12
  -12.3500004      -3.30024224E-12
  -12.3400002      -4.48631930E-12
  -12.3299999      -5.61512165E-12
  -12.3199997      -6.60671908E-12
  -12.3100004      -7.37619080E-12
  -12.3000002      -7.84395639E-12
  -12.2900000      -7.94744045E-12
  -12.2799997      -7.65188087E-12
  -12.2700005      -6.95795461E-12
  -12.2600002      -5.90441931E-12
  -12.2500000      -4.56492483E-12
  -12.2399998      -3.03927521E-12
  -12.2299995      -1.44056696E-12
  -12.2200003       1.19512812E-13
  -12.2100000       1.54450454E-12
  -12.1999998       2.76391280E-12
  -12.1899996       3.73892150E-12
  -12.1800003       4.46267545E-12
  -12.1700001       4.95568473E-12
  -12.1599998       5.25791563E-12
  -12.1499996       5.41973324E-12
  -12.1400003       5.49379769E-12
  -12.1300001       5.52960022E-12
  -12.1199999       5.57130817E-12
  -12.1099997       5.65867752E-12
  -12.1000004       5.82975335E-12
  -12.0900002       6.12374734E-12
  -12.0799999       6.58224300E-12
  -12.0699997       7.24760746E-12
  -12.0600004       8.15805583E-12
  -12.0500002       9.34011028E-12
  -12.0400000       1.07997838E-11
  -12.0299997       1.25144790E-11
  -12.0200005       1.44276431E-11
  -12.0100002       1.64476054E-11
  -12.0000000       1.84514452E-11
  -11.9899998       2.02935689E-11
  -11.9799995       2.18178791E-11
  -11.9700003       2.28717791E-11
  -11.9600000       2.33201149E-11
  -11.9499998       2.30569730E-11
  -11.9399996       2.20145915E-11
  -11.9300003       2.01682820E-11
  -11.9200001       1.75378011E-11
  -11.9099998       1.41855121E-11
  -11.8999996       1.02121610E-11
  -11.8900003       5.75117124E-12
  -11.8800001       9.61711830E-13
  -11.8699999      -3.97923361E-12
  -11.8599997      -8.88555115E-12
  -11.8500004      -1.35720714E-11
  -11.8400002      -1.78653238E-11
  -11.8299999      -2.16152252E-11
  -11.8199997      -2.47064036E-11
  -11.8100004      -2.70683580E-11
  -11.8000002      -2.86828478E-11
  -11.7900000      -2.95872736E-11
  -11.7799997      -2.98729964E-11
  -11.7700005      -2.96783396E-11
  -11.7600002      -2.91763454E-11
  -11.7500000      -2.85586450E-11
  -11.7399998      -2.80171320E-11
  -11.7299995      -2.77255545E-11
  -11.7200003      -2.78233131E-11
  -11.7100000      -2.84032971E-11
  -11.6999998      -2.95051761E-11
  -11.6899996      -3.11142362E-11
  -11.6800003      -3.31657896E-11
  -11.6700001      -3.55535289E-11
  -11.6599998      -3.81401993E-11
  -11.6499996      -4.07691693E-11
  -11.6400003      -4.32742349E-11
  -11.6300001      -4.54877247E-11
  -11.6199999      -4.72457837E-11
  -11.6099997      -4.83917975E-11
  -11.6000004      -4.87787796E-11
  -11.5900002      -4.82724069E-11
  -11.5799999      -4.67557139E-11
  -11.5699997      -4.41360143E-11
  -11.5600004      -4.03552400E-11
  -11.5500002      -3.54002903E-11
  -11.5400000      -2.93139367E-11
  -11.5299997      -2.22016815E-11
  -11.5200005      -1.42330574E-11
  -11.5100002      -5.63626446E-12
  -11.5000000       3.31619281E-12
  -11.4899998       1.23286095E-11
  -11.4799995       2.11087103E-11
  -11.4700003       2.93956491E-11
  -11.4600000       3.69853211E-11
  -11.4499998       4.37494867E-11
  -11.4399996       4.96453781E-11
  -11.4300003       5.47144795E-11
  -11.4200001       5.90703528E-11
  -11.4099998       6.28782859E-11
  -11.3999996       6.63306771E-11
  -11.3900003       6.96212185E-11
  -11.3800001       7.29230079E-11
  -11.3699999       7.63738031E-11
  -11.3599997       8.00685976E-11
  -11.3500004       8.40608416E-11
  -11.3400002       8.83693188E-11
  -11.3299999       9.29883948E-11
  -11.3199997       9.78981896E-11
  -11.3100004       1.03072405E-10
  -11.3000002       1.08482168E-10
  -11.2900000       1.14095552E-10
  -11.2799997       1.19874596E-10
  -11.2700005       1.25771213E-10
  -11.2600002       1.31723452E-10
  -11.2500000       1.37656456E-10
  -11.2399998       1.43483947E-10
  -11.2299995       1.49115623E-10
  -11.2200003       1.54464025E-10
  -11.2100000       1.59450314E-10
  -11.1999998       1.64011180E-10
  -11.1899996       1.68098063E-10
  -11.1800003       1.71676839E-10
  -11.1700001       1.74723916E-10
  -11.1599998       1.77221932E-10
  -11.1499996       1.79157952E-10
  -11.1400003       1.80524221E-10
  -11.1300001       1.81322984E-10
  -11.1199999       1.81571744E-10
  -11.1099997       1.81312299E-10
  -11.1000004       1.80614884E-10
  -11.0900002       1.79578269E-10
  -11.0799999       1.78326784E-10
  -11.0699997       1.76997694E-10
  -11.0600004       1.75726586E-10
  -11.0500002       1.74631212E-10
  -11.0400000       1.73799697E-10
  -11.0299997       1.73278558E-10
  -11.0200005       1.73073514E-10
  -11.0100002       1.73153381E-10
  -11.0000000       1.73464118E-10
  -10.9899998       1.73945039E-10
  -10.9799995       1.74543296E-10
  -10.9700003       1.75224779E-10
  -10.9600000       1.75981743E-10
  -10.9499998       1.76832229E-10
  -10.9399996       1.77812612E-10
  -10.9300003       1.78963441E-10
  -10.9200001       1.80321064E-10
  -10.9099998       1.81903131E-10
  -10.8999996       1.83699195E-10
  -10.8900003       1.85671326E-10
  -10.8800001       1.87751717E-10
  -10.8699999       1.89848262E-10
  -10.8599997       1.91852770E-10
  -10.8500004       1.93644920E-10
  -10.8400002       1.95108416E-10
  -10.8299999       1.96130556E-10
  -10.8199997       1.96615238E-10
  -10.8100004       1.96481734E-10
  -10.8000002       1.95678682E-10
  -10.7900000       1.94181171E-10
  -10.7799997       1.91995919E-10
  -10.7700005       1.89159438E-10
  -10.7600002       1.85737981E-10
  -10.7500000       1.81814286E-10
  -10.7399998       1.77481849E-10
  -10.7299995       1.72833539E-10
  -10.7200003       1.67951666E-10
  -10.7100000       1.62901234E-10
  -10.6999998       1.57730759E-10
  -10.6899996       1.52471938E-10
  -10.6800003       1.47155496E-10
  -10.6700001       1.41814574E-10
  -10.6599998       1.36498174E-10
  -10.6499996       1.31276601E-10
  -10.6400003       1.26235120E-10
  -10.6300001       1.21469584E-10
  -10.6199999       1.17067939E-10
  -10.6099997       1.13094270E-10
  -10.6000004       1.09578804E-10
  -10.5900002       1.06491461E-10
  -10.5799999       1.03759543E-10
  -10.5699997       1.01256392E-10
  -10.5600004       9.88293822E-11
  -10.5500002       9.63225819E-11
  -10.5400000       9.35867148E-11
  -10.5299997       9.05131040E-11
  -10.5200005       8.70412631E-11
  -10.5100002       8.31596320E-11
  -10.5000000       7.89105448E-11
  -10.4899998       7.43812997E-11
  -10.4799995       6.96787697E-11
  -10.4700003       6.49308315E-11
  -10.4600000       6.02588743E-11
  -10.4499998       5.57818305E-11
  -10.4399996       5.15970669E-11
  -10.4300003       4.77799120E-11
  -10.4200001       4.43827544E-11
  -10.4099998       4.14211651E-11
  -10.3999996       3.88835006E-11
  -10.3900003       3.67216882E-11
  -10.3800001       3.48586264E-11
  -10.3699999       3.31914843E-11
  -10.3599997       3.15954450E-11
  -10.3500004       2.99382602E-11
  -10.3400002       2.81097194E-11
  -10.3299999       2.60103310E-11
  -10.3199997       2.35890456E-11
  -10.3100004       2.08281482E-11
  -10.3000002       1.77518208E-11
  -10.2900000       1.44173640E-11
  -10.2799997       1.09054302E-11
  -10.2700005       7.29916648E-12
  -10.2600002       3.67882374E-12
  -10.2500000       1.15410651E-13
  -10.2399998      -3.34216921E-12
  -10.2299995      -6.65816707E-12
  -10.2200003      -9.80315655E-12
  -10.2100000      -1.27569509E-11
  -10.1999998      -1.54873007E-11
  -10.1899996      -1.79623191E-11
  -10.1800003      -2.01322882E-11
  -10.1700001      -2.19559544E-11
  -10.1599998      -2.33913739E-11
  -10.1499996      -2.44077120E-11
  -10.1400003      -2.49957260E-11
  -10.1300001      -2.51619021E-11
  -10.1199999      -2.49369050E-11
  -10.1099997      -2.43676503E-11
  -10.1000004      -2.35171448E-11
  -10.0900002      -2.24577839E-11
  -10.0799999      -2.12672310E-11
  -10.0699997      -2.00296602E-11
  -10.0600004      -1.88233908E-11
  -10.0500002      -1.77250957E-11
  -10.0400000      -1.68027016E-11
  -10.0299997      -1.61116016E-11
  -10.0200005      -1.56742241E-11
  -10.0100002      -1.54948537E-11
  -10.0000000      -1.55277857E-11
  -9.98999977      -1.56964320E-11
  -9.97999954      -1.58820509E-11
  -9.97000027      -1.59495854E-11
  -9.96000004      -1.57451777E-11
  -9.94999981      -1.51261313E-11
  -9.93999958      -1.39617710E-11
  -9.93000031      -1.21718330E-11
  -9.92000008      -9.70650990E-12
  -9.90999985      -6.56815184E-12
  -9.89999962      -2.77745773E-12
  -9.89000034       1.63087382E-12
  -9.88000011       6.61074060E-12
  -9.86999989       1.21286817E-11
  -9.85999966       1.81789479E-11
  -9.85000038       2.47683801E-11
  -9.84000015       3.19284009E-11
  -9.82999992       3.97060405E-11
  -9.81999969       4.81490715E-11
  -9.81000042       5.73002028E-11
  -9.80000019       6.72021466E-11
  -9.78999996       7.78760736E-11
  -9.77999973       8.93303972E-11
  -9.77000046       1.01554203E-10
  -9.76000023       1.14507487E-10
  -9.75000000       1.28126537E-10
  -9.73999977       1.42321641E-10
  -9.72999954       1.56969174E-10
  -9.72000027       1.71928929E-10
  -9.71000004       1.87047836E-10
  -9.69999981       2.02170003E-10
  -9.68999958       2.17158902E-10
  -9.68000031       2.31900332E-10
  -9.67000008       2.46302506E-10
  -9.65999985       2.60315602E-10
  -9.64999962       2.73910228E-10
  -9.64000034       2.87063012E-10
  -9.63000011       2.99741176E-10
  -9.61999989       3.11907250E-10
  -9.60999966       3.23471694E-10
  -9.60000038       3.34331868E-10
  -9.59000015       3.44363787E-10
  -9.57999992       3.53418850E-10
  -9.56999969       3.61358998E-10
  -9.56000042       3.68068909E-10
  -9.55000019       3.73459152E-10
  -9.53999996       3.77487847E-10
  -9.52999973       3.80147996E-10
  -9.52000046       3.81458254E-10
  -9.51000023       3.81474574E-10
  -9.50000000       3.80258380E-10
  -9.48999977       3.77867043E-10
  -9.47999954       3.74362874E-10
  -9.47000027       3.69792558E-10
  -9.46000004       3.64178743E-10
  -9.44999981       3.57533086E-10
  -9.43999958       3.49839629E-10
  -9.43000031       3.41099954E-10
  -9.42000008       3.31303512E-10
  -9.40999985       3.20470761E-10
  -9.39999962       3.08629677E-10
  -9.39000034       2.95877906E-10
  -9.38000011       2.82354279E-10
  -9.36999989       2.68258027E-10
  -9.35999966       2.53803256E-10
  -9.35000038       2.39270159E-10
  -9.34000015       2.24927812E-10
  -9.32999992       2.11076559E-10
  -9.31999969       1.98015895E-10
  -9.31000042       1.86030358E-10
  -9.30000019       1.75409326E-10
  -9.28999996       1.66406958E-10
  -9.27999973       1.59258731E-10
  -9.27000046       1.54160185E-10
  -9.26000023       1.51243504E-10
  -9.25000000       1.50571874E-10
  -9.23999977       1.52157606E-10
  -9.22999954       1.55935265E-10
  -9.22000027       1.61790303E-10
  -9.21000004       1.69587136E-10
  -9.19999981       1.79197615E-10
  -9.18999958       1.90557278E-10
  -9.18000031       2.03612766E-10
  -9.17000008       2.18387891E-10
  -9.15999985       2.34917530E-10
  -9.14999962       2.53264049E-10
  -9.14000034       2.73467915E-10
  -9.13000011       2.95499514E-10
  -9.11999989       3.19265170E-10
  -9.10999966       3.44614420E-10
  -9.10000038       3.71346259E-10
  -9.09000015       3.99208916E-10
  -9.07999992       4.27925057E-10
  -9.06999969       4.57212990E-10
  -9.06000042       4.86805429E-10
  -9.05000019       5.16421406E-10
  -9.03999996       5.45770984E-10
  -9.02999973       5.74572112E-10
  -9.02000046       6.02520422E-10
  -9.01000023       6.29280961E-10
  -9.00000000       6.54541754E-10
  -8.98999977       6.77994605E-10
  -8.97999954       6.99378611E-10
  -8.97000027       7.18464455E-10
  -8.96000004       7.35029260E-10
  -8.94999981       7.48866080E-10
  -8.93999958       7.59729168E-10
  -8.93000031       7.67372055E-10
  -8.92000008       7.71513686E-10
  -8.90999985       7.71881947E-10
  -8.89999962       7.68257402E-10
  -8.89000034       7.60414343E-10
  -8.88000011       7.48249851E-10
  -8.86999989       7.31659733E-10
  -8.85999966       7.10692505E-10
  -8.85000038       6.85333290E-10
  -8.84000015       6.55649535E-10
  -8.82999992       6.21646568E-10
  -8.81999969       5.83386173E-10
  -8.81000042       5.40876011E-10
  -8.80000019       4.94251251E-10
  -8.78999996       4.43681342E-10
  -8.77999973       3.89495880E-10
  -8.77000046       3.32131544E-10
  -8.76000023       2.72055101E-10
  -8.75000000       2.09827614E-10
  -8.73999977       1.45941467E-10
  -8.72999954       8.08390785E-11
  -8.72000027       1.48600819E-11
  -8.71000004      -5.18347379E-11
  -8.69999981      -1.19033408E-10
  -8.68999958      -1.86584484E-10
  -8.68000031      -2.54282012E-10
  -8.67000008      -3.21816906E-10
  -8.65999985      -3.88834631E-10
  -8.64999962      -4.54860066E-10
  -8.64000034      -5.19487398E-10
  -8.63000011      -5.82297877E-10
  -8.61999989      -6.43032738E-10
  -8.60999966      -7.01536440E-10
  -8.60000038      -7.57760688E-10
  -8.59000015      -8.11742673E-10
  -8.57999992      -8.63490390E-10
  -8.56999969      -9.13005394E-10
  -8.56000042      -9.60198365E-10
  -8.55000019      -1.00492947E-09
  -8.53999996      -1.04700681E-09
  -8.52999973      -1.08625897E-09
  -8.52000046      -1.12254961E-09
  -8.51000023      -1.15583565E-09
  -8.50000000      -1.18611998E-09
  -8.48999977      -1.21351773E-09
  -8.47999954      -1.23811694E-09
  -8.47000027      -1.26008393E-09
  -8.46000004      -1.27958810E-09
  -8.44999981      -1.29680111E-09
  -8.43999958      -1.31189359E-09
  -8.43000031      -1.32510747E-09
  -8.42000008      -1.33667721E-09
  -8.40999985      -1.34699341E-09
  -8.39999962      -1.35638933E-09
  -8.39000034      -1.36520661E-09
  -8.38000011      -1.37374134E-09
  -8.36999989      -1.38215062E-09
  -8.35999966      -1.39050493E-09
  -8.35000038      -1.39887713E-09
  -8.34000015      -1.40720002E-09
  -8.32999992      -1.41550238E-09
  -8.31999969      -1.42377887E-09
  -8.31000042      -1.43214085E-09
  -8.30000019      -1.44073475E-09
  -8.28999996      -1.44977330E-09
  -8.27999973      -1.45947121E-09
  -8.27000046      -1.46994306E-09
  -8.26000023      -1.48127910E-09
  -8.25000000      -1.49352986E-09
  -8.23999977      -1.50665647E-09
  -8.22999954      -1.52066360E-09
  -8.22000027      -1.53552637E-09
  -8.21000004      -1.55129298E-09
  -8.19999981      -1.56797864E-09
  -8.18999958      -1.58568325E-09
  -8.18000031      -1.60448543E-09
  -8.17000008      -1.62438585E-09
  -8.15999985      -1.64535585E-09
  -8.14999962      -1.66720626E-09
  -8.14000034      -1.68980585E-09
  -8.13000011      -1.71293191E-09
  -8.11999989      -1.73635850E-09
  -8.10999966      -1.75983661E-09
  -8.10000038      -1.78319537E-09
  -8.09000015      -1.80616389E-09
  -8.07999992      -1.82856819E-09
  -8.06999969      -1.85017446E-09
  -8.06000042      -1.87079086E-09
  -8.05000019      -1.89015315E-09
  -8.03999996      -1.90802574E-09
  -8.02999973      -1.92421012E-09
  -8.02000046      -1.93850958E-09
  -8.01000023      -1.95076888E-09
  -8.00000000      -1.96091410E-09
  -7.98999977      -1.96881622E-09
  -7.98000002      -1.97453742E-09
  -7.96999979      -1.97804662E-09
  -7.96000004      -1.97946304E-09
  -7.94999981      -1.97888617E-09
  -7.94000006      -1.97659245E-09
  -7.92999983      -1.97273908E-09
  -7.92000008      -1.96756811E-09
  -7.90999985      -1.96137107E-09
  -7.90000010      -1.95428251E-09
  -7.88999987      -1.94644256E-09
  -7.88000011      -1.93787386E-09
  -7.86999989      -1.92868876E-09
  -7.86000013      -1.91886640E-09
  -7.84999990      -1.90857397E-09
  -7.84000015      -1.89800664E-09
  -7.82999992      -1.88743177E-09
  -7.82000017      -1.87728233E-09
  -7.80999994      -1.86797444E-09
  -7.80000019      -1.85997351E-09
  -7.78999996      -1.85360005E-09
  -7.78000021      -1.84918447E-09
  -7.76999998      -1.84692039E-09
  -7.76000023      -1.84693005E-09
  -7.75000000      -1.84924531E-09
  -7.73999977      -1.85394589E-09
  -7.73000002      -1.86094395E-09
  -7.71999979      -1.87032634E-09
  -7.71000004      -1.88194571E-09
  -7.69999981      -1.89580240E-09
  -7.69000006      -1.91184601E-09
  -7.67999983      -1.92994554E-09
  -7.67000008      -1.95002414E-09
  -7.65999985      -1.97187178E-09
  -7.65000010      -1.99548178E-09
  -7.63999987      -2.02085482E-09
  -7.63000011      -2.04800665E-09
  -7.61999989      -2.07683826E-09
  -7.61000013      -2.10724993E-09
  -7.59999990      -2.13907736E-09
  -7.59000015      -2.17204810E-09
  -7.57999992      -2.20583685E-09
  -7.57000017      -2.24010965E-09
  -7.55999994      -2.27442976E-09
  -7.55000019      -2.30870278E-09
  -7.53999996      -2.34261632E-09
  -7.53000021      -2.37605091E-09
  -7.51999998      -2.40909381E-09
  -7.51000023      -2.44161824E-09
  -7.50000000      -2.47351428E-09
  -7.48999977      -2.50467047E-09
  -7.48000002      -2.53510968E-09
  -7.46999979      -2.56452282E-09
  -7.46000004      -2.59285815E-09
  -7.44999981      -2.62001021E-09
  -7.44000006      -2.64601274E-09