  -16.0000000       0.00000000    
  -15.9899998       0.00000000    
  -15.9799995       0.00000000    
  -15.9700003       0.00000000    
  -15.9600000       0.00000000    
  -15.9499998       0.00000000    
  -15.9399996       0.00000000    
  -15.9300003       0.00000000    
  -15.9200001       0.00000000    
  -15.9099998       0.00000000    
  -15.8999996       0.00000000    
  -15.8900003       0.00000000    
  -15.8800001       7.01803409E-37
  -15.8699999       1.07963431E-35
  -15.8599997       8.28577901E-35
  -15.8500004       4.35398516E-34
  -15.8400002       1.88541212E-33
  -15.8299999       7.84257652E-33
  -15.8199997       3.34052102E-32
  -15.8100004       1.38737791E-31
  -15.8000002       5.22639553E-31
  -15.7900000       1.71557401E-30
  -15.7799997       4.83112568E-30
  -15.7700005       1.15625371E-29
  -15.7600002       2.30947844E-29
  -15.7500000       3.65612462E-29
  -15.7399998       3.78095858E-29
  -15.7299995      -8.84760480E-30
  -15.7200003      -1.68774008E-28
  -15.7100000      -5.31719984E-28
  -15.6999998      -1.17698606E-27
  -15.6899996      -2.09431323E-27
  -15.6800003      -3.05717593E-27
  -15.6700001      -3.46870075E-27
  -15.6599998      -2.23980703E-27
  -15.6499996       2.17287422E-27
  -15.6400003       1.13310324E-26
  -15.6300001       2.56218170E-26
  -15.6199999       4.19945296E-26
  -15.6099997       5.09117670E-26
  -15.6000004       3.44064211E-26
  -15.5900002      -3.03178659E-26
  -15.5799999      -1.55404797E-25
  -15.5699997      -3.11244626E-25
  -15.5600004      -3.88242973E-25
  -15.5500002      -1.83777449E-25
  -15.5400000       5.26890552E-25
  -15.5299997       1.77500902E-24
  -15.5200005       3.04188078E-24
  -15.5100002       2.92874176E-24
  -15.5000000      -7.45890715E-25
  -15.4899998      -9.86093408E-24
  -15.4799995      -2.35495175E-23
  -15.4700003      -3.48696810E-23
  -15.4600000      -2.86147492E-23
  -15.4499998       1.59909284E-23
  -15.4399996       1.13501724E-22
  -15.4300003       2.49998503E-22
  -15.4200001       3.56713864E-22
  -15.4099998       2.97614526E-22
  -15.3999996      -1.00635011E-22
  -15.3900003      -9.49362621E-22
  -15.3800001      -2.12800190E-21
  -15.3699999      -3.09865311E-21
  -15.3599997      -2.83534169E-21
  -15.3500004      -5.38471973E-23
  -15.3400002       6.10075105E-21
  -15.3299999       1.49294194E-20
  -15.3199997       2.29858467E-20
  -15.3100004       2.36133634E-20
  -15.3000002       8.29485571E-21
  -15.2900000      -2.93096781E-20
  -15.2799997      -8.67812887E-20
  -15.2700005      -1.45841933E-19
  -15.2600002      -1.69021278E-19
  -15.2500000      -1.05821390E-19
  -15.2399998       8.69115762E-20
  -15.2299995       4.10659347E-19
  -15.2200003       7.86359766E-19
  -15.2100000       1.03128236E-18
  -15.1999998       8.79469491E-19
  -15.1899996       7.00023695E-20
  -15.1800003      -1.49362204E-18
  -15.1700001      -3.54948288E-18
  -15.1599998      -5.33434301E-18
  -15.1499996      -5.61474359E-18
  -15.1400003      -3.00964331E-18
  -15.1300001       3.35495213E-18
  -15.1199999       1.29738026E-17
  -15.1099997       2.31923891E-17
  -15.1000004       2.90327326E-17
  -15.0900002       2.41360781E-17
  -15.0799999       3.10997638E-18
  -15.0699997      -3.49777425E-17
  -15.0600004      -8.29935124E-17
  -15.0500002      -1.23800311E-16
  -15.0400000      -1.32087205E-16
  -15.0299997      -8.15071747E-17
  -15.0200005       4.30147584E-17
  -15.0100002       2.30594423E-16
  -15.0000000       4.33027436E-16
  -14.9899998       5.64296367E-16
  -14.9799995       5.17784200E-16
  -14.9700003       2.03640366E-16
  -14.9600000      -3.99397396E-16
  -14.9499998      -1.19342813E-15
  -14.9399996      -1.93612674E-15
  -14.9300003      -2.26655641E-15
  -14.9200001      -1.79884556E-15
  -14.9099998      -2.78878689E-16
  -14.8999996       2.23155044E-15
  -14.8900003       5.20958847E-15
  -14.8800001       7.64853641E-15
  -14.8699999       8.23097151E-15
  -14.8599997       5.72256984E-15
  -14.8500004      -4.69306598E-16
  -14.8400002      -9.72536379E-15
  -14.8299999      -1.98650317E-14
  -14.8199997      -2.72667885E-14
  -14.8100004      -2.76298539E-14
  -14.8000002      -1.73672044E-14
  -14.7900000       4.64237752E-15
  -14.7799997       3.54760810E-14
  -14.7700005       6.74635789E-14
  -14.7600002       8.90107961E-14
  -14.7500000       8.72859253E-14
  -14.7399998       5.25231951E-14
  -14.7299995      -1.70191061E-14
  -14.7200003      -1.11046778E-13
  -14.7100000      -2.06028540E-13
  -14.6999998      -2.68364839E-13
  -14.6899996      -2.62440894E-13
  -14.6800003      -1.62523031E-13
  -14.6700001       3.43436657E-14
  -14.6599998       2.98656309E-13
  -14.6499996       5.66511193E-13
  -14.6400003       7.48849713E-13
  -14.6300001       7.52565111E-13
  -14.6199999       5.10283710E-13
  -14.6099997       1.17446226E-14
  -14.6000004      -6.73293669E-13
  -14.5900002      -1.39077617E-12
  -14.5799999      -1.92404708E-12
  -14.5699997      -2.04250007E-12
  -14.5600004      -1.56977892E-12
  -14.5500002      -4.55770675E-13
  -14.5400000       1.16898147E-12
  -14.5299997       2.97824417E-12
  -14.5200005       4.49014350E-12
  -14.5100002       5.16525841E-12
  -14.5000000       4.54916920E-12
  -14.4899998       2.42940130E-12
  -14.4799995      -1.03565637E-12
  -14.4700003      -5.25901848E-12
  -14.4600000      -9.27454641E-12
  -14.4499998      -1.19046578E-11
  -14.4399996      -1.20302171E-11
  -14.4300003      -8.91235436E-12
  -14.4200001      -2.49294465E-12
  -14.4099998       6.41396918E-12
  -14.3999996       1.61147814E-11
  -14.3900003       2.42594226E-11
  -14.3800001       2.82918289E-11
  -14.3699999       2.60646556E-11
  -14.3599997       1.64984120E-11
  -14.3500004       1.28492852E-13
  -14.3400002      -2.06274824E-11
  -14.3299999      -4.16162452E-11
  -14.3199997      -5.75754999E-11
  -14.3100004      -6.31933811E-11
  -14.3000002      -5.44429814E-11
  -14.2900000      -2.99138977E-11
  -14.2799997       8.18683576E-12
  -14.2700005       5.37157090E-11
  -14.2600002       9.71876746E-11
  -14.2500000       1.27361718E-10
  -14.2399998       1.33651840E-10
  -14.2299995       1.08938164E-10
  -14.2200003       5.21381688E-11
  -14.2100000      -3.01410494E-11
  -14.1999998      -1.23553043E-10
  -14.1899996      -2.07880893E-10
  -14.1800003      -2.60822086E-10
  -14.1700001      -2.63059352E-10
  -14.1599998      -2.03674466E-10
  -14.1499996      -8.44912473E-11
  -14.1400003       7.78561174E-11
  -14.1300001       2.53191440E-10
  -14.1199999       4.02630762E-10
  -14.1099997       4.86436613E-10
  -14.1000004       4.73480088E-10
  -14.0900002       3.50147439E-10
  -14.0799999       1.26532729E-10
  -14.0699997      -1.62188582E-10
  -14.0600004      -4.60116611E-10
  -14.0500002      -7.00651537E-10
  -14.0400000      -8.20467416E-10
  -14.0299997      -7.74722675E-10
  -14.0200005      -5.50086920E-10
  -14.0100002      -1.72170583E-10
  -14.0000000       2.94960972E-10
  -13.9899998       7.58271668E-10
  -13.9799995       1.11302612E-09
  -13.9700003       1.26501343E-09
  -13.9600000       1.15345922E-09
  -13.9499998       7.69275921E-10
  -13.9399996       1.64333866E-10
  -13.9300003      -5.51861556E-10
  -13.9200001      -1.22891619E-09
  -13.9099998      -1.70415937E-09
  -13.8999996      -1.83842463E-09
  -13.8900003      -1.55213353E-09
  -13.8800001      -8.53577153E-10
  -13.8699999       1.48684939E-10
  -13.8599997       1.25474087E-09
  -13.8500004       2.20600693E-09
  -13.8400002       2.73782774E-09
  -13.8299999       2.64385047E-09
  -13.8199997       1.83827153E-09
  -13.8100004       4.00485534E-10
  -13.8000002      -1.41331069E-09
  -13.7900000      -3.20092419E-09
  -13.7799997      -4.48835991E-09
  -13.7700005      -4.83791451E-09
  -13.7600002      -3.96822797E-09
  -13.7500000      -1.85809867E-09
  -13.7399998       1.19706145E-09
  -13.7299995       4.59991023E-09
  -13.7200003       7.54772334E-09
  -13.7100000       9.20082410E-09
  -13.6999998       8.89136498E-09
  -13.6899996       6.32619468E-09
  -13.6800003       1.72685066E-09
  -13.6700001      -4.13913526E-09
  -13.6599998      -1.00644719E-08
  -13.6499996      -1.46381769E-08
  -13.6400003      -1.65716596E-08
  -13.6300001      -1.50402286E-08
  -13.6199999      -9.95354199E-09
  -13.6099997      -2.07176587E-09
  -13.6000004       7.08422920E-09
  -13.5900002       1.55320627E-08
  -13.5799999       2.12834728E-08
  -13.5699997       2.28519799E-08
  -13.5600004       1.96827354E-08
  -13.5500002       1.23745254E-08
  -13.5400000       2.61075472E-09
  -13.5299997      -7.21782056E-09
  -13.5200005      -1.46284824E-08
  -13.5100002      -1.77529849E-08
  -13.5000000      -1.59426854E-08
  -13.4899998      -1.00811359E-08
  -13.4799995      -2.47190446E-09
  -13.4700003       3.72840558E-09
  -13.4600000       5.43210321E-09
  -13.4499998       6.78775480E-10
  -13.4399996      -1.04642996E-08
  -13.4300003      -2.54603627E-08
  -13.4200001      -3.95349886E-08
  -13.4099998      -4.66498093E-08
  -13.3999996      -4.10738430E-08
  -13.3900003      -1.92268441E-08
  -13.3800001       1.86777154E-08
  -13.3699999       6.76909266E-08
  -13.3599997       1.18287645E-07
  -13.3500004       1.57802191E-07
  -13.3400002       1.73007422E-07
  -13.3299999       1.53374828E-07
  -13.3199997       9.43136342E-08
  -13.3100004      -4.60996519E-10
  -13.3000002      -1.18158297E-07
  -13.2900000      -2.38201707E-07
  -13.2799997      -3.35598031E-07
  -13.2700005      -3.85877001E-07
  -13.2600002      -3.70665703E-07
  -13.2500000      -2.82637018E-07
  -13.2399998      -1.28616989E-07
  -13.2299995       7.01289977E-08
  -13.2200003       2.80797678E-07
  -13.2100000       4.64831061E-07
  -13.1999998       5.85525981E-07
  -13.1899996       6.15891111E-07
  -13.1800003       5.44965758E-07
  -13.1700001       3.81042213E-07
  -13.1599998       1.50798314E-07
  -13.1499996      -1.05699797E-07
  -13.1400003      -3.43223604E-07
  -13.1300001      -5.21056620E-07
  -13.1199999      -6.11901385E-07
  -13.1099997      -6.07820027E-07
  -13.1000004      -5.21609081E-07
  -13.0900002      -3.83067515E-07
  -13.0799999      -2.30845430E-07
  -13.0699997      -1.01770091E-07
  -13.0600004      -2.03117381E-08
  -13.0500002       8.95862051E-09
  -13.0400000       3.63409458E-09
  -13.0299997      -6.72200962E-10
  -13.0200005       3.96526758E-08
  -13.0100002       1.62400667E-07
  -13.0000000       3.85286285E-07
  -12.9899998       6.95153801E-07
  -12.9799995       1.04401693E-06
  -12.9700003       1.35409459E-06
  -12.9600000       1.53178519E-06
  -12.9499998       1.48841025E-06
  -12.9399996       1.16345905E-06
  -12.9300003       5.44916077E-07
  -12.9200001      -3.18590594E-07
  -12.9099998      -1.31792740E-06
  -12.8999996      -2.29736406E-06
  -12.8900003      -3.08066842E-06
  -12.8800001      -3.50491064E-06
  -12.8699999      -3.45503031E-06
  -12.8599997      -2.89165109E-06
  -12.8500004      -1.86520788E-06
  -12.8400002      -5.12455415E-07
  -12.8299999       9.65443746E-07
  -12.8199997       2.33936339E-06
  -12.8100004       3.39607755E-06
  -12.8000002       3.98030397E-06
  -12.7900000       4.02546539E-06
  -12.7799997       3.56607006E-06
  -12.7700005       2.72838315E-06
  -12.7600002       1.70106080E-06
  -12.7500000       6.92107164E-07
  -12.7399998      -1.18036681E-07
  -12.7299995      -6.16290379E-07
  -12.7200003      -7.80149378E-07
  -12.7100000      -6.78488504E-07
  -12.6999998      -4.49712587E-07
  -12.6899996      -2.62566289E-07
  -12.6800003      -2.69428313E-07
  -12.6700001      -5.64181164E-07
  -12.6599998      -1.15595572E-06
  -12.6499996      -1.96615247E-06
  -12.6400003      -2.85036413E-06
  -12.6300001      -3.64013272E-06
  -12.6199999      -4.19358275E-06
  -12.6099997      -4.44101124E-06
  -12.6000004      -4.41140219E-06
  -12.5900002      -4.23020629E-06
  -12.5799999      -4.08534697E-06
  -12.5699997      -4.16692546E-06
  -12.5600004      -4.59400553E-06
  -12.5500002      -5.34669971E-06
  -12.5400000      -6.22308789E-06
  -12.5299997      -6.83682083E-06
  -12.5200005      -6.66249116E-06
  -12.5100002      -5.12648694E-06
  -12.5000000      -1.72882676E-06
  -12.4899998       3.82694407E-06
  -12.4799995       1.15214334E-05
  -12.4700003       2.09516893E-05
  -12.4600000       3.13239943E-05
  -12.4499998       4.15139802E-05
  -12.4399996       5.01858231E-05
  -12.4300003       5.59496366E-05
  -12.4200001       5.75277008E-05
  -12.4099998       5.38990753E-05
  -12.3999996       4.43949903E-05
  -12.3900003       2.87296698E-05
  -12.3800001       6.96582765E-06
  -12.3699999      -2.05699471E-05
  -12.3599997      -5.33996063E-05
  -12.3500004      -9.09978844E-05
  -12.3400002      -1.32861955E-04
  -12.3299999      -1.78524235E-04
  -12.3199997      -2.27503711E-04
  -12.3100004      -2.79207394E-04
  -12.3000002      -3.32803465E-04
  -12.2900000      -3.87111417E-04
  -12.2799997      -4.40524280E-04
  -12.2700005      -4.91010724E-04
  -12.2600002      -5.36200474E-04
  -12.2500000      -5.73540921E-04
  -12.2399998      -6.00508763E-04
  -12.2299995      -6.14835473E-04
  -12.2200003      -6.14703808E-04
  -12.2100000      -5.98878541E-04
  -12.1999998      -5.66740811E-04
  -12.1899996      -5.18230023E-04
  -12.1800003      -4.53708839E-04
  -12.1700001      -3.73774383E-04
  -12.1599998      -2.79077591E-04
  -12.1499996      -1.70185624E-04
  -12.1400003      -4.75263587E-05
  -12.1300001       8.85646514E-05
  -12.1199999       2.37712637E-04
  -12.1099997       3.99294426E-04
  -12.1000004       5.72226534E-04
  -12.0900002       7.54769659E-04
  -12.0799999       9.44431522E-04
  -12.0699997       1.13797048E-03
  -12.0600004       1.33152620E-03
  -12.0500002       1.52085943E-03
  -12.0400000       1.70165382E-03
  -12.0299997       1.86983403E-03
  -12.0200005       2.02183286E-03
  -12.0100002       2.15475936E-03
  -12.0000000       2.26646359E-03
  -11.9899998       2.35545193E-03
  -11.9799995       2.42070924E-03
  -11.9700003       2.46147159E-03
  -11.9600000       2.47698231E-03
  -11.9499998       2.46631610E-03
  -11.9399996       2.42828531E-03
  -11.9300003       2.36147991E-03
  -11.9200001       2.26439210E-03
  -11.9099998       2.13564862E-03
  -11.8999996       1.97423645E-03
  -11.8900003       1.77974766E-03
  -11.8800001       1.55250740E-03
  -11.8699999       1.29363989E-03
  -11.8599997       1.00499426E-03
  -11.8500004       6.89001172E-04
  -11.8400002       3.48461035E-04
  -11.8299999      -1.36710914E-05
  -11.8199997      -3.94452858E-04
  -11.8100004      -7.91054277E-04
  -11.8000002      -1.20075082E-03
  -11.7900000      -1.62084133E-03
  -11.7799997      -2.04849127E-03
  -11.7700005      -2.48056697E-03
  -11.7600002      -2.91349902E-03
  -11.7500000      -3.34321498E-03
  -11.7399998      -3.76517838E-03
  -11.7299995      -4.17450722E-03
  -11.7200003      -4.56620380E-03
  -11.7100000      -4.93540987E-03
  -11.6999998      -5.27765602E-03
  -11.6899996      -5.58906980E-03
  -11.6800003      -5.86648006E-03
  -11.6700001      -6.10741694E-03
  -11.6599998      -6.31000288E-03
  -11.6499996      -6.47275383E-03
  -11.6400003      -6.59435755E-03
  -11.6300001      -6.67344034E-03
  -11.6199999      -6.70839939E-03
  -11.6099997      -6.69731200E-03
  -11.6000004      -6.63795322E-03
  -11.5900002      -6.52789883E-03
  -11.5799999      -6.36469200E-03
  -11.5699997      -6.14605146E-03
  -11.5600004      -5.87005680E-03
  -11.5500002      -5.53531619E-03
  -11.5400000      -5.14106266E-03
  -11.5299997      -4.68718354E-03
  -11.5200005      -4.17422177E-03
  -11.5100002      -3.60332592E-03
  -11.5000000      -2.97619216E-03
  -11.4899998      -2.29503051E-03
  -11.4799995      -1.56253192E-03
  -11.4700003      -7.81870447E-04
  -11.4600000       4.33034584E-05
  -11.4499998       9.08859191E-04
  -11.4399996       1.81022123E-03
  -11.4300003       2.74243508E-03
  -11.4200001       3.70027474E-03
  -11.4099998       4.67836345E-03
  -11.3999996       5.67134796E-03
  -11.3900003       6.67404989E-03
  -11.3800001       7.68159516E-03
  -11.3699999       8.68954044E-03
  -11.3599997       9.69392247E-03
  -11.3500004       1.06912982E-02
  -11.3400002       1.16787255E-02
  -11.3299999       1.26537289E-02
  -11.3199997       1.36142494E-02
  -11.3100004       1.45585509E-02
  -11.3000002       1.54851507E-02
  -11.2900000       1.63927823E-02
  -11.2799997       1.72802694E-02
  -11.2700005       1.81465056E-02
  -11.2600002       1.89903695E-02
  -11.2500000       1.98106710E-02
  -11.2399998       2.06061564E-02
  -11.2299995       2.13754568E-02
  -11.2200003       2.21170932E-02
  -11.2100000       2.28295065E-02
  -11.1999998       2.35110521E-02
  -11.1899996       2.41600592E-02
  -11.1800003       2.47748364E-02
  -11.1700001       2.53537204E-02
  -11.1599998       2.58951019E-02
  -11.1499996       2.63974946E-02
  -11.1400003       2.68595852E-02
  -11.1300001       2.72803251E-02
  -11.1199999       2.76590493E-02
  -11.1099997       2.79955808E-02
  -11.1000004       2.82903127E-02
  -11.0900002       2.85443403E-02
  -11.0799999       2.87594497E-02
  -11.0699997       2.89380811E-02
  -11.0600004       2.90832315E-02
  -11.0500002       2.91982386E-02
  -11.0400000       2.92865988E-02
  -11.0299997       2.93517299E-02
  -11.0200005       2.93967165E-02
  -11.0100002       2.94242576E-02
  -11.0000000       2.94365454E-02
  -10.9899998       2.94353273E-02
  -10.9799995       2.94220503E-02
  -10.9700003       2.93979514E-02
  -10.9600000       2.93642618E-02
  -10.9499998       2.93222610E-02
  -10.9399996       2.92733386E-02
  -10.9300003       2.92188507E-02
  -10.9200001       2.91600283E-02
  -10.9099998       2.90977433E-02
  -10.8999996       2.90322620E-02
  -10.8900003       2.89631952E-02
  -10.8800001       2.88892835E-02
  -10.8699999       2.88085528E-02
  -10.8599997       2.87184045E-02
  -10.8500004       2.86159031E-02
  -10.8400002       2.84979902E-02
  -10.8299999       2.83618011E-02
  -10.8199997       2.82049123E-02
  -10.8100004       2.80253831E-02
  -10.8000002       2.78218817E-02
  -10.7900000       2.75935680E-02
  -10.7799997       2.73400005E-02
  -10.7700005       2.70609297E-02
  -10.7600002       2.67561581E-02
  -10.7500000       2.64253914E-02
  -10.7399998       2.60681622E-02
  -10.7299995       2.56837979E-02
  -10.7200003       2.52715014E-02
  -10.7100000       2.48304587E-02
  -10.6999998       2.43599471E-02
  -10.6899996       2.38595437E-02
  -10.6800003       2.33292952E-02
  -10.6700001       2.27698069E-02
  -10.6599998       2.21823566E-02
  -10.6499996       2.15689559E-02
  -10.6400003       2.09322665E-02
  -10.6300001       2.02755760E-02
  -10.6199999       1.96026713E-02
  -10.6099997       1.89176314E-02
  -10.6000004       1.82247683E-02
  -10.5900002       1.75283849E-02
  -10.5799999       1.68327000E-02
  -10.5699997       1.61417611E-02
  -10.5600004       1.54593736E-02
  -10.5500002       1.47891240E-02
  -10.5400000       1.41342869E-02
  -10.5299997       1.34978686E-02
  -10.5200005       1.28826080E-02
  -10.5100002       1.22908792E-02
  -10.5000000       1.17247077E-02
  -10.4899998       1.11857150E-02
  -10.4799995       1.06750056E-02
  -10.4700003       1.01932632E-02
  -10.4600000       9.74078570E-03
  -10.4499998       9.31746885E-03
  -10.4399996       8.92296154E-03
  -10.4300003       8.55682604E-03
  -10.4200001       8.21864698E-03
  -10.4099998       7.90809654E-03
  -10.3999996       7.62507413E-03
  -10.3900003       7.36962119E-03
  -10.3800001       7.14190025E-03
  -10.3699999       6.94212597E-03
  -10.3599997       6.77034352E-03
  -10.3500004       6.62649749E-03
  -10.3400002       6.51009195E-03
  -10.3299999       6.42034318E-03
  -10.3199997       6.35619182E-03
  -10.3100004       6.31633308E-03
  -10.3000002       6.29940536E-03
  -10.2900000       6.30417606E-03
  -10.2799997       6.32953178E-03
  -10.2700005       6.37474889E-03
  -10.2600002       6.43924112E-03
  -10.2500000       6.52280403E-03
  -10.2399998       6.62524719E-03
  -10.2299995       6.74623251E-03
  -10.2200003       6.88529108E-03
  -10.2100000       7.04141799E-03
  -10.1999998       7.21315248E-03
  -10.1899996       7.39837484E-03
  -10.1800003       7.59447413E-03
  -10.1700001       7.79843610E-03
  -10.1599998       8.00693594E-03
  -10.1499996       8.21674522E-03
  -10.1400003       8.42496846E-03
  -10.1300001       8.62926338E-03
  -10.1199999       8.82830936E-03
  -10.1099997       9.02177393E-03
  -10.1000004       9.21062101E-03
  -10.0900002       9.39688459E-03
  -10.0799999       9.58357751E-03
  -10.0699997       9.77445394E-03
  -10.0600004       9.97349806E-03
  -10.0500002       1.01845888E-02
  -10.0400000       1.04111331E-02
  -10.0299997       1.06559256E-02
  -10.0200005       1.09209102E-02
  -10.0100002       1.12073403E-02
  -10.0000000       1.15159443E-02
  -9.98999977       1.18472362E-02
  -9.97999954       1.22017050E-02
  -9.97000027       1.25801228E-02
  -9.96000004       1.29836760E-02
  -9.94999981       1.34138446E-02
  -9.93999958       1.38725797E-02
  -9.93000031       1.43619217E-02
  -9.92000008       1.48840686E-02
  -9.90999985       1.54410508E-02
  -9.89999962       1.60347205E-02
  -9.89000034       1.66666675E-02
  -9.88000011       1.73382089E-02
  -9.86999989       1.80503149E-02
  -9.85999966       1.88036840E-02
  -9.85000038       1.95985809E-02
  -9.84000015       2.04348806E-02
  -9.82999992       2.13120133E-02
  -9.81999969       2.22289357E-02
  -9.81000042       2.31840573E-02
  -9.80000019       2.41756383E-02
  -9.78999996       2.52015218E-02
  -9.77999973       2.62594800E-02
  -9.77000046       2.73472760E-02
  -9.76000023       2.84629259E-02
  -9.75000000       2.96045672E-02
  -9.73999977       3.07708345E-02
  -9.72999954       3.19604613E-02
  -9.72000027       3.31726223E-02
  -9.71000004       3.44064981E-02
  -9.69999981       3.56611609E-02
  -9.68999958       3.69355157E-02
  -9.68000031       3.82276960E-02
  -9.67000008       3.95350866E-02
  -9.65999985       4.08541486E-02
  -9.64999962       4.21802513E-02
  -9.64000034       4.35077958E-02
  -9.63000011       4.48308475E-02
  -9.61999989       4.61432338E-02
  -9.60999966       4.74393368E-02
  -9.60000038       4.87146080E-02
  -9.59000015       4.99658249E-02
  -9.57999992       5.11915684E-02
  -9.56999969       5.23918010E-02
  -9.56000042       5.35676442E-02
  -9.55000019       5.47209941E-02
  -9.53999996       5.58536015E-02
  -9.52999973       5.69669381E-02
  -9.52000046       5.80616593E-02
  -9.51000023       5.91374785E-02
  -9.50000000       6.01934083E-02
  -9.48999977       6.12280779E-02
  -9.47999954       6.22399300E-02
  -9.47000027       6.32277578E-02
  -9.46000004       6.41907156E-02
  -9.44999981       6.51287436E-02
  -9.43999958       6.60419837E-02
  -9.43000031       6.69311509E-02
  -9.42000008       6.77968860E-02
  -9.40999985       6.86400160E-02
  -9.39999962       6.94610998E-02
  -9.39000034       7.02606142E-02
  -9.38000011       7.10389540E-02
  -9.36999989       7.17965066E-02
  -9.35999966       7.25338310E-02
  -9.35000038       7.32513741E-02
  -9.34000015       7.39497989E-02
  -9.32999992       7.46297166E-02
  -9.31999969       7.52917975E-02
  -9.31000042       7.59368241E-02
  -9.30000019       7.65655339E-02
  -9.28999996       7.71787837E-02
  -9.27999973       7.77774379E-02
  -9.27000046       7.83629715E-02
  -9.26000023       7.89366066E-02
  -9.25000000       7.94998631E-02
  -9.23999977       8.00544545E-02
  -9.22999954       8.06018785E-02
  -9.22000027       8.11438337E-02
  -9.21000004       8.16818327E-02
  -9.19999981       8.22175816E-02
  -9.18999958       8.27526897E-02
  -9.18000031       8.32890868E-02
  -9.17000008       8.38289335E-02
  -9.15999985       8.43744874E-02
  -9.14999962       8.49281177E-02
  -9.14000034       8.54925364E-02
  -9.13000011       8.60700905E-02
  -9.11999989       8.66632462E-02
  -9.10999966       8.72742683E-02
  -9.10000038       8.79051983E-02
  -9.09000015       8.85579959E-02
  -9.07999992       8.92342329E-02
  -9.06999969       8.99355114E-02
  -9.06000042       9.06630829E-02
  -9.05000019       9.14183557E-02
  -9.03999996       9.22024325E-02
  -9.02999973       9.30167288E-02
  -9.02000046       9.38627645E-02
  -9.01000023       9.47420746E-02
  -9.00000000       9.56566259E-02
  -8.98999977       9.66083407E-02
  -8.97999954       9.75990444E-02
  -8.97000027       9.86300707E-02
  -8.96000004       9.97021273E-02
  -8.94999981      0.100815140    
  -8.93999958      0.101968110    
  -8.93000031      0.103159323    
  -8.92000008      0.104386672    
  -8.90999985      0.105647936    
  -8.89999962      0.106940821    
  -8.89000034      0.108263567    
  -8.88000011      0.109614566    
  -8.86999989      0.110992402    
  -8.85999966      0.112395026    
  -8.85000038      0.113820329    
  -8.84000015      0.115265042    
  -8.82999992      0.116725273    
  -8.81999969      0.118196554    
  -8.81000042      0.119674169    
  -8.80000019      0.121154130    
  -8.78999996      0.122633472    
  -8.77999973      0.124110125    
  -8.77000046      0.125583962    
  -8.76000023      0.127056062    
  -8.75000000      0.128528014    
  -8.73999977      0.130002081    
  -8.72999954      0.131480843    
  -8.72000027      0.132966265    
  -8.71000004      0.134460852    
  -8.69999981      0.135966644    
  -8.68999958      0.137486175    
  -8.68000031      0.139022753    
  -8.67000008      0.140580490    
  -8.65999985      0.142163843    
  -8.64999962      0.143777981    
  -8.64000034      0.145428821    
  -8.63000011      0.147121683    
  -8.61999989      0.148862228    
  -8.60999966      0.150656238    
  -8.60000038      0.152508587    
  -8.59000015      0.154424921    
  -8.57999992      0.156410456    
  -8.56999969      0.158470169    
  -8.56000042      0.160608873    
  -8.55000019      0.162831053    
  -8.53999996      0.165139750    
  -8.52999973      0.167537227    
  -8.52000046      0.170024812    
  -8.51000023      0.172602952    
  -8.50000000      0.175271228    
  -8.48999977      0.178029343    
  -8.47999954      0.180876315    
  -8.47000027      0.183811590    
  -8.46000004      0.186833680    
  -8.44999981      0.189940691    
  -8.43999958      0.193129987    
  -8.43000031      0.196396992    
  -8.42000008      0.199735984    
  -8.40999985      0.203139961    
  -8.39999962      0.206601307    
  -8.39000034      0.210111022    
  -8.38000011      0.213660464    
  -8.36999989      0.217240140    
  -8.35999966      0.220841944    
  -8.35000038      0.224455878    
  -8.34000015      0.228072256    
  -8.32999992      0.231680781    
  -8.31999969      0.235270441    
  -8.31000042      0.238828704    
  -8.30000019      0.242344141    
  -8.28999996      0.245804012    
  -8.27999973      0.249195963    
  -8.27000046      0.252509326    
  -8.26000023      0.255732834    
  -8.25000000      0.258856624    
  -8.23999977      0.261871547    
  -8.22999954      0.264768958    
  -8.22000027      0.267541021    
  -8.21000004      0.270180345    
  -8.19999981      0.272680879    
  -8.18999958      0.275037050    
  -8.18000031      0.277244925    
  -8.17000008      0.279301435    
  -8.15999985      0.281203568    
  -8.14999962      0.282950044    
  -8.14000034      0.284539461    
  -8.13000011      0.285970777    
  -8.11999989      0.287244290    
  -8.10999966      0.288360566    
  -8.10000038      0.289321482    
  -8.09000015      0.290132135    
  -8.07999992      0.290797263    
  -8.06999969      0.291325927    
  -8.06000042      0.291726738    
  -8.05000019      0.292010397    
  -8.03999996      0.292187899    
  -8.02999973      0.292270958    
  -8.02000046      0.292271584    
  -8.01000023      0.292200178    
  -8.00000000      0.292069912    
  -7.98999977      0.291892976    
  -7.98000002      0.291683793    
  -7.96999979      0.291456968    
  -7.96000004      0.291226834    
  -7.94999981      0.291009873    
  -7.94000006      0.290820241    
  -7.92999983      0.290672600    
  -7.92000008      0.290580153    
  -7.90999985      0.290554971    
  -7.90000010      0.290607840    
  -7.88999987      0.290748745    
  -7.88000011      0.290987343    
  -7.86999989      0.291332811    
  -7.86000013      0.291792661    
  -7.84999990      0.292374462    
  -7.84000015      0.293084383    
  -7.82999992      0.293927312    
  -7.82000017      0.294906795    
  -7.80999994      0.296025395    
  -7.80000019      0.297284395    
  -7.78999996      0.298684597    
  -7.78000021      0.300226897    
  -7.76999998      0.301911712    
  -7.76000023      0.303740352    
  -7.75000000      0.305713683    
  -7.73999977      0.307832688    
  -7.73000002      0.310098350    
  -7.71999979      0.312511116    
  -7.71000004      0.315070212    
  -7.69999981      0.317773968    
  -7.69000006      0.320620000    
  -7.67999983      0.323604405    
  -7.67000008      0.326722652    
  -7.65999985      0.329969287    
  -7.65000010      0.333339244    
  -7.63999987      0.336827636    
  -7.63000011      0.340429395    
  -7.61999989      0.344141752    
  -7.61000013      0.347961813    
  -7.59999990      0.351888239    
  -7.59000015      0.355919689    
  -7.57999992      0.360055894    
  -7.57000017      0.364295095    
  -7.55999994      0.368636489    
  -7.55000019      0.373077601    
  -7.53999996      0.377616972    
  -7.53000021      0.382252306    
  -7.51999998      0.386981338    
  -7.51000023      0.391802460    
  -7.50000000      0.396715850    
  -7.48999977      0.401719123    
  -7.48000002      0.406811804    
  -7.46999979      0.411993384    
  -7.46000004      0.417261541    
  -7.44999981      0.422614813    
  -7.44000006      0.428052485    