  -16.0000000       0.00000000    
  -15.9899998       0.00000000    
  -15.9799995       0.00000000    
  -15.9700003       0.00000000    
  -15.9600000       0.00000000    
  -15.9499998       0.00000000    
  -15.9399996       0.00000000    
  -15.9300003       0.00000000    
  -15.9200001       0.00000000    
  -15.9099998       0.00000000    
  -15.8999996       0.00000000    
  -15.8900003       1.63923894E-41
  -15.8800001       1.12483629E-40
  -15.8699999      -5.62835592E-39
  -15.8599997      -1.36686811E-37
  -15.8500004      -1.67728153E-36
  -15.8400002      -1.44130746E-35
  -15.8299999      -9.70881651E-35
  -15.8199997      -5.42706594E-34
  -15.8100004      -2.60315667E-33
  -15.8000002      -1.09472143E-32
  -15.7900000      -4.09577232E-32
  -15.7799997      -1.37761508E-31
  -15.7700005      -4.19744441E-31
  -15.7600002      -1.16492384E-30
  -15.7500000      -2.95579033E-30
  -15.7399998      -6.86972816E-30
  -15.7299995      -1.46218934E-29
  -15.7200003      -2.84129195E-29
  -15.7100000      -5.00171740E-29
  -15.6999998      -7.84679290E-29
  -15.6899996      -1.05797037E-28
  -15.6800003      -1.11068043E-28
  -15.6700001      -5.48421311E-29
  -15.6599998       1.20636761E-28
  -15.6499996       4.76661546E-28
  -15.6400003       1.03825564E-27
  -15.6300001       1.72387023E-27
  -15.6199999       2.25598503E-27
  -15.6099997       2.09552656E-27
  -15.6000004       4.82774833E-28
  -15.5900002      -3.30732862E-27
  -15.5799999      -9.41788217E-27
  -15.5699997      -1.66259462E-26
  -15.5600004      -2.16300375E-26
  -15.5500002      -1.90264021E-26
  -15.5400000      -2.76365304E-27
  -15.5299997       3.04026561E-26
  -15.5200005       7.59209349E-26
  -15.5100002       1.17068709E-25
  -15.5000000       1.25076312E-25
  -15.4899998       6.80301257E-26
  -15.4799995      -6.98386140E-26
  -15.4700003      -2.63546694E-25
  -15.4600000      -4.31631259E-25
  -15.4499998      -4.49846107E-25
  -15.4399996      -2.10195144E-25
  -15.4300003       2.81430393E-25
  -15.4200001       8.14984724E-25
  -15.4099998       9.77944652E-25
  -15.3999996       3.37432590E-25
  -15.3900003      -1.17784348E-24
  -15.3800001      -2.83270051E-24
  -15.3699999      -2.91142567E-24
  -15.3599997       7.41637325E-25
  -15.3500004       9.18120655E-24
  -15.3400002       2.00974338E-23
  -15.3299999       2.60118758E-23
  -15.3199997       1.49572414E-23
  -15.3100004      -2.43012136E-23
  -15.3000002      -9.20339027E-23
  -15.2900000      -1.65358259E-22
  -15.2799997      -1.91705153E-22
  -15.2700005      -9.86285464E-23
  -15.2600002       1.71451408E-22
  -15.2500000       6.03416594E-22
  -15.2399998       1.04899689E-21
  -15.2299995       1.20477029E-21
  -15.2200003       6.79335356E-22
  -15.2100000      -8.17125400E-22
  -15.1999998      -3.18315619E-21
  -15.1899996      -5.64557109E-21
  -15.1800003      -6.68334591E-21
  -15.1700001      -4.37711063E-21
  -15.1599998       2.69271685E-21
  -15.1499996       1.41318024E-20
  -15.1400003       2.65044016E-20
  -15.1300001       3.30301297E-20
  -15.1199999       2.51051513E-20
  -15.1099997      -3.90174592E-21
  -15.1000004      -5.31843950E-20
  -15.0900002      -1.09423381E-19
  -15.0799999      -1.45401226E-19
  -15.0699997      -1.25757755E-19
  -15.0600004      -2.15403955E-20
  -15.0500002       1.68787509E-19
  -15.0400000       3.99538989E-19
  -15.0299997       5.71296581E-19
  -15.0200005       5.50231289E-19
  -15.0100002       2.19348343E-19
  -15.0000000      -4.46220720E-19
  -14.9899998      -1.30618715E-18
  -14.9799995      -2.02595040E-18
  -14.9700003      -2.13471886E-18
  -14.9600000      -1.19332715E-18
  -14.9499998       9.51734988E-19
  -14.9399996       3.91227933E-18
  -14.9300003       6.63590550E-18
  -14.9200001       7.56152847E-18
  -14.9099998       5.13468684E-18
  -14.8999996      -1.37776361E-18
  -14.8900003      -1.10256136E-17
  -14.8800001      -2.06863743E-17
  -14.8699999      -2.54146991E-17
  -14.8599997      -1.99250257E-17
  -14.8500004      -1.08719781E-18
  -14.8400002       2.92658552E-17
  -14.8299999       6.24600970E-17
  -14.8199997       8.34812247E-17
  -14.8100004       7.48992722E-17
  -14.8000002       2.41283770E-17
  -14.7900000      -6.77489906E-17
  -14.7799997      -1.79050073E-16
  -14.7700005      -2.66787320E-16
  -14.7600002      -2.75769470E-16
  -14.7500000      -1.58247870E-16
  -14.7399998       9.97425169E-17
  -14.7299995       4.54237512E-16
  -14.7200003       7.93633714E-16
  -14.7100000       9.54981473E-16
  -14.6999998       7.71587299E-16
  -14.6899996       1.45650611E-16
  -14.6800003      -8.74430599E-16
  -14.6700001      -2.04391612E-15
  -14.6599998      -2.93317981E-15
  -14.6499996      -3.02396331E-15
  -14.6400003      -1.88752801E-15
  -14.6300001       5.94257722E-16
  -14.6199999       4.03860651E-15
  -14.6099997       7.49429171E-15
  -14.6000004       9.57654010E-15
  -14.5900002       8.83396156E-15
  -14.5799999       4.29540148E-15
  -14.5699997      -3.94774359E-15
  -14.5600004      -1.43379876E-14
  -14.5500002      -2.38527798E-14
  -14.5400000      -2.85635671E-14
  -14.5299997      -2.47492981E-14
  -14.5200005      -1.03503301E-14
  -14.5100002       1.36528921E-14
  -14.5000000       4.24663255E-14
  -14.4899998       6.78004609E-14
  -14.4799995       7.95333309E-14
  -14.4700003       6.85760110E-14
  -14.4600000       3.03337542E-14
  -14.4499998      -3.22315484E-14
  -14.4399996      -1.07089142E-13
  -14.4300003      -1.74140718E-13
  -14.4200001      -2.09141108E-13
  -14.4099998      -1.90113713E-13
  -14.3999996      -1.04934202E-13
  -14.3900003       4.19416461E-14
  -14.3800001       2.25873695E-13
  -14.3699999       4.03441955E-13
  -14.3599997       5.19736760E-13
  -14.3500004       5.20949982E-13
  -14.3400002       3.70084280E-13
  -14.3299999       6.22696271E-14
  -14.3199997      -3.64524031E-13
  -14.3100004      -8.27385632E-13
  -14.3000002      -1.20778485E-12
  -14.2900000      -1.37302203E-12
  -14.2799997      -1.20775427E-12
  -14.2700005      -6.50519081E-13
  -14.2600002       2.72549317E-13
  -14.2500000       1.42642441E-12
  -14.2399998       2.56803324E-12
  -14.2299995       3.37667958E-12
  -14.2200003       3.51630292E-12
  -14.2100000       2.72390834E-12
  -14.1999998       9.08838001E-13
  -14.1899996      -1.76167067E-12
  -14.1800003      -4.82082126E-12
  -14.1700001      -7.53329083E-12
  -14.1599998      -9.01657742E-12
  -14.1499996      -8.44892732E-12
  -14.1400003      -5.33144145E-12
  -14.1300001       2.57265021E-13
  -14.1199999       7.49547386E-12
  -14.1099997       1.48238574E-11
  -14.1000004       2.01775679E-11
  -14.0900002       2.14461539E-11
  -14.0799999       1.70896890E-11
  -14.0699997       6.76616402E-12
  -14.0600004      -8.22343062E-12
  -14.0500002      -2.48658108E-11
  -14.0400000      -3.88710696E-11
  -14.0299997      -4.56170587E-11
  -14.0200005      -4.14431718E-11
  -14.0100002      -2.49790501E-11
  -14.0000000       1.90046091E-12
  -13.9899998       3.38868517E-11
  -13.9799995       6.30595159E-11
  -13.9700003       8.06942568E-11
  -13.9600000       7.97115915E-11
  -13.9499998       5.71306960E-11
  -13.9399996       1.57507809E-11
  -13.9300003      -3.56385824E-11
  -13.9200001      -8.38863978E-11
  -13.9099998      -1.14792460E-10
  -13.8999996      -1.17359594E-10
  -13.8900003      -8.77783818E-11
  -13.8800001      -3.17789024E-11
  -13.8699999       3.57482446E-11
  -13.8599997       9.42629030E-11
  -13.8500004       1.23641389E-10
  -13.8400002       1.11230282E-10
  -13.8299999       5.76543188E-11
  -13.8199997      -2.09018306E-11
  -13.8100004      -9.54955559E-11
  -13.8000002      -1.32455588E-10
  -13.7900000      -1.05006850E-10
  -13.7799997      -5.24251259E-12
  -13.7700005       1.47682977E-10
  -13.7600002       3.06949965E-10
  -13.7500000       4.07198164E-10
  -13.7399998       3.82750026E-10
  -13.7299995       1.91099497E-10
  -13.7200003      -1.64854602E-10
  -13.7100000      -6.23543273E-10
  -13.6999998      -1.06713138E-09
  -13.6899996      -1.34291633E-09
  -13.6800003      -1.30185329E-09
  -13.6700001      -8.46554216E-10
  -13.6599998       2.36293068E-11
  -13.6499996       1.18485344E-09
  -13.6400003       2.39092546E-09
  -13.6300001       3.31194072E-09
  -13.6199999       3.60683972E-09
  -13.6099997       3.01697534E-09
  -13.6000004       1.45898482E-09
  -13.5900002      -9.09176290E-10
  -13.5799999      -3.67318620E-09
  -13.5699997      -6.21341778E-09
  -13.5600004      -7.82224330E-09
  -13.5500002      -7.86993049E-09
  -13.5400000      -5.98501648E-09
  -13.5299997      -2.20465113E-09
  -13.5200005       2.95008307E-09
  -13.5100002       8.50774207E-09
  -13.5000000       1.32008413E-08
  -13.4899998       1.57239466E-08
  -13.4799995       1.50490713E-08
  -13.4700003       1.07292459E-08
  -13.4600000       3.11233017E-09
  -13.4499998      -6.60350885E-09
  -13.4399996      -1.65130718E-08
  -13.4300003      -2.43435707E-08
  -13.4200001      -2.79386985E-08
  -13.4099998      -2.57915733E-08
  -13.3999996      -1.75042132E-08
  -13.3900003      -4.05012690E-09
  -13.3800001       1.22531105E-08
  -13.3699999       2.80972365E-08
  -13.3599997       3.98236644E-08
  -13.3500004       4.42360246E-08
  -13.3400002       3.94118800E-08
  -13.3299999       2.53171901E-08
  -13.3199997       4.04912992E-09
  -13.3100004      -2.03988417E-08
  -13.3000002      -4.28524736E-08
  -13.2900000      -5.80379300E-08
  -13.2799997      -6.18103044E-08
  -13.2700005      -5.22487404E-08
  -13.2600002      -3.03373824E-08
  -13.2500000      -2.14079969E-11
  -13.2399998       3.24425962E-08
  -13.2299995       5.97572694E-08
  -13.2200003       7.52297922E-08
  -13.2100000       7.44268291E-08
  -13.1999998       5.64354821E-08
  -13.1899996       2.43825280E-08
  -13.1800003      -1.49848809E-08
  -13.1700001      -5.26413970E-08
  -13.1599998      -7.93021329E-08
  -13.1499996      -8.76810731E-08
  -13.1400003      -7.44529700E-08
  -13.1300001      -4.14076418E-08
  -13.1199999       4.56006166E-09
  -13.1099997       5.27247721E-08
  -13.1000004       9.08655693E-08
  -13.0900002       1.08178142E-07
  -13.0799999       9.80969688E-08
  -13.0699997       6.03253199E-08
  -13.0600004       1.50626434E-09
  -13.0500002      -6.57483810E-08
  -13.0400000      -1.25376644E-07
  -13.0299997      -1.61454921E-07
  -13.0200005      -1.62080596E-07
  -13.0100002      -1.22638681E-07
  -13.0000000      -4.76177391E-08
  -12.9899998       4.95795653E-08
  -12.9799995       1.48951202E-07
  -12.9700003       2.27960584E-07
  -12.9600000       2.66534386E-07
  -12.9499998       2.51893198E-07
  -12.9399996       1.82074771E-07
  -12.9300003       6.72317384E-08
  -12.9200001      -7.17586559E-08
  -12.9099998      -2.07240049E-07
  -12.8999996      -3.10539036E-07
  -12.8900003      -3.58331306E-07
  -12.8800001      -3.38177443E-07
  -12.8699999      -2.51892715E-07
  -12.8599997      -1.15835824E-07
  -12.8500004       4.21381188E-08
  -12.8400002       1.88545428E-07
  -12.8299999       2.91755526E-07
  -12.8199997       3.29421283E-07
  -12.8100004       2.94103046E-07
  -12.8000002       1.95650372E-07
  -12.7900000       5.95881922E-08
  -12.7799997      -7.83422180E-08
  -12.7700005      -1.80409444E-07
  -12.7600002      -2.16082569E-07
  -12.7500000      -1.70045638E-07
  -12.7399998      -4.70500225E-08
  -12.7299995       1.27739270E-07
  -12.7200003       3.13245806E-07
  -12.7100000       4.61035398E-07
  -12.6999998       5.26116594E-07
  -12.6899996       4.77559695E-07
  -12.6800003       3.06437187E-07
  -12.6700001       2.91199100E-08
  -12.6599998      -3.15003973E-07
  -12.6499996      -6.71025077E-07
  -12.6400003      -9.79598667E-07
  -12.6300001      -1.18908486E-06
  -12.6199999      -1.26588918E-06
  -12.6099997      -1.20051357E-06
  -12.6000004      -1.00782700E-06
  -12.5900002      -7.21460253E-07
  -12.5799999      -3.83699899E-07
  -12.5699997      -3.34422694E-08
  -12.5600004       3.04646250E-07
  -12.5500002       6.26768895E-07
  -12.5400000       9.50363301E-07
  -12.5299997       1.30757962E-06
  -12.5200005       1.73293904E-06
  -12.5100002       2.24776272E-06
  -12.5000000       2.84494354E-06
  -12.4899998       3.47782861E-06
  -12.4799995       4.05633045E-06
  -12.4700003       4.45199976E-06
  -12.4600000       4.51195820E-06
  -12.4499998       4.07968901E-06
  -12.4399996       3.01916771E-06
  -12.4300003       1.23794086E-06
  -12.4200001      -1.29515252E-06
  -12.4099998      -4.54107976E-06
  -12.3999996      -8.39220593E-06
  -12.3900003      -1.26842169E-05
  -12.3800001      -1.72160035E-05
  -12.3699999      -2.17738070E-05
  -12.3599997      -2.61549721E-05
  -12.3500004      -3.01869095E-05
  -12.3400002      -3.37380079E-05
  -12.3299999      -3.67188441E-05
  -12.3199997      -3.90744390E-05
  -12.3100004      -4.07700645E-05
  -12.3000002      -4.17746523E-05
  -12.2900000      -4.20464166E-05
  -12.2799997      -4.15246104E-05
  -12.2700005      -4.01299767E-05
  -12.2600002      -3.77743236E-05
  -12.2500000      -3.43772335E-05
  -12.2399998      -2.98861723E-05
  -12.2299995      -2.42951082E-05
  -12.2200003      -1.76570393E-05
  -12.2100000      -1.00870775E-05
  -12.1999998      -1.75492005E-06
  -12.1899996       7.13170721E-06
  -12.1800003       1.63490604E-05
  -12.1700001       2.56796102E-05
  -12.1599998       3.49294532E-05
  -12.1499996       4.39369251E-05
  -12.1400003       5.25710966E-05
  -12.1300001       6.07213042E-05
  -12.1199999       6.82818718E-05
  -12.1099997       7.51371263E-05
  -12.1000004       8.11524951E-05
  -12.0900002       8.61752924E-05
  -12.0799999       9.00468731E-05
  -12.0699997       9.26237917E-05
  -12.0600004       9.38034937E-05
  -12.0500002       9.35479402E-05
  -12.0400000       9.18987571E-05
  -12.0299997       8.89791336E-05
  -12.0200005       8.49804346E-05
  -12.0100002       8.01359784E-05
  -12.0000000       7.46863807E-05
  -11.9899998       6.88439322E-05
  -11.9799995       6.27634290E-05
  -11.9700003       5.65250921E-05
  -11.9600000       5.01329232E-05
  -11.9499998       4.35280381E-05
  -11.9399996       3.66131644E-05
  -11.9300003       2.92825989E-05
  -11.9200001       2.14510637E-05
  -11.9099998       1.30757098E-05
  -11.8999996       4.16770808E-06
  -11.8900003      -5.20754156E-06
  -11.8800001      -1.49398747E-05
  -11.8699999      -2.48900524E-05
  -11.8599997      -3.49074908E-05
  -11.8500004      -4.48459614E-05
  -11.8400002      -5.45746152E-05
  -11.8299999      -6.39830178E-05
  -11.8199997      -7.29805397E-05
  -11.8100004      -8.14916129E-05
  -11.8000002      -8.94487239E-05
  -11.7900000      -9.67853266E-05
  -11.7799997      -1.03430371E-04
  -11.7700005      -1.09305554E-04
  -11.7600002      -1.14326074E-04
  -11.7500000      -1.18404845E-04
  -11.7399998      -1.21459780E-04
  -11.7299995      -1.23423160E-04
  -11.7200003      -1.24251659E-04
  -11.7100000      -1.23934937E-04
  -11.6999998      -1.22500744E-04
  -11.6899996      -1.20014149E-04
  -11.6800003      -1.16570329E-04
  -11.6700001      -1.12280097E-04
  -11.6599998      -1.07250758E-04
  -11.6499996      -1.01565260E-04
  -11.6400003      -9.52644987E-05
  -11.6300001      -8.83374742E-05
  -11.6199999      -8.07228935E-05
  -11.6099997      -7.23241246E-05
  -11.6000004      -6.30354843E-05
  -11.5900002      -5.27756893E-05
  -11.5799999      -4.15215327E-05
  -11.5699997      -2.93340818E-05
  -11.5600004      -1.63706900E-05
  -11.5500002      -2.87911985E-06
  -11.5400000       1.08265440E-05
  -11.5299997       2.44040057E-05
  -11.5200005       3.75275486E-05
  -11.5100002       4.99305679E-05
  -11.5000000       6.14371165E-05
  -11.4899998       7.19766467E-05
  -11.4799995       8.15795211E-05
  -11.4700003       9.03555410E-05
  -11.4600000       9.84608268E-05
  -11.4499998       1.06060761E-04
  -11.4399996       1.13296672E-04
  -11.4300003       1.20261764E-04
  -11.4200001       1.26989515E-04
  -11.4099998       1.33453999E-04
  -11.3999996       1.39579090E-04
  -11.3900003       1.45253507E-04
  -11.3800001       1.50346124E-04
  -11.3699999       1.54720794E-04
  -11.3599997       1.58248949E-04
  -11.3500004       1.60820462E-04
  -11.3400002       1.62354670E-04
  -11.3299999       1.62811295E-04
  -11.3199997       1.62200129E-04
  -11.3100004       1.60588199E-04
  -11.3000002       1.58099152E-04
  -11.2900000       1.54903697E-04
  -11.2799997       1.51199099E-04
  -11.2700005       1.47179933E-04
  -11.2600002       1.43005091E-04
  -11.2500000       1.38768752E-04
  -11.2399998       1.34482543E-04
  -11.2299995       1.30074681E-04
  -11.2200003       1.25408274E-04
  -11.2100000       1.20315446E-04
  -11.1999998       1.14639624E-04
  -11.1899996       1.08275912E-04
  -11.1800003       1.01199352E-04
  -11.1700001       9.34741620E-05
  -11.1599998       8.52419107E-05
  -11.1499996       7.66933372E-05
  -11.1400003       6.80320736E-05
  -11.1300001       5.94417761E-05
  -11.1199999       5.10658974E-05
  -11.1099997       4.30054497E-05
  -11.1000004       3.53341202E-05
  -11.0900002       2.81232697E-05
  -11.0799999       2.14672309E-05
  -11.0699997       1.54977388E-05
  -11.0600004       1.03806797E-05
  -11.0500002       6.29365331E-06
  -11.0400000       3.39088456E-06
  -11.0299997       1.76521121E-06
  -11.0200005       1.42038562E-06
  -11.0100002       2.26328393E-06
  -11.0000000       4.11999281E-06
  -10.9899998       6.77224489E-06
  -10.9799995       1.00036286E-05
  -10.9700003       1.36419549E-05
  -10.9600000       1.75840469E-05
  -10.9499998       2.17960896E-05
  -10.9399996       2.62888298E-05
  -10.9300003       3.10770120E-05
  -10.9200001       3.61367311E-05
  -10.9099998       4.13760827E-05
  -10.8999996       4.66300407E-05
  -10.8900003       5.16827240E-05
  -10.8800001       5.63106696E-05
  -10.8699999       6.03331500E-05
  -10.8599997       6.36527329E-05
  -10.8500004       6.62713210E-05
  -10.8400002       6.82749742E-05
  -10.8299999       6.97912910E-05
  -10.8199997       7.09324740E-05
  -10.8100004       7.17432340E-05
  -10.8000002       7.21719116E-05
  -10.7900000       7.20770331E-05
  -10.7799997       7.12694455E-05
  -10.7700005       6.95785347E-05
  -10.7600002       6.69221045E-05
  -10.7500000       6.33560194E-05
  -10.7399998       5.90845375E-05
  -10.7299995       5.44234463E-05
  -10.7200003       4.97225446E-05
  -10.7100000       4.52670647E-05
  -10.6999998       4.11861365E-05
  -10.6899996       3.73970652E-05
  -10.6800003       3.36049961E-05
  -10.6700001       2.93641679E-05
  -10.6599998       2.41898051E-05
  -10.6499996       1.76944777E-05
  -10.6400003       9.71627469E-06
  -10.6300001       4.05249551E-07
  -10.6199999      -9.75500916E-06
  -10.6099997      -1.99990845E-05
  -10.6000004      -2.93960165E-05
  -10.5900002      -3.70057751E-05
  -10.5799999      -4.20436190E-05
  -10.5699997      -4.40184012E-05
  -10.5600004      -4.28178464E-05
  -10.5500002      -3.87249202E-05
  -10.5400000      -3.23648019E-05
  -10.5299997      -2.45943738E-05
  -10.5200005      -1.63560999E-05
  -10.5100002      -8.52317226E-06
  -10.5000000      -1.76208482E-06
  -10.4899998       3.56558348E-06
  -10.4799995       7.44744011E-06
  -10.4700003       1.02055692E-05
  -10.4600000       1.24256103E-05
  -10.4499998       1.48417221E-05
  -10.4399996       1.81954729E-05
  -10.4300003       2.30916230E-05
  -10.4200001       2.98753494E-05
  -10.4099998       3.85525891E-05
  -10.3999996       4.87697034E-05
  -10.3900003       5.98585357E-05
  -10.3800001       7.09411688E-05
  -10.3699999       8.10768834E-05
  -10.3599997       8.94240366E-05
  -10.3500004       9.53862545E-05
  -10.3400002       9.87134699E-05
  -10.3299999       9.95377195E-05
  -10.3199997       9.83368300E-05
  -10.3100004       9.58340606E-05
  -10.3000002       9.28559894E-05
  -10.2900000       9.01780732E-05
  -10.2799997       8.83899120E-05
  -10.2700005       8.78058490E-05
  -10.2600002       8.84349938E-05
  -10.2500000       9.00112791E-05
  -10.2399998       9.20718667E-05
  -10.2299995       9.40623504E-05
  -10.2200003       9.54456918E-05
  -10.2100000       9.57937373E-05
  -10.1999998       9.48482411E-05
  -10.1899996       9.25459244E-05
  -10.1800003       8.90120427E-05
  -10.1700001       8.45307077E-05
  -10.1599998       7.95016458E-05
  -10.1499996       7.43930068E-05
  -10.1400003       6.96945062E-05
  -10.1300001       6.58727367E-05
  -10.1199999       6.33284872E-05
  -10.1099997       6.23554806E-05
  -10.1000004       6.31027433E-05
  -10.0900002       6.55460899E-05
  -10.0799999       6.94748451E-05
  -10.0699997       7.45012294E-05
  -10.0600004       8.00961716E-05
  -10.0500002       8.56509359E-05
  -10.0400000       9.05563575E-05
  -10.0299997       9.42874976E-05
  -10.0200005       9.64775827E-05
  -10.0100002       9.69663379E-05
  -10.0000000       9.58134260E-05
  -9.98999977       9.32750991E-05
  -9.97999954       8.97509090E-05
  -9.97000027       8.57147388E-05
  -9.96000004       8.16475367E-05
  -9.94999981       7.79858601E-05
  -9.93999958       7.50968393E-05
  -9.93000031       7.32767876E-05
  -9.92000008       7.27655133E-05
  -9.90999985       7.37608352E-05
  -9.89999962       7.64179495E-05
  -9.89000034       8.08252880E-05
  -9.88000011       8.69584692E-05
  -9.86999989       9.46271612E-05
  -9.85999966       1.03435923E-04
  -9.85000038       1.12784313E-04
  -9.84000015       1.21922581E-04
  -9.82999992       1.30065775E-04
  -9.81999969       1.36548071E-04
  -9.81000042       1.40985256E-04
  -9.80000019       1.43400830E-04
  -9.78999996       1.44277161E-04
  -9.77999973       1.44505844E-04
  -9.77000046       1.45239028E-04
  -9.76000023       1.47668208E-04
  -9.75000000       1.52782086E-04
  -9.73999977       1.61160628E-04
  -9.72999954       1.72857821E-04
  -9.72000027       1.87402460E-04
  -9.71000004       2.03913558E-04
  -9.69999981       2.21299415E-04
  -9.68999958       2.38483495E-04
  -9.68000031       2.54600978E-04
  -9.67000008       2.69115582E-04
  -9.65999985       2.81839311E-04
  -9.64999962       2.92862329E-04
  -9.64000034       3.02429544E-04
  -9.63000011       3.10808915E-04
  -9.61999989       3.18194594E-04
  -9.60999966       3.24669498E-04
  -9.60000038       3.30224313E-04
  -9.59000015       3.34810931E-04
  -9.57999992       3.38397571E-04
  -9.56999969       3.40994622E-04
  -9.56000042       3.42638959E-04
  -9.55000019       3.43344494E-04
  -9.53999996       3.43044638E-04
  -9.52999973       3.41560139E-04
  -9.52000046       3.38613958E-04
  -9.51000023       3.33898148E-04
  -9.50000000       3.27174435E-04
  -9.48999977       3.18370090E-04
  -9.47999954       3.07632203E-04
  -9.47000027       2.95314152E-04
  -9.46000004       2.81893561E-04
  -9.44999981       2.67850002E-04
  -9.43999958       2.53548264E-04
  -9.43000031       2.39174202E-04
  -9.42000008       2.24753123E-04
  -9.40999985       2.10247366E-04
  -9.39999962       1.95698478E-04
  -9.39000034       1.81353011E-04
  -9.38000011       1.67717299E-04
  -9.36999989       1.55501562E-04
  -9.35999966       1.45460566E-04
  -9.35000038       1.38174437E-04
  -9.34000015       1.33845533E-04
  -9.32999992       1.32189060E-04
  -9.31999969       1.32468500E-04
  -9.31000042       1.33680122E-04
  -9.30000019       1.34838643E-04
  -9.28999996       1.35276539E-04
  -9.27999973       1.34860005E-04
  -9.27000046       1.34047121E-04
  -9.26000023       1.33764988E-04
  -9.25000000       1.35141323E-04
  -9.23999977       1.39175449E-04
  -9.22999954       1.46453167E-04
  -9.22000027       1.56994487E-04
  -9.21000004       1.70276762E-04
  -9.19999981       1.85414727E-04
  -9.18999958       2.01430419E-04
  -9.18000031       2.17515451E-04
  -9.17000008       2.33201878E-04
  -9.15999985       2.48394121E-04
  -9.14999962       2.63270369E-04
  -9.14000034       2.78108579E-04
  -9.13000011       2.93113699E-04
  -9.11999989       3.08316812E-04
  -9.10999966       3.23577493E-04
  -9.10000038       3.38674785E-04
  -9.09000015       3.53432377E-04
  -9.07999992       3.67811968E-04
  -9.06999969       3.81923659E-04
  -9.06000042       3.95943644E-04
  -9.05000019       4.09975182E-04
  -9.03999996       4.23921883E-04
  -9.02999973       4.37442941E-04
  -9.02000046       4.50026157E-04
  -9.01000023       4.61169664E-04
  -9.00000000       4.70606057E-04
  -8.98999977       4.78473143E-04
  -8.97999954       4.85348864E-04
  -8.97000027       4.92109102E-04
  -8.96000004       4.99635760E-04
  -8.94999981       5.08471392E-04
  -8.93999958       5.18544286E-04
  -8.93000031       5.29077370E-04
  -8.92000008       5.38739492E-04
  -8.90999985       5.46004332E-04
  -8.89999962       5.49613324E-04
  -8.89000034       5.48979442E-04
  -8.88000011       5.44394250E-04
  -8.86999989       5.36949607E-04
  -8.85999966       5.28195465E-04
  -8.85000038       5.19640220E-04
  -8.84000015       5.12269209E-04
  -8.82999992       5.06240001E-04
  -8.81999969       5.00869239E-04
  -8.81000042       4.94907319E-04
  -8.80000019       4.87001584E-04
  -8.78999996       4.76182322E-04
  -8.77999973       4.62196185E-04
  -8.77000046       4.45572048E-04
  -8.76000023       4.27407649E-04
  -8.75000000       4.08965774E-04
  -8.73999977       3.91243229E-04
  -8.72999954       3.74677707E-04
  -8.72000027       3.59107682E-04
  -8.71000004       3.43989377E-04
  -8.69999981       3.28780734E-04
  -8.68999958       3.13335273E-04
  -8.68000031       2.98136001E-04
  -8.67000008       2.84275186E-04
  -8.65999985       2.73179001E-04
  -8.64999962       2.66178686E-04
  -8.64000034       2.64098810E-04
  -8.63000011       2.67024850E-04
  -8.61999989       2.74343649E-04
  -8.60999966       2.85043352E-04
  -8.60000038       2.98156316E-04
  -8.59000015       3.13165423E-04
  -8.57999992       3.30209732E-04
  -8.56999969       3.49997048E-04
  -8.56000042       3.73457355E-04
  -8.55000019       4.01264842E-04
  -8.53999996       4.33425448E-04
  -8.52999973       4.69097518E-04
  -8.52000046       5.06733370E-04
  -8.51000023       5.44499140E-04
  -8.50000000       5.80819324E-04
  -8.48999977       6.14840828E-04
  -8.47999954       6.46636705E-04
  -8.47000027       6.77061093E-04
  -8.46000004       7.07315630E-04
  -8.44999981       7.38388859E-04
  -8.43999958       7.70595507E-04
  -8.43000031       8.03402043E-04
  -8.42000008       8.35613755E-04
  -8.40999985       8.65852169E-04
  -8.39999962       8.93137418E-04
  -8.39000034       9.17327183E-04
  -8.38000011       9.39221878E-04
  -8.36999989       9.60257545E-04
  -8.35999966       9.81890480E-04
  -8.35000038       1.00489217E-03
  -8.34000015       1.02883612E-03
  -8.32999992       1.05200557E-03
  -8.31999969       1.07179582E-03
  -8.31000042       1.08550722E-03
  -8.30000019       1.09126919E-03
  -8.28999996       1.08876138E-03
  -8.27999973       1.07946328E-03
  -8.27000046       1.06630789E-03
  -8.26000023       1.05283468E-03
  -8.25000000       1.04211154E-03
  -8.23999977       1.03579077E-03
  -8.22999954       1.03362615E-03
  -8.22000027       1.03362137E-03
  -8.21000004       1.03276398E-03
  -8.19999981       1.02809339E-03
  -8.18999958       1.01773441E-03
  -8.18000031       1.00153778E-03
  -8.17000008       9.81113757E-04
  -8.15999985       9.59252589E-04
  -8.14999962       9.38944693E-04
  -8.14000034       9.22350038E-04
  -8.13000011       9.10079223E-04
  -8.11999989       9.01037769E-04
  -8.10999966       8.92874843E-04
  -8.10000038       8.82867083E-04
  -8.09000015       8.68925068E-04
  -8.07999992       8.50359211E-04
  -8.06999969       8.28146061E-04
  -8.06000042       8.04617361E-04
  -8.05000019       7.82684772E-04
  -8.03999996       7.64893135E-04
  -8.02999973       7.52631284E-04
  -8.02000046       7.45772675E-04
  -8.01000023       7.42854434E-04
  -8.00000000       7.41717406E-04
  -7.98999977       7.40371703E-04
  -7.98000002       7.37773196E-04
  -7.96999979       7.34255824E-04
  -7.96000004       7.31472217E-04
  -7.94999981       7.31874898E-04
  -7.94000006       7.37937749E-04
  -7.92999983       7.51371554E-04
  -7.92000008       7.72592379E-04
  -7.90999985       8.00605863E-04
  -7.90000010       8.33319908E-04
  -7.88999987       8.68159346E-04
  -7.88000011       9.02774860E-04
  -7.86999989       9.35613876E-04
  -7.86000013       9.66201886E-04
  -7.84999990       9.95055889E-04
  -7.84000015       1.02331396E-03
  -7.82999992       1.05220836E-03
  -7.82000017       1.08256598E-03
  -7.80999994       1.11449009E-03
  -7.80000019       1.14729593E-03
  -7.78999996       1.17970572E-03
  -7.78000021       1.21021469E-03
  -7.76999998       1.23751559E-03
  -7.76000023       1.26084767E-03
  -7.75000000       1.28018425E-03
  -7.73999977       1.29621604E-03
  -7.73000002       1.31015165E-03
  -7.71999979       1.32339133E-03
  -7.71000004       1.33717316E-03
  -7.69999981       1.35227782E-03
  -7.69000006       1.36887142E-03
  -7.67999983       1.38652022E-03
  -7.67000008       1.40438159E-03
  -7.65999985       1.42150815E-03
  -7.65000010       1.43719441E-03
  -7.63999987       1.45126123E-03
  -7.63000011       1.46418391E-03
  -7.61999989       1.47702231E-03
  -7.61000013       1.49114756E-03
  -7.59999990       1.50784571E-03
  -7.59000015       1.52790023E-03
  -7.57999992       1.55129773E-03
  -7.57000017       1.57715532E-03
  -7.55999994       1.60391175E-03
  -7.55000019       1.62975397E-03
  -7.53999996       1.65313785E-03
  -7.53000021       1.67325174E-03
  -7.51999998       1.69025152E-03
  -7.51000023       1.70520018E-03
  -7.50000000       1.71968306E-03
  -7.48999977       1.73524243E-03
  -7.48000002       1.75280939E-03
  -7.46999979       1.77233038E-03
  -7.46000004       1.79273391E-03
  -7.44999981       1.81227201E-03
  -7.44000006       1.82912801E-03