  -16.0000000       0.00000000    
  -15.9899998       0.00000000    
  -15.9799995       0.00000000    
  -15.9700003       0.00000000    
  -15.9600000       0.00000000    
  -15.9499998       0.00000000    
  -15.9399996       0.00000000    
  -15.9300003       0.00000000    
  -15.9200001       0.00000000    
  -15.9099998       0.00000000    
  -15.8999996       0.00000000    
  -15.8900003      -0.00000000    
  -15.8800001       5.68226527E-42
  -15.8699999       4.06536303E-40
  -15.8599997       1.00424993E-38
  -15.8500004       1.44549508E-37
  -15.8400002       1.45175606E-36
  -15.8299999       1.11437108E-35
  -15.8199997       6.90477518E-35
  -15.8100004       3.58096561E-34
  -15.8000002       1.59459482E-33
  -15.7900000       6.21088236E-33
  -15.7799997       2.14520607E-32
  -15.7700005       6.63728309E-32
  -15.7600002       1.85275765E-31
  -15.7500000       4.68708530E-31
  -15.7399998       1.07643958E-30
  -15.7299995       2.24061336E-30
  -15.7200003       4.19934505E-30
  -15.7100000       6.97816329E-30
  -15.6999998       9.92506631E-30
  -15.6899996       1.09648375E-29
  -15.6800003       5.73823229E-30
  -15.6700001      -1.28251286E-29
  -15.6599998      -5.34534634E-29
  -15.6499996      -1.22586031E-28
  -15.6400003      -2.16427220E-28
  -15.6300001      -3.09537290E-28
  -15.6199999      -3.43767469E-28
  -15.6099997      -2.25960092E-28
  -15.6000004       1.53574400E-28
  -15.5900002       8.70822898E-28
  -15.5799999       1.88499180E-27
  -15.5699997       2.94294498E-27
  -15.5600004       3.51973520E-27
  -15.5500002       2.86711438E-27
  -15.5400000       2.37687729E-28
  -15.5299997      -4.69775721E-27
  -15.5200005      -1.13271736E-26
  -15.5100002      -1.76877915E-26
  -15.5000000      -2.04882353E-26
  -15.4899998      -1.58592273E-26
  -15.4799995      -9.17508403E-28
  -15.4700003       2.41615261E-26
  -15.4600000       5.43206230E-26
  -15.4499998       7.90973635E-26
  -15.4399996       8.43255823E-26
  -15.4300003       5.63732822E-26
  -15.4200001      -1.17829719E-26
  -15.4099998      -1.14300719E-25
  -15.3999996      -2.28172865E-25
  -15.3900003      -3.12826613E-25
  -15.3800001      -3.14982693E-25
  -15.3699999      -1.79864711E-25
  -15.3599997       1.29761468E-25
  -15.3500004       6.05145949E-25
  -15.3400002       1.15462110E-24
  -15.3299999       1.56785957E-24
  -15.3199997       1.50636175E-24
  -15.3100004       5.62080651E-25
  -15.3000002      -1.57072954E-24
  -15.2900000      -4.79572841E-24
  -15.2799997      -8.25136516E-24
  -15.2700005      -1.00698923E-23
  -15.2600002      -7.55352934E-24
  -15.2500000       1.92603940E-24
  -15.2399998       1.91917426E-23
  -15.2299995       4.10339821E-23
  -15.2200003       5.84720048E-23
  -15.2100000       5.70494488E-23
  -15.1999998       2.07616136E-23
  -15.1899996      -5.96869516E-23
  -15.1800003      -1.75634971E-22
  -15.1700001      -2.90455152E-22
  -15.1599998      -3.37591926E-22
  -15.1499996      -2.34164209E-22
  -15.1400003       8.54790934E-23
  -15.1300001       6.19527734E-22
  -15.1199999       1.24670335E-21
  -15.1099997       1.69918064E-21
  -15.1000004       1.59343511E-21
  -15.0900002       5.45794660E-22
  -15.0799999      -1.62470389E-21
  -15.0699997      -4.64636882E-21
  -15.0600004      -7.59062855E-21
  -15.0500002      -8.85134712E-21
  -15.0400000      -6.45545684E-21
  -15.0299997       1.20375247E-21
  -15.0200005       1.42608716E-20
  -15.0100002       3.01757426E-20
  -15.0000000       4.29680068E-20
  -14.9899998       4.36152691E-20
  -14.9799995       2.23090272E-20
  -14.9700003      -2.71383193E-20
  -14.9600000      -1.01328358E-19
  -14.9499998      -1.81607038E-19
  -14.9399996      -2.31840269E-19
  -14.9300003      -2.03446312E-19
  -14.9200001      -5.06534097E-20
  -14.9099998       2.44067653E-19
  -14.8999996       6.39838835E-19
  -14.8900003       1.01440912E-18
  -14.8800001       1.16560305E-18
  -14.8699999       8.54339020E-19
  -14.8599997      -1.02475393E-19
  -14.8500004      -1.70046972E-18
  -14.8400002      -3.61698495E-18
  -14.8299999      -5.14698454E-18
  -14.8199997      -5.28427336E-18
  -14.8100004      -3.00601529E-18
  -14.8000002       2.24225524E-18
  -14.7900000       9.96762316E-18
  -14.7799997       1.81771517E-17
  -14.7700005       2.33531715E-17
  -14.7600002       2.11404253E-17
  -14.7500000       7.86245760E-18
  -14.7399998      -1.73407513E-17
  -14.7299995      -5.03852553E-17
  -14.7200003      -8.11286503E-17
  -14.7100000      -9.43874158E-17
  -14.6999998      -7.38620142E-17
  -14.6899996      -8.83707489E-18
  -14.6800003       9.78158081E-17
  -14.6700001       2.23237413E-16
  -14.6599998       3.23534928E-16
  -14.6499996       3.41475615E-16
  -14.6400003       2.24201257E-16
  -14.6300001      -5.15445026E-17
  -14.6199999      -4.53770161E-16
  -14.6099997      -8.80109690E-16
  -14.6000004      -1.16505782E-15
  -14.5900002      -1.11767448E-15
  -14.5799999      -5.88796160E-16
  -14.5699997       4.46305789E-16
  -14.5600004       1.81695513E-15
  -14.5500002       3.13297518E-15
  -14.5400000       3.83926111E-15
  -14.5299997       3.36297703E-15
  -14.5200005       1.33555983E-15
  -14.5100002      -2.16680218E-15
  -14.5000000      -6.45238401E-15
  -14.4899998      -1.02115937E-14
  -14.4799995      -1.17565717E-14
  -14.4700003      -9.51136939E-15
  -14.4600000      -2.66708928E-15
  -14.4499998       8.18368336E-15
  -14.4399996       2.06847191E-14
  -14.4300003       3.08744390E-14
  -14.4200001       3.40108496E-14
  -14.4099998       2.60167711E-14
  -14.3999996       5.24567208E-15
  -14.3900003      -2.59601351E-14
  -14.3800001      -6.05660135E-14
  -14.3699999      -8.75722156E-14
  -14.3599997      -9.44318950E-14
  -14.3500004      -7.09098578E-14
  -14.3400002      -1.35336256E-14
  -14.3299999       7.07174052E-14
  -14.3199997       1.63030220E-13
  -14.3100004       2.34954227E-13
  -14.3000002       2.54640005E-13
  -14.2900000       1.96369532E-13
  -14.2799997       5.12795406E-14
  -14.2700005      -1.63898707E-13
  -14.2600002      -4.03588675E-13
  -14.2500000      -5.98459541E-13
  -14.2399998      -6.69847099E-13
  -14.2299995      -5.51873271E-13
  -14.2200003      -2.16625776E-13
  -14.2100000       3.04520759E-13
  -14.1999998       9.11371239E-13
  -14.1899996       1.44369488E-12
  -14.1800003       1.71134070E-12
  -14.1700001       1.54300585E-12
  -14.1599998       8.44630572E-13
  -14.1499996      -3.47265511E-13
  -14.1400003      -1.83484282E-12
  -14.1300001      -3.26701340E-12
  -14.1199999      -4.19574054E-12
  -14.1099997      -4.17897661E-12
  -14.1000004      -2.91395966E-12
  -14.0900002      -3.71130698E-13
  -14.0799999       3.11074690E-12
  -14.0699997       6.80837071E-12
  -14.0600004       9.70589147E-12
  -14.0500002       1.07015577E-11
  -14.0400000       8.90409968E-12
  -14.0299997       3.95913163E-12
  -14.0200005      -3.68127577E-12
  -14.0100002      -1.26427297E-11
  -14.0000000      -2.07475721E-11
  -13.9899998      -2.54052092E-11
  -13.9799995      -2.42410415E-11
  -13.9700003      -1.58489818E-11
  -13.9600000      -4.83566258E-13
  -13.9499998       1.95301917E-11
  -13.9399996       3.98714152E-11
  -13.9300003       5.48985371E-11
  -13.9200001       5.88968735E-11
  -13.9099998       4.76907507E-11
  -13.8999996       2.02508808E-11
  -13.8900003      -2.01735295E-11
  -13.8800001      -6.58513799E-11
  -13.8699999      -1.05592139E-10
  -13.8599997      -1.27010583E-10
  -13.8500004      -1.19690480E-10
  -13.8400002      -7.85576604E-11
  -13.8299999      -6.55128729E-12
  -13.8199997       8.43265943E-11
  -13.8100004       1.74245465E-10
  -13.8000002       2.39222309E-10
  -13.7900000       2.56722060E-10
  -13.7799997       2.12035153E-10
  -13.7700005       1.03806054E-10
  -13.7600002      -5.29670960E-11
  -13.7500000      -2.27775063E-10
  -13.7399998      -3.79748955E-10
  -13.7299995      -4.66487404E-10
  -13.7200003      -4.54804916E-10
  -13.7100000      -3.30815930E-10
  -13.6999998      -1.06554154E-10
  -13.6899996       1.79161644E-10
  -13.6800003       4.66690686E-10
  -13.6700001       6.87720658E-10
  -13.6599998       7.81229137E-10
  -13.6499996       7.09544312E-10
  -13.6400003       4.70284645E-10
  -13.6300001       1.00610402E-10
  -13.6199999      -3.28156224E-10
  -13.6099997      -7.25080773E-10
  -13.6000004      -1.00035857E-09
  -13.5900002      -1.08730791E-09
  -13.5799999      -9.59870960E-10
  -13.5699997      -6.40541675E-10
  -13.5600004      -1.95953018E-10
  -13.5500002       2.79567591E-10
  -13.5400000       6.88556601E-10
  -13.5299997       9.56527524E-10
  -13.5200005       1.05194242E-09
  -13.5100002       9.93401250E-10
  -13.5000000       8.40603365E-10
  -13.4899998       6.70334954E-10
  -13.4799995       5.43851797E-10
  -13.4700003       4.75836648E-10
  -13.4600000       4.16669310E-10
  -13.4499998       2.57519672E-10
  -13.4399996      -1.37628950E-10
  -13.4300003      -8.77210415E-10
  -13.4200001      -1.97747951E-09
  -13.4099998      -3.30788108E-09
  -13.3999996      -4.56875737E-09
  -13.3900003      -5.31962296E-09
  -13.3800001      -5.06577136E-09
  -13.3699999      -3.39485751E-09
  -13.3599997      -1.37295939E-10
  -13.3500004       4.49073001E-09
  -13.3400002       9.80959403E-09
  -13.3299999       1.47065977E-08
  -13.3199997       1.77978094E-08
  -13.3100004       1.77139192E-08
  -13.3000002       1.34658986E-08
  -13.2900000       4.81248197E-09
  -13.2799997      -7.46875273E-09
  -13.2700005      -2.15029150E-08
  -13.2600002      -3.44999123E-08
  -13.2500000      -4.32113652E-08
  -13.2399998      -4.46079724E-08
  -13.2299995      -3.66544342E-08
  -13.2200003      -1.90073219E-08
  -13.2100000       6.55129861E-09
  -13.1999998       3.61033479E-08
  -13.1899996       6.40867697E-08
  -13.1800003       8.42593053E-08
  -13.1700001       9.09828159E-08
  -13.1599998       8.05730878E-08
  -13.1499996       5.24101296E-08
  -13.1400003       9.51385992E-09
  -13.1300001      -4.16145163E-08
  -13.1199999      -9.19407910E-08
  -13.1099997      -1.31508259E-07
  -13.1000004      -1.51416799E-07
  -13.0900002      -1.45763750E-07
  -13.0799999      -1.13113991E-07
  -13.0699997      -5.71395908E-08
  -13.0600004       1.37628904E-08
  -13.0500002       8.78535644E-08
  -13.0400000       1.52177677E-07
  -13.0299997       1.95016440E-07
  -13.0200005       2.08153011E-07
  -13.0100002       1.88478751E-07
  -13.0000000       1.38603909E-07
  -12.9899998       6.63563497E-08
  -12.9799995      -1.67079364E-08
  -12.9700003      -9.74566561E-08
  -12.9600000      -1.63537806E-07
  -12.9499998      -2.05474123E-07
  -12.9399996      -2.18108767E-07
  -12.9300003      -2.01186083E-07
  -12.9200001      -1.59040184E-07
  -12.9099998      -9.95449909E-08
  -12.8999996      -3.25915863E-08
  -12.8900003       3.15988125E-08
  -12.8800001       8.40498871E-08
  -12.8699999       1.18298615E-07
  -12.8599997       1.31249010E-07
  -12.8500004       1.23576868E-07
  -12.8400002       9.96841294E-08
  -12.8299999       6.72027980E-08
  -12.8199997       3.60376546E-08
  -12.8100004       1.69379959E-08
  -12.8000002       1.96440713E-08
  -12.7900000       5.07418321E-08
  -12.7799997       1.11501613E-07
  -12.7700005       1.96103414E-07
  -12.7600002       2.90734334E-07
  -12.7500000       3.74009971E-07
  -12.7399998       4.19044085E-07
  -12.7299995       3.97189268E-07
  -12.7200003       2.83154691E-07
  -12.7100000       6.08185786E-08
  -12.6999998      -2.71202026E-07
  -12.6899996      -6.95286815E-07
  -12.6800003      -1.17287323E-06
  -12.6700001      -1.64553705E-06
  -12.6599998      -2.03942113E-06
  -12.6499996      -2.27278883E-06
  -12.6400003      -2.26603242E-06
  -12.6300001      -1.95303460E-06
  -12.6199999      -1.29262423E-06
  -12.6099997      -2.78663094E-07
  -12.6000004       1.05244044E-06
  -12.5900002       2.61795162E-06
  -12.5799999       4.28956037E-06
  -12.5699997       5.89913816E-06
  -12.5600004       7.24962547E-06
  -12.5500002       8.13069437E-06
  -12.5400000       8.33835384E-06
  -12.5299997       7.69717553E-06
  -12.5200005       6.08319033E-06
  -12.5100002       3.44526325E-06
  -12.5000000      -1.77508468E-07
  -12.4899998      -4.64449113E-06
  -12.4799995      -9.70996098E-06
  -12.4700003      -1.50282203E-05
  -12.4600000      -2.01663752E-05
  -12.4499998      -2.46241943E-05
  -12.4399996      -2.78580828E-05
  -12.4300003      -2.93073190E-05
  -12.4200001      -2.84202706E-05
  -12.4099998      -2.46795207E-05
  -12.3999996      -1.76260182E-05
  -12.3900003      -6.88367618E-06
  -12.3800001       7.81559538E-06
  -12.3699999       2.66027582E-05
  -12.3599997       4.94412961E-05
  -12.3500004       7.60955154E-05
  -12.3400002       1.06102743E-04
  -12.3299999       1.38754753E-04
  -12.3199997       1.73095294E-04
  -12.3100004       2.07937090E-04
  -12.3000002       2.41903588E-04
  -12.2900000       2.73491227E-04
  -12.2799997       3.01149877E-04
  -12.2700005       3.23368557E-04
  -12.2600002       3.38762125E-04
  -12.2500000       3.46141227E-04
  -12.2399998       3.44564352E-04
  -12.2299995       3.33362259E-04
  -12.2200003       3.12147604E-04
  -12.2100000       2.80803069E-04
  -12.1999998       2.39467932E-04
  -12.1899996       1.88518388E-04
  -12.1800003       1.28566971E-04
  -12.1700001       6.04529050E-05
  -12.1599998      -1.47575684E-05
  -12.1499996      -9.57878947E-05
  -12.1400003      -1.81184543E-04
  -12.1300001      -2.69379612E-04
  -12.1199999      -3.58784659E-04
  -12.1099997      -4.47901810E-04
  -12.1000004      -5.35436266E-04
  -12.0900002      -6.20393024E-04
  -12.0799999      -7.02123973E-04
  -12.0699997      -7.80319038E-04
  -12.0600004      -8.54927581E-04
  -12.0500002      -9.26018576E-04
  -12.0400000      -9.93606169E-04
  -12.0299997      -1.05746812E-03
  -12.0200005      -1.11700303E-03
  -12.0100002      -1.17114827E-03
  -12.0000000      -1.21838180E-03
  -11.9899998      -1.25681725E-03
  -11.9799995      -1.28436740E-03
  -11.9700003      -1.29894528E-03
  -11.9600000      -1.29866065E-03
  -11.9499998      -1.28198625E-03
  -11.9399996      -1.24784256E-03
  -11.9300003      -1.19561492E-03
  -11.9200001      -1.12509029E-03
  -11.9099998      -1.03635830E-03
  -11.8999996      -9.29698290E-04
  -11.8900003      -8.05489370E-04
  -11.8800001      -6.64170948E-04
  -11.8699999      -5.06265438E-04
  -11.8599997      -3.32443742E-04
  -11.8500004      -1.43625934E-04
  -11.8400002       5.89421543E-05
  -11.8299999       2.73629150E-04
  -11.8199997       4.98433888E-04
  -11.8100004       7.31055159E-04
  -11.8000002       9.69007087E-04
  -11.7900000       1.20976614E-03
  -11.7799997       1.45090767E-03
  -11.7700005       1.69020030E-03
  -11.7600002       1.92564121E-03
  -11.7500000       2.15545623E-03
  -11.7399998       2.37802300E-03
  -11.7299995       2.59179552E-03
  -11.7200003       2.79522710E-03
  -11.7100000       2.98672216E-03
  -11.6999998       3.16461595E-03
  -11.6899996       3.32720834E-03
  -11.6800003       3.47280107E-03
  -11.6700001       3.59974313E-03
  -11.6599998       3.70646035E-03
  -11.6499996       3.79145821E-03
  -11.6400003       3.85328592E-03
  -11.6300001       3.89049412E-03
  -11.6199999       3.90159921E-03
  -11.6099997       3.88503959E-03
  -11.6000004       3.83920060E-03
  -11.5900002       3.76245752E-03
  -11.5799999       3.65325157E-03
  -11.5699997       3.51018691E-03
  -11.5600004       3.33212782E-03
  -11.5500002       3.11826309E-03
  -11.5400000       2.86818412E-03
  -11.5299997       2.58190115E-03
  -11.5200005       2.25986703E-03
  -11.5100002       1.90301309E-03
  -11.5000000       1.51273969E-03
  -11.4899998       1.09095755E-03
  -11.4799995       6.40057202E-04
  -11.4700003       1.62893048E-04
  -11.4600000      -3.37328471E-04
  -11.4499998      -8.57200532E-04
  -11.4399996      -1.39333797E-03
  -11.4300003      -1.94261211E-03
  -11.4200001      -2.50239391E-03
  -11.4099998      -3.07072955E-03
  -11.3999996      -3.64641729E-03
  -11.3900003      -4.22897143E-03
  -11.3800001      -4.81845159E-03
  -11.3699999      -5.41521097E-03
  -11.3599997      -6.01958344E-03
  -11.3500004      -6.63159182E-03
  -11.3400002      -7.25069409E-03
  -11.3299999      -7.87566137E-03
  -11.3199997      -8.50453041E-03
  -11.3100004      -9.13466327E-03
  -11.3000002      -9.76292137E-03
  -11.2900000      -1.03858216E-02
  -11.2799997      -1.09997597E-02
  -11.2700005      -1.16012003E-02
  -11.2600002      -1.21868607E-02
  -11.2500000      -1.27538778E-02
  -11.2399998      -1.32999457E-02
  -11.2299995      -1.38234692E-02
  -11.2200003      -1.43236024E-02
  -11.2100000      -1.48003120E-02
  -11.1999998      -1.52542815E-02
  -11.1899996      -1.56867616E-02
  -11.1800003      -1.60993207E-02
  -11.1700001      -1.64935291E-02
  -11.1599998      -1.68706607E-02
  -11.1499996      -1.72314327E-02
  -11.1400003      -1.75758731E-02
  -11.1300001      -1.79033279E-02
  -11.1199999      -1.82125997E-02
  -11.1099997      -1.85022093E-02
  -11.1000004      -1.87706724E-02
  -11.0900002      -1.90167893E-02
  -11.0799999      -1.92397609E-02
  -11.0699997      -1.94392502E-02
  -11.0600004      -1.96153075E-02
  -11.0500002      -1.97681375E-02
  -11.0400000      -1.98979340E-02
  -11.0299997      -2.00046841E-02
  -11.0200005      -2.00880747E-02
  -11.0100002      -2.01474987E-02
  -11.0000000      -2.01821402E-02
  -10.9899998      -2.01911181E-02
  -10.9799995      -2.01736279E-02
  -10.9700003      -2.01290417E-02
  -10.9600000      -2.00569499E-02
  -10.9499998      -1.99571885E-02
  -10.9399996      -1.98297761E-02
  -10.9300003      -1.96748786E-02
  -10.9200001      -1.94927752E-02
  -10.9099998      -1.92838404E-02
  -10.8999996      -1.90484952E-02
  -10.8900003      -1.87871642E-02
  -10.8800001      -1.85002182E-02
  -10.8699999      -1.81878433E-02
  -10.8599997      -1.78499166E-02
  -10.8500004      -1.74859688E-02
  -10.8400002      -1.70951691E-02
  -10.8299999      -1.66764706E-02
  -10.8199997      -1.62288621E-02
  -10.8100004      -1.57516245E-02
  -10.8000002      -1.52446711E-02
  -10.7900000      -1.47086931E-02
  -10.7799997      -1.41451685E-02
  -10.7700005      -1.35562150E-02
  -10.7600002      -1.29442401E-02
  -10.7500000      -1.23115070E-02
  -10.7399998      -1.16598336E-02
  -10.7299995      -1.09903431E-02
  -10.7200003      -1.03034861E-02
  -10.7100000      -9.59924702E-03
  -10.6999998      -8.87751672E-03
  -10.6899996      -8.13842379E-03
  -10.6800003      -7.38261221E-03
  -10.6700001      -6.61125965E-03
  -10.6599998      -5.82596892E-03
  -10.6499996      -5.02841128E-03
  -10.6400003      -4.22004750E-03
  -10.6300001      -3.40189273E-03
  -10.6199999      -2.57453346E-03
  -10.6099997      -1.73840637E-03
  -10.6000004      -8.94246914E-04
  -10.5900002      -4.35533511E-05
  -10.5799999       8.11043778E-04
  -10.5699997       1.66572188E-03
  -10.5600004       2.51581520E-03
  -10.5500002       3.35639017E-03
  -10.5400000       4.18303255E-03
  -10.5299997       4.99259681E-03
  -10.5200005       5.78361191E-03
  -10.5100002       6.55631721E-03
  -10.5000000       7.31226755E-03
  -10.4899998       8.05356447E-03
  -10.4799995       8.78200028E-03
  -10.4700003       9.49828792E-03
  -10.4600000       1.02016199E-02
  -10.4499998       1.08896028E-02
  -10.4399996       1.15586380E-02
  -10.4300003       1.22044496E-02
  -10.4200001       1.28227398E-02
  -10.4099998       1.34096695E-02
  -10.3999996       1.39620556E-02
  -10.3900003       1.44773992E-02
  -10.3800001       1.49537018E-02
  -10.3699999       1.53893121E-02
  -10.3599997       1.57828964E-02
  -10.3500004       1.61336176E-02
  -10.3400002       1.64414328E-02
  -10.3299999       1.67074185E-02
  -10.3199997       1.69339329E-02
  -10.3100004       1.71244089E-02
  -10.3000002       1.72828585E-02
  -10.2900000       1.74130015E-02
  -10.2799997       1.75174475E-02
  -10.2700005       1.75969768E-02
  -10.2600002       1.76503342E-02
  -10.2500000       1.76746361E-02
  -10.2399998       1.76662263E-02
  -10.2299995       1.76219568E-02
  -10.2200003       1.75403524E-02
  -10.2100000       1.74224675E-02
  -10.1999998       1.72721054E-02
  -10.1899996       1.70953013E-02
  -10.1800003       1.68991983E-02
  -10.1700001       1.66907310E-02
  -10.1599998       1.64752975E-02
  -10.1499996       1.62559506E-02
  -10.1400003       1.60332713E-02
  -10.1300001       1.58058442E-02
  -10.1199999       1.55713372E-02
  -10.1099997       1.53276129E-02
  -10.1000004       1.50737753E-02
  -10.0900002       1.48106692E-02
  -10.0799999       1.45409154E-02
  -10.0699997       1.42683918E-02
  -10.0600004       1.39974486E-02
  -10.0500002       1.37321772E-02
  -10.0400000       1.34758726E-02
  -10.0299997       1.32309143E-02
  -10.0200005       1.29988734E-02
  -10.0100002       1.27809206E-02
  -10.0000000       1.25781465E-02
  -9.98999977       1.23916762E-02
  -9.97999954       1.22225815E-02
  -9.97000027       1.20715257E-02
  -9.96000004       1.19384620E-02
  -9.94999981       1.18224677E-02
  -9.93999958       1.17218653E-02
  -9.93000031       1.16348006E-02
  -9.92000008       1.15599325E-02
  -9.90999985       1.14971641E-02
  -9.89999962       1.14481291E-02
  -9.89000034       1.14160636E-02
  -9.88000011       1.14052230E-02
  -9.86999989       1.14198308E-02
  -9.85999966       1.14629380E-02
  -9.85000038       1.15354229E-02
  -9.84000015       1.16357105E-02
  -9.82999992       1.17600905E-02
  -9.81999969       1.19037870E-02
  -9.81000042       1.20623689E-02
  -9.80000019       1.22331595E-02
  -9.78999996       1.24161690E-02
  -9.77999973       1.26141980E-02
  -9.77000046       1.28321601E-02
  -9.76000023       1.30757065E-02
  -9.75000000       1.33496355E-02
  -9.73999977       1.36565436E-02
  -9.72999954       1.39961354E-02
  -9.72000027       1.43654794E-02
  -9.71000004       1.47600174E-02
  -9.69999981       1.51751097E-02
  -9.68999958       1.56075479E-02
  -9.68000031       1.60565320E-02
  -9.67000008       1.65239330E-02
  -9.65999985       1.70134772E-02
  -9.64999962       1.75294094E-02
  -9.64000034       1.80748794E-02
  -9.63000011       1.86505634E-02
  -9.61999989       1.92540567E-02
  -9.60999966       1.98801421E-02
  -9.60000038       2.05217618E-02
  -9.59000015       2.11714003E-02
  -9.57999992       2.18223389E-02
  -9.56999969       2.24693567E-02
  -9.56000042       2.31085904E-02
  -9.55000019       2.37366389E-02
  -9.53999996       2.43492573E-02
  -9.52999973       2.49401238E-02
  -9.52000046       2.55001895E-02
  -9.51000023       2.60179397E-02
  -9.50000000       2.64804848E-02
  -9.48999977       2.68754233E-02
  -9.47999954       2.71925740E-02
  -9.47000027       2.74253991E-02
  -9.46000004       2.75713988E-02
  -9.44999981       2.76314467E-02
  -9.43999958       2.76083816E-02
  -9.43000031       2.75051519E-02
  -9.42000008       2.73232963E-02
  -9.40999985       2.70623025E-02
  -9.39999962       2.67198924E-02
  -9.39000034       2.62934025E-02
  -9.38000011       2.57816203E-02
  -9.36999989       2.51865704E-02
  -9.35999966       2.45145615E-02
  -9.35000038       2.37763021E-02
  -9.34000015       2.29859054E-02
  -9.32999992       2.21592598E-02
  -9.31999969       2.13123355E-02
  -9.31000042       2.04598941E-02
  -9.30000019       1.96152367E-02
  -9.28999996       1.87907759E-02
  -9.27999973       1.79993026E-02
  -9.27000046       1.72553025E-02
  -9.26000023       1.65757239E-02
  -9.25000000       1.59797724E-02
  -9.23999977       1.54876169E-02
  -9.22999954       1.51183689E-02
  -9.22000027       1.48879103E-02
  -9.21000004       1.48073286E-02
  -9.19999981       1.48824062E-02
  -9.18999958       1.51144536E-02
  -9.18000031       1.55021762E-02
  -9.17000008       1.60439182E-02
  -9.15999985       1.67396534E-02
  -9.14999962       1.75917074E-02
  -9.14000034       1.86045226E-02
  -9.13000011       1.97828077E-02
  -9.11999989       2.11293735E-02
  -9.10999966       2.26430036E-02
  -9.10000038       2.43172459E-02
  -9.09000015       2.61404794E-02
  -9.07999992       2.80973651E-02
  -9.06999969       3.01710051E-02
  -9.06000042       3.23451906E-02
  -9.05000019       3.46059278E-02
  -9.03999996       3.69414724E-02
  -9.02999973       3.93414386E-02
  -9.02000046       4.17947136E-02
  -9.01000023       4.42873836E-02
  -9.00000000       4.68013771E-02
  -8.98999977       4.93143350E-02
  -8.97999954       5.18009514E-02
  -8.97000027       5.42353205E-02
  -8.96000004       5.65935560E-02
  -8.94999981       5.88558055E-02
  -8.93999958       6.10070340E-02
  -8.93000031       6.30363151E-02
  -8.92000008       6.49347529E-02
  -8.90999985       6.66930899E-02
  -8.89999962       6.82996064E-02
  -8.89000034       6.97392300E-02
  -8.88000011       7.09941089E-02
  -8.86999989       7.20456317E-02
  -8.85999966       7.28770494E-02
  -8.85000038       7.34758228E-02
  -8.84000015       7.38351420E-02
  -8.82999992       7.39536881E-02
  -8.81999969       7.38340318E-02
  -8.81000042       7.34802485E-02
  -8.80000019       7.28952587E-02
  -8.78999996       7.20793232E-02
  -8.77999973       7.10297376E-02
  -8.77000046       6.97420239E-02
  -8.76000023       6.82123974E-02
  -8.75000000       6.64400160E-02
  -8.73999977       6.44291416E-02
  -8.72999954       6.21894971E-02
  -8.72000027       5.97354993E-02
  -8.71000004       5.70842996E-02
  -8.69999981       5.42532690E-02
  -8.68999958       5.12580238E-02
  -8.68000031       4.81113531E-02
  -8.67000008       4.48234864E-02
  -8.65999985       4.14031893E-02
  -8.64999962       3.78595404E-02
  -8.64000034       3.42031047E-02
  -8.63000011       3.04464046E-02
  -8.61999989       2.66032685E-02
  -8.60999966       2.26871707E-02
  -8.60000038       1.87095515E-02
  -8.59000015       1.46784633E-02
  -8.57999992       1.05984220E-02
  -8.56999969       6.47136662E-03
  -8.56000042       2.29870598E-03
  -8.55000019      -1.91627105E-03
  -8.53999996      -6.16642507E-03
  -8.52999973      -1.04401745E-02
  -8.52000046      -1.47222299E-02
  -8.51000023      -1.89956315E-02
  -8.50000000      -2.32444275E-02
  -8.48999977      -2.74563953E-02
  -8.47999954      -3.16242725E-02
  -8.47000027      -3.57459709E-02
  -8.46000004      -3.98229808E-02
  -8.44999981      -4.38580923E-02
  -8.43999958      -4.78527993E-02
  -8.43000031      -5.18054962E-02
  -8.42000008      -5.57109900E-02
  -8.40999985      -5.95612787E-02
  -8.39999962      -6.33475184E-02
  -8.39000034      -6.70621619E-02
  -8.38000011      -7.07006529E-02
  -8.36999989      -7.42621049E-02
  -8.35999966      -7.77484700E-02
  -8.35000038      -8.11629072E-02
  -8.34000015      -8.45077485E-02
  -8.32999992      -8.77824500E-02
  -8.31999969      -9.09829959E-02
  -8.31000042      -9.41022336E-02
  -8.30000019      -9.71312299E-02
  -8.28999996     -0.100061402    
  -8.27999973     -0.102886185    
  -8.27000046     -0.105602063    
  -8.26000023     -0.108208440    
  -8.25000000     -0.110706486    
  -8.23999977     -0.113097288    
  -8.22999954     -0.115380302    
  -8.22000027     -0.117552035    
  -8.21000004     -0.119606294    
  -8.19999981     -0.121534862    
  -8.18999958     -0.123329177    
  -8.18000031     -0.124981835    
  -8.17000008     -0.126487643    
  -8.15999985     -0.127843618    
  -8.14999962     -0.129048243    
  -8.14000034     -0.130099848    
  -8.13000011     -0.130994961    
  -8.11999989     -0.131727278    
  -8.10999966     -0.132287294    
  -8.10000038     -0.132662937    
  -8.09000015     -0.132841155    
  -8.07999992     -0.132809445    
  -8.06999969     -0.132557407    
  -8.06000042     -0.132077500    
  -8.05000019     -0.131364658    
  -8.03999996     -0.130415827    
  -8.02999973     -0.129228607    
  -8.02000046     -0.127800062    
  -8.01000023     -0.126126692    
  -8.00000000     -0.124204233    
  -7.98999977     -0.122028716    
  -7.98000002     -0.119597614    
  -7.96999979     -0.116911225    
  -7.96000004     -0.113972872    
  -7.94999981     -0.110789344    
  -7.94000006     -0.107369870    
  -7.92999983     -0.103725322    
  -7.92000008      -9.98668149E-02
  -7.90999985      -9.58051831E-02
  -7.90000010      -9.15505290E-02
  -7.88999987      -8.71127248E-02
  -7.88000011      -8.25021565E-02
  -7.86999989      -7.77306184E-02
  -7.86000013      -7.28122666E-02
  -7.84999990      -6.77636564E-02
  -7.84000015      -6.26038760E-02
  -7.82999992      -5.73536195E-02
  -7.82000017      -5.20342700E-02
  -7.80999994      -4.66668680E-02
  -7.80000019      -4.12711650E-02
  -7.78999996      -3.58650126E-02
  -7.78000021      -3.04642841E-02
  -7.76999998      -2.50829458E-02
  -7.76000023      -1.97335836E-02
  -7.75000000      -1.44278565E-02
  -7.73999977      -9.17712506E-03
  -7.73000002      -3.99271725E-03
  -7.71999979       1.11394667E-03
  -7.71000004       6.13152469E-03
  -7.69999981       1.10491058E-02
  -7.69000006       1.58569049E-02
  -7.67999983       2.05467604E-02
  -7.67000008       2.51126755E-02
  -7.65999985       2.95508709E-02
  -7.65000010       3.38595808E-02
  -7.63999987       3.80384140E-02
  -7.63000011       4.20874171E-02
  -7.61999989       4.60063256E-02
  -7.61000013       4.97938693E-02
  -7.59999990       5.34477048E-02
  -7.59000015       5.69649339E-02
  -7.57999992       6.03429563E-02
  -7.57000017       6.35807738E-02
  -7.55999994       6.66798279E-02
  -7.55000019       6.96445480E-02
  -7.53999996       7.24819973E-02
  -7.53000021       7.52008632E-02
  -7.51999998       7.78098926E-02
  -7.51000023       8.03165957E-02
  -7.50000000       8.27260688E-02
  -7.48999977       8.50410908E-02
  -7.48000002       8.72628614E-02
  -7.46999979       8.93923491E-02
  -7.46000004       9.14321840E-02
  -7.44999981       9.33878347E-02
  -7.44000006       9.52680483E-02