  -16.0000000       0.00000000    
  -15.9899998       0.00000000    
  -15.9799995       0.00000000    
  -15.9700003       0.00000000    
  -15.9600000       0.00000000    
  -15.9499998       0.00000000    
  -15.9399996       0.00000000    
  -15.9300003       0.00000000    
  -15.9200001       0.00000000    
  -15.9099998       0.00000000    
  -15.8999996       0.00000000    
  -15.8900003      -4.39018513E-38
  -15.8800001      -6.56324077E-37
  -15.8699999      -4.63579917E-36
  -15.8599997      -1.98289811E-35
  -15.8500004      -5.21847860E-35
  -15.8400002      -5.16846499E-35
  -15.8299999       2.76467340E-34
  -15.8199997       2.05781012E-33
  -15.8100004       9.33473656E-33
  -15.8000002       3.66952720E-32
  -15.7900000       1.33184051E-31
  -15.7799997       4.41326047E-31
  -15.7700005       1.30438900E-30
  -15.7600002       3.38127245E-30
  -15.7500000       7.59047735E-30
  -15.7399998       1.45087254E-29
  -15.7299995       2.27850603E-29
  -15.7200003       2.65847846E-29
  -15.7100000       1.34125914E-29
  -15.6999998      -3.43967357E-29
  -15.6899996      -1.30384867E-28
  -15.6800003      -2.66123266E-28
  -15.6700001      -3.94209885E-28
  -15.6599998      -4.35534709E-28
  -15.6499996      -3.38656460E-28
  -15.6400003      -1.90406787E-28
  -15.6300001      -2.96783060E-28
  -15.6199999      -1.04212281E-27
  -15.6099997      -2.28883196E-27
  -15.6000004      -2.27471759E-27
  -15.5900002       3.43240198E-27
  -15.5799999       2.14008057E-26
  -15.5699997       5.59151451E-26
  -15.5600004       9.89277736E-26
  -15.5500002       1.16043079E-25
  -15.5400000       3.72020578E-26
  -15.5299997      -2.30406327E-25
  -15.5200005      -7.44967797E-25
  -15.5100002      -1.41578070E-24
  -15.5000000      -1.85517622E-24
  -15.4899998      -1.28389942E-24
  -15.4799995       1.34793166E-24
  -15.4700003       6.82720538E-24
  -15.4600000       1.46209799E-23
  -15.4499998       2.14779672E-23
  -15.4399996       2.03894180E-23
  -15.4300003       1.22413828E-24
  -15.4200001      -4.53113279E-23
  -15.4099998      -1.19278684E-22
  -15.3999996      -1.99636512E-22
  -15.3900003      -2.33670066E-22
  -15.3800001      -1.37265736E-22
  -15.3699999       1.81192199E-22
  -15.3599997       7.62976221E-22
  -15.3500004       1.50968873E-21
  -15.3400002       2.09038759E-21
  -15.3299999       1.90692939E-21
  -15.3199997       2.06637659E-22
  -15.3100004      -3.57402650E-21
  -15.3000002      -9.22021797E-21
  -15.2900000      -1.50410193E-20
  -15.2799997      -1.74164914E-20
  -15.2700005      -1.11425098E-20
  -15.2600002       8.83949921E-21
  -15.2500000       4.40576718E-20
  -15.2399998       8.80010570E-20
  -15.2299995       1.22250134E-19
  -15.2200003       1.16286149E-19
  -15.2100000       3.45779300E-20
  -15.1999998      -1.46620878E-19
  -15.1899996      -4.14047711E-19
  -15.1800003      -6.91316766E-19
  -15.1700001      -8.26652354E-19
  -15.1599998      -6.13863657E-19
  -15.1499996       1.36860949E-19
  -15.1400003       1.47663589E-18
  -15.1300001       3.17050450E-18
  -15.1199999       4.58751638E-18
  -15.1099997       4.72041329E-18
  -15.1000004       2.42853135E-18
  -15.0900002      -3.05179788E-18
  -15.0799999      -1.13969284E-17
  -15.0699997      -2.05131925E-17
  -15.0600004      -2.62667167E-17
  -15.0500002      -2.30785988E-17
  -15.0400000      -5.71631972E-18
  -15.0299997       2.77710604E-17
  -15.0200005       7.26539797E-17
  -15.0100002       1.15057700E-16
  -15.0000000       1.32329059E-16
  -14.9899998       9.80136763E-17
  -14.9799995      -7.86394156E-18
  -14.9700003      -1.84679520E-16
  -14.9600000      -3.97547952E-16
  -14.9499998      -5.70999098E-16
  -14.9399996      -5.97765074E-16
  -14.9300003      -3.68181214E-16
  -14.9200001       1.80569266E-16
  -14.9099998       1.00590329E-15
  -14.8999996       1.91323673E-15
  -14.8900003       2.54985949E-15
  -14.8800001       2.46628910E-15
  -14.8699999       1.25736355E-15
  -14.8599997      -1.23328844E-15
  -14.8500004      -4.69927399E-15
  -14.8400002      -8.23627987E-15
  -14.8299999      -1.03885144E-14
  -14.8199997      -9.45706695E-15
  -14.8100004      -4.08109325E-15
  -14.8000002       6.00773576E-15
  -14.7900000       1.92827220E-14
  -14.7799997       3.20917541E-14
  -14.7700005       3.90276123E-14
  -14.7600002       3.42040273E-14
  -14.7500000       1.33730824E-14
  -14.7399998      -2.35542973E-14
  -14.7299995      -7.03974232E-14
  -14.7200003      -1.14041304E-13
  -14.7100000      -1.36168136E-13
  -14.6999998      -1.17830780E-13
  -14.6899996      -4.64066109E-14
  -14.6800003       7.66633529E-14
  -14.6700001       2.29955080E-13
  -14.6599998       3.71016504E-13
  -14.6499996       4.42718209E-13
  -14.6400003       3.87814591E-13
  -14.6300001       1.69798285E-13
  -14.6199999      -2.04993466E-13
  -14.6099997      -6.71581822E-13
  -14.6000004      -1.10514798E-12
  -14.5900002      -1.34071270E-12
  -14.5799999      -1.21489895E-12
  -14.5699997      -6.23547383E-13
  -14.5600004       4.19013267E-13
  -14.5500002       1.73913238E-12
  -14.5400000       3.00243142E-12
  -14.5299997       3.76672651E-12
  -14.5200005       3.59075139E-12
  -14.5100002       2.18157090E-12
  -14.5000000      -4.55433163E-13
  -14.4899998      -3.91327509E-12
  -14.4799995      -7.37676326E-12
  -14.4700003      -9.74694544E-12
  -14.4600000      -9.89871206E-12
  -14.4499998      -7.03081300E-12
  -14.4399996      -1.02472262E-12
  -14.4300003       7.29968603E-12
  -14.4200001       1.61444226E-11
  -14.4099998       2.29871504E-11
  -14.3999996       2.51357841E-11
  -14.3900003       2.04990972E-11
  -14.3800001       8.39720654E-12
  -14.3699999      -9.82511641E-12
  -14.3599997      -3.06235419E-11
  -14.3500004      -4.86894275E-11
  -14.3400002      -5.80276383E-11
  -14.3299999      -5.35241886E-11
  -14.3199997      -3.26663453E-11
  -14.3100004       3.05217158E-12
  -14.3000002       4.75292236E-11
  -14.2900000       9.06269712E-11
  -14.2799997       1.20037216E-10
  -14.2700005       1.24211016E-10
  -14.2600002       9.57673454E-11
  -14.2500000       3.45261007E-11
  -14.2399998      -5.07707695E-11
  -14.2299995      -1.42821935E-10
  -14.2200003      -2.18566748E-10
  -14.2100000      -2.54172350E-10
  -14.1999998      -2.31300340E-10
  -14.1899996      -1.43205600E-10
  -14.1800003       1.02519794E-12
  -14.1700001       1.75619755E-10
  -14.1599998       3.41555367E-10
  -14.1499996       4.54205007E-10
  -14.1400003       4.73965256E-10
  -14.1300001       3.77605669E-10
  -14.1199999       1.67459532E-10
  -14.1099997      -1.24380131E-10
  -14.1000004      -4.38888731E-10
  -14.0900002      -7.00497993E-10
  -14.0799999      -8.33668523E-10
  -14.0699997      -7.82396148E-10
  -14.0600004      -5.28046828E-10
  -14.0500002      -1.00561566E-10
  -14.0400000       4.21052443E-10
  -14.0299997       9.20883592E-10
  -14.0200005       1.26988042E-09
  -14.0100002       1.35691869E-09
  -14.0000000       1.12023946E-09
  -13.9899998       5.71076575E-10
  -13.9799995      -1.97966837E-10
  -13.9700003      -1.02441278E-09
  -13.9600000      -1.70736048E-09
  -13.9499998      -2.05371831E-09
  -13.9399996      -1.92930805E-09
  -13.9300003      -1.30211208E-09
  -13.9200001      -2.65104994E-10
  -13.9099998       9.70367675E-10
  -13.8999996       2.11316098E-09
  -13.8900003       2.85723267E-09
  -13.8800001       2.95940272E-09
  -13.8699999       2.31117769E-09
  -13.8599997       9.84825776E-10
  -13.8500004      -7.61975316E-10
  -13.8400002      -2.52957433E-09
  -13.8299999      -3.86264309E-09
  -13.8199997      -4.36191439E-09
  -13.8100004      -3.79499898E-09
  -13.8000002      -2.17689866E-09
  -13.7900000       2.04674347E-10
  -13.7799997       2.83224733E-09
  -13.7700005       5.06626918E-09
  -13.7600002       6.29632479E-09
  -13.7500000       6.10084649E-09
  -13.7399998       4.37428360E-09
  -13.7299995       1.38514966E-09
  -13.7200003      -2.25696439E-09
  -13.7100000      -5.72529801E-09
  -13.6999998      -8.16647372E-09
  -13.6899996      -8.91359697E-09
  -13.6800003      -7.66796049E-09
  -13.6700001      -4.59919081E-09
  -13.6599998      -3.31413674E-10
  -13.6499996       4.18924406E-09
  -13.6400003       7.91887533E-09
  -13.6300001       9.97818450E-09
  -13.6199999       9.88512916E-09
  -13.6099997       7.69297959E-09
  -13.6000004       3.99014288E-09
  -13.5900002      -2.47133952E-10
  -13.5799999      -3.91765553E-09
  -13.5699997      -6.10744744E-09
  -13.5600004      -6.36528430E-09
  -13.5500002      -4.85859530E-09
  -13.5400000      -2.35317921E-09
  -13.5299997      -5.52385394E-12
  -13.5200005       9.90462601E-10
  -13.5100002      -1.86933885E-10
  -13.5000000      -3.63779251E-09
  -13.4899998      -8.56564419E-09
  -13.4799995      -1.33564066E-08
  -13.4700003      -1.59285953E-08
  -13.4600000      -1.42968766E-08
  -13.4499998      -7.22151317E-09
  -13.4399996       5.22814281E-09
  -13.4300003       2.13711235E-08
  -13.4200001       3.80043303E-08
  -13.4099998       5.09292946E-08
  -13.3999996       5.58506343E-08
  -13.3900003       4.94714882E-08
  -13.3800001       3.05324619E-08
  -13.3699999       5.16971244E-10
  -13.3599997      -3.62085721E-08
  -13.3500004      -7.29403666E-08
  -13.3400002      -1.01831837E-07
  -13.3299999      -1.15533226E-07
  -13.3199997      -1.08934643E-07
  -13.3100004      -8.06043161E-08
  -13.3000002      -3.35412480E-08
  -13.2900000       2.50122323E-08
  -13.2799997       8.47488479E-08
  -13.2700005       1.34280526E-07
  -13.2600002       1.63528512E-07
  -13.2500000       1.65986307E-07
  -13.2399998       1.40309695E-07
  -13.2299995       9.08101327E-08
  -13.2200003       2.66672231E-08
  -13.2100000      -4.00202396E-08
  -13.1999998      -9.69295044E-08
  -13.1899996      -1.34326655E-07
  -13.1800003      -1.47300781E-07
  -13.1700001      -1.36829755E-07
  -13.1599998      -1.09352698E-07
  -13.1499996      -7.48933360E-08
  -13.1400003      -4.41620251E-08
  -13.1300001      -2.53635069E-08
  -13.1199999      -2.15703473E-08
  -13.1099997      -2.94360412E-08
  -13.1000004      -3.97266149E-08
  -13.0900002      -3.97008577E-08
  -13.0799999      -1.68727574E-08
  -13.0699997       3.67309134E-08
  -13.0600004       1.20934217E-07
  -13.0500002       2.25474849E-07
  -13.0400000       3.30525097E-07
  -13.0299997       4.09882318E-07
  -13.0200005       4.36385903E-07
  -13.0100002       3.88504020E-07
  -13.0000000       2.56621320E-07
  -12.9899998       4.74648765E-08
  -12.9799995      -2.14619192E-07
  -12.9700003      -4.90215484E-07
  -12.9600000      -7.31063608E-07
  -12.9499998      -8.88940860E-07
  -12.9399996      -9.25484528E-07
  -12.9300003      -8.20876778E-07
  -12.9200001      -5.79406787E-07
  -12.9099998      -2.30476431E-07
  -12.8999996       1.75462390E-07
  -12.8900003       5.75462138E-07
  -12.8800001       9.05527713E-07
  -12.8699999       1.11264342E-06
  -12.8599997       1.16484716E-06
  -12.8500004       1.05716811E-06
  -12.8400002       8.12101916E-07
  -12.8299999       4.74495351E-07
  -12.8199997       1.01967423E-07
  -12.8100004      -2.46975645E-07
  -12.8000002      -5.24437837E-07
  -12.7900000      -7.01635713E-07
  -12.7799997      -7.72524118E-07
  -12.7700005      -7.51860455E-07
  -12.7600002      -6.68398627E-07
  -12.7500000      -5.55155623E-07
  -12.7399998      -4.39441266E-07
  -12.7299995      -3.35429121E-07
  -12.7200003      -2.41399732E-07
  -12.7100000      -1.42531306E-07
  -12.6999998      -1.85792999E-08
  -12.6899996       1.45663719E-07
  -12.6800003       3.50194739E-07
  -12.6700001       5.73169871E-07
  -12.6599998       7.70387828E-07
  -12.6499996       8.82015740E-07
  -12.6400003       8.45805801E-07
  -12.6300001       6.14194676E-07
  -12.6199999       1.71319783E-07
  -12.6099997      -4.54479363E-07
  -12.6000004      -1.18649859E-06
  -12.5900002      -1.90604953E-06
  -12.5799999      -2.46928630E-06
  -12.5699997      -2.73192086E-06
  -12.5600004      -2.57722081E-06
  -12.5500002      -1.94158497E-06
  -12.5400000      -8.32152011E-07
  -12.5299997       6.67666370E-07
  -12.5200005       2.40636678E-06
  -12.5100002       4.18498576E-06
  -12.5000000       5.78618119E-06
  -12.4899998       7.00589635E-06
  -12.4799995       7.68118935E-06
  -12.4700003       7.70872339E-06
  -12.4600000       7.05064031E-06
  -12.4499998       5.72750014E-06
  -12.4399996       3.80105007E-06
  -12.4300003       1.35193613E-06
  -12.4200001      -1.54141492E-06
  -12.4099998      -4.81701363E-06
  -12.3999996      -8.43279759E-06
  -12.3900003      -1.23585733E-05
  -12.3800001      -1.65587535E-05
  -12.3699999      -2.09710179E-05
  -12.3599997      -2.54873648E-05
  -12.3500004      -2.99438780E-05
  -12.3400002      -3.41236155E-05
  -12.3299999      -3.77739307E-05
  -12.3199997      -4.06357758E-05
  -12.3100004      -4.24795144E-05
  -12.3000002      -4.31395019E-05
  -12.2900000      -4.25395228E-05
  -12.2799997      -4.07029584E-05
  -12.2700005      -3.77445285E-05
  -12.2600002      -3.38447244E-05
  -12.2500000      -2.92120621E-05
  -12.2399998      -2.40411155E-05
  -12.2299995      -1.84755754E-05
  -12.2200003      -1.25847528E-05
  -12.2100000      -6.35896231E-06
  -12.1999998       2.74745503E-07
  -12.1899996       7.41965641E-06
  -12.1800003       1.51663289E-05
  -12.1700001       2.35488424E-05
  -12.1599998       3.25101573E-05
  -12.1499996       4.18845739E-05
  -12.1400003       5.14017083E-05
  -12.1300001       6.07118673E-05
  -12.1199999       6.94280970E-05
  -12.1099997       7.71767445E-05
  -12.1000004       8.36464678E-05
  -12.0900002       8.86260896E-05
  -12.0799999       9.20240855E-05
  -12.0699997       9.38662997E-05
  -12.0600004       9.42732731E-05
  -12.0500002       9.34226773E-05
  -12.0400000       9.15051787E-05
  -12.0299997       8.86834096E-05
  -12.0200005       8.50625729E-05
  -12.0100002       8.06784083E-05
  -12.0000000       7.55042129E-05
  -11.9899998       6.94739792E-05
  -11.9799995       6.25160174E-05
  -11.9700003       5.45881194E-05
  -11.9600000       4.57058995E-05
  -11.9499998       3.59577716E-05
  -11.9399996       2.55029081E-05
  -11.9300003       1.45530094E-05
  -11.9200001       3.34233937E-06
  -11.9099998      -7.90655031E-06
  -11.8999996      -1.90132014E-05
  -11.8900003      -2.98583818E-05
  -11.8800001      -4.03873673E-05
  -11.8699999      -5.05965836E-05
  -11.8599997      -6.05069072E-05
  -11.8500004      -7.01300378E-05
  -11.8400002      -7.94363586E-05
  -11.8299999      -8.83322064E-05
  -11.8199997      -9.66525186E-05
  -11.8100004      -1.04171617E-04
  -11.8000002      -1.10630273E-04
  -11.7900000      -1.15773990E-04
  -11.7799997      -1.19394499E-04
  -11.7700005      -1.21366123E-04
  -11.7600002      -1.21669240E-04
  -11.7500000      -1.20396347E-04
  -11.7399998      -1.17739517E-04
  -11.7299995      -1.13962058E-04
  -11.7200003      -1.09360117E-04
  -11.7100000      -1.04221654E-04
  -11.6999998      -9.87900567E-05
  -11.6899996      -9.32382754E-05
  -11.6800003      -8.76563208E-05
  -11.6700001      -8.20521527E-05
  -11.6599998      -7.63633507E-05
  -11.6499996      -7.04752092E-05
  -11.6400003      -6.42403902E-05
  -11.6300001      -5.74971236E-05
  -11.6199999      -5.00834940E-05
  -11.6099997      -4.18484306E-05
  -11.6000004      -3.26611298E-05
  -11.5900002      -2.24210635E-05
  -11.5799999      -1.10704905E-05
  -11.5699997       1.39037047E-06
  -11.5600004       1.48874733E-05
  -11.5500002       2.92600416E-05
  -11.5400000       4.42550227E-05
  -11.5299997       5.95329038E-05
  -11.5200005       7.46869264E-05
  -11.5100002       8.92748794E-05
  -11.5000000       1.02859187E-04
  -11.4899998       1.15048875E-04
  -11.4799995       1.25535793E-04
  -11.4700003       1.34117974E-04
  -11.4600000       1.40706237E-04
  -11.4499998       1.45313272E-04
  -11.4399996       1.48029110E-04
  -11.4300003       1.48989842E-04
  -11.4200001       1.48347433E-04
  -11.4099998       1.46249018E-04
  -11.3999996       1.42829551E-04
  -11.3900003       1.38219126E-04
  -11.3800001       1.32560555E-04
  -11.3699999       1.26030776E-04
  -11.3599997       1.18856944E-04
  -11.3500004       1.11320340E-04
  -11.3400002       1.03743630E-04
  -11.3299999       9.64617211E-05
  -11.3199997       8.97813516E-05
  -11.3100004       8.39379427E-05
  -11.3000002       7.90593767E-05
  -11.2900000       7.51456682E-05
  -11.2799997       7.20694079E-05
  -11.2700005       6.95978451E-05
  -11.2600002       6.74319817E-05
  -11.2500000       6.52542876E-05
  -11.2399998       6.27754343E-05
  -11.2299995       5.97705875E-05
  -11.2200003       5.60992667E-05
  -11.2100000       5.17068365E-05
  -11.1999998       4.66103957E-05
  -11.1899996       4.08750820E-05
  -11.1800003       3.45889166E-05
  -11.1700001       2.78431671E-05
  -11.1599998       2.07233788E-05
  -11.1499996       1.33120939E-05
  -11.1400003       5.70109069E-06
  -11.1300001      -1.99264036E-06
  -11.1199999      -9.61308160E-06
  -11.1099997      -1.69595387E-05
  -11.1000004      -2.37923505E-05
  -11.0900002      -2.98501036E-05
  -11.0799999      -3.48750582E-05
  -11.0699997      -3.86415340E-05
  -11.0600004      -4.09809109E-05
  -11.0500002      -4.17982592E-05
  -11.0400000      -4.10773246E-05
  -11.0299997      -3.88737499E-05
  -11.0200005      -3.52992938E-05
  -11.0100002      -3.05012018E-05
  -11.0000000      -2.46416585E-05
  -10.9899998      -1.78816190E-05
  -10.9799995      -1.03712409E-05
  -10.9700003      -2.24766268E-06
  -10.9600000       6.36144250E-06
  -10.9499998       1.53304918E-05
  -10.9399996       2.45273932E-05
  -10.9300003       3.38054051E-05
  -10.9200001       4.29966458E-05
  -10.9099998       5.19078421E-05
  -10.8999996       6.03185654E-05
  -10.8900003       6.79832228E-05
  -10.8800001       7.46377700E-05
  -10.8699999       8.00130292E-05
  -10.8599997       8.38555497E-05
  -10.8500004       8.59552747E-05
  -10.8400002       8.61772642E-05
  -10.8299999       8.44915121E-05
  -10.8199997       8.09939593E-05
  -10.8100004       7.59108152E-05
  -10.8000002       6.95812778E-05
  -10.7900000       6.24170352E-05
  -10.7799997       5.48434436E-05
  -10.7700005       4.72319371E-05
  -10.7600002       3.98377742E-05
  -10.7500000       3.27577400E-05
  -10.7399998       2.59193748E-05
  -10.7299995       1.91076906E-05
  -10.7200003       1.20261166E-05
  -10.7100000       4.38066172E-06
  -10.6999998      -4.03061267E-06
  -10.6899996      -1.32428422E-05
  -10.6800003      -2.30821897E-05
  -10.6700001      -3.31671727E-05
  -10.6599998      -4.29547144E-05
  -10.6499996      -5.18220950E-05
  -10.6400003      -5.91673124E-05
  -10.6300001      -6.45065957E-05
  -10.6199999      -6.75483898E-05
  -10.6099997      -6.82290483E-05
  -10.6000004      -6.67046479E-05
  -10.5900002      -6.33029704E-05
  -10.5799999      -5.84490008E-05
  -10.5699997      -5.25818978E-05
  -10.5600004      -4.60822885E-05
  -10.5500002      -3.92245311E-05
  -10.5400000      -3.21618099E-05
  -10.5299997      -2.49431214E-05
  -10.5200005      -1.75537225E-05
  -10.5100002      -9.96586641E-06
  -10.5000000      -2.18510604E-06
  -10.4899998       5.71995133E-06
  -10.4799995       1.36111112E-05
  -10.4700003       2.12980740E-05
  -10.4600000       2.85734131E-05
  -10.4499998       3.52558127E-05
  -10.4399996       4.12292502E-05
  -10.4300003       4.64686527E-05
  -10.4200001       5.10456302E-05
  -10.4099998       5.51133271E-05
  -10.3999996       5.88742951E-05
  -10.3900003       6.25388420E-05
  -10.3800001       6.62834791E-05
  -10.3699999       7.02178950E-05
  -10.3599997       7.43668352E-05
  -10.3500004       7.86691235E-05
  -10.3400002       8.29931087E-05
  -10.3299999       8.71636294E-05
  -10.3199997       9.09947921E-05
  -10.3100004       9.43220075E-05
  -10.3000002       9.70274559E-05
  -10.2900000       9.90551562E-05
  -10.2799997       1.00413781E-04
  -10.2700005       1.01166421E-04
  -10.2600002       1.01409554E-04
  -10.2500000       1.01243524E-04
  -10.2399998       1.00738987E-04
  -10.2299995       9.99051699E-05
  -10.2200003       9.86658924E-05
  -10.2100000       9.68508539E-05
  -10.1999998       9.42072220E-05
  -10.1899996       9.04346816E-05
  -10.1800003       8.52425292E-05
  -10.1700001       7.84210424E-05
  -10.1599998       6.99150041E-05
  -10.1499996       5.98827064E-05
  -10.1400003       4.87244724E-05
  -10.1300001       3.70676025E-05
  -10.1199999       2.57038100E-05
  -10.1099997       1.54846039E-05
  -10.1000004       7.19174977E-06
  -10.0900002       1.40741940E-06
  -10.0799999      -1.58855471E-06
  -10.0699997      -1.87042383E-06
  -10.0600004       1.45765185E-07
  -10.0500002       3.77851484E-06
  -10.0400000       8.20621972E-06
  -10.0299997       1.26147579E-05
  -10.0200005       1.63365330E-05
  -10.0100002       1.89518651E-05
  -10.0000000       2.03343461E-05
  -9.98999977       2.06349960E-05
  -9.97999954       2.02156461E-05
  -9.97000027       1.95523317E-05
  -9.96000004       1.91344134E-05
  -9.94999981       1.93840351E-05
  -9.93999958       2.06092664E-05
  -9.93000031       2.29961497E-05
  -9.92000008       2.66308198E-05
  -9.90999985       3.15368852E-05
  -9.89999962       3.77106589E-05
  -9.89000034       4.51409505E-05
  -9.88000011       5.38073473E-05
  -9.86999989       6.36592958E-05
  -9.85999966       7.45859361E-05
  -9.85000038       8.63895257E-05
  -9.84000015       9.87737803E-05
  -9.82999992       1.11354799E-04
  -9.81999969       1.23693826E-04
  -9.81000042       1.35346883E-04
  -9.80000019       1.45920741E-04
  -9.78999996       1.55123591E-04
  -9.77999973       1.62801240E-04
  -9.77000046       1.68951359E-04
  -9.76000023       1.73714812E-04
  -9.75000000       1.77344191E-04
  -9.73999977       1.80155796E-04
  -9.72999954       1.82471034E-04
  -9.72000027       1.84557168E-04
  -9.71000004       1.86574907E-04
  -9.69999981       1.88544524E-04
  -9.68999958       1.90336170E-04
  -9.68000031       1.91689338E-04
  -9.67000008       1.92260675E-04
  -9.65999985       1.91692496E-04
  -9.64999962       1.89689701E-04
  -9.64000034       1.86087578E-04
  -9.63000011       1.80896197E-04
  -9.61999989       1.74308778E-04
  -9.60999966       1.66672733E-04
  -9.60000038       1.58429873E-04
  -9.59000015       1.50042295E-04
  -9.57999992       1.41923680E-04
  -9.56999969       1.34393587E-04
  -9.56000042       1.27665407E-04
  -9.55000019       1.21866273E-04
  -9.53999996       1.17077900E-04
  -9.52999973       1.13377959E-04
  -9.52000046       1.10863912E-04
  -9.51000023       1.09645887E-04
  -9.50000000       1.09808127E-04
  -9.48999977       1.11351073E-04
  -9.47999954       1.14135662E-04
  -9.47000027       1.17852607E-04
  -9.46000004       1.22034638E-04
  -9.44999981       1.26115818E-04
  -9.43999958       1.29527805E-04
  -9.43000031       1.31808789E-04
  -9.42000008       1.32697154E-04
  -9.40999985       1.32182890E-04
  -9.39999962       1.30504239E-04
  -9.39000034       1.28090003E-04
  -9.38000011       1.25464634E-04
  -9.36999989       1.23141959E-04
  -9.35999966       1.21533340E-04
  -9.35000038       1.20890247E-04
  -9.34000015       1.21287499E-04
  -9.32999992       1.22640689E-04
  -9.31999969       1.24744736E-04
  -9.31000042       1.27315987E-04
  -9.30000019       1.30027547E-04
  -9.28999996       1.32535657E-04
  -9.27999973       1.34501490E-04
  -9.27000046       1.35618175E-04
  -9.26000023       1.35649039E-04
  -9.25000000       1.34475180E-04
  -9.23999977       1.32141940E-04
  -9.22999954       1.28885164E-04
  -9.22000027       1.25121718E-04
  -9.21000004       1.21393437E-04
  -9.19999981       1.18271826E-04
  -9.18999958       1.16241776E-04
  -9.18000031       1.15597199E-04
  -9.17000008       1.16379291E-04
  -9.15999985       1.18378608E-04
  -9.14999962       1.21204983E-04
  -9.14000034       1.24405618E-04
  -9.13000011       1.27598774E-04
  -9.11999989       1.30580171E-04
  -9.10999966       1.33373513E-04
  -9.10000038       1.36208153E-04
  -9.09000015       1.39436641E-04
  -9.07999992       1.43420039E-04
  -9.06999969       1.48421837E-04
  -9.06000042       1.54545545E-04
  -9.05000019       1.61734002E-04
  -9.03999996       1.69826279E-04
  -9.02999973       1.78645831E-04
  -9.02000046       1.88084436E-04
  -9.01000023       1.98146226E-04
  -9.00000000       2.08933678E-04
  -8.98999977       2.20579997E-04
  -8.97999954       2.33151441E-04
  -8.97000027       2.46557611E-04
  -8.96000004       2.60504457E-04
  -8.94999981       2.74508377E-04
  -8.93999958       2.87971023E-04
  -8.93000031       3.00288928E-04
  -8.92000008       3.10961652E-04
  -8.90999985       3.19663523E-04
  -8.89999962       3.26258451E-04
  -8.89000034       3.30757088E-04
  -8.88000011       3.33240168E-04
  -8.86999989       3.33780743E-04
  -8.85999966       3.32397787E-04
  -8.85000038       3.29058588E-04
  -8.84000015       3.23727174E-04
  -8.82999992       3.16434656E-04
  -8.81999969       3.07338400E-04
  -8.81000042       2.96739803E-04
  -8.80000019       2.85049173E-04
  -8.78999996       2.72704841E-04
  -8.77999973       2.60078552E-04
  -8.77000046       2.47403921E-04
  -8.76000023       2.34760926E-04
  -8.75000000       2.22127201E-04
  -8.73999977       2.09482925E-04
  -8.72999954       1.96930370E-04
  -8.72000027       1.84782577E-04
  -8.71000004       1.73580935E-04
  -8.69999981       1.64025638E-04
  -8.68999958       1.56836075E-04
  -8.68000031       1.52580295E-04
  -8.67000008       1.51532673E-04
  -8.65999985       1.53608256E-04
  -8.64999962       1.58400799E-04
  -8.64000034       1.65313439E-04
  -8.63000011       1.73745299E-04
  -8.61999989       1.83271215E-04
  -8.60999966       1.93758649E-04
  -8.60000038       2.05383389E-04
  -8.59000015       2.18542220E-04
  -8.57999992       2.33693572E-04
  -8.56999969       2.51181511E-04
  -8.56000042       2.71102850E-04
  -8.55000019       2.93259509E-04
  -8.53999996       3.17207101E-04
  -8.52999973       3.42380372E-04
  -8.52000046       3.68247536E-04
  -8.51000023       3.94439994E-04
  -8.50000000       4.20813070E-04
  -8.48999977       4.47424100E-04
  -8.47999954       4.74436354E-04
  -8.47000027       5.01990435E-04
  -8.46000004       5.30087098E-04
  -8.44999981       5.58523403E-04
  -8.43999958       5.86898241E-04
  -8.43000031       6.14681281E-04
  -8.42000008       6.41320425E-04
  -8.40999985       6.66342385E-04
  -8.39999962       6.89423410E-04
  -8.39000034       7.10404944E-04
  -8.38000011       7.29259802E-04
  -8.36999989       7.46029138E-04
  -8.35999966       7.60751893E-04
  -8.35000038       7.73415493E-04
  -8.34000015       7.83934724E-04
  -8.32999992       7.92157080E-04
  -8.31999969       7.97887391E-04
  -8.31000042       8.00912443E-04
  -8.30000019       8.01021524E-04
  -8.28999996       7.98018591E-04
  -8.27999973       7.91737752E-04
  -8.27000046       7.82066316E-04
  -8.26000023       7.68981583E-04
  -8.25000000       7.52596883E-04
  -8.23999977       7.33198074E-04
  -8.22999954       7.11251050E-04
  -8.22000027       6.87367050E-04
  -8.21000004       6.62222854E-04
  -8.19999981       6.36448676E-04
  -8.18999958       6.10517222E-04
  -8.18000031       5.84665628E-04
  -8.17000008       5.58879867E-04
  -8.15999985       5.32951904E-04
  -8.14999962       5.06592449E-04
  -8.14000034       4.79568786E-04
  -8.13000011       4.51822008E-04
  -8.11999989       4.23528429E-04
  -8.10999966       3.95085866E-04
  -8.10000038       3.67035536E-04
  -8.09000015       3.39949736E-04
  -8.07999992       3.14330653E-04
  -8.06999969       2.90557364E-04
  -8.06000042       2.68899224E-04
  -8.05000019       2.49587989E-04
  -8.03999996       2.32915743E-04
  -8.02999973       2.19312802E-04
  -8.02000046       2.09367150E-04
  -8.01000023       2.03764546E-04
  -8.00000000       2.03158066E-04
  -7.98999977       2.08008307E-04
  -7.98000002       2.18439178E-04
  -7.96999979       2.34160761E-04
  -7.96000004       2.54483952E-04
  -7.94999981       2.78427382E-04
  -7.94000006       3.04884219E-04
  -7.92999983       3.32802389E-04
  -7.92000008       3.61330749E-04
  -7.90999985       3.89898312E-04
  -7.90000010       4.18217358E-04
  -7.88999987       4.46227234E-04
  -7.88000011       4.74010711E-04
  -7.86999989       5.01715927E-04
  -7.86000013       5.29502227E-04
  -7.84999990       5.57522115E-04
  -7.84000015       5.85918024E-04
  -7.82999992       6.14818477E-04
  -7.82000017       6.44314336E-04
  -7.80999994       6.74416020E-04
  -7.80000019       7.05001934E-04
  -7.78999996       7.35779060E-04
  -7.78000021       7.66284938E-04
  -7.76999998       7.95939937E-04
  -7.76000023       8.24141549E-04
  -7.75000000       8.50378128E-04
  -7.73999977       8.74321791E-04
  -7.73000002       8.95869976E-04
  -7.71999979       9.15120239E-04
  -7.71000004       9.32286785E-04
  -7.69999981       9.47585097E-04
  -7.69000006       9.61136131E-04
  -7.67999983       9.72920039E-04
  -7.67000008       9.82797937E-04
  -7.65999985       9.90596600E-04
  -7.65000010       9.96221672E-04
  -7.63999987       9.99750337E-04
  -7.63000011       1.00147410E-03
  -7.61999989       1.00186351E-03
  -7.61000013       1.00147829E-03
  -7.59999990       1.00084441E-03
  -7.59000015       1.00035674E-03
  -7.57999992       1.00023602E-03
  -7.57000017       1.00055814E-03
  -7.55999994       1.00133824E-03
  -7.55000019       1.00263115E-03
  -7.53999996       1.00460160E-03
  -7.53000021       1.00752478E-03
  -7.51999998       1.01171515E-03
  -7.51000023       1.01740495E-03
  -7.50000000       1.02461828E-03
  -7.48999977       1.03310100E-03
  -7.48000002       1.04234612E-03
  -7.46999979       1.05171220E-03
  -7.46000004       1.06061623E-03
  -7.44999981       1.06872513E-03
  -7.44000006       1.07609283E-03