  -16.0000000       0.00000000    
  -15.9899998       0.00000000    
  -15.9799995       0.00000000    
  -15.9700003       0.00000000    
  -15.9600000       0.00000000    
  -15.9499998       0.00000000    
  -15.9399996       0.00000000    
  -15.9300003       0.00000000    
  -15.9200001       0.00000000    
  -15.9099998       0.00000000    
  -15.8999996       0.00000000    
  -15.8900003       0.00000000    
  -15.8800001      -2.42592790E-41
  -15.8699999       1.86061327E-39
  -15.8599997       6.10526179E-38
  -15.8500004       9.49944040E-37
  -15.8400002       9.93454945E-36
  -15.8299999       7.84832406E-35
  -15.8199997       4.97369109E-34
  -15.8100004       2.62566224E-33
  -15.8000002       1.18533081E-32
  -15.7900000       4.66467691E-32
  -15.7799997       1.62341612E-31
  -15.7700005       5.05048374E-31
  -15.7600002       1.41544999E-30
  -15.7500000       3.59161672E-30
  -15.7399998       8.26894110E-30
  -15.7299995       1.72496036E-29
  -15.7200003       3.23909819E-29
  -15.7100000       5.38816759E-29
  -15.6999998       7.64738151E-29
  -15.6899996       8.31902069E-29
  -15.6800003       3.74688768E-29
  -15.6700001      -1.22203300E-28
  -15.6599998      -4.76432553E-28
  -15.6499996      -1.09434103E-27
  -15.6400003      -1.96385709E-27
  -15.6300001      -2.87790498E-27
  -15.6199999      -3.29893734E-27
  -15.6099997      -2.27357243E-27
  -15.6000004       1.46703082E-27
  -15.5900002       9.03721903E-27
  -15.5799999       2.04006333E-26
  -15.5699997       3.28816978E-26
  -15.5600004       3.96545586E-26
  -15.5500002       2.93598190E-26
  -15.5400000      -1.12862314E-26
  -15.5299997      -8.98516515E-26
  -15.5200005      -1.94809398E-25
  -15.5100002      -2.79634230E-25
  -15.5000000      -2.54433970E-25
  -15.4899998      -3.04141547E-27
  -15.4799995       5.53420438E-25
  -15.4700003       1.33712594E-24
  -15.4600000       1.96605417E-24
  -15.4499998       1.67117599E-24
  -15.4399996      -5.56453115E-25
  -15.4300003      -5.39997181E-24
  -15.4200001      -1.21583384E-23
  -15.4099998      -1.74594719E-23
  -15.3999996      -1.45678202E-23
  -15.3900003       5.31596404E-24
  -15.3800001       4.82574488E-23
  -15.3699999       1.08838281E-22
  -15.3599997       1.59763922E-22
  -15.3500004       1.46406033E-22
  -15.3400002      -3.11645614E-24
  -15.3299999      -3.41532343E-22
  -15.3199997      -8.37212449E-22
  -15.3100004      -1.29768210E-21
  -15.3000002      -1.32840541E-21
  -15.2900000      -3.98963740E-22
  -15.2799997       1.91283780E-21
  -15.2700005       5.48519176E-21
  -15.2600002       9.13934491E-21
  -15.2500000       1.03429864E-20
  -15.2399998       5.57411367E-21
  -15.2299995      -8.22663027E-21
  -15.2200003      -3.10261651E-20
  -15.2100000      -5.65425899E-20
  -15.1999998      -7.02246613E-20
  -15.1899996      -5.08733460E-20
  -15.1800003       2.16568906E-20
  -15.1700001       1.52018723E-19
  -15.1599998       3.11417603E-19
  -15.1499996       4.24671399E-19
  -15.1400003       3.75331755E-19
  -15.1300001       4.20072882E-20
  -15.1199999      -6.29247304E-19
  -15.1099997      -1.53020493E-18
  -15.1000004      -2.31308278E-18
  -15.0900002      -2.39346385E-18
  -15.0799999      -1.10043104E-18
  -15.0699997       1.99287124E-18
  -15.0600004       6.60646945E-18
  -15.0500002       1.13253227E-17
  -15.0400000       1.34864048E-17
  -15.0299997       9.70151006E-18
  -15.0200005      -2.78128686E-18
  -15.0100002      -2.39981821E-17
  -15.0000000      -4.90961439E-17
  -14.9899998      -6.72167958E-17
  -14.9799995      -6.28632516E-17
  -14.9700003      -2.08588100E-17
  -14.9600000       6.51535096E-17
  -14.9499998       1.82687126E-16
  -14.9399996       2.93150639E-16
  -14.9300003       3.33197218E-16
  -14.9200001       2.30068654E-16
  -14.9099998      -6.73068526E-17
  -14.8999996      -5.46708046E-16
  -14.8900003      -1.09472095E-15
  -14.8800001      -1.48439454E-15
  -14.8699999      -1.41173785E-15
  -14.8599997      -5.94991835E-16
  -14.8500004       1.07166884E-15
  -14.8400002       3.35075879E-15
  -14.8299999       5.55342541E-15
  -14.8199997       6.58053332E-15
  -14.8100004       5.18583555E-15
  -14.8000002       4.72547029E-16
  -14.7900000      -7.46991411E-15
  -14.7799997      -1.70032039E-14
  -14.7700005      -2.47573771E-14
  -14.7600002      -2.61357522E-14
  -14.7500000      -1.66743213E-14
  -14.7399998       5.87241801E-15
  -14.7299995       3.92475325E-14
  -14.7200003       7.51227287E-14
  -14.7100000       9.93347453E-14
  -14.6999998       9.48111489E-14
  -14.6899996       4.73561552E-14
  -14.6800003      -4.66891201E-14
  -14.6700001      -1.73222968E-13
  -14.6599998      -2.96918225E-13
  -14.6499996      -3.64916701E-13
  -14.6400003      -3.19770496E-13
  -14.6300001      -1.20851679E-13
  -14.6199999       2.30455086E-13
  -14.6099997       6.70327400E-13
  -14.6000004       1.06751337E-12
  -14.5900002       1.24319131E-12
  -14.5799999       1.01938380E-12
  -14.5699997       2.89845486E-13
  -14.5600004      -9.04484929E-13
  -14.5500002      -2.32321974E-12
  -14.5400000      -3.52839416E-12
  -14.5299997      -3.96376248E-12
  -14.5200005      -3.11464244E-12
  -14.5100002      -7.21607724E-13
  -14.5000000       3.01068849E-12
  -14.4899998       7.29101675E-12
  -14.4799995       1.07873545E-11
  -14.4700003       1.18928036E-11
  -14.4600000       9.20164986E-12
  -14.4499998       2.10337000E-12
  -14.4399996      -8.67749102E-12
  -14.4300003      -2.08133007E-11
  -14.4200001      -3.05788450E-11
  -14.4099998      -3.36346333E-11
  -14.3999996      -2.63225882E-11
  -14.3900003      -7.20090437E-12
  -14.3800001       2.16380299E-11
  -14.3699999       5.40069552E-11
  -14.3599997       8.02815592E-11
  -14.3500004       8.94699037E-11
  -14.3400002       7.24595800E-11
  -14.3299999       2.57254894E-11
  -14.3199997      -4.56126976E-11
  -14.3100004      -1.26629512E-10
  -14.3000002      -1.94324848E-10
  -14.2900000      -2.22577845E-10
  -14.2799997      -1.89671723E-10
  -14.2700005      -8.66875183E-11
  -14.2600002       7.57307272E-11
  -14.2500000       2.64927386E-10
  -14.2399998       4.30139507E-10
  -14.2299995       5.13294740E-10
  -14.2200003       4.65156302E-10
  -14.2100000       2.63131156E-10
  -14.1999998      -7.44744058E-11
  -14.1899996      -4.83158624E-10
  -14.1800003      -8.59874283E-10
  -14.1700001      -1.08448939E-09
  -14.1599998      -1.05183739E-09
  -14.1499996      -7.07010228E-10
  -14.1400003      -7.38630337E-11
  -14.1300001       7.33573591E-10
  -14.1199999       1.52408375E-09
  -14.1099997       2.06815631E-09
  -14.1000004       2.15671037E-09
  -14.0900002       1.66621072E-09
  -14.0799999       6.12206452E-10
  -14.0699997      -8.27028779E-10
  -14.0600004      -2.32947928E-09
  -14.0500002      -3.49363893E-09
  -14.0400000      -3.93761379E-09
  -14.0299997      -3.41047812E-09
  -14.0200005      -1.88573823E-09
  -14.0100002       3.93270111E-10
  -14.0000000       2.93708391E-09
  -13.9899998       5.10731235E-09
  -13.9799995       6.27090690E-09
  -13.9700003       5.97600280E-09
  -13.9600000       4.10238910E-09
  -13.9499998       9.39897604E-10
  -13.9399996      -2.83744050E-09
  -13.9300003      -6.30833163E-09
  -13.9200001      -8.52760706E-09
  -13.9099998      -8.78366713E-09
  -13.8999996      -6.82088652E-09
  -13.8900003      -2.95937630E-09
  -13.8800001       1.93387573E-09
  -13.8699999       6.63142474E-09
  -13.8599997       9.85364323E-09
  -13.8500004       1.06239915E-08
  -13.8400002       8.57411386E-09
  -13.8299999       4.10570022E-09
  -13.8199997      -1.65340897E-09
  -13.8100004      -7.10808790E-09
  -13.8000002      -1.06178835E-08
  -13.7900000      -1.09768683E-08
  -13.7799997      -7.81762477E-09
  -13.7700005      -1.81268112E-09
  -13.7600002       5.40850564E-09
  -13.7500000       1.16360965E-08
  -13.7399998       1.46744119E-08
  -13.7299995       1.30073410E-08
  -13.7200003       6.34998898E-09
  -13.7100000      -4.08800505E-09
  -13.6999998      -1.57390634E-08
  -13.6899996      -2.52263881E-08
  -13.6800003      -2.92208888E-08
  -13.6700001      -2.54038799E-08
  -13.6599998      -1.32787852E-08
  -13.6499996       5.41282796E-09
  -13.6400003       2.68346430E-08
  -13.6300001       4.57883012E-08
  -13.6199999       5.69073393E-08
  -13.6099997       5.60459092E-08
  -13.6000004       4.15131396E-08
  -13.5900002       1.48108983E-08
  -13.5799999      -1.93723686E-08
  -13.5699997      -5.39855414E-08
  -13.5600004      -8.11207954E-08
  -13.5500002      -9.38739788E-08
  -13.5400000      -8.81104825E-08
  -13.5299997      -6.36723101E-08
  -13.5200005      -2.46750798E-08
  -13.5100002       2.12489617E-08
  -13.5000000       6.46332197E-08
  -13.4899998       9.64032481E-08
  -13.4799995       1.10094838E-07
  -13.4700003       1.03473354E-07
  -13.4600000       7.90930059E-08
  -13.4499998       4.35873062E-08
  -13.4399996       5.82666271E-09
  -13.4300003      -2.55953161E-08
  -13.4200001      -4.48620554E-08
  -13.4099998      -5.06831270E-08
  -13.3999996      -4.67127208E-08
  -13.3900003      -4.03956619E-08
  -13.3800001      -4.04411189E-08
  -13.3699999      -5.35575673E-08
  -13.3599997      -8.13808327E-08
  -13.3500004      -1.18587337E-07
  -13.3400002      -1.52975758E-07
  -13.3299999      -1.67824894E-07
  -13.3199997      -1.46225574E-07
  -13.3100004      -7.64610775E-08
  -13.3000002       4.29272085E-08
  -13.2900000       1.99881214E-07
  -13.2799997       3.68608312E-07
  -13.2700005       5.13000259E-07
  -13.2600002       5.93430912E-07
  -13.2500000       5.75731747E-07
  -13.2399998       4.40443273E-07
  -13.2299995       1.90088912E-07
  -13.2200003      -1.47563583E-07
  -13.2100000      -5.21587026E-07
  -13.1999998      -8.65507616E-07
  -13.1899996      -1.10934252E-06
  -13.1800003      -1.19379411E-06
  -13.1700001      -1.08364111E-06
  -13.1599998      -7.77232060E-07
  -13.1499996      -3.09709748E-07
  -13.1400003       2.51232365E-07
  -13.1300001       8.16580268E-07
  -13.1199999       1.29216517E-06
  -13.1099997       1.59647516E-06
  -13.1000004       1.67633607E-06
  -13.0900002       1.51697157E-06
  -13.0799999       1.14424654E-06
  -13.0699997       6.18536433E-07
  -13.0600004       2.16643699E-08
  -13.0500002      -5.59994646E-07
  -13.0400000      -1.05225831E-06
  -13.0299997      -1.40577561E-06
  -13.0200005      -1.60161301E-06
  -13.0100002      -1.64874200E-06
  -13.0000000      -1.57446914E-06
  -12.9899998      -1.41086070E-06
  -12.9799995      -1.18135824E-06
  -12.9700003      -8.91912123E-07
  -12.9600000      -5.29778390E-07
  -12.9499998      -7.10708861E-08
  -12.9399996       5.04501202E-07
  -12.9300003       1.19563788E-06
  -12.9200001       1.96366477E-06
  -12.9099998       2.72461102E-06
  -12.8999996       3.35330583E-06
  -12.8900003       3.70098087E-06
  -12.8800001       3.62430592E-06
  -12.8699999       3.02045737E-06
  -12.8599997       1.86031366E-06
  -12.8500004       2.11357161E-07
  -12.8400002      -1.75683056E-06
  -12.8299999      -3.78819641E-06
  -12.8199997      -5.57622661E-06
  -12.8100004      -6.81465553E-06
  -12.8000002      -7.25338941E-06
  -12.7900000      -6.74846297E-06
  -12.7799997      -5.29474801E-06
  -12.7700005      -3.03438583E-06
  -12.7600002      -2.37829980E-07
  -12.7500000       2.73894557E-06
  -12.7399998       5.51263565E-06
  -12.7299995       7.73423744E-06
  -12.7200003       9.14147950E-06
  -12.7100000       9.59185309E-06
  -12.6999998       9.07058256E-06
  -12.6899996       7.67431629E-06
  -12.6800003       5.57676094E-06
  -12.6700001       2.98691907E-06
  -12.6599998       1.12006909E-07
  -12.6499996      -2.86536647E-06
  -12.6400003      -5.79037260E-06
  -12.6300001      -8.52084941E-06
  -12.6199999      -1.09014500E-05
  -12.6099997      -1.27388839E-05
  -12.6000004      -1.37912421E-05
  -12.5900002      -1.37814168E-05
  -12.5799999      -1.24387334E-05
  -12.5699997      -9.56348867E-06
  -12.5600004      -5.10254722E-06
  -12.5500002       7.83520875E-07
  -12.5400000       7.68169866E-06
  -12.5299997       1.49331354E-05
  -12.5200005       2.16931821E-05
  -12.5100002       2.70417477E-05
  -12.5000000       3.01270538E-05
  -12.4899998       3.03176002E-05
  -12.4799995       2.73300830E-05
  -12.4700003       2.13035164E-05
  -12.4600000       1.27988560E-05
  -12.4499998       2.71682734E-06
  -12.4399996      -7.85624434E-06
  -12.4300003      -1.78480223E-05
  -12.4200001      -2.64084720E-05
  -12.4099998      -3.30851071E-05
  -12.3999996      -3.79293670E-05
  -12.3900003      -4.15097020E-05
  -12.3800001      -4.48267201E-05
  -12.3699999      -4.91442806E-05
  -12.3599997      -5.57679268E-05
  -12.3500004      -6.58138306E-05
  -12.3400002      -8.00106354E-05
  -12.3299999      -9.85717561E-05
  -12.3199997      -1.21158839E-04
  -12.3100004      -1.46937251E-04
  -12.3000002      -1.74706336E-04
  -12.2900000      -2.03069867E-04
  -12.2799997      -2.30608828E-04
  -12.2700005      -2.56014551E-04
  -12.2600002      -2.78159918E-04
  -12.2500000      -2.96093320E-04
  -12.2399998      -3.08969757E-04
  -12.2299995      -3.15947313E-04
  -12.2200003      -3.16081016E-04
  -12.2100000      -3.08260933E-04
  -12.1999998      -2.91219010E-04
  -12.1899996      -2.63629423E-04
  -12.1800003      -2.24280229E-04
  -12.1700001      -1.72300803E-04
  -12.1599998      -1.07394437E-04
  -12.1499996      -3.00249703E-05
  -12.1400003       5.84840345E-05
  -12.1300001       1.55980801E-04
  -12.1199999       2.59638997E-04
  -12.1099997       3.66225810E-04
  -12.1000004       4.72443877E-04
  -12.0900002       5.75269572E-04
  -12.0799999       6.72249356E-04
  -12.0699997       7.61684263E-04
  -12.0600004       8.42671318E-04
  -12.0500002       9.15009587E-04
  -12.0400000       9.78982425E-04
  -12.0299997       1.03507622E-03
  -12.0200005       1.08368800E-03
  -12.0100002       1.12490193E-03
  -12.0000000       1.15835492E-03
  -11.9899998       1.18324265E-03
  -11.9799995       1.19844440E-03
  -11.9700003       1.20272837E-03
  -11.9600000       1.19499117E-03
  -11.9499998       1.17447984E-03
  -11.9399996       1.14091905E-03
  -11.9300003       1.09453744E-03
  -11.9200001       1.03597122E-03
  -11.9099998       9.66080930E-04
  -11.8999996       8.85716698E-04
  -11.8900003       7.95490050E-04
  -11.8800001       6.95621828E-04
  -11.8699999       5.85892063E-04
  -11.8599997       4.65694728E-04
  -11.8500004       3.34222685E-04
  -11.8400002       1.90695151E-04
  -11.8299999       3.46214329E-05
  -11.8199997      -1.33999158E-04
  -11.8100004      -3.14549252E-04
  -11.8000002      -5.05794073E-04
  -11.7900000      -7.05969636E-04
  -11.7799997      -9.12980002E-04
  -11.7700005      -1.12460461E-03
  -11.7600002      -1.33871369E-03
  -11.7500000      -1.55339122E-03
  -11.7399998      -1.76699075E-03
  -11.7299995      -1.97807443E-03
  -11.7200003      -2.18528975E-03
  -11.7100000      -2.38719746E-03
  -11.6999998      -2.58212816E-03
  -11.6899996      -2.76807859E-03
  -11.6800003      -2.94271600E-03
  -11.6700001      -3.10346461E-03
  -11.6599998      -3.24768783E-03
  -11.6499996      -3.37289041E-03
  -11.6400003      -3.47693264E-03
  -11.6300001      -3.55817517E-03
  -11.6199999      -3.61553929E-03
  -11.6099997      -3.64844943E-03
  -11.6000004      -3.65668559E-03
  -11.5900002      -3.64017743E-03
  -11.5799999      -3.59877408E-03
  -11.5699997      -3.53204482E-03
  -11.5600004      -3.43916588E-03
  -11.5500002      -3.31892748E-03
  -11.5400000      -3.16981319E-03
  -11.5299997      -2.99023534E-03
  -11.5200005      -2.77876668E-03
  -11.5100002      -2.53442349E-03
  -11.5000000      -2.25688936E-03
  -11.4899998      -1.94667315E-03
  -11.4799995      -1.60511769E-03
  -11.4700003      -1.23432570E-03
  -11.4600000      -8.36930703E-04
  -11.4499998      -4.15819843E-04
  -11.4399996       2.62338017E-05
  -11.4300003       4.86877107E-04
  -11.4200001       9.64456587E-04
  -11.4099998       1.45817432E-03
  -11.3999996       1.96809205E-03
  -11.3900003       2.49502435E-03
  -11.3800001       3.04025807E-03
  -11.3699999       3.60520557E-03
  -11.3599997       4.19103960E-03
  -11.3500004       4.79831733E-03
  -11.3400002       5.42675192E-03
  -11.3299999       6.07507536E-03
  -11.3199997       6.74108835E-03
  -11.3100004       7.42182881E-03
  -11.3000002       8.11387692E-03
  -11.2900000       8.81367363E-03
  -11.2799997       9.51783080E-03
  -11.2700005       1.02233561E-02
  -11.2600002       1.09277721E-02
  -11.2500000       1.16290785E-02
  -11.2399998       1.23256352E-02
  -11.2299995       1.30159911E-02
  -11.2200003       1.36986803E-02
  -11.2100000       1.43721029E-02
  -11.1999998       1.50345461E-02
  -11.1899996       1.56842209E-02
  -11.1800003       1.63195096E-02
  -11.1700001       1.69391800E-02
  -11.1599998       1.75425969E-02
  -11.1499996       1.81299206E-02
  -11.1400003       1.87020414E-02
  -11.1300001       1.92605257E-02
  -11.1199999       1.98072549E-02
  -11.1099997       2.03441214E-02
  -11.1000004       2.08725668E-02
  -11.0900002       2.13932656E-02
  -11.0799999       2.19058916E-02
  -11.0699997       2.24090368E-02
  -11.0600004       2.29003485E-02
  -11.0500002       2.33768374E-02
  -11.0400000       2.38352269E-02
  -11.0299997       2.42724288E-02
  -11.0200005       2.46859342E-02
  -11.0100002       2.50741504E-02
  -11.0000000       2.54365634E-02
  -10.9899998       2.57737674E-02
  -10.9799995       2.60874070E-02
  -10.9700003       2.63799168E-02
  -10.9600000       2.66542658E-02
  -10.9499998       2.69136876E-02
  -10.9399996       2.71612871E-02
  -10.9300003       2.73998808E-02
  -10.9200001       2.76316386E-02
  -10.9099998       2.78579611E-02
  -10.8999996       2.80793980E-02
  -10.8900003       2.82955971E-02
  -10.8800001       2.85053942E-02
  -10.8699999       2.87069641E-02
  -10.8599997       2.88980491E-02
  -10.8500004       2.90762633E-02
  -10.8400002       2.92392969E-02
  -10.8299999       2.93850657E-02
  -10.8199997       2.95118522E-02
  -10.8100004       2.96181887E-02
  -10.8000002       2.97026783E-02
  -10.7900000       2.97638290E-02
  -10.7799997       2.97997873E-02
  -10.7700005       2.98083089E-02
  -10.7600002       2.97868550E-02
  -10.7500000       2.97327675E-02
  -10.7399998       2.96437535E-02
  -10.7299995       2.95183491E-02
  -10.7200003       2.93563381E-02
  -10.7100000       2.91589797E-02
  -10.6999998       2.89290398E-02
  -10.6899996       2.86704730E-02
  -10.6800003       2.83879768E-02
  -10.6700001       2.80862544E-02
  -10.6599998       2.77694464E-02
  -10.6499996       2.74405610E-02
  -10.6400003       2.71013081E-02
  -10.6300001       2.67521385E-02
  -10.6199999       2.63924822E-02
  -10.6099997       2.60213241E-02
  -10.6000004       2.56377514E-02
  -10.5900002       2.52412669E-02
  -10.5799999       2.48322450E-02
  -10.5699997       2.44118515E-02
  -10.5600004       2.39819977E-02
  -10.5500002       2.35450268E-02
  -10.5400000       2.31034197E-02
  -10.5299997       2.26595663E-02
  -10.5200005       2.22156029E-02
  -10.5100002       2.17733681E-02
  -10.5000000       2.13345010E-02
  -10.4899998       2.09005326E-02
  -10.4799995       2.04729903E-02
  -10.4700003       2.00535618E-02
  -10.4600000       1.96439680E-02
  -10.4499998       1.92459822E-02
  -10.4399996       1.88614484E-02
  -10.4300003       1.84921343E-02
  -10.4200001       1.81397200E-02
  -10.4099998       1.78058222E-02
  -10.3999996       1.74917784E-02
  -10.3900003       1.71988476E-02
  -10.3800001       1.69276614E-02
  -10.3699999       1.66784562E-02
  -10.3599997       1.64505336E-02
  -10.3500004       1.62422787E-02
  -10.3400002       1.60510559E-02
  -10.3299999       1.58733521E-02
  -10.3199997       1.57051980E-02
  -10.3100004       1.55426851E-02
  -10.3000002       1.53826876E-02
  -10.2900000       1.52233541E-02
  -10.2799997       1.50647555E-02
  -10.2700005       1.49091035E-02
  -10.2600002       1.47604793E-02
  -10.2500000       1.46245025E-02
  -10.2399998       1.45075880E-02
  -10.2299995       1.44158900E-02
  -10.2200003       1.43546257E-02
  -10.2100000       1.43273966E-02
  -10.1999998       1.43359061E-02
  -10.1899996       1.43799838E-02
  -10.1800003       1.44581068E-02
  -10.1700001       1.45680998E-02
  -10.1599998       1.47077050E-02
  -10.1499996       1.48753049E-02
  -10.1400003       1.50701189E-02
  -10.1300001       1.52921863E-02
  -10.1199999       1.55418506E-02
  -10.1099997       1.58193409E-02
  -10.1000004       1.61240697E-02
  -10.0900002       1.64543204E-02
  -10.0799999       1.68071333E-02
  -10.0699997       1.71788353E-02
  -10.0600004       1.75657012E-02
  -10.0500002       1.79648884E-02
  -10.0400000       1.83754265E-02
  -10.0299997       1.87988002E-02
  -10.0200005       1.92391109E-02
  -10.0100002       1.97027065E-02
  -10.0000000       2.01972164E-02
  -9.98999977       2.07304135E-02
  -9.97999954       2.13090517E-02
  -9.97000027       2.19376571E-02
  -9.96000004       2.26179697E-02
  -9.94999981       2.33490337E-02
  -9.93999958       2.41274927E-02
  -9.93000031       2.49485634E-02
  -9.92000008       2.58069187E-02
  -9.90999985       2.66976934E-02
  -9.89999962       2.76170913E-02
  -9.89000034       2.85628289E-02
  -9.88000011       2.95338742E-02
  -9.86999989       3.05303484E-02
  -9.85999966       3.15530710E-02
  -9.85000038       3.26030701E-02
  -9.84000015       3.36814150E-02
  -9.82999992       3.47890779E-02
  -9.81999969       3.59270424E-02
  -9.81000042       3.70962098E-02
  -9.80000019       3.82977314E-02
  -9.78999996       3.95329632E-02
  -9.77999973       4.08033915E-02
  -9.77000046       4.21105549E-02
  -9.76000023       4.34559956E-02
  -9.75000000       4.48413007E-02
  -9.73999977       4.62679826E-02
  -9.72999954       4.77374680E-02
  -9.72000027       4.92514074E-02
  -9.71000004       5.08112386E-02
  -9.69999981       5.24182245E-02
  -9.68999958       5.40728867E-02
  -9.68000031       5.57746068E-02
  -9.67000008       5.75212426E-02
  -9.65999985       5.93085252E-02
  -9.64999962       6.11303113E-02
  -9.64000034       6.29787222E-02
  -9.63000011       6.48445562E-02
  -9.61999989       6.67183995E-02
  -9.60999966       6.85914829E-02
  -9.60000038       7.04562292E-02
  -9.59000015       7.23070279E-02
  -9.57999992       7.41401091E-02
  -9.56999969       7.59535208E-02
  -9.56000042       7.77459219E-02
  -9.55000019       7.95165449E-02
  -9.53999996       8.12637359E-02
  -9.52999973       8.29849988E-02
  -9.52000046       8.46763849E-02
  -9.51000023       8.63329098E-02
  -9.50000000       8.79489928E-02
  -9.48999977       8.95191655E-02
  -9.47999954       9.10382718E-02
  -9.47000027       9.25021172E-02
  -9.46000004       9.39073861E-02
  -9.44999981       9.52515975E-02
  -9.43999958       9.65328738E-02
  -9.43000031       9.77493748E-02
  -9.42000008       9.88994911E-02
  -9.40999985       9.99813229E-02
  -9.39999962      0.100993827    
  -9.39000034      0.101936415    
  -9.38000011      0.102810346    
  -9.36999989      0.103618510    
  -9.35999966      0.104366384    
  -9.35000038      0.105061270    
  -9.34000015      0.105712555    
  -9.32999992      0.106331103    
  -9.31999969      0.106928408    
  -9.31000042      0.107516736    
  -9.30000019      0.108108893    
  -9.28999996      0.108717360    
  -9.27999973      0.109355256    
  -9.27000046      0.110035509    
  -9.26000023      0.110771738    
  -9.25000000      0.111576356    
  -9.23999977      0.112461716    
  -9.22999954      0.113438353    
  -9.22000027      0.114515029    
  -9.21000004      0.115698621    
  -9.19999981      0.116993815    
  -9.18999958      0.118403509    
  -9.18000031      0.119929664    
  -9.17000008      0.121573605    
  -9.15999985      0.123335980    
  -9.14999962      0.125217289    
  -9.14000034      0.127217293    
  -9.13000011      0.129334405    
  -9.11999989      0.131565079    
  -9.10999966      0.133904263    
  -9.10000038      0.136344254    
  -9.09000015      0.138876408    
  -9.07999992      0.141490996    
  -9.06999969      0.144178689    
  -9.06000042      0.146930620    
  -9.05000019      0.149739310    
  -9.03999996      0.152596980    
  -9.02999973      0.155495882    
  -9.02000046      0.158426732    
  -9.01000023      0.161378086    
  -9.00000000      0.164335728    
  -8.98999977      0.167282909    
  -8.97999954      0.170201540    
  -8.97000027      0.173072904    
  -8.96000004      0.175879776    
  -8.94999981      0.178606302    
  -8.93999958      0.181239948    
  -8.93000031      0.183770314    
  -8.92000008      0.186189577    
  -8.90999985      0.188491181    
  -8.89999962      0.190669522    
  -8.89000034      0.192719281    
  -8.88000011      0.194635794    
  -8.86999989      0.196415365    
  -8.85999966      0.198055416    
  -8.85000038      0.199554861    
  -8.84000015      0.200914130    
  -8.82999992      0.202133954    
  -8.81999969      0.203215644    
  -8.81000042      0.204159558    
  -8.80000019      0.204965323    
  -8.78999996      0.205630675    
  -8.77999973      0.206153750    
  -8.77000046      0.206533715    
  -8.76000023      0.206770673    
  -8.75000000      0.206867650    
  -8.73999977      0.206830129    
  -8.72999954      0.206665561    
  -8.72000027      0.206382036    
  -8.71000004      0.205987573    
  -8.69999981      0.205488652    
  -8.68999958      0.204890281    
  -8.68000031      0.204197213    
  -8.67000008      0.203414559    
  -8.65999985      0.202549025    
  -8.64999962      0.201610893    
  -8.64000034      0.200614125    
  -8.63000011      0.199575588    
  -8.61999989      0.198514029    
  -8.60999966      0.197448567    
  -8.60000038      0.196396008    
  -8.59000015      0.195370302    
  -8.57999992      0.194383085    
  -8.56999969      0.193443671    
  -8.56000042      0.192560628    
  -8.55000019      0.191742867    
  -8.53999996      0.191002294    
  -8.52999973      0.190351054    
  -8.52000046      0.189803079    
  -8.51000023      0.189370185    
  -8.50000000      0.189061478    
  -8.48999977      0.188881427    
  -8.47999954      0.188830122    
  -8.47000027      0.188902617    
  -8.46000004      0.189092562    
  -8.44999981      0.189393401    
  -8.43999958      0.189799801    
  -8.43000031      0.190309986    
  -8.42000008      0.190924466    
  -8.40999985      0.191645265    
  -8.39999962      0.192473963    
  -8.39000034      0.193409622    
  -8.38000011      0.194448650    
  -8.36999989      0.195584029    
  -8.35999966      0.196805865    
  -8.35000038      0.198104948    
  -8.34000015      0.199472398    
  -8.32999992      0.200901881    
  -8.31999969      0.202390760    
  -8.31000042      0.203937575    
  -8.30000019      0.205542266    
  -8.28999996      0.207204044    
  -8.27999973      0.208919674    
  -8.27000046      0.210684210    
  -8.26000023      0.212490782    
  -8.25000000      0.214332893    
  -8.23999977      0.216204852    
  -8.22999954      0.218104705    
  -8.22000027      0.220032662    
  -8.21000004      0.221993297    
  -8.19999981      0.223991960    
  -8.18999958      0.226034939    
  -8.18000031      0.228127256    
  -8.17000008      0.230272800    
  -8.15999985      0.232473657    
  -8.14999962      0.234731838    
  -8.14000034      0.237049356    
  -8.13000011      0.239430904    
  -8.11999989      0.241883546    
  -8.10999966      0.244415417    
  -8.10000038      0.247037053    
  -8.09000015      0.249759465    
  -8.07999992      0.252590954    
  -8.06999969      0.255539238    
  -8.06000042      0.258609235    
  -8.05000019      0.261803567    
  -8.03999996      0.265124202    
  -8.02999973      0.268572003    
  -8.02000046      0.272148043    
  -8.01000023      0.275852710    
  -8.00000000      0.279687613    
  -7.98999977      0.283652544    
  -7.98000002      0.287747204    
  -7.96999979      0.291970283    
  -7.96000004      0.296321094    
  -7.94999981      0.300798386    
  -7.94000006      0.305403858    
  -7.92999983      0.310139358    
  -7.92000008      0.315008223    
  -7.90999985      0.320015490    
  -7.90000010      0.325165838    
  -7.88999987      0.330463469    
  -7.88000011      0.335911542    
  -7.86999989      0.341510206    
  -7.86000013      0.347258925    
  -7.84999990      0.353154063    
  -7.84000015      0.359190851    
  -7.82999992      0.365362942    
  -7.82000017      0.371662438    
  -7.80999994      0.378079832    
  -7.80000019      0.384604603    
  -7.78999996      0.391224593    
  -7.78000021      0.397927642    
  -7.76999998      0.404700577    
  -7.76000023      0.411535114    
  -7.75000000      0.418421477    
  -7.73999977      0.425355375    
  -7.73000002      0.432332665    
  -7.71999979      0.439352214    
  -7.71000004      0.446413666    
  -7.69999981      0.453514129    
  -7.69000006      0.460651129    
  -7.67999983      0.467821956    
  -7.67000008      0.475020707    
  -7.65999985      0.482244432    
  -7.65000010      0.489488751    
  -7.63999987      0.496751577    
  -7.63000011      0.504033387    
  -7.61999989      0.511334062    
  -7.61000013      0.518652022    
  -7.59999990      0.525987566    
  -7.59000015      0.533339977    
  -7.57999992      0.540704191    
  -7.57000017      0.548079789    
  -7.55999994      0.555463731    
  -7.55000019      0.562857151    
  -7.53999996      0.570262253    
  -7.53000021      0.577683806    
  -7.51999998      0.585124910    
  -7.51000023      0.592592239    
  -7.50000000      0.600087464    
  -7.48999977      0.607612908    
  -7.48000002      0.615167797    
  -7.46999979      0.622752309    
  -7.46000004      0.630367577    
  -7.44999981      0.638015807    
  -7.44000006      0.645702779    