  -16.0000000       0.00000000    
  -15.9899998       0.00000000    
  -15.9799995       0.00000000    
  -15.9700003       0.00000000    
  -15.9600000       0.00000000    
  -15.9499998       0.00000000    
  -15.9399996       0.00000000    
  -15.9300003       0.00000000    
  -15.9200001       0.00000000    
  -15.9099998       0.00000000    
  -15.8999996       0.00000000    
  -15.8900003       0.00000000    
  -15.8800001      -4.45816660E-39
  -15.8699999      -1.22973099E-37
  -15.8599997      -1.53400793E-36
  -15.8500004      -1.17279668E-35
  -15.8400002      -6.09743671E-35
  -15.8299999      -2.16373061E-34
  -15.8199997      -4.23863794E-34
  -15.8100004       5.77461692E-34
  -15.8000002       9.52808113E-33
  -15.7900000       5.10983221E-32
  -15.7799997       1.96554728E-31
  -15.7700005       6.16400414E-31
  -15.7600002       1.65383328E-30
  -15.7500000       3.88420310E-30
  -15.7399998       8.06214813E-30
  -15.7299995       1.47501528E-29
  -15.7200003       2.32550654E-29
  -15.7100000       2.92792298E-29
  -15.6999998       2.05580653E-29
  -15.6899996      -2.97778411E-29
  -15.6800003      -1.70126348E-28
  -15.6700001      -4.69877410E-28
  -15.6599998      -9.93596021E-28
  -15.6499996      -1.72132050E-27
  -15.6400003      -2.38780666E-27
  -15.6300001      -2.25161452E-27
  -15.6199999       9.30204964E-29
  -15.6099997       6.57999974E-27
  -15.6000004       1.87624527E-26
  -15.5900002       3.56983842E-26
  -15.5799999       5.06754200E-26
  -15.5699997       4.79995545E-26
  -15.5600004       2.87265528E-27
  -15.5500002      -1.10970789E-25
  -15.5400000      -3.01374029E-25
  -15.5299997      -5.25361296E-25
  -15.5200005      -6.53928713E-25
  -15.5100002      -4.58426695E-25
  -15.5000000       3.43273760E-25
  -15.4899998       1.94111848E-24
  -15.4799995       4.17366820E-24
  -15.4700003       6.20637343E-24
  -15.4600000       6.30179207E-24
  -15.4499998       1.95159731E-24
  -15.4399996      -9.29370601E-24
  -15.4300003      -2.80407519E-23
  -15.4200001      -5.03948612E-23
  -15.4099998      -6.51816328E-23
  -15.3999996      -5.27783507E-23
  -15.3900003       1.17154569E-23
  -15.3800001       1.47858421E-22
  -15.3699999       3.49968687E-22
  -15.3599997       5.60275420E-22
  -15.3500004       6.45189114E-22
  -15.3400002       3.95038494E-22
  -15.3299999      -4.23877911E-22
  -15.3199997      -1.93787132E-21
  -15.3100004      -3.95158517E-21
  -15.3000002      -5.70201042E-21
  -15.2900000      -5.71498116E-21
  -15.2799997      -1.98282402E-21
  -15.2700005       7.29164153E-21
  -15.2600002       2.22559794E-20
  -15.2500000       3.94813856E-20
  -15.2399998       5.03162237E-20
  -15.2299995       4.09237494E-20
  -15.2200003      -4.23862209E-21
  -15.2100000      -9.42025141E-20
  -15.1999998      -2.19031481E-19
  -15.1899996      -3.36882358E-19
  -15.1800003      -3.68366248E-19
  -15.1700001      -2.08892134E-19
  -15.1599998       2.31469434E-19
  -15.1499996       9.59295418E-19
  -15.1400003       1.81560334E-18
  -15.1300001       2.41765413E-18
  -15.1199999       2.18138757E-18
  -15.1099997       4.82736660E-19
  -15.1000004      -3.01574852E-18
  -15.0900002      -7.92107906E-18
  -15.0799999      -1.27057242E-17
  -15.0699997      -1.46076721E-17
  -15.0600004      -1.01422162E-17
  -15.0500002       3.56452971E-18
  -15.0400000       2.67032149E-17
  -15.0299997       5.45277261E-17
  -15.0200005       7.60095934E-17
  -15.0100002       7.48262156E-17
  -15.0000000       3.39231269E-17
  -14.9899998      -5.60996009E-17
  -14.9799995      -1.86370026E-16
  -14.9700003      -3.20813014E-16
  -14.9600000      -3.94738053E-16
  -14.9499998      -3.27002628E-16
  -14.9399996      -4.90683341E-17
  -14.9300003       4.52034432E-16
  -14.9200001       1.08883534E-15
  -14.9099998       1.64761789E-15
  -14.8999996       1.80704484E-15
  -14.8900003       1.22127730E-15
  -14.8800001      -3.30866316E-16
  -14.8699999      -2.76009603E-15
  -14.8599997      -5.50955588E-15
  -14.8500004      -7.51861681E-15
  -14.8400002      -7.39898695E-15
  -14.8299999      -3.87028920E-15
  -14.8199997       3.59026434E-15
  -14.8100004       1.40549905E-14
  -14.8000002       2.46996044E-14
  -14.7900000       3.09481648E-14
  -14.7799997       2.74817959E-14
  -14.7700005       1.01497265E-14
  -14.7600002      -2.15591230E-14
  -14.7500000      -6.22598151E-14
  -14.7399998      -9.97307028E-14
  -14.7299995      -1.16402046E-13
  -14.7200003      -9.39229773E-14
  -14.7100000      -2.04715243E-14
  -14.6999998       1.00871277E-13
  -14.6899996       2.45663678E-13
  -14.6800003       3.67230226E-13
  -14.6700001       4.04521089E-13
  -14.6599998       2.99762222E-13
  -14.6499996       2.34250909E-14
  -14.6400003      -4.00135274E-13
  -14.6300001      -8.76429571E-13
  -14.6199999      -1.24490262E-12
  -14.6099997      -1.31109847E-12
  -14.6000004      -9.06995941E-13
  -14.5900002       3.15689552E-14
  -14.5799999       1.39312433E-12
  -14.5699997       2.85486717E-12
  -14.5600004       3.91254260E-12
  -14.5500002       3.99251986E-12
  -14.5400000       2.63800743E-12
  -14.5299997      -2.70375221E-13
  -14.5200005      -4.32883330E-12
  -14.5100002      -8.54335006E-12
  -14.5000000      -1.14540825E-11
  -14.4899998      -1.14809533E-11
  -14.4799995      -7.44949935E-12
  -14.4700003       8.26270692E-13
  -14.4600000       1.20947610E-11
  -14.4499998       2.35644525E-11
  -14.4399996       3.13136947E-11
  -14.4300003       3.12529759E-11
  -14.4200001       2.04959574E-11
  -14.4099998      -1.20104859E-12
  -14.3999996      -3.04141642E-11
  -14.3900003      -5.99437097E-11
  -14.3800001      -7.99722233E-11
  -14.3699999      -8.05125758E-11
  -14.3599997      -5.47292767E-11
  -14.3500004      -2.28016412E-12
  -14.3400002       6.84534027E-11
  -14.3299999       1.40353965E-10
  -14.3199997       1.90467059E-10
  -14.3100004       1.95732014E-10
  -14.3000002       1.40488329E-10
  -14.2900000       2.37965151E-11
  -14.2799997      -1.35894060E-10
  -14.2700005      -3.01021874E-10
  -14.2600002      -4.21439939E-10
  -14.2500000      -4.46809950E-10
  -14.2399998      -3.42464695E-10
  -14.2299995      -1.04576930E-10
  -14.2200003       2.30391151E-10
  -14.2100000       5.86439397E-10
  -14.1999998       8.61335558E-10
  -14.1899996       9.51423273E-10
  -14.1800003       7.82987952E-10
  -14.1700001       3.41994016E-10
  -14.1599998      -3.07393000E-10
  -14.1499996      -1.02379716E-09
  -14.1400003      -1.61324176E-09
  -14.1300001      -1.87511184E-09
  -14.1199999      -1.66015979E-09
  -14.1099997      -9.25598154E-10
  -14.1000004       2.29871899E-10
  -14.0900002       1.56564806E-09
  -14.0799999       2.74044298E-09
  -14.0699997       3.39101502E-09
  -14.0600004       3.23235216E-09
  -14.0500002       2.15391371E-09
  -14.0400000       2.83140539E-10
  -14.0299997      -2.00799066E-09
  -14.0200005      -4.16507362E-09
  -14.0100002      -5.57570701E-09
  -14.0000000      -5.73081893E-09
  -13.9899998      -4.38281145E-09
  -13.9799995      -1.65514902E-09
  -13.9700003       1.93485672E-09
  -13.9600000       5.55921131E-09
  -13.9499998       8.26020585E-09
  -13.9399996       9.19233933E-09
  -13.9300003       7.86635290E-09
  -13.9200001       4.32824621E-09
  -13.9099998      -7.84101062E-10
  -13.8999996      -6.33735198E-09
  -13.8900003      -1.09441798E-08
  -13.8800001      -1.33011575E-08
  -13.8699999      -1.25426967E-08
  -13.8599997      -8.51761239E-09
  -13.8500004      -1.90604199E-09
  -13.8400002       5.87096460E-09
  -13.8299999       1.29460185E-08
  -13.8199997       1.74462187E-08
  -13.8100004       1.79780741E-08
  -13.8000002       1.40334269E-08
  -13.7900000       6.20306562E-09
  -13.7799997      -3.87475518E-09
  -13.7700005      -1.38407792E-08
  -13.7600002      -2.11556177E-08
  -13.7500000      -2.37339712E-08
  -13.7399998      -2.05171578E-08
  -13.7299995      -1.18322925E-08
  -13.7200003       5.71613812E-10
  -13.7100000       1.38468366E-08
  -13.6999998       2.46775311E-08
  -13.6899996       3.00838252E-08
  -13.6800003       2.82105805E-08
  -13.6700001       1.88999110E-08
  -13.6599998       3.88380794E-09
  -13.6499996      -1.34858968E-08
  -13.6400003      -2.89439157E-08
  -13.6300001      -3.83161378E-08
  -13.6199999      -3.85964718E-08
  -13.6099997      -2.88299322E-08
  -13.6000004      -1.05588471E-08
  -13.5900002       1.23249801E-08
  -13.5799999       3.43449855E-08
  -13.5699997       4.96898735E-08
  -13.5600004       5.36796563E-08
  -13.5500002       4.40940724E-08
  -13.5400000       2.20061640E-08
  -13.5299997      -8.14821366E-09
  -13.5200005      -3.93668280E-08
  -13.5100002      -6.36319015E-08
  -13.5000000      -7.38945189E-08
  -13.4899998      -6.60218689E-08
  -13.4799995      -4.01924396E-08
  -13.4700003      -1.31059841E-09
  -13.4600000       4.17780512E-08
  -13.4499998       7.81970257E-08
  -13.4399996       9.76941905E-08
  -13.4300003       9.34208231E-08
  -13.4200001       6.41094644E-08
  -13.4099998       1.50056803E-08
  -13.3999996      -4.28314948E-08
  -13.3900003      -9.48524246E-08
  -13.3800001      -1.26520973E-07
  -13.3699999      -1.27194355E-07
  -13.3599997      -9.33855944E-08
  -13.3500004      -3.04734158E-08
  -13.3400002       4.77622990E-08
  -13.3299999       1.21889386E-07
  -13.3199997       1.71372037E-07
  -13.3100004       1.79907687E-07
  -13.3000002       1.40226973E-07
  -13.2900000       5.70374610E-08
  -13.2799997      -5.28582191E-08
  -13.2700005      -1.63597065E-07
  -13.2600002      -2.45983330E-07
  -13.2500000      -2.74703893E-07
  -13.2399998      -2.35321124E-07
  -13.2299995      -1.29221675E-07
  -13.2200003       2.49554084E-08
  -13.2100000       1.94133705E-07
  -13.1999998       3.37569759E-07
  -13.1899996       4.16263788E-07
  -13.1800003       4.02902458E-07
  -13.1700001       2.89895837E-07
  -13.1599998       9.33158333E-08
  -13.1499996      -1.48634641E-07
  -13.1400003      -3.82760675E-07
  -13.1300001      -5.52381891E-07
  -13.1199999      -6.10775885E-07
  -13.1099997      -5.33428590E-07
  -13.1000004      -3.25984445E-07
  -13.0900002      -2.55682409E-08
  -13.0799999       3.05416904E-07
  -13.0699997       5.92146478E-07
  -13.0600004       7.64307913E-07
  -13.0500002       7.73319755E-07
  -13.0400000       6.05666230E-07
  -13.0299997       2.88786310E-07
  -13.0200005      -1.12496473E-07
  -13.0100002      -5.08861092E-07
  -13.0000000      -8.06250284E-07
  -12.9899998      -9.28194197E-07
  -12.9799995      -8.35433354E-07
  -12.9700003      -5.37860728E-07
  -12.9600000      -9.53333199E-08
  -12.9499998       3.93598782E-07
  -12.9399996       8.13094118E-07
  -12.9300003       1.05697904E-06
  -12.9200001       1.05503455E-06
  -12.9099998       7.92153628E-07
  -12.8999996       3.15273752E-07
  -12.8900003      -2.74309514E-07
  -12.8800001      -8.42195448E-07
  -12.8699999      -1.25126394E-06
  -12.8599997      -1.39429824E-06
  -12.8500004      -1.22105928E-06
  -12.8400002      -7.53006248E-07
  -12.8299999      -8.15567276E-08
  -12.8199997       6.50393815E-07
  -12.8100004       1.27993405E-06
  -12.8000002       1.66152768E-06
  -12.7900000       1.70160024E-06
  -12.7799997       1.38196469E-06
  -12.7700005       7.66153278E-07
  -12.7600002      -1.33543683E-08
  -12.7500000      -7.84488861E-07
  -12.7399998      -1.37498671E-06
  -12.7299995      -1.65271661E-06
  -12.7200003      -1.55739258E-06
  -12.7100000      -1.11597194E-06
  -12.6999998      -4.37742102E-07
  -12.6899996       3.10168218E-07
  -12.6800003       9.41475378E-07
  -12.6700001       1.29478929E-06
  -12.6599998       1.27276803E-06
  -12.6499996       8.67061431E-07
  -12.6400003       1.62901756E-07
  -12.6300001      -6.78172682E-07
  -12.6199999      -1.45389265E-06
  -12.6099997      -1.96722544E-06
  -12.6000004      -2.07226230E-06
  -12.5900002      -1.70934743E-06
  -12.5799999      -9.21065009E-07
  -12.5699997       1.55044987E-07
  -12.5600004       1.31583408E-06
  -12.5500002       2.33758328E-06
  -12.5400000       3.02652393E-06
  -12.5299997       3.26307395E-06
  -12.5200005       3.02914214E-06
  -12.5100002       2.41150383E-06
  -12.5000000       1.57966656E-06
  -12.4899998       7.42605380E-07
  -12.4799995       9.39743074E-08
  -12.4700003      -2.41459475E-07
  -12.4600000      -2.47090810E-07
  -12.4499998      -2.91472961E-08
  -12.4399996       1.98260707E-07
  -12.4300003       1.55951852E-07
  -12.4200001      -4.38052382E-07
  -12.4099998      -1.80027985E-06
  -12.3999996      -4.02315754E-06
  -12.3900003      -7.04015929E-06
  -12.3800001      -1.06240632E-05
  -12.3699999      -1.44204569E-05
  -12.3599997      -1.80104453E-05
  -12.3500004      -2.09895879E-05
  -12.3400002      -2.30456953E-05
  -12.3299999      -2.40178124E-05
  -12.3199997      -2.39224755E-05
  -12.3100004      -2.29405759E-05
  -12.3000002      -2.13672574E-05
  -12.2900000      -1.95360026E-05
  -12.2799997      -1.77346501E-05
  -12.2700005      -1.61333319E-05
  -12.2600002      -1.47420042E-05
  -12.2500000      -1.34084958E-05
  -12.2399998      -1.18584612E-05
  -12.2299995      -9.76834872E-06
  -12.2200003      -6.85426858E-06
  -12.2100000      -2.95520886E-06
  -12.1999998       1.91009758E-06
  -12.1899996       7.52748656E-06
  -12.1800003       1.35180089E-05
  -12.1700001       1.94088680E-05
  -12.1599998       2.47287589E-05
  -12.1499996       2.91054330E-05
  -12.1400003       3.23423847E-05
  -12.1300001       3.44562941E-05
  -12.1199999       3.56660457E-05
  -12.1099997       3.63355757E-05
  -12.1000004       3.68839028E-05
  -12.0900002       3.76833996E-05
  -12.0799999       3.89701381E-05
  -12.0699997       4.07868683E-05
  -12.0600004       4.29715619E-05
  -12.0500002       4.51931155E-05
  -12.0400000       4.70251580E-05
  -12.0299997       4.80398849E-05
  -12.0200005       4.79000846E-05
  -12.0100002       4.64287477E-05
  -12.0000000       4.36415248E-05
  -11.9899998       3.97369513E-05
  -11.9799995       3.50489681E-05
  -11.9700003       2.99747153E-05
  -11.9600000       2.48950928E-05
  -11.9499998       2.01058210E-05
  -11.9399996       1.57725899E-05
  -11.9300003       1.19173383E-05
  -11.9200001       8.43474299E-06
  -11.9099998       5.13159102E-06
  -11.8999996       1.77770289E-06
  -11.8900003      -1.84380099E-06
  -11.8800001      -5.89672300E-06
  -11.8699999      -1.04682713E-05
  -11.8599997      -1.55627276E-05
  -11.8500004      -2.11092829E-05
  -11.8400002      -2.69787251E-05
  -11.8299999      -3.30033727E-05
  -11.8199997      -3.89959678E-05
  -11.8100004      -4.47654529E-05
  -11.8000002      -5.01295544E-05
  -11.7900000      -5.49254510E-05
  -11.7799997      -5.90197087E-05
  -11.7700005      -6.23180167E-05
  -11.7600002      -6.47736451E-05
  -11.7500000      -6.63925093E-05
  -11.7399998      -6.72323877E-05
  -11.7299995      -6.73947288E-05
  -11.7200003      -6.70088484E-05
  -11.7100000      -6.62108214E-05
  -11.6999998      -6.51206137E-05
  -11.6899996      -6.38225029E-05
  -11.6800003      -6.23525993E-05
  -11.6700001      -6.06962931E-05
  -11.6599998      -5.87955437E-05
  -11.6499996      -5.65638074E-05
  -11.6400003      -5.39045104E-05
  -11.6300001      -5.07284421E-05
  -11.6199999      -4.69664628E-05
  -11.6099997      -4.25755461E-05
  -11.6000004      -3.75387281E-05
  -11.5900002      -3.18611928E-05
  -11.5799999      -2.55657815E-05
  -11.5699997      -1.86908419E-05
  -11.5600004      -1.12918096E-05
  -11.5500002      -3.44600539E-06
  -11.5400000       4.74179706E-06
  -11.5299997       1.31363195E-05
  -11.5200005       2.15742548E-05
  -11.5100002       2.98737104E-05
  -11.5000000       3.78497753E-05
  -11.4899998       4.53330904E-05
  -11.4799995       5.21870861E-05
  -11.4700003       5.83195033E-05
  -11.4600000       6.36854020E-05
  -11.4499998       6.82814862E-05
  -11.4399996       7.21344477E-05
  -11.4300003       7.52877459E-05
  -11.4200001       7.77920868E-05
  -11.4099998       7.97030880E-05
  -11.3999996       8.10868223E-05
  -11.3900003       8.20307832E-05
  -11.3800001       8.26541072E-05
  -11.3699999       8.31110883E-05
  -11.3599997       8.35819883E-05
  -11.3500004       8.42496156E-05
  -11.3400002       8.52642625E-05
  -11.3299999       8.67049093E-05
  -11.3199997       8.85467089E-05
  -11.3100004       9.06456407E-05
  -11.3000002       9.27473666E-05
  -11.2900000       9.45216671E-05
  -11.2799997       9.56172153E-05
  -11.2700005       9.57245065E-05
  -11.2600002       9.46327636E-05
  -11.2500000       9.22661420E-05
  -11.2399998       8.86902926E-05
  -11.2299995       8.40869907E-05
  -11.2200003       7.87040481E-05
  -11.2100000       7.27934384E-05
  -11.1999998       6.65549160E-05
  -11.1899996       6.00999738E-05
  -11.1800003       5.34459396E-05
  -11.1700001       4.65410631E-05
  -11.1599998       3.93126356E-05
  -11.1499996       3.17235972E-05
  -11.1400003       2.38204175E-05
  -11.1300001       1.57576378E-05
  -11.1199999       7.79109359E-06
  -11.1099997       2.40922247E-07
  -11.1000004      -6.56595557E-06
  -11.0900002      -1.23582413E-05
  -11.0799999      -1.69704490E-05
  -11.0699997      -2.03674281E-05
  -11.0600004      -2.26369812E-05
  -11.0500002      -2.39533310E-05
  -11.0400000      -2.45222163E-05
  -11.0299997      -2.45231258E-05
  -11.0200005      -2.40644749E-05
  -11.0100002      -2.31636059E-05
  -11.0000000      -2.17557335E-05
  -10.9899998      -1.97280879E-05
  -10.9799995      -1.69686264E-05
  -10.9700003      -1.34151405E-05
  -10.9600000      -9.09113714E-06
  -10.9499998      -4.11958627E-06
  -10.9399996       1.28807244E-06
  -10.9300003       6.86315252E-06
  -10.9200001       1.23219015E-05
  -10.9099998       1.74069664E-05
  -10.8999996       2.19184967E-05
  -10.8900003       2.57291395E-05
  -10.8800001       2.87827861E-05
  -10.8699999       3.10817049E-05
  -10.8599997       3.26693698E-05
  -10.8500004       3.36162157E-05
  -10.8400002       3.40125480E-05
  -10.8299999       3.39688631E-05
  -10.8199997       3.36192206E-05
  -10.8100004       3.31211995E-05
  -10.8000002       3.26459412E-05
  -10.7900000       3.23551831E-05
  -10.7799997       3.23669592E-05
  -10.7700005       3.27175985E-05
  -10.7600002       3.33309945E-05
  -10.7500000       3.40072584E-05
  -10.7399998       3.44398104E-05
  -10.7299995       3.42630083E-05
  -10.7200003       3.31245210E-05
  -10.7100000       3.07682276E-05
  -10.6999998       2.71087229E-05
  -10.6899996       2.22775743E-05
  -10.6800003       1.66266364E-05
  -10.6700001       1.06830175E-05
  -10.6599998       5.06192009E-06
  -10.6499996       3.54783623E-07
  -10.6400003      -2.98259260E-06
  -10.6300001      -4.71576868E-06
  -10.6199999      -4.87007082E-06
  -10.6099997      -3.71187821E-06
  -10.6000004      -1.67671442E-06
  -10.5900002       7.38375434E-07
  -10.5799999       3.09135089E-06
  -10.5699997       5.09106121E-06
  -10.5600004       6.64847494E-06
  -10.5500002       7.87035788E-06
  -10.5400000       8.99837141E-06
  -10.5299997       1.03109905E-05
  -10.5200005       1.20158375E-05
  -10.5100002       1.41634891E-05
  -10.5000000       1.66078171E-05
  -10.4899998       1.90260398E-05
  -10.4799995       2.09952523E-05
  -10.4700003       2.21070059E-05
  -10.4600000       2.20902311E-05
  -10.4499998       2.09101854E-05
  -10.4399996       1.88164049E-05
  -10.4300003       1.63247223E-05
  -10.4200001       1.41352939E-05
  -10.4099998       1.30039625E-05
  -10.3999996       1.35953760E-05
  -10.3900003       1.63508703E-05
  -10.3800001       2.13990261E-05
  -10.3699999       2.85270507E-05
  -10.3599997       3.72165232E-05
  -10.3500004       4.67329337E-05
  -10.3400002       5.62480018E-05
  -10.3299999       6.49691356E-05
  -10.3199997       7.22517652E-05
  -10.3100004       7.76765955E-05
  -10.3000002       8.10836500E-05
  -10.2900000       8.25634052E-05
  -10.2799997       8.24132876E-05
  -10.2700005       8.10711790E-05
  -10.2600002       7.90387276E-05
  -10.2500000       7.68053214E-05
  -10.2399998       7.47810773E-05
  -10.2299995       7.32449116E-05
  -10.2200003       7.23120465E-05
  -10.2100000       7.19244126E-05
  -10.1999998       7.18657466E-05
  -10.1899996       7.18014562E-05
  -10.1800003       7.13396439E-05
  -10.1700001       7.01050958E-05
  -10.1599998       6.78146462E-05
  -10.1499996       6.43389358E-05
  -10.1400003       5.97373546E-05
  -10.1300001       5.42565685E-05
  -10.1199999       4.82911091E-05
  -10.1099997       4.23137935E-05
  -10.1000004       3.67908324E-05
  -10.0900002       3.21019434E-05
  -10.0799999       2.84842663E-05
  -10.0699997       2.60137058E-05
  -10.0600004       2.46261170E-05
  -10.0500002       2.41705384E-05
  -10.0400000       2.44768362E-05
  -10.0299997       2.54167426E-05
  -10.0200005       2.69382417E-05
  -10.0100002       2.90632233E-05
  -10.0000000       3.18487764E-05
  -9.98999977       3.53249270E-05
  -9.97999954       3.94304225E-05
  -9.97000027       4.39692485E-05
  -9.96000004       4.86062381E-05
  -9.94999981       5.29087556E-05
  -9.93999958       5.64281181E-05
  -9.93000031       5.88016956E-05
  -9.92000008       5.98500701E-05
  -9.90999985       5.96431237E-05
  -9.89999962       5.85163798E-05
  -9.89000034       5.70311167E-05
  -9.88000011       5.58869615E-05
  -9.86999989       5.58054562E-05
  -9.85999966       5.74113765E-05
  -9.85000038       6.11363721E-05
  -9.84000015       6.71630623E-05
  -9.82999992       7.54165885E-05
  -9.81999969       8.55995386E-05
  -9.81000042       9.72570197E-05
  -9.80000019       1.09854846E-04
  -9.78999996       1.22855476E-04
  -9.77999973       1.35779905E-04
  -9.77000046       1.48251434E-04
  -9.76000023       1.60021344E-04
  -9.75000000       1.70979838E-04
  -9.73999977       1.81154406E-04
  -9.72999954       1.90696956E-04
  -9.72000027       1.99857401E-04
  -9.71000004       2.08941841E-04
  -9.69999981       2.18256144E-04
  -9.68999958       2.28040444E-04
  -9.68000031       2.38405191E-04
  -9.67000008       2.49284261E-04
  -9.65999985       2.60419445E-04
  -9.64999962       2.71385448E-04
  -9.64000034       2.81654706E-04
  -9.63000011       2.90690921E-04
  -9.61999989       2.98048777E-04
  -9.60999966       3.03455308E-04
  -9.60000038       3.06848466E-04
  -9.59000015       3.08363175E-04
  -9.57999992       3.08264134E-04
  -9.56999969       3.06845672E-04
  -9.56000042       3.04324494E-04
  -9.55000019       3.00757238E-04
  -9.53999996       2.96006532E-04
  -9.52999973       2.89765274E-04
  -9.52000046       2.81632849E-04
  -9.51000023       2.71220284E-04
  -9.50000000       2.58253480E-04
  -9.48999977       2.42645692E-04
  -9.47999954       2.24519812E-04
  -9.47000027       2.04176555E-04
  -9.46000004       1.82022486E-04
  -9.44999981       1.58482770E-04
  -9.43999958       1.33927868E-04
  -9.43000031       1.08636115E-04
  -9.42000008       8.28031334E-05
  -9.40999985       5.65912269E-05
  -9.39999962       3.02005083E-05
  -9.39000034       3.93469736E-06
  -9.38000011      -2.17609831E-05
  -9.36999989      -4.63050310E-05
  -9.35999966      -6.90291054E-05
  -9.35000038      -8.92586686E-05
  -9.34000015      -1.06404652E-04
  -9.32999992      -1.20041965E-04
  -9.31999969      -1.29956345E-04
  -9.31000042      -1.36150498E-04
  -9.30000019      -1.38809555E-04
  -9.28999996      -1.38235584E-04
  -9.27999973      -1.34765578E-04
  -9.27000046      -1.28688160E-04
  -9.26000023      -1.20173543E-04
  -9.25000000      -1.09227483E-04
  -9.23999977      -9.56764125E-05
  -9.22999954      -7.91894636E-05
  -9.22000027      -5.93379555E-05
  -9.21000004      -3.56884484E-05
  -9.19999981      -7.91757338E-06
  -9.18999958       2.40697063E-05
  -9.18000031       6.00443636E-05
  -9.17000008       9.94083239E-05
  -9.15999985       1.41219774E-04
  -9.14999962       1.84295423E-04
  -9.14000034       2.27378419E-04
  -9.13000011       2.69336539E-04
  -9.11999989       3.09345196E-04
  -9.10999966       3.47006018E-04
  -9.10000038       3.82365659E-04
  -9.09000015       4.15823364E-04
  -9.07999992       4.47949686E-04
  -9.06999969       4.79263806E-04
  -9.06000042       5.10031648E-04
  -9.05000019       5.40142937E-04
  -9.03999996       5.69102936E-04
  -9.02999973       5.96134982E-04
  -9.02000046       6.20362756E-04
  -9.01000023       6.41006336E-04
  -9.00000000       6.57533063E-04
  -8.98999977       6.69711269E-04
  -8.97999954       6.77558943E-04
  -8.97000027       6.81211415E-04
  -8.96000004       6.80765253E-04
  -8.94999981       6.76164636E-04
  -8.93999958       6.67178771E-04
  -8.93000031       6.53488096E-04
  -8.92000008       6.34851807E-04
  -8.90999985       6.11295982E-04
  -8.89999962       5.83251705E-04
  -8.89000034       5.51580219E-04
  -8.88000011       5.17466106E-04
  -8.86999989       4.82201285E-04
  -8.85999966       4.46924038E-04
  -8.85000038       4.12398280E-04
  -8.84000015       3.78903875E-04
  -8.82999992       3.46274232E-04
  -8.81999969       3.14066216E-04
  -8.81000042       2.81800894E-04
  -8.80000019       2.49189703E-04
  -8.78999996       2.16266300E-04
  -8.77999973       1.83381198E-04
  -8.77000046       1.51067783E-04
  -8.76000023       1.19838696E-04
  -8.75000000       8.99970619E-05
  -8.73999977       6.15450626E-05
  -8.72999954       3.42349704E-05
  -8.72000027       7.75270382E-06
  -8.71000004      -1.80317602E-05
  -8.69999981      -4.28415733E-05
  -8.68999958      -6.58927893E-05
  -8.68000031      -8.59712527E-05
  -8.67000008      -1.01679354E-04
  -8.65999985      -1.11784633E-04
  -8.64999962      -1.15560666E-04
  -8.64000034      -1.13004906E-04
  -8.63000011      -1.04856284E-04
  -8.61999989      -9.23993357E-05
  -8.60999966      -7.71108826E-05
  -8.60000038      -6.02582986E-05
  -8.59000015      -4.25745238E-05
  -8.57999992      -2.41104190E-05
  -8.56999969      -4.30240425E-06
  -8.56000042       1.77744314E-05
  -8.55000019       4.30576438E-05
  -8.53999996       7.21711476E-05
  -8.52999973       1.05222891E-04
  -8.52000046       1.41782424E-04
  -8.51000023       1.81028867E-04
  -8.50000000       2.22002360E-04
  -8.48999977       2.63862225E-04
  -8.47999954       3.06059141E-04
  -8.47000027       3.48367554E-04
  -8.46000004       3.90781643E-04
  -8.44999981       4.33323265E-04
  -8.43999958       4.75845794E-04
  -8.43000031       5.17910346E-04
  -8.42000008       5.58782427E-04
  -8.40999985       5.97547449E-04
  -8.39999962       6.33302843E-04
  -8.39000034       6.65351807E-04
  -8.38000011       6.93333044E-04
  -8.36999989       7.17241841E-04
  -8.35999966       7.37338210E-04
  -8.35000038       7.53983215E-04
  -8.34000015       7.67456426E-04
  -8.32999992       7.77820358E-04
  -8.31999969       7.84870994E-04
  -8.31000042       7.88183359E-04
  -8.30000019       7.87230965E-04
  -8.28999996       7.81538314E-04
  -8.27999973       7.70822167E-04
  -8.27000046       7.55088986E-04
  -8.26000023       7.34671543E-04
  -8.25000000       7.10212567E-04
  -8.23999977       6.82604266E-04
  -8.22999954       6.52901712E-04
  -8.22000027       6.22221443E-04
  -8.21000004       5.91632735E-04
  -8.19999981       5.62048459E-04
  -8.18999958       5.34131890E-04
  -8.18000031       5.08236990E-04
  -8.17000008       4.84406657E-04
  -8.15999985       4.62441938E-04
  -8.14999962       4.42039338E-04
  -8.14000034       4.22968442E-04
  -8.13000011       4.05238243E-04
  -8.11999989       3.89197085E-04
  -8.10999966       3.75523319E-04
  -8.10000038       3.65094515E-04
  -8.09000015       3.58769728E-04
  -8.07999992       3.57154000E-04
  -8.06999969       3.60426289E-04
  -8.06000042       3.68301582E-04
  -8.05000019       3.80151207E-04
  -8.03999996       3.95244861E-04
  -8.02999973       4.13029542E-04
  -8.02000046       4.33338952E-04
  -8.01000023       4.56437934E-04
  -8.00000000       4.82870091E-04
  -7.98999977       5.13143081E-04
  -7.98000002       5.47361153E-04
  -7.96999979       5.84945432E-04
  -7.96000004       6.24560227E-04
  -7.94999981       6.64304942E-04
  -7.94000006       7.02135207E-04
  -7.92999983       7.36390124E-04
  -7.92000008       7.66247045E-04
  -7.90999985       7.91947648E-04
  -7.90000010       8.14697007E-04
  -7.88999987       8.36254156E-04
  -7.88000011       8.58332787E-04
  -7.86999989       8.82013701E-04
  -7.86000013       9.07358539E-04
  -7.84999990       9.33358853E-04
  -7.84000015       9.58248333E-04
  -7.82999992       9.80062410E-04
  -7.82000017       9.97268478E-04
  -7.80999994       1.00924214E-03
  -7.80000019       1.01644010E-03
  -7.78999996       1.02021161E-03
  -7.78000021       1.02232478E-03
  -7.76999998       1.02438231E-03
  -7.76000023       1.02732691E-03
  -7.75000000       1.03121309E-03
  -7.73999977       1.03530427E-03
  -7.73000002       1.03845051E-03
  -7.71999979       1.03959756E-03
  -7.71000004       1.03823142E-03
  -7.69999981       1.03460159E-03
  -7.69000006       1.02964882E-03
  -7.67999983       1.02467148E-03
  -7.67000008       1.02086423E-03
  -7.65999985       1.01890217E-03
  -7.65000010       1.01871428E-03
  -7.63999987       1.01952383E-03
  -7.63000011       1.02012570E-03
  -7.61999989       1.01929507E-03
  -7.61000013       1.01616711E-03
  -7.59999990       1.01047626E-03
  -7.59000015       1.00257550E-03
  -7.57999992       9.93265421E-04
  -7.57000017       9.83517151E-04
  -7.55999994       9.74203809E-04
  -7.55000019       9.65940708E-04
  -7.53999996       9.59059747E-04
  -7.53000021       9.53708659E-04
  -7.51999998       9.49984300E-04
  -7.51000023       9.48034110E-04
  -7.50000000       9.48062341E-04
  -7.48999977       9.50253569E-04
  -7.48000002       9.54655290E-04
  -7.46999979       9.61106096E-04
  -7.46000004       9.69254412E-04
  -7.44999981       9.78688709E-04
  -7.44000006       9.89131397E-04