  -16.0000000       0.00000000    
  -15.9899998       0.00000000    
  -15.9799995       0.00000000    
  -15.9700003       0.00000000    
  -15.9600000       0.00000000    
  -15.9499998       0.00000000    
  -15.9399996       0.00000000    
  -15.9300003       0.00000000    
  -15.9200001       0.00000000    
  -15.9099998       0.00000000    
  -15.8999996       0.00000000    
  -15.8900003       0.00000000    
  -15.8800001       0.00000000    
  -15.8699999      -5.39924502E-40
  -15.8599997      -1.48739424E-40
  -15.8500004       1.38095598E-37
  -15.8400002       2.17602038E-36
  -15.8299999       1.95024328E-35
  -15.8199997       1.25856059E-34
  -15.8100004       6.41771977E-34
  -15.8000002       2.71903764E-33
  -15.7900000       9.87411140E-33
  -15.7799997       3.13733300E-32
  -15.7700005       8.84109167E-32
  -15.7600002       2.22757684E-31
  -15.7500000       5.03060566E-31
  -15.7399998       1.01335635E-30
  -15.7299995       1.78854174E-30
  -15.7200003       2.63274830E-30
  -15.7100000       2.72907226E-30
  -15.6999998      -4.35365933E-32
  -15.6899996      -1.00569609E-29
  -15.6800003      -3.47853492E-29
  -15.6700001      -8.45433653E-29
  -15.6599998      -1.69115379E-28
  -15.6499996      -2.88326783E-28
  -15.6400003      -4.13620611E-28
  -15.6300001      -4.60378049E-28
  -15.6199999      -2.58025237E-28
  -15.6099997       4.61871367E-28
  -15.6000004       2.02216192E-27
  -15.5900002       4.65023643E-27
  -15.5799999       8.17487620E-27
  -15.5699997       1.15650891E-26
  -15.5600004       1.24063130E-26
  -15.5500002       6.57230450E-27
  -15.5400000      -1.14428935E-26
  -15.5299997      -4.68817201E-26
  -15.5200005      -1.01086461E-25
  -15.5100002      -1.65468875E-25
  -15.5000000      -2.13612982E-25
  -15.4899998      -1.93840689E-25
  -15.4799995      -2.76440928E-26
  -15.4700003       3.76640727E-25
  -15.4600000       1.08179977E-24
  -15.4499998       2.03845898E-24
  -15.4399996       2.95862539E-24
  -15.4300003       3.17445300E-24
  -15.4200001       1.56746425E-24
  -15.4099998      -3.26997814E-24
  -15.3999996      -1.24169554E-23
  -15.3900003      -2.53546805E-23
  -15.3800001      -3.80885900E-23
  -15.3699999      -4.12558792E-23
  -15.3599997      -1.96810320E-23
  -15.3500004       4.42458008E-23
  -15.3400002       1.60736733E-22
  -15.3299999       3.15160231E-22
  -15.3199997       4.46205830E-22
  -15.3100004       4.30466881E-22
  -15.3000002       9.32495689E-23
  -15.2900000      -7.29373220E-22
  -15.2799997      -2.05939134E-21
  -15.2700005      -3.58798517E-21
  -15.2600002      -4.49597745E-21
  -15.2500000      -3.42299050E-21
  -15.2399998       1.22038292E-21
  -15.2299995       1.04238021E-20
  -15.2200003       2.32246951E-20
  -15.2100000       3.51778556E-20
  -15.1999998       3.74910888E-20
  -15.1899996       1.81204414E-20
  -15.1800003      -3.38300650E-20
  -15.1700001      -1.19850638E-19
  -15.1599998      -2.21313569E-19
  -15.1499996      -2.90712290E-19
  -15.1400003      -2.52364792E-19
  -15.1300001      -2.14244561E-20
  -15.1199999       4.52918092E-19
  -15.1099997       1.12360771E-18
  -15.1000004       1.78083404E-18
  -15.0900002       2.02431445E-18
  -15.0799999       1.32325789E-18
  -15.0699997      -7.92357860E-19
  -15.0600004      -4.40449895E-18
  -15.0500002      -8.81466656E-18
  -15.0400000      -1.22554864E-17
  -15.0299997      -1.19597214E-17
  -15.0200005      -4.84875243E-18
  -15.0100002       1.10283855E-17
  -15.0000000       3.44871417E-17
  -14.9899998       5.92705084E-17
  -14.9799995       7.32945881E-17
  -14.9700003       6.04171197E-17
  -14.9600000       5.74871542E-18
  -14.9499998      -9.55717598E-17
  -14.9399996      -2.28114575E-16
  -14.9300003      -3.48628888E-16
  -14.9200001      -3.87158352E-16
  -14.9099998      -2.62550488E-16
  -14.8999996       8.50757841E-17
  -14.8900003       6.49139740E-16
  -14.8800001       1.31223223E-15
  -14.8699999       1.82505679E-15
  -14.8599997       1.83512991E-15
  -14.8500004       9.84956910E-16
  -14.8400002      -9.20816823E-16
  -14.8299999      -3.71372067E-15
  -14.8199997      -6.69830732E-15
  -14.8100004      -8.62912189E-15
  -14.8000002      -7.92869764E-15
  -14.7900000      -3.19729463E-15
  -14.7799997       6.03779738E-15
  -14.7700005       1.85276379E-14
  -14.7600002       3.07947569E-14
  -14.7500000       3.73141696E-14
  -14.7399998       3.17130626E-14
  -14.7299995       9.05296786E-15
  -14.7200003      -3.11768806E-14
  -14.7100000      -8.22569823E-14
  -14.6999998      -1.28947715E-13
  -14.6899996      -1.49114241E-13
  -14.6800003      -1.19186887E-13
  -14.6700001      -2.32361077E-14
  -14.6599998       1.36208021E-13
  -14.6499996       3.29181804E-13
  -14.6400003       4.95878295E-13
  -14.6300001       5.55181227E-13
  -14.6199999       4.26319814E-13
  -14.6099997       6.14678935E-14
  -14.6000004      -5.18371912E-13
  -14.5900002      -1.19698609E-12
  -14.5799999      -1.76123417E-12
  -14.5699997      -1.93661775E-12
  -14.5600004      -1.46395916E-12
  -14.5500002      -2.06602544E-13
  -14.5400000       1.73923820E-12
  -14.5299997       3.97211170E-12
  -14.5200005       5.79601558E-12
  -14.5100002       6.34709126E-12
  -14.5000000       4.84009577E-12
  -14.4899998       8.94089273E-13
  -14.4799995      -5.15017499E-12
  -14.4700003      -1.20421598E-11
  -14.4600000      -1.76869908E-11
  -14.4499998      -1.95450999E-11
  -14.4399996      -1.53577689E-11
  -14.4300003      -4.06685536E-12
  -14.4200001       1.33241187E-11
  -14.4099998       3.32796880E-11
  -14.3999996       4.99703577E-11
  -14.3900003       5.64061610E-11
  -14.3800001       4.64050187E-11
  -14.3699999       1.70186313E-11
  -14.3599997      -2.92573223E-11
  -14.3500004      -8.33320982E-11
  -14.3400002      -1.30195521E-10
  -14.3299999      -1.51832824E-10
  -14.3199997      -1.32166972E-10
  -14.3100004      -6.30417038E-11
  -14.3000002       5.03952331E-11
  -14.2900000       1.86917024E-10
  -14.2799997       3.10805076E-10
  -14.2700005       3.78676146E-10
  -14.2600002       3.50966811E-10
  -14.2500000       2.05757883E-10
  -14.2399998      -4.88079646E-11
  -14.2299995      -3.67953445E-10
  -14.2200003      -6.73371192E-10
  -14.2100000      -8.67781846E-10
  -14.1999998      -8.59656846E-10
  -14.1899996      -5.93067429E-10
  -14.1800003      -7.47613013E-11
  -14.1700001       6.10762663E-10
  -14.1599998       1.30603928E-09
  -14.1499996       1.80896420E-09
  -14.1400003       1.92192484E-09
  -14.1300001       1.51197499E-09
  -14.1199999       5.66349578E-10
  -14.1099997      -7.74586506E-10
  -14.1000004      -2.22213958E-09
  -14.0900002      -3.38928108E-09
  -14.0799999      -3.88089427E-09
  -14.0699997      -3.40649087E-09
  -14.0600004      -1.88679561E-09
  -14.0500002       4.78521556E-10
  -14.0400000       3.20989413E-09
  -14.0299997       5.62750024E-09
  -14.0200005       7.00427494E-09
  -14.0100002       6.76200917E-09
  -14.0000000       4.66196237E-09
  -13.9899998       9.34254452E-10
  -13.9799995      -3.70247188E-09
  -13.9700003      -8.15566104E-09
  -13.9600000      -1.11983045E-08
  -13.9499998      -1.17861267E-08
  -13.9399996      -9.37498434E-09
  -13.9300003      -4.14908552E-09
  -13.9200001       2.91842617E-09
  -13.9099998       1.02146887E-08
  -13.8999996       1.58358855E-08
  -13.8900003       1.80662063E-08
  -13.8800001       1.58717555E-08
  -13.8699999       9.27422938E-09
  -13.8599997      -5.16499510E-10
  -13.8500004      -1.12795329E-08
  -13.8400002      -2.02607016E-08
  -13.8299999      -2.48566927E-08
  -13.8199997      -2.33431514E-08
  -13.8100004      -1.54497624E-08
  -13.8000002      -2.60674016E-09
  -13.7900000       1.22456916E-08
  -13.7799997       2.52828976E-08
  -13.7700005       3.27379652E-08
  -13.7600002       3.19360396E-08
  -13.7500000       2.21529763E-08
  -13.7399998       5.04200637E-09
  -13.7299995      -1.55366600E-08
  -13.7200003      -3.43031239E-08
  -13.7100000      -4.58217606E-08
  -13.6999998      -4.59545291E-08
  -13.6899996      -3.31357981E-08
  -13.6800003      -9.10954245E-09
  -13.6700001       2.11277289E-08
  -13.6599998       5.02527726E-08
  -13.6499996       7.02638587E-08
  -13.6400003       7.45009601E-08
  -13.6300001       5.95537912E-08
  -13.6199999       2.65505200E-08
  -13.6099997      -1.85728766E-08
  -13.6000004      -6.60053985E-08
  -13.5900002      -1.04086816E-07
  -13.5799999      -1.22033768E-07
  -13.5699997      -1.12748829E-07
  -13.5600004      -7.50134816E-08
  -13.5500002      -1.44492294E-08
  -13.5400000       5.71247618E-08
  -13.5299997       1.23940552E-07
  -13.5200005       1.69738897E-07
  -13.5100002       1.81695100E-07
  -13.5000000       1.53873515E-07
  -13.4899998       8.93068375E-08
  -13.4799995       4.40699942E-11
  -13.4700003      -9.50391765E-08
  -13.4600000      -1.74323802E-07
  -13.4499998      -2.18564338E-07
  -13.4399996      -2.15841538E-07
  -13.4300003      -1.65057102E-07
  -13.4200001      -7.69521122E-08
  -13.4099998       2.78513177E-08
  -13.3999996       1.23535244E-07
  -13.3900003       1.85530325E-07
  -13.3800001       1.97162436E-07
  -13.3699999       1.54759732E-07
  -13.3599997       6.96852496E-08
  -13.3500004      -3.35684440E-08
  -13.3400002      -1.23115541E-07
  -13.3299999      -1.68097813E-07
  -13.3199997      -1.47773875E-07
  -13.3100004      -5.88696984E-08
  -13.3000002       8.10573937E-08
  -13.2900000       2.35654397E-07
  -13.2799997       3.57335438E-07
  -13.2700005       3.99051544E-07
  -13.2600002       3.27603971E-07
  -13.2500000       1.35161812E-07
  -13.2399998      -1.54331957E-07
  -13.2299995      -4.86232580E-07
  -13.2200003      -7.84428778E-07
  -13.2100000      -9.67400069E-07
  -13.1999998      -9.67852998E-07
  -13.1899996      -7.51410028E-07
  -13.1800003      -3.29538949E-07
  -13.1700001       2.37092991E-07
  -13.1599998       8.46740249E-07
  -13.1499996       1.37532561E-06
  -13.1400003       1.70241765E-06
  -13.1300001       1.73875878E-06
  -13.1199999       1.44903515E-06
  -13.1099997       8.64006211E-07
  -13.1000004       7.83879486E-08
  -13.0900002      -7.66047719E-07
  -13.0799999      -1.50910830E-06
  -13.0699997      -2.00650197E-06
  -13.0600004      -2.16202557E-06
  -13.0500002      -1.94988388E-06
  -13.0400000      -1.42131705E-06
  -13.0299997      -6.93295647E-07
  -13.0200005       7.87686076E-08
  -13.0100002       7.38175174E-07
  -13.0000000       1.16510626E-06
  -12.9899998       1.30621538E-06
  -12.9799995       1.18764444E-06
  -12.9700003       9.07240860E-07
  -12.9600000       6.06862443E-07
  -12.9499998       4.30875588E-07
  -12.9399996       4.81002758E-07
  -12.9300003       7.79557354E-07
  -12.9200001       1.25183055E-06
  -12.9099998       1.73438775E-06
  -12.8999996       2.00998261E-06
  -12.8900003       1.86282136E-06
  -12.8800001       1.14200839E-06
  -12.8699999      -1.82409778E-07
  -12.8599997      -1.98625617E-06
  -12.8500004      -3.99228065E-06
  -12.8400002      -5.80953520E-06
  -12.8299999      -7.00628607E-06
  -12.8199997      -7.20285107E-06
  -12.8100004      -6.16463103E-06
  -12.8000002      -3.87385398E-06
  -12.7900000      -5.61024422E-07
  -12.7799997       3.31461797E-06
  -12.7700005       7.13588315E-06
  -12.7600002       1.02379754E-05
  -12.7500000       1.20368704E-05
  -12.7399998       1.21489420E-05
  -12.7299995       1.04751416E-05
  -12.7200003       7.22996538E-06
  -12.7100000       2.90653588E-06
  -12.6999998      -1.81618850E-06
  -12.6899996      -6.20565743E-06
  -12.6800003      -9.61877868E-06
  -12.6700001      -1.16242063E-05
  -12.6599998      -1.20766226E-05
  -12.6499996      -1.11260724E-05
  -12.6400003      -9.16058980E-06
  -12.6300001      -6.69610836E-06
  -12.6199999      -4.24062864E-06
  -12.6099997      -2.16622675E-06
  -12.6000004      -6.21200115E-07
  -12.5900002       4.94222093E-07
  -12.5799999       1.48142135E-06
  -12.5699997       2.73576211E-06
  -12.5600004       4.60472302E-06
  -12.5500002       7.24799565E-06
  -12.5400000       1.05383851E-05
  -12.5299997       1.40336815E-05
  -12.5200005       1.70342937E-05
  -12.5100002       1.87202622E-05
  -12.5000000       1.83412139E-05
  -12.4899998       1.54167537E-05
  -12.4799995       9.89931232E-06
  -12.4700003       2.25538133E-06
  -12.4600000      -6.56201701E-06
  -12.4499998      -1.52543471E-05
  -12.4399996      -2.24105388E-05
  -12.4300003      -2.67874584E-05
  -12.4200001      -2.75799484E-05
  -12.4099998      -2.46217714E-05
  -12.3999996      -1.84692381E-05
  -12.3900003      -1.03448037E-05
  -12.3800001      -1.94584550E-06
  -12.3699999       4.84573593E-06
  -12.3599997       8.29534019E-06
  -12.3500004       7.12041583E-06
  -12.3400002       7.05346793E-07
  -12.3299999      -1.08171653E-05
  -12.3199997      -2.66336920E-05
  -12.3100004      -4.54464425E-05
  -12.3000002      -6.57515775E-05
  -12.2900000      -8.61318622E-05
  -12.2799997      -1.05496161E-04
  -12.2700005      -1.23208389E-04
  -12.2600002      -1.39078678E-04
  -12.2500000      -1.53223518E-04
  -12.2399998      -1.65830701E-04
  -12.2299995      -1.76900110E-04
  -12.2200003      -1.86028032E-04
  -12.2100000      -1.92301217E-04
  -12.1999998      -1.94343505E-04
  -12.1899996      -1.90514722E-04
  -12.1800003      -1.79226350E-04
  -12.1700001      -1.59310701E-04
  -12.1599998      -1.30350192E-04
  -12.1499996      -9.28928421E-05
  -12.1400003      -4.84855082E-05
  -12.1300001       4.89959348E-07
  -12.1199999       5.11653125E-05
  -12.1099997       1.00646590E-04
  -12.1000004       1.46500781E-04
  -12.0900002       1.87159720E-04
  -12.0799999       2.22164090E-04
  -12.0699997       2.52181315E-04
  -12.0600004       2.78802676E-04
  -12.0500002       3.04154702E-04
  -12.0400000       3.30409326E-04
  -12.0299997       3.59300233E-04
  -12.0200005       3.91745038E-04
  -12.0100002       4.27657593E-04
  -12.0000000       4.65979479E-04
  -11.9899998       5.04922529E-04
  -11.9799995       5.42358495E-04
  -11.9700003       5.76261315E-04
  -11.9600000       6.05099311E-04
  -11.9499998       6.28082140E-04
  -11.9399996       6.45214226E-04
  -11.9300003       6.57138531E-04
  -11.9200001       6.64810592E-04
  -11.9099998       6.69094385E-04
  -11.8999996       6.70364185E-04
  -11.8900003       6.68222143E-04
  -11.8800001       6.61399274E-04
  -11.8699999       6.47867972E-04
  -11.8599997       6.25150045E-04
  -11.8500004       5.90749958E-04
  -11.8400002       5.42628928E-04
  -11.8299999       4.79607639E-04
  -11.8199997       4.01622441E-04
  -11.8100004       3.09770287E-04
  -11.8000002       2.06146913E-04
  -11.7900000       9.35044663E-05
  -11.7799997      -2.51810125E-05
  -11.7700005      -1.47160972E-04
  -11.7600002      -2.70257995E-04
  -11.7500000      -3.93082388E-04
  -11.7399998      -5.15032792E-04
  -11.7299995      -6.36141049E-04
  -11.7200003      -7.56779860E-04
  -11.7100000      -8.77318205E-04
  -11.6999998      -9.97808413E-04
  -11.6899996      -1.11778302E-03
  -11.6800003      -1.23618694E-03
  -11.6700001      -1.35148049E-03
  -11.6599998      -1.46186352E-03
  -11.6499996      -1.56557932E-03
  -11.6400003      -1.66120694E-03
  -11.6300001      -1.74789166E-03
  -11.6199999      -1.82544324E-03
  -11.6099997      -1.89428194E-03
  -11.6000004      -1.95524958E-03
  -11.5900002      -2.00931053E-03
  -11.5799999      -2.05723476E-03
  -11.5699997      -2.09929748E-03
  -11.5600004      -2.13508168E-03
  -11.5500002      -2.16341810E-03
  -11.5400000      -2.18245294E-03
  -11.5299997      -2.18985765E-03
  -11.5200005      -2.18309020E-03
  -11.5100002      -2.15968559E-03
  -11.5000000      -2.11748364E-03
  -11.4899998      -2.05478235E-03
  -11.4799995      -1.97036867E-03
  -11.4700003      -1.86345947E-03
  -11.4600000      -1.73354906E-03
  -11.4499998      -1.58026291E-03
  -11.4399996      -1.40321674E-03
  -11.4300003      -1.20195607E-03
  -11.4200001      -9.75985895E-04
  -11.4099998      -7.24863785E-04
  -11.3999996      -4.48378065E-04
  -11.3900003      -1.46707782E-04
  -11.3800001       1.79440889E-04
  -11.3699999       5.28773817E-04
  -11.3599997       8.99445673E-04
  -11.3500004       1.28919119E-03
  -11.3400002       1.69551233E-03
  -11.3299999       2.11589225E-03
  -11.3199997       2.54797121E-03
  -11.3100004       2.98967515E-03
  -11.3000002       3.43923899E-03
  -11.2900000       3.89517262E-03
  -11.2799997       4.35615657E-03
  -11.2700005       4.82092239E-03
  -11.2600002       5.28816786E-03
  -11.2500000       5.75652393E-03
  -11.2399998       6.22459082E-03
  -11.2299995       6.69104885E-03
  -11.2200003       7.15478649E-03
  -11.2100000       7.61502609E-03
  -11.1999998       8.07139464E-03
  -11.1899996       8.52393173E-03
  -11.1800003       8.97296332E-03
  -11.1700001       9.41897370E-03
  -11.1599998       9.86235030E-03
  -11.1499996       1.03032049E-02
  -11.1400003       1.07412152E-02
  -11.1300001       1.11755319E-02
  -11.1199999       1.16048045E-02
  -11.1099997       1.20272962E-02
  -11.1000004       1.24410354E-02
  -11.0900002       1.28439814E-02
  -11.0799999       1.32342065E-02
  -11.0699997       1.36099933E-02
  -11.0600004       1.39698964E-02
  -11.0500002       1.43127711E-02
  -11.0400000       1.46377357E-02
  -11.0299997       1.49441510E-02
  -11.0200005       1.52316364E-02
  -11.0100002       1.55000994E-02
  -11.0000000       1.57497767E-02
  -10.9899998       1.59813445E-02
  -10.9799995       1.61959473E-02
  -10.9700003       1.63952410E-02
  -10.9600000       1.65813696E-02
  -10.9499998       1.67568605E-02
  -10.9399996       1.69244818E-02
  -10.9300003       1.70870647E-02
  -10.9200001       1.72473378E-02
  -10.9099998       1.74077637E-02
  -10.8999996       1.75704323E-02
  -10.8900003       1.77370422E-02
  -10.8800001       1.79089066E-02
  -10.8699999       1.80870108E-02
  -10.8599997       1.82720963E-02
  -10.8500004       1.84647068E-02
  -10.8400002       1.86652299E-02
  -10.8299999       1.88738052E-02
  -10.8199997       1.90903209E-02
  -10.8100004       1.93142314E-02
  -10.8000002       1.95444915E-02
  -10.7900000       1.97794680E-02
  -10.7799997       2.00169459E-02
  -10.7700005       2.02541966E-02
  -10.7600002       2.04882100E-02
  -10.7500000       2.07158811E-02
  -10.7399998       2.09343806E-02
  -10.7299995       2.11413670E-02
  -10.7200003       2.13352256E-02
  -10.7100000       2.15151571E-02
  -10.6999998       2.16811616E-02
  -10.6899996       2.18338985E-02
  -10.6800003       2.19744239E-02
  -10.6700001       2.21039765E-02
  -10.6599998       2.22236961E-02
  -10.6499996       2.23344881E-02
  -10.6400003       2.24369578E-02
  -10.6300001       2.25314461E-02
  -10.6199999       2.26181895E-02
  -10.6099997       2.26975139E-02
  -10.6000004       2.27699522E-02
  -10.5900002       2.28363965E-02
  -10.5799999       2.28981562E-02
  -10.5699997       2.29568277E-02
  -10.5600004       2.30142232E-02
  -10.5500002       2.30721142E-02
  -10.5400000       2.31321305E-02
  -10.5299997       2.31955163E-02
  -10.5200005       2.32630856E-02
  -10.5100002       2.33351495E-02
  -10.5000000       2.34115347E-02
  -10.4899998       2.34915968E-02
  -10.4799995       2.35743374E-02
  -10.4700003       2.36584395E-02
  -10.4600000       2.37424057E-02
  -10.4499998       2.38246396E-02
  -10.4399996       2.39035543E-02
  -10.4300003       2.39777006E-02
  -10.4200001       2.40458660E-02
  -10.4099998       2.41071507E-02
  -10.3999996       2.41610184E-02
  -10.3900003       2.42072958E-02
  -10.3800001       2.42460053E-02
  -10.3699999       2.42774095E-02
  -10.3599997       2.43018363E-02
  -10.3500004       2.43195668E-02
  -10.3400002       2.43308954E-02
  -10.3299999       2.43361015E-02
  -10.3199997       2.43355390E-02
  -10.3100004       2.43297219E-02
  -10.3000002       2.43195202E-02
  -10.2900000       2.43060533E-02
  -10.2799997       2.42907926E-02
  -10.2700005       2.42754351E-02
  -10.2600002       2.42617782E-02
  -10.2500000       2.42515504E-02
  -10.2399998       2.42464580E-02
  -10.2299995       2.42479686E-02
  -10.2200003       2.42575239E-02
  -10.2100000       2.42764782E-02
  -10.1999998       2.43063252E-02
  -10.1899996       2.43487563E-02
  -10.1800003       2.44056508E-02
  -10.1700001       2.44791172E-02
  -10.1599998       2.45713368E-02
  -10.1499996       2.46844403E-02
  -10.1400003       2.48203278E-02
  -10.1300001       2.49805879E-02
  -10.1199999       2.51664035E-02
  -10.1099997       2.53785588E-02
  -10.1000004       2.56175362E-02
  -10.0900002       2.58835461E-02
  -10.0799999       2.61767637E-02
  -10.0699997       2.64972821E-02
  -10.0600004       2.68452521E-02
  -10.0500002       2.72209253E-02
  -10.0400000       2.76246313E-02
  -10.0299997       2.80567650E-02
  -10.0200005       2.85177827E-02
  -10.0100002       2.90081818E-02
  -10.0000000       2.95283236E-02
  -9.98999977       3.00785154E-02
  -9.97999954       3.06587424E-02
  -9.97000027       3.12686302E-02
  -9.96000004       3.19071673E-02
  -9.94999981       3.25728506E-02
  -9.93999958       3.32634635E-02
  -9.93000031       3.39763761E-02
  -9.92000008       3.47085260E-02
  -9.90999985       3.54570225E-02
  -9.89999962       3.62192281E-02
  -9.89000034       3.69933918E-02
  -9.88000011       3.77788134E-02
  -9.86999989       3.85760516E-02
  -9.85999966       3.93872149E-02
  -9.85000038       4.02157046E-02
  -9.84000015       4.10663001E-02
  -9.82999992       4.19445150E-02
  -9.81999969       4.28566225E-02
  -9.81000042       4.38090190E-02
  -9.80000019       4.48079221E-02
  -9.78999996       4.58589830E-02
  -9.77999973       4.69669253E-02
  -9.77000046       4.81354967E-02
  -9.76000023       4.93672304E-02
  -9.75000000       5.06637134E-02
  -9.73999977       5.20254448E-02
  -9.72999954       5.34523278E-02
  -9.72000027       5.49436621E-02
  -9.71000004       5.64985313E-02
  -9.69999981       5.81158325E-02
  -9.68999958       5.97943254E-02
  -9.68000031       6.15322553E-02
  -9.67000008       6.33278117E-02
  -9.65999985       6.51782081E-02
  -9.64999962       6.70800507E-02
  -9.64000034       6.90287873E-02
  -9.63000011       7.10189566E-02
  -9.61999989       7.30440170E-02
  -9.60999966       7.50966668E-02
  -9.60000038       7.71687031E-02
  -9.59000015       7.92515427E-02
  -9.57999992       8.13360661E-02
  -9.56999969       8.34129304E-02
  -9.56000042       8.54726955E-02
  -9.55000019       8.75059739E-02
  -9.53999996       8.95035267E-02
  -9.52999973       9.14564133E-02
  -9.52000046       9.33563560E-02
  -9.51000023       9.51955542E-02
  -9.50000000       9.69670862E-02
  -9.48999977       9.86645818E-02
  -9.47999954      0.100282572    
  -9.47000027      0.101815969    
  -9.46000004      0.103260197    
  -9.44999981      0.104610831    
  -9.43999958      0.105863959    
  -9.43000031      0.107015960    
  -9.42000008      0.108063906    
  -9.40999985      0.109005630    
  -9.39999962      0.109840326    
  -9.39000034      0.110568561    
  -9.38000011      0.111192860    
  -9.36999989      0.111717530    
  -9.35999966      0.112148724    
  -9.35000038      0.112494528    
  -9.34000015      0.112764664    
  -9.32999992      0.112970360    
  -9.31999969      0.113123789    
  -9.31000042      0.113238454    
  -9.30000019      0.113328479    
  -9.28999996      0.113409333    
  -9.27999973      0.113496743    
  -9.27000046      0.113607697    
  -9.26000023      0.113759950    
  -9.25000000      0.113971300    
  -9.23999977      0.114260145    
  -9.22999954      0.114644542    
  -9.22000027      0.115141891    
  -9.21000004      0.115768194    
  -9.19999981      0.116537809    
  -9.18999958      0.117463216    
  -9.18000031      0.118555307    
  -9.17000008      0.119823031    
  -9.15999985      0.121274091    
  -9.14999962      0.122915491    
  -9.14000034      0.124753140    
  -9.13000011      0.126792580    
  -9.11999989      0.129038304    
  -9.10999966      0.131493494    
  -9.10000038      0.134159297    
  -9.09000015      0.137034327    
  -9.07999992      0.140114456    
  -9.06999969      0.143392578    
  -9.06000042      0.146858826    
  -9.05000019      0.150501311    
  -9.03999996      0.154306620    
  -9.02999973      0.158260465    
  -9.02000046      0.162347510    
  -9.01000023      0.166552395    
  -9.00000000      0.170858130    
  -8.98999977      0.175247073    
  -8.97999954      0.179699242    
  -8.97000027      0.184193149    
  -8.96000004      0.188705489    
  -8.94999981      0.193211854    
  -8.93999958      0.197686970    
  -8.93000031      0.202105954    
  -8.92000008      0.206444710    
  -8.90999985      0.210680112    
  -8.89999962      0.214790285    
  -8.89000034      0.218753606    
  -8.88000011      0.222549140    
  -8.86999989      0.226155743    
  -8.85999966      0.229552567    
  -8.85000038      0.232719034    
  -8.84000015      0.235635772    
  -8.82999992      0.238285020    
  -8.81999969      0.240651935    
  -8.81000042      0.242724568    
  -8.80000019      0.244493425    
  -8.78999996      0.245951906    
  -8.77999973      0.247094736    
  -8.77000046      0.247918561    
  -8.76000023      0.248420969    
  -8.75000000      0.248600349    
  -8.73999977      0.248457029    
  -8.72999954      0.247993037    
  -8.72000027      0.247212723    
  -8.71000004      0.246123195    
  -8.69999981      0.244733796    
  -8.68999958      0.243056327    
  -8.68000031      0.241103917    
  -8.67000008      0.238890693    
  -8.65999985      0.236431450    
  -8.64999962      0.233741686    
  -8.64000034      0.230837435    
  -8.63000011      0.227736726    
  -8.61999989      0.224458203    
  -8.60999966      0.221023411    
  -8.60000038      0.217453972    
  -8.59000015      0.213772207    
  -8.57999992      0.210000455    
  -8.56999969      0.206160352    
  -8.56000042      0.202271476    
  -8.55000019      0.198352724    
  -8.53999996      0.194422081    
  -8.52999973      0.190497443    
  -8.52000046      0.186598197    
  -8.51000023      0.182743579    
  -8.50000000      0.178954482    
  -8.48999977      0.175250903    
  -8.47999954      0.171651512    
  -8.47000027      0.168173432    
  -8.46000004      0.164830506    
  -8.44999981      0.161633655    
  -8.43999958      0.158590958    
  -8.43000031      0.155710161    
  -8.42000008      0.152997926    
  -8.40999985      0.150461271    
  -8.39999962      0.148108616    
  -8.39000034      0.145947456    
  -8.38000011      0.143985197    
  -8.36999989      0.142227426    
  -8.35999966      0.140677482    
  -8.35000038      0.139335722    
  -8.34000015      0.138201401    
  -8.32999992      0.137272522    
  -8.31999969      0.136546686    
  -8.31000042      0.136023879    
  -8.30000019      0.135704800    
  -8.28999996      0.135591075    
  -8.27999973      0.135685414    
  -8.27000046      0.135988832    
  -8.26000023      0.136500657    
  -8.25000000      0.137217760    
  -8.23999977      0.138134956    
  -8.22999954      0.139246404    
  -8.22000027      0.140546352    
  -8.21000004      0.142030135    
  -8.19999981      0.143697053    
  -8.18999958      0.145547286    
  -8.18000031      0.147584915    
  -8.17000008      0.149813995    
  -8.15999985      0.152240455    
  -8.14999962      0.154869154    
  -8.14000034      0.157704294    
  -8.13000011      0.160750151    
  -8.11999989      0.164011568    
  -8.10999966      0.167493880    
  -8.10000038      0.171204656    
  -8.09000015      0.175152093    
  -8.07999992      0.179346308    
  -8.06999969      0.183796585    
  -8.06000042      0.188512564    
  -8.05000019      0.193501070    
  -8.03999996      0.198769107    
  -8.02999973      0.204320565    
  -8.02000046      0.210159242    
  -8.01000023      0.216288343    
  -8.00000000      0.222710535    
  -7.98999977      0.229428068    
  -7.98000002      0.236442342    
  -7.96999979      0.243754297    
  -7.96000004      0.251362294    
  -7.94999981      0.259262592    
  -7.94000006      0.267449975    
  -7.92999983      0.275917381    
  -7.92000008      0.284655124    
  -7.90999985      0.293654889    
  -7.90000010      0.302905887    
  -7.88999987      0.312397420    
  -7.88000011      0.322116762    
  -7.86999989      0.332050025    
  -7.86000013      0.342182279    
  -7.84999990      0.352495849    
  -7.84000015      0.362972528    
  -7.82999992      0.373591781    
  -7.82000017      0.384333789    
  -7.80999994      0.395178765    
  -7.80000019      0.406106651    
  -7.78999996      0.417096585    
  -7.78000021      0.428128958    
  -7.76999998      0.439182669    
  -7.76000023      0.450238019    
  -7.75000000      0.461275548    
  -7.73999977      0.472276777    
  -7.73000002      0.483226299    
  -7.71999979      0.494110435    
  -7.71000004      0.504917741    
  -7.69999981      0.515638769    
  -7.69000006      0.526264966    
  -7.67999983      0.536786139    
  -7.67000008      0.547192752    
  -7.65999985      0.557471991    
  -7.65000010      0.567611396    
  -7.63999987      0.577599347    
  -7.63000011      0.587425292    
  -7.61999989      0.597081363    
  -7.61000013      0.606562912    
  -7.59999990      0.615865886    
  -7.59000015      0.624990761    
  -7.57999992      0.633936465    
  -7.57000017      0.642703235    
  -7.55999994      0.651288152    
  -7.55000019      0.659690976    
  -7.53999996      0.667911828    
  -7.53000021      0.675953567    
  -7.51999998      0.683820426    
  -7.51000023      0.691521704    
  -7.50000000      0.699069738    
  -7.48999977      0.706476331    
  -7.48000002      0.713754773    
  -7.46999979      0.720917344    
  -7.46000004      0.727973104    
  -7.44999981      0.734930694    
  -7.44000006      0.741798043    