  -16.0000000       0.00000000    
  -15.9899998       0.00000000    
  -15.9799995       0.00000000    
  -15.9700003       0.00000000    
  -15.9600000       0.00000000    
  -15.9499998       0.00000000    
  -15.9399996       0.00000000    
  -15.9300003       0.00000000    
  -15.9200001       0.00000000    
  -15.9099998       0.00000000    
  -15.8999996       0.00000000    
  -15.8900003       0.00000000    
  -15.8800001       0.00000000    
  -15.8699999       0.00000000    
  -15.8599997       4.20389539E-45
  -15.8500004       6.16571324E-44
  -15.8400002       6.68419367E-43
  -15.8299999       5.63321983E-42
  -15.8199997       3.85132870E-41
  -15.8100004       2.20994577E-40
  -15.8000002       1.09045824E-39
  -15.7900000       4.71233973E-39
  -15.7799997       1.80897753E-38
  -15.7700005       6.23783976E-38
  -15.7600002       1.94904518E-37
  -15.7500000       5.55519284E-37
  -15.7399998       1.45140961E-36
  -15.7299995       3.48716383E-36
  -15.7200003       7.71494291E-36
  -15.7100000       1.57039100E-35
  -15.6999998       2.92971017E-35
  -15.6899996       4.96596428E-35
  -15.6800003       7.51197139E-35
  -15.6700001       9.74626014E-35
  -15.6599998       9.70505240E-35
  -15.6499996       3.86677173E-35
  -15.6400003      -1.27711480E-34
  -15.6300001      -4.54714000E-34
  -15.6199999      -9.66870644E-34
  -15.6099997      -1.60843314E-33
  -15.6000004      -2.17817652E-33
  -15.5900002      -2.27919483E-33
  -15.5799999      -1.33465316E-33
  -15.5699997       1.26579757E-33
  -15.5600004       5.84010352E-33
  -15.5500002       1.19265326E-32
  -15.5400000       1.77795034E-32
  -15.5299997       2.01529852E-32
  -15.5200005       1.47926193E-32
  -15.5100002      -1.99596516E-33
  -15.5000000      -3.06955194E-32
  -15.4899998      -6.55597826E-32
  -15.4799995      -9.28888449E-32
  -15.4700003      -9.29548900E-32
  -15.4600000      -4.76332822E-32
  -15.4499998       4.63174808E-32
  -15.4399996       1.62605569E-31
  -15.4300003       2.39016511E-31
  -15.4200001       1.92497544E-31
  -15.4099998      -3.39358107E-32
  -15.3999996      -3.96193835E-31
  -15.3900003      -6.76247747E-31
  -15.3800001      -4.73469376E-31
  -15.3699999       6.59805496E-31
  -15.3599997       2.88384932E-30
  -15.3500004       5.58044935E-30
  -15.3400002       6.91908539E-30
  -15.3299999       3.89046989E-30
  -15.3199997      -6.68600423E-30
  -15.3100004      -2.58585796E-29
  -15.3000002      -4.92481502E-29
  -15.2900000      -6.41385348E-29
  -15.2799997      -4.95195619E-29
  -15.2700005       1.77862083E-29
  -15.2600002       1.48893548E-28
  -15.2500000       3.22183500E-28
  -15.2399998       4.64054939E-28
  -15.2299995       4.45823364E-28
  -15.2200003       1.14897586E-28
  -15.2100000      -6.27299457E-28
  -15.1999998      -1.70762521E-27
  -15.1899996      -2.76360412E-27
  -15.1800003      -3.10267738E-27
  -15.1700001      -1.83533381E-27
  -15.1599998       1.74519143E-27
  -15.1499996       7.55630679E-27
  -15.1400003       1.40723526E-26
  -15.1300001       1.79883413E-26
  -15.1199999       1.46802623E-26
  -15.1099997      -1.44075449E-28
  -15.1000004      -2.76053030E-26
  -15.0900002      -6.23422660E-26
  -15.0799999      -9.03120505E-26
  -15.0699997      -8.98871195E-26
  -15.0600004      -3.82291239E-26
  -15.0500002       7.66051177E-26
  -15.0400000       2.40326549E-25
  -15.0299997       4.00097974E-25
  -15.0200005       4.64481942E-25
  -15.0100002       3.24868082E-25
  -15.0000000      -9.76216541E-26
  -14.9899998      -7.86956447E-25
  -14.9799995      -1.57118107E-24
  -14.9700003      -2.10166804E-24
  -14.9600000      -1.91235266E-24
  -14.9499998      -5.83354652E-25
  -14.9399996       2.00544535E-24
  -14.9300003       5.40265472E-24
  -14.9200001       8.42513939E-24
  -14.9099998       9.26734622E-24
  -14.8999996       6.00316996E-24
  -14.8900003      -2.51763341E-24
  -14.8800001      -1.55759860E-23
  -14.8699999      -2.97160748E-23
  -14.8599997      -3.86814285E-23
  -14.8500004      -3.46936325E-23
  -14.8400002      -1.12839413E-23
  -14.8299999       3.27433095E-23
  -14.8199997       8.94427218E-23
  -14.8100004       1.39872700E-22
  -14.8000002       1.56345971E-22
  -14.7900000       1.10158279E-22
  -14.7799997      -1.56176173E-23
  -14.7700005      -2.11293541E-22
  -14.7600002      -4.29375501E-22
  -14.7500000      -5.84240635E-22
  -14.7399998      -5.68958039E-22
  -14.7299995      -2.91207208E-22
  -14.7200003       2.77291373E-22
  -14.7100000       1.05248535E-21
  -14.6999998       1.81282023E-21
  -14.6899996       2.22062108E-21
  -14.6800003       1.90535137E-21
  -14.6700001       6.05150675E-22
  -14.6599998      -1.66391742E-21
  -14.6499996      -4.46883599E-21
  -14.6400003      -6.92499291E-21
  -14.6300001      -7.83287210E-21
  -14.6199999      -6.01420648E-21
  -14.6099997      -8.06479337E-22
  -14.6000004       7.41042273E-21
  -14.5900002       1.68547921E-20
  -14.5799999       2.43759286E-20
  -14.5699997       2.60507108E-20
  -14.5600004       1.83681513E-20
  -14.5500002      -1.96748460E-22
  -14.5400000      -2.76618826E-20
  -14.5299997      -5.76875759E-20
  -14.5200005      -8.00255108E-20
  -14.5100002      -8.26668924E-20
  -14.5000000      -5.56086319E-20
  -14.4899998       4.49572542E-21
  -14.4799995       9.01774468E-20
  -14.4700003       1.81251661E-19
  -14.4600000       2.46823302E-19
  -14.4499998       2.52068894E-19
  -14.4399996       1.69253328E-19
  -14.4300003      -9.32710845E-21
  -14.4200001      -2.60392735E-19
  -14.4099998      -5.25445081E-19
  -14.3999996      -7.17378797E-19
  -14.3900003      -7.39778176E-19
  -14.3800001      -5.16928843E-19
  -14.3699999      -2.80742580E-20
  -14.3599997       6.64424659E-19
  -14.3500004       1.40500732E-18
  -14.3400002       1.96296101E-18
  -14.3299999       2.08257402E-18
  -14.3199997       1.55981520E-18
  -14.3100004       3.29039652E-19
  -14.3000002      -1.46583725E-18
  -14.2900000      -3.44472480E-18
  -14.2799997      -5.03327202E-18
  -14.2700005      -5.58258695E-18
  -14.2600002      -4.55347624E-18
  -14.2500000      -1.72659022E-18
  -14.2399998       2.62100821E-18
  -14.2299995       7.64027027E-18
  -14.2200003       1.19917507E-17
  -14.2100000       1.41077457E-17
  -14.1999998       1.26082252E-17
  -14.1899996       6.78717657E-18
  -14.1800003      -2.96101046E-18
  -14.1700001      -1.49251871E-17
  -14.1599998      -2.61998110E-17
  -14.1499996      -3.32073013E-17
  -14.1400003      -3.25761129E-17
  -14.1300001      -2.22093941E-17
  -14.1199999      -2.27530875E-18
  -14.1099997       2.41998206E-17
  -14.1000004       5.14210740E-17
  -14.0900002       7.17549866E-17
  -14.0799999       7.74490928E-17
  -14.0699997       6.28430750E-17
  -14.0600004       2.65526085E-17
  -14.0500002      -2.70162002E-17
  -14.0400000      -8.74289210E-17
  -14.0299997      -1.39646629E-16
  -14.0200005      -1.67110111E-16
  -14.0100002      -1.56005708E-16
  -14.0000000      -9.97821686E-17
  -13.9899998      -2.70243690E-18
  -13.9799995       1.18790680E-16
  -13.9700003       2.37771889E-16
  -13.9600000       3.21802984E-16
  -13.9499998       3.40515212E-16
  -13.9399996       2.74274165E-16
  -13.9300003       1.21777093E-16
  -13.9200001      -9.57173369E-17
  -13.9099998      -3.35364828E-16
  -13.8999996      -5.39695354E-16
  -13.8900003      -6.48854925E-16
  -13.8800001      -6.15855104E-16
  -13.8699999      -4.21320647E-16
  -13.8599997      -8.37057612E-17
  -13.8500004       3.38547158E-16
  -13.8400002       7.54909220E-16
  -13.8299999       1.06038901E-15
  -13.8199997       1.15989420E-15
  -13.8100004       9.94086020E-16
  -13.8000002       5.60216315E-16
  -13.7900000      -7.82437751E-17
  -13.7799997      -7.97401158E-16
  -13.7700005      -1.43497980E-15
  -13.7600002      -1.82529163E-15
  -13.7500000      -1.84000268E-15
  -13.7399998      -1.42504918E-15
  -13.7299995      -6.23766974E-16
  -13.7200003       4.21470174E-16
  -13.7100000       1.49222239E-15
  -13.6999998       2.33874924E-15
  -13.6899996       2.73779027E-15
  -13.6800003       2.55019555E-15
  -13.6700001       1.76377088E-15
  -13.6599998       5.08867854E-16
  -13.6499996      -9.60099458E-16
  -13.6400003      -2.31596638E-15
  -13.6300001      -3.23313577E-15
  -13.6199999      -3.46813469E-15
  -13.6099997      -2.92637559E-15
  -13.6000004      -1.69672706E-15
  -13.5900002      -4.21250859E-17
  -13.5799999       1.65517279E-15
  -13.5699997       2.98332034E-15
  -13.5600004       3.60506031E-15
  -13.5500002       3.35010488E-15
  -13.5400000       2.27018573E-15
  -13.5299997       6.38865336E-16
  -13.5200005      -1.10863558E-15
  -13.5100002      -2.48458290E-15
  -13.5000000      -3.08145292E-15
  -13.4899998      -2.69389088E-15
  -13.4799995      -1.39500175E-15
  -13.4700003       4.58978620E-16
  -13.4600000       2.30458797E-15
  -13.4499998       3.51519520E-15
  -13.4399996       3.58038497E-15
  -13.4300003       2.27417038E-15
  -13.4200001      -2.37015356E-16
  -13.4099998      -3.38489761E-15
  -13.3999996      -6.30419772E-15
  -13.3900003      -8.03771841E-15
  -13.3800001      -7.79796488E-15
  -13.3699999      -5.22016241E-15
  -13.3599997      -5.35199038E-16
  -13.3500004       5.39658328E-15
  -13.3400002       1.12196510E-14
  -13.3299999       1.53726044E-14
  -13.3199997       1.64756785E-14
  -13.3100004       1.37253744E-14
  -13.3000002       7.19138511E-15
  -13.2900000      -2.07666475E-15
  -13.2799997      -1.21861275E-14
  -13.2700005      -2.07771287E-14
  -13.2600002      -2.55685840E-14
  -13.2500000      -2.49519643E-14
  -13.2399998      -1.84828603E-14
  -13.2299995      -7.12945768E-15
  -13.2200003       6.81569889E-15
  -13.2100000       2.01765501E-14
  -13.1999998       2.96121126E-14
  -13.1899996       3.24564526E-14
  -13.1800003       2.74743929E-14
  -13.1700001       1.53268376E-14
  -13.1599998      -1.40734450E-15
  -13.1499996      -1.87066989E-14
  -13.1400003      -3.20093209E-14
  -13.1300001      -3.73528214E-14
  -13.1199999      -3.24809895E-14
  -13.1099997      -1.76259442E-14
  -13.1000004       4.27216483E-15
  -13.0900002       2.80254166E-14
  -13.0799999       4.72930478E-14
  -13.0699997       5.60983212E-14
  -13.0600004       5.04244575E-14
  -13.0500002       2.94922303E-14
  -13.0400000      -3.63816872E-15
  -13.0299997      -4.23640242E-14
  -13.0200005      -7.77548666E-14
  -13.0100002      -1.00478165E-13
  -13.0000000      -1.03032878E-13
  -12.9899998      -8.17747495E-14
  -12.9799995      -3.82216841E-14
  -12.9700003       2.07421022E-14
  -12.9600000       8.39105396E-14
  -12.9499998       1.37907697E-13
  -12.9399996       1.70029735E-13
  -12.9300003       1.71163688E-13
  -12.9200001       1.38107679E-13
  -12.9099998       7.47123175E-14
  -12.8999996      -8.49611231E-15
  -12.8900003      -9.62122973E-14
  -12.8800001      -1.71415874E-13
  -12.8699999      -2.18952989E-13
  -12.8599997      -2.28837457E-13
  -12.8500004      -1.98499867E-13
  -12.8400002      -1.33432138E-13
  -12.8299999      -4.60352310E-14
  -12.8199997       4.70997922E-14
  -12.8100004       1.28863635E-13
  -12.8000002       1.85389247E-13
  -12.7900000       2.08993670E-13
  -12.7799997       1.99572075E-13
  -12.7700005       1.64087602E-13
  -12.7600002       1.14276739E-13
  -12.7500000       6.31571076E-14
  -12.7399998       2.12587787E-14
  -12.7299995      -6.38817976E-15
  -12.7200003      -2.16364944E-14
  -12.7100000      -3.25028666E-14
  -12.6999998      -5.04262464E-14
  -12.6899996      -8.61546620E-14
  -12.6800003      -1.45343847E-13
  -12.6700001      -2.25128740E-13
  -12.6599998      -3.12775440E-13
  -12.6499996      -3.87062832E-13
  -12.6400003      -4.22363018E-13
  -12.6300001      -3.94663740E-13
  -12.6199999      -2.88181967E-13
  -12.6099997      -1.00930250E-13
  -12.6000004       1.52299438E-13
  -12.5900002       4.40545929E-13
  -12.5799999       7.21086927E-13
  -12.5699997       9.46919843E-13
  -12.5600004       1.07577901E-12
  -12.5500002       1.07868044E-12
  -12.5400000       9.45983201E-13
  -12.5299997       6.89454245E-13
  -12.5200005       3.39748005E-13
  -12.5100002      -6.01837644E-14
  -12.5000000      -4.64205009E-13
  -12.4899998      -8.32386297E-13
  -12.4799995      -1.13827133E-12
  -12.4700003      -1.37206262E-12
  -12.4600000      -1.53874992E-12
  -12.4499998      -1.65147626E-12
  -12.4399996      -1.72173126E-12
  -12.4300003      -1.74890441E-12
  -12.4200001      -1.71212838E-12
  -12.4099998      -1.56698743E-12
  -12.3999996      -1.24873191E-12
  -12.3900003      -6.82111919E-13
  -12.3800001       2.03589329E-13
  -12.3699999       1.45717835E-12
  -12.3599997       3.08946597E-12
  -12.3500004       5.06210872E-12
  -12.3400002       7.28437709E-12
  -12.3299999       9.61921341E-12
  -12.3199997       1.18982437E-11
  -12.3100004       1.39434141E-11
  -12.3000002       1.55915766E-11
  -12.2900000       1.67175232E-11
  -12.2799997       1.72510860E-11
  -12.2700005       1.71848855E-11
  -12.2600002       1.65713172E-11
  -12.2500000       1.55089518E-11
  -12.2399998       1.41210637E-11
  -12.2299995       1.25303448E-11
  -12.2200003       1.08345130E-11
  -12.2100000       9.08780950E-12
  -12.1999998       7.29181559E-12
  -12.1899996       5.39738219E-12
  -12.1800003       3.31715384E-12
  -12.1700001       9.46124689E-13
  -12.1599998      -1.81422607E-12
  -12.1499996      -5.03322904E-12
  -12.1400003      -8.73442811E-12
  -12.1300001      -1.28886042E-11
  -12.1199999      -1.74176507E-11
  -12.1099997      -2.22081086E-11
  -12.1000004      -2.71310509E-11
  -12.0900002      -3.20634803E-11
  -12.0799999      -3.69059193E-11
  -12.0699997      -4.15919070E-11
  -12.0600004      -4.60868947E-11
  -12.0500002      -5.03770463E-11
  -12.0400000      -5.44503227E-11
  -12.0299997      -5.82751347E-11
  -12.0200005      -6.17820378E-11
  -12.0100002      -6.48542886E-11
  -12.0000000      -6.73302247E-11
  -11.9899998      -6.90183813E-11
  -11.9799995      -6.97231300E-11
  -11.9700003      -6.92750093E-11
  -11.9600000      -6.75604780E-11
  -11.9499998      -6.45429057E-11
  -11.9399996      -6.02712810E-11
  -11.9300003      -5.48733559E-11
  -11.9200001      -4.85349157E-11
  -11.9099998      -4.14700704E-11
  -11.8999996      -3.38876774E-11
  -11.8900003      -2.59622063E-11
  -11.8800001      -1.78141599E-11
  -11.8699999      -9.50315954E-12
  -11.8599997      -1.03453715E-12
  -11.8500004       7.62383559E-12
  -11.8400002       1.65196763E-11
  -11.8299999       2.56955915E-11
  -11.8199997       3.51738638E-11
  -11.8100004       4.49507653E-11
  -11.8000002       5.49994043E-11
  -11.7900000       6.52797677E-11
  -11.7799997       7.57502602E-11
  -11.7700005       8.63765934E-11
  -11.7600002       9.71339051E-11
  -11.7500000       1.08000373E-10
  -11.7399998       1.18942980E-10
  -11.7299995       1.29899799E-10
  -11.7200003       1.40763096E-10
  -11.7100000       1.51369542E-10
  -11.6999998       1.61500646E-10
  -11.6899996       1.70895936E-10
  -11.6800003       1.79276372E-10
  -11.6700001       1.86373875E-10
  -11.6599998       1.91960642E-10
  -11.6499996       1.95872513E-10
  -11.6400003       1.98019517E-10
  -11.6300001       1.98384059E-10
  -11.6199999       1.97005079E-10
  -11.6099997       1.93953034E-10
  -11.6000004       1.89303906E-10
  -11.5900002       1.83114315E-10
  -11.5799999       1.75408341E-10
  -11.5699997       1.66174186E-10
  -11.5600004       1.55375074E-10
  -11.5500002       1.42966014E-10
  -11.5400000       1.28914004E-10
  -11.5299997       1.13217158E-10
  -11.5200005       9.59130761E-11
  -11.5100002       7.70786282E-11
  -11.5000000       5.68194242E-11
  -11.4899998       3.52524156E-11
  -11.4799995       1.24861900E-11
  -11.4700003      -1.13925406E-11
  -11.4600000      -3.63251512E-11
  -11.4499998      -6.22763022E-11
  -11.4399996      -8.92194721E-11
  -11.4300003      -1.17116650E-10
  -11.4200001      -1.45897378E-10
  -11.4099998      -1.75444423E-10
  -11.3999996      -2.05588338E-10
  -11.3900003      -2.36117320E-10
  -11.3800001      -2.66797057E-10
  -11.3699999      -2.97400826E-10
  -11.3599997      -3.27740779E-10
  -11.3500004      -3.57695928E-10
  -11.3400002      -3.87227278E-10
  -11.3299999      -4.16379958E-10
  -11.3199997      -4.45268350E-10
  -11.3100004      -4.74046913E-10
  -11.3000002      -5.02870967E-10
  -11.2900000      -5.31856226E-10
  -11.2799997      -5.61042768E-10
  -11.2700005      -5.90371585E-10
  -11.2600002      -6.19677198E-10
  -11.2500000      -6.48700982E-10
  -11.2399998      -6.77117917E-10
  -11.2299995      -7.04581449E-10
  -11.2200003      -7.30767391E-10
  -11.2100000      -7.55420337E-10
  -11.1999998      -7.78384857E-10
  -11.1899996      -7.99619371E-10
  -11.1800003      -8.19191159E-10
  -11.1700001      -8.37249048E-10
  -11.1599998      -8.53987714E-10
  -11.1499996      -8.69597228E-10
  -11.1400003      -8.84226747E-10
  -11.1300001      -8.97950880E-10
  -11.1199999      -9.10760134E-10
  -11.1099997      -9.22573018E-10
  -11.1000004      -9.33259470E-10
  -11.0900002      -9.42681266E-10
  -11.0799999      -9.50726609E-10
  -11.0699997      -9.57340318E-10
  -11.0600004      -9.62536939E-10
  -11.0500002      -9.66390301E-10
  -11.0400000      -9.69022640E-10
  -11.0299997      -9.70561187E-10
  -11.0200005      -9.71110747E-10
  -11.0100002      -9.70725722E-10
  -11.0000000      -9.69397562E-10
  -10.9899998      -9.67062097E-10
  -10.9799995      -9.63617630E-10
  -10.9700003      -9.58956248E-10
  -10.9600000      -9.52986912E-10
  -10.9499998      -9.45658774E-10
  -10.9399996      -9.36969724E-10
  -10.9300003      -9.26962507E-10
  -10.9200001      -9.15693743E-10
  -10.9099998      -9.03220609E-10
  -10.8999996      -8.89566865E-10
  -10.8900003      -8.74714079E-10
  -10.8800001      -8.58588423E-10
  -10.8699999      -8.41074044E-10
  -10.8599997      -8.22032664E-10
  -10.8500004      -8.01326783E-10
  -10.8400002      -7.78858034E-10
  -10.8299999      -7.54566853E-10
  -10.8199997      -7.28461347E-10
  -10.8100004      -7.00594083E-10
  -10.8000002      -6.71055711E-10
  -10.7900000      -6.39944764E-10
  -10.7799997      -6.07341899E-10
  -10.7700005      -5.73283476E-10
  -10.7600002      -5.37750955E-10
  -10.7500000      -5.00678943E-10
  -10.7399998      -4.61983285E-10
  -10.7299995      -4.21592011E-10
  -10.7200003      -3.79511228E-10
  -10.7100000      -3.35850375E-10
  -10.6999998      -2.90872659E-10
  -10.6899996      -2.45003906E-10
  -10.6800003      -1.98807623E-10
  -10.6700001      -1.52932250E-10
  -10.6599998      -1.08035358E-10
  -10.6499996      -6.46897327E-11
  -10.6400003      -2.32884077E-11
  -10.6300001       1.60141778E-11
  -10.6199999       5.33455051E-11
  -10.6099997       8.90926291E-11
  -10.6000004       1.23859104E-10
  -10.5900002       1.58356731E-10
  -10.5799999       1.93328381E-10
  -10.5699997       2.29431946E-10
  -10.5600004       2.67175532E-10
  -10.5500002       3.06871861E-10
  -10.5400000       3.48651386E-10
  -10.5299997       3.92473498E-10
  -10.5200005       4.38181769E-10
  -10.5100002       4.85548823E-10
  -10.5000000       5.34300160E-10
  -10.4899998       5.84156556E-10
  -10.4799995       6.34804043E-10
  -10.4700003       6.85893287E-10
  -10.4600000       7.37014005E-10
  -10.4499998       7.87679755E-10
  -10.4399996       8.37338310E-10
  -10.4300003       8.85397311E-10
  -10.4200001       9.31256350E-10
  -10.4099998       9.74363035E-10
  -10.3999996       1.01424469E-09
  -10.3900003       1.05056963E-09
  -10.3800001       1.08313902E-09
  -10.3699999       1.11192466E-09
  -10.3599997       1.13703535E-09
  -10.3500004       1.15871690E-09
  -10.3400002       1.17731014E-09
  -10.3299999       1.19323473E-09
  -10.3199997       1.20694121E-09
  -10.3100004       1.21887533E-09
  -10.3000002       1.22944088E-09
  -10.2900000       1.23895416E-09
  -10.2799997       1.24763200E-09
  -10.2700005       1.25556421E-09
  -10.2600002       1.26272925E-09
  -10.2500000       1.26903277E-09
  -10.2399998       1.27435618E-09
  -10.2299995       1.27862110E-09
  -10.2200003       1.28185185E-09
  -10.2100000       1.28422173E-09
  -10.1999998       1.28606137E-09
  -10.1899996       1.28784106E-09
  -10.1800003       1.29011413E-09
  -10.1700001       1.29343858E-09
  -10.1599998       1.29827926E-09
  -10.1499996       1.30493949E-09
  -10.1400003       1.31349609E-09
  -10.1300001       1.32379208E-09
  -10.1199999       1.33545885E-09
  -10.1099997       1.34797384E-09
  -10.1000004       1.36074796E-09
  -10.0900002       1.37321321E-09
  -10.0799999       1.38490275E-09
  -10.0699997       1.39550738E-09
  -10.0600004       1.40489864E-09
  -10.0500002       1.41311884E-09
  -10.0400000       1.42034617E-09
  -10.0299997       1.42683743E-09
  -10.0200005       1.43287160E-09
  -10.0100002       1.43869761E-09
  -10.0000000       1.44450496E-09
  -9.98999977       1.45041823E-09
  -9.97999954       1.45651213E-09
  -9.97000027       1.46284607E-09
  -9.96000004       1.46950307E-09
  -9.94999981       1.47662227E-09
  -9.93999958       1.48441504E-09
  -9.93000031       1.49316082E-09
  -9.92000008       1.50317869E-09
  -9.90999985       1.51478419E-09
  -9.89999962       1.52824398E-09
  -9.89000034       1.54373492E-09
  -9.88000011       1.56132263E-09
  -9.86999989       1.58096181E-09
  -9.85999966       1.60251679E-09
  -9.85000038       1.62579750E-09
  -9.84000015       1.65059555E-09
  -9.82999992       1.67671865E-09
  -9.81999969       1.70400971E-09
  -9.81000042       1.73235304E-09
  -9.80000019       1.76168113E-09
  -9.78999996       1.79197090E-09
  -9.77999973       1.82325754E-09
  -9.77000046       1.85565308E-09
  -9.76000023       1.88937554E-09
  -9.75000000       1.92476723E-09
  -9.73999977       1.96231320E-09
  -9.72999954       2.00261474E-09
  -9.72000027       2.04634354E-09
  -9.71000004       2.09416240E-09
  -9.69999981       2.14662998E-09
  -9.68999958       2.20411711E-09
  -9.68000031       2.26673857E-09
  -9.67000008       2.33432540E-09
  -9.65999985       2.40644193E-09
  -9.64999962       2.48244580E-09
  -9.64000034       2.56155319E-09
  -9.63000011       2.64291189E-09
  -9.61999989       2.72567968E-09
  -9.60999966       2.80903278E-09
  -9.60000038       2.89217694E-09
  -9.59000015       2.97434388E-09
  -9.57999992       3.05475467E-09
  -9.56999969       3.13261261E-09
  -9.56000042       3.20709526E-09
  -9.55000019       3.27740790E-09
  -9.53999996       3.34278094E-09
  -9.52999973       3.40251916E-09
  -9.52000046       3.45602036E-09
  -9.51000023       3.50276941E-09
  -9.50000000       3.54233154E-09
  -9.48999977       3.57433261E-09
  -9.47999954       3.59844043E-09
  -9.47000027       3.61436614E-09
  -9.46000004       3.62187502E-09
  -9.44999981       3.62084784E-09
  -9.43999958       3.61131614E-09
  -9.43000031       3.59349883E-09
  -9.42000008       3.56784091E-09
  -9.40999985       3.53501473E-09
  -9.39999962       3.49586982E-09
  -9.39000034       3.45140672E-09
  -9.38000011       3.40271455E-09
  -9.36999989       3.35094708E-09
  -9.35999966       3.29725069E-09
  -9.35000038       3.24278671E-09
  -9.34000015       3.18870752E-09
  -9.32999992       3.13615267E-09
  -9.31999969       3.08625703E-09
  -9.31000042       3.04017211E-09
  -9.30000019       2.99902347E-09
  -9.28999996       2.96393532E-09
  -9.27999973       2.93604563E-09
  -9.27000046       2.91647329E-09
  -9.26000023       2.90635360E-09
  -9.25000000       2.90682722E-09
  -9.23999977       2.91898883E-09
  -9.22999954       2.94390312E-09
  -9.22000027       2.98247915E-09
  -9.21000004       3.03547898E-09
  -9.19999981       3.10343817E-09
  -9.18999958       3.18666848E-09
  -9.18000031       3.28528227E-09
  -9.17000008       3.39925132E-09
  -9.15999985       3.52845220E-09
  -9.14999962       3.67275810E-09
  -9.14000034       3.83203291E-09
  -9.13000011       4.00611277E-09
  -9.11999989       4.19478319E-09
  -9.10999966       4.39767600E-09
  -9.10000038       4.61416061E-09
  -9.09000015       4.84335816E-09
  -9.07999992       5.08407405E-09
  -9.06999969       5.33492761E-09
  -9.06000042       5.59437607E-09
  -9.05000019       5.86081761E-09
  -9.03999996       6.13267748E-09
  -9.02999973       6.40841469E-09
  -9.02000046       6.68645139E-09
  -9.01000023       6.96511027E-09
  -9.00000000       7.24255411E-09
  -8.98999977       7.51673834E-09
  -8.97999954       7.78545850E-09
  -8.97000027       8.04640177E-09
  -8.96000004       8.29732283E-09
  -8.94999981       8.53614068E-09
  -8.93999958       8.76112338E-09
  -8.93000031       8.97087737E-09
  -8.92000008       9.16429510E-09
  -8.90999985       9.34052746E-09
  -8.89999962       9.49877066E-09
  -8.89000034       9.63819957E-09
  -8.88000011       9.75793668E-09
  -8.86999989       9.85700055E-09
  -8.85999966       9.93445148E-09
  -8.85000038       9.98941818E-09
  -8.84000015       1.00212203E-08
  -8.82999992       1.00293853E-08
  -8.81999969       1.00136113E-08
  -8.81000042       9.97372673E-09
  -8.80000019       9.90961002E-09
  -8.78999996       9.82109949E-09
  -8.77999973       9.70810277E-09
  -8.77000046       9.57061186E-09
  -8.76000023       9.40889411E-09
  -8.75000000       9.22350374E-09
  -8.73999977       9.01543551E-09
  -8.72999954       8.78603590E-09
  -8.72000027       8.53688320E-09
  -8.71000004       8.26957969E-09
  -8.69999981       7.98554733E-09
  -8.68999958       7.68595498E-09
  -8.68000031       7.37164241E-09
  -8.67000008       7.04317360E-09
  -8.65999985       6.70110856E-09
  -8.64999962       6.34605213E-09
  -8.64000034       5.97885519E-09
  -8.63000011       5.60065860E-09
  -8.61999989       5.21275156E-09
  -8.60999966       4.81651297E-09
  -8.60000038       4.41310499E-09
  -8.59000015       4.00349132E-09
  -8.57999992       3.58836982E-09
  -8.56999969       3.16828119E-09
  -8.56000042       2.74377743E-09
  -8.55000019       2.31567165E-09
  -8.53999996       1.88511051E-09
  -8.52999973       1.45358414E-09
  -8.52000046       1.02282749E-09
  -8.51000023       5.94512606E-10
  -8.50000000       1.70047448E-10
  -8.48999977      -2.49574972E-10
  -8.47999954      -6.63992694E-10
  -8.47000027      -1.07320430E-09
  -8.46000004      -1.47741885E-09
  -8.44999981      -1.87676119E-09
  -8.43999958      -2.27111818E-09
  -8.43000031      -2.65999356E-09
  -8.42000008      -3.04257997E-09
  -8.40999985      -3.41797279E-09
  -8.39999962      -3.78538401E-09
  -8.39000034      -4.14426315E-09
  -8.38000011      -4.49444171E-09
  -8.36999989      -4.83601781E-09
  -8.35999966      -5.16910736E-09
  -8.35000038      -5.49371881E-09
  -8.34000015      -5.80950488E-09
  -8.32999992      -6.11579054E-09
  -8.31999969      -6.41164810E-09
  -8.31000042      -6.69619737E-09
  -8.30000019      -6.96885705E-09
  -8.28999996      -7.22947746E-09
  -8.27999973      -7.47843565E-09
  -8.27000046      -7.71644437E-09
  -8.26000023      -7.94421684E-09
  -8.25000000      -8.16218648E-09
  -8.23999977      -8.37023784E-09
  -8.22999954      -8.56761595E-09
  -8.22000027      -8.75295658E-09
  -8.21000004      -8.92470098E-09
  -8.19999981      -9.08131792E-09
  -8.18999958      -9.22164833E-09
  -8.18000031      -9.34503053E-09
  -8.17000008      -9.45118739E-09
  -8.15999985      -9.54007895E-09
  -8.14999962      -9.61155067E-09
  -8.14000034      -9.66510516E-09
  -8.13000011      -9.69980896E-09
  -8.11999989      -9.71438396E-09
  -8.10999966      -9.70748815E-09
  -8.10000038      -9.67798641E-09
  -8.09000015      -9.62525615E-09
  -8.07999992      -9.54926982E-09
  -8.06999969      -9.45050083E-09
  -8.06000042      -9.32968014E-09
  -8.05000019      -9.18745968E-09
  -8.03999996      -9.02410946E-09
  -8.02999973      -8.83945628E-09
  -8.02000046      -8.63287930E-09
  -8.01000023      -8.40365910E-09
  -8.00000000      -8.15126633E-09
  -7.98999977      -7.87568766E-09
  -7.98000002      -7.57755725E-09
  -7.96999979      -7.25812299E-09
  -7.96000004      -6.91898983E-09
  -7.94999981      -6.56178489E-09
  -7.94000006      -6.18784712E-09
  -7.92999983      -5.79804915E-09
  -7.92000008      -5.39282796E-09
  -7.90999985      -4.97234653E-09
  -7.90000010      -4.53680782E-09
  -7.88999987      -4.08672829E-09
  -7.88000011      -3.62308428E-09
  -7.86999989      -3.14730730E-09
  -7.86000013      -2.66110489E-09
  -7.84999990      -2.16621765E-09
  -7.84000015      -1.66418590E-09
  -7.82999992      -1.15622834E-09
  -7.82000017      -6.43273934E-10
  -7.80999994      -1.26143929E-10
  -7.80000019       3.94230287E-10
  -7.78999996       9.16602683E-10
  -7.78000021       1.43935619E-09
  -7.76999998       1.96060634E-09
  -7.76000023       2.47843657E-09
  -7.75000000       2.99118152E-09
  -7.73999977       3.49767526E-09
  -7.73000002       3.99734068E-09
  -7.71999979       4.49011051E-09
  -7.71000004       4.97617414E-09
  -7.69999981       5.45568346E-09
  -7.69000006       5.92848881E-09
  -7.67999983       6.39398090E-09
  -7.67000008       6.85112411E-09
  -7.65999985       7.29867011E-09
  -7.65000010       7.73538922E-09
  -7.63999987       8.16035506E-09
  -7.63000011       8.57306759E-09
  -7.61999989       8.97346286E-09
  -7.61000013       9.36178068E-09
  -7.59999990       9.73834080E-09
  -7.59000015       1.01033706E-08
  -7.57999992       1.04569216E-08
  -7.57000017       1.07988720E-08
  -7.55999994       1.11291030E-08
  -7.55000019       1.14476686E-08
  -7.53999996       1.17549677E-08
  -7.53000021       1.20517916E-08
  -7.51999998       1.23392851E-08
  -7.51000023       1.26187629E-08
  -7.50000000       1.28914257E-08
  -7.48999977       1.31583056E-08
  -7.48000002       1.34200482E-08
  -7.46999979       1.36770133E-08
  -7.46000004       1.39293777E-08
  -7.44999981       1.41773180E-08
  -7.44000006       1.44211478E-08