  -16.0000000       0.00000000    
  -15.9899998       0.00000000    
  -15.9799995       0.00000000    
  -15.9700003       0.00000000    
  -15.9600000       0.00000000    
  -15.9499998       0.00000000    
  -15.9399996       0.00000000    
  -15.9300003       0.00000000    
  -15.9200001       0.00000000    
  -15.9099998       0.00000000    
  -15.8999996       0.00000000    
  -15.8900003       3.39188497E-40
  -15.8800001       5.66769457E-39
  -15.8699999       4.38013950E-38
  -15.8599997       2.03267333E-37
  -15.8500004       6.44375238E-37
  -15.8400002       1.97437079E-36
  -15.8299999       1.05897828E-35
  -15.8199997       7.08606190E-35
  -15.8100004       3.85610131E-34
  -15.8000002       1.61486769E-33
  -15.7900000       5.28285822E-33
  -15.7799997       1.34691155E-32
  -15.7700005       2.52307608E-32
  -15.7600002       2.52670659E-32
  -15.7500000      -3.77841794E-32
  -15.7399998      -2.71755768E-31
  -15.7299995      -8.13087562E-31
  -15.7200003      -1.65535578E-30
  -15.7100000      -2.23028085E-30
  -15.6999998      -7.82873595E-31
  -15.6899996       5.98988813E-30
  -15.6800003       2.18894487E-29
  -15.6700001       4.71566866E-29
  -15.6599998       7.06985892E-29
  -15.6499996       6.15450594E-29
  -15.6400003      -3.07926316E-29
  -15.6300001      -2.50741249E-28
  -15.6199999      -5.71597904E-28
  -15.6099997      -8.00028458E-28
  -15.6000004      -5.11430600E-28
  -15.5900002       8.55435296E-28
  -15.5799999       3.58751406E-27
  -15.5699997       6.91502604E-27
  -15.5600004       8.12161653E-27
  -15.5500002       2.32975662E-27
  -15.5400000      -1.57890649E-26
  -15.5299997      -4.72616552E-26
  -15.5200005      -8.13235105E-26
  -15.5100002      -8.85704120E-26
  -15.5000000      -2.21049072E-26
  -15.4899998       1.63612032E-25
  -15.4799995       4.69921138E-25
  -15.4700003       7.94110429E-25
  -15.4600000       8.82861176E-25
  -15.4499998       3.54670211E-25
  -15.4399996      -1.14456213E-24
  -15.4300003      -3.62284607E-24
  -15.4200001      -6.32692991E-24
  -15.4099998      -7.44694003E-24
  -15.3999996      -4.29999126E-24
  -15.3900003       5.62827643E-24
  -15.3800001       2.26486794E-23
  -15.3699999       4.22940391E-23
  -15.3599997       5.35062769E-23
  -15.3500004       3.96320879E-23
  -15.3400002      -1.57021012E-23
  -15.3299999      -1.17151171E-22
  -15.3199997      -2.43101485E-22
  -15.3100004      -3.34810971E-22
  -15.3000002      -2.99780271E-22
  -15.2900000      -4.00488873E-23
  -15.2799997       4.90487710E-22
  -15.2700005       1.21047987E-21
  -15.2600002       1.84855763E-21
  -15.2500000       1.94333705E-21
  -15.2399998       9.58433739E-22
  -15.2299995      -1.46147729E-21
  -15.2200003      -5.13018951E-21
  -15.2100000      -8.98170804E-21
  -15.1999998      -1.09666289E-20
  -15.1899996      -8.42478042E-21
  -15.1800003       9.09455498E-22
  -15.1700001       1.73475704E-20
  -15.1599998       3.75729216E-20
  -15.1499996       5.36725705E-20
  -15.1400003       5.39035219E-20
  -15.1300001       2.60310556E-20
  -15.1199999      -3.66818283E-20
  -15.1099997      -1.28062487E-19
  -15.1000004      -2.22972635E-19
  -15.0900002      -2.76554913E-19
  -15.0799999      -2.32693480E-19
  -15.0699997      -4.36380392E-20
  -15.0600004       3.01389538E-19
  -15.0500002       7.46407667E-19
  -15.0400000       1.15089712E-18
  -15.0299997       1.29972129E-18
  -15.0200005       9.53295050E-19
  -15.0100002      -6.00426173E-20
  -15.0000000      -1.72497319E-18
  -14.9899998      -3.72954480E-18
  -14.9799995      -5.41752554E-18
  -14.9700003      -5.85888512E-18
  -14.9600000      -4.07667031E-18
  -14.9499998       5.74163537E-19
  -14.9399996       7.94395392E-18
  -14.9300003       1.66794651E-17
  -14.9200001       2.40596565E-17
  -14.9099998       2.62752184E-17
  -14.8999996       1.92891322E-17
  -14.8900003       2.73314769E-19
  -14.8800001      -3.05987178E-17
  -14.8699999      -6.84697826E-17
  -14.8599997      -1.02907257E-16
  -14.8500004      -1.18572317E-16
  -14.8400002      -9.80927680E-17
  -14.8299999      -2.73629411E-17
  -14.8199997       9.72423867E-17
  -14.8100004       2.61242855E-16
  -14.8000002       4.26557216E-16
  -14.7900000       5.31459864E-16
  -14.7799997       4.99333863E-16
  -14.7700005       2.58392112E-16
  -14.7600002      -2.28247904E-16
  -14.7500000      -9.27074067E-16
  -14.7399998      -1.70347569E-15
  -14.7299995      -2.31069275E-15
  -14.7200003      -2.41509104E-15
  -14.7100000      -1.67075110E-15
  -14.6999998       1.54981367E-16
  -14.6899996       3.02260933E-15
  -14.6800003       6.47028351E-15
  -14.6700001       9.53692098E-15
  -14.6599998       1.08338411E-14
  -14.6499996       8.82621206E-15
  -14.6400003       2.33857263E-15
  -14.6300001      -8.78223834E-15
  -14.6199999      -2.30161501E-14
  -14.6099997      -3.67930817E-14
  -14.6000004      -4.46951504E-14
  -14.5900002      -4.04855626E-14
  -14.5799999      -1.90248987E-14
  -14.5699997       2.11797861E-14
  -14.5600004       7.54335017E-14
  -14.5500002       1.31301030E-13
  -14.5400000       1.69162197E-13
  -14.5299997       1.65765473E-13
  -14.5200005       1.00978491E-13
  -14.5100002      -3.31874963E-14
  -14.5000000      -2.23521478E-13
  -14.4899998      -4.29902668E-13
  -14.4799995      -5.86686461E-13
  -14.4700003      -6.14102031E-13
  -14.4600000      -4.40227580E-13
  -14.4499998      -3.04625676E-14
  -14.4399996       5.82760673E-13
  -14.4300003       1.28067381E-12
  -14.4200001       1.86090856E-12
  -14.4099998       2.07107747E-12
  -14.3999996       1.67472373E-12
  -14.3900003       5.40251220E-13
  -14.3800001      -1.26870834E-12
  -14.3699999      -3.43255350E-12
  -14.3599997      -5.37796890E-12
  -14.3500004      -6.36804715E-12
  -14.3400002      -5.68450018E-12
  -14.3299999      -2.87594449E-12
  -14.3199997       1.98656413E-12
  -14.3100004       8.13051015E-12
  -14.3000002       1.40685883E-11
  -14.2900000       1.78172373E-11
  -14.2799997       1.73591905E-11
  -14.2700005       1.12849608E-11
  -14.2600002      -5.34593583E-13
  -14.2500000      -1.64538574E-11
  -14.2399998      -3.29587781E-11
  -14.2299995      -4.51398606E-11
  -14.2200003      -4.77681922E-11
  -14.2100000      -3.68275861E-11
  -14.1999998      -1.11610061E-11
  -14.1899996       2.62535861E-11
  -14.1800003       6.79164502E-11
  -14.1700001       1.02701389E-10
  -14.1599998       1.18140095E-10
  -14.1499996       1.03797367E-10
  -14.1400003       5.50125397E-11
  -14.1300001      -2.40373173E-11
  -14.1199999      -1.19077193E-10
  -14.1099997      -2.07156237E-10
  -14.1000004      -2.61045130E-10
  -14.0900002      -2.56074800E-10
  -14.0799999      -1.78002918E-10
  -14.0699997      -2.98293057E-11
  -14.0600004       1.64721112E-10
  -14.0500002       3.62889385E-10
  -14.0400000       5.10491704E-10
  -14.0299997       5.54613744E-10
  -14.0200005       4.58870469E-10
  -14.0100002       2.17398627E-10
  -14.0000000      -1.36727255E-10
  -13.9899998      -5.32264344E-10
  -13.9799995      -8.71476502E-10
  -13.9700003      -1.05164322E-09
  -13.9600000      -9.92304572E-10
  -13.9499998      -6.61701582E-10
  -13.9399996      -9.48441187E-11
  -13.9300003       6.03416483E-10
  -13.9200001       1.27391508E-09
  -13.9099998       1.73634218E-09
  -13.8999996       1.83399052E-09
  -13.8900003       1.47975876E-09
  -13.8800001       6.91005975E-10
  -13.8699999      -3.98074823E-10
  -13.8599997      -1.55354096E-09
  -13.8500004      -2.48819965E-09
  -13.8400002      -2.92944358E-09
  -13.8299999      -2.69330114E-09
  -13.8199997      -1.74569303E-09
  -13.8100004      -2.32620839E-10
  -13.8000002       1.53318225E-09
  -13.7900000       3.13157189E-09
  -13.7799997       4.13073886E-09
  -13.7700005       4.19877644E-09
  -13.7600002       3.20357341E-09
  -13.7500000       1.27304856E-09
  -13.7399998      -1.20526600E-09
  -13.7299995      -3.65290709E-09
  -13.7200003      -5.42793854E-09
  -13.7100000      -5.98507022E-09
  -13.6999998      -5.03051112E-09
  -13.6899996      -2.63041144E-09
  -13.6800003       7.61197994E-10
  -13.6700001       4.37213954E-09
  -13.6599998       7.27344762E-09
  -13.6499996       8.60179394E-09
  -13.6400003       7.79294940E-09
  -13.6300001       4.76742024E-09
  -13.6199999       1.44882968E-11
  -13.6099997      -5.45953194E-09
  -13.6000004      -1.03224309E-08
  -13.5900002      -1.32151827E-08
  -13.5799999      -1.30962219E-08
  -13.5699997      -9.54907176E-09
  -13.5600004      -2.97090508E-09
  -13.5500002       5.42034417E-09
  -13.5400000       1.37843070E-08
  -13.5299997       2.00372714E-08
  -13.5200005       2.23388259E-08
  -13.5100002       1.95772607E-08
  -13.5000000       1.17325980E-08
  -13.4899998       1.25855611E-11
  -13.4799995      -1.32979059E-08
  -13.4700003      -2.52687453E-08
  -13.4600000      -3.29612782E-08
  -13.4499998      -3.41340218E-08
  -13.4399996      -2.78498593E-08
  -13.4300003      -1.48243373E-08
  -13.4200001       2.59604116E-09
  -13.4099998       2.08551274E-08
  -13.3999996       3.59391450E-08
  -13.3900003       4.43010784E-08
  -13.3800001       4.37407124E-08
  -13.3699999       3.40161428E-08
  -13.3599997       1.70115673E-08
  -13.3500004      -3.61410502E-09
  -13.3400002      -2.32459794E-08
  -13.3299999      -3.74216285E-08
  -13.3199997      -4.29621991E-08
  -13.3100004      -3.88318249E-08
  -13.3000002      -2.64798334E-08
  -13.2900000      -9.53804324E-09
  -13.2799997       7.09199899E-09
  -13.2700005       1.85599944E-08
  -13.2600002       2.14663469E-08
  -13.2500000       1.49602712E-08
  -13.2399998       1.20407262E-09
  -13.2299995      -1.49867265E-08
  -13.2200003      -2.73112608E-08
  -13.2100000      -2.97201979E-08
  -13.1999998      -1.83024387E-08
  -13.1899996       7.18386994E-09
  -13.1800003       4.26018403E-08
  -13.1700001       7.98456341E-08
  -13.1599998       1.08404052E-07
  -13.1499996       1.17811595E-07
  -13.1400003       1.00457996E-07
  -13.1300001       5.40729381E-08
  -13.1199999      -1.67919190E-08
  -13.1099997      -1.00784234E-07
  -13.1000004      -1.81454809E-07
  -13.0900002      -2.40423532E-07
  -13.0799999      -2.61404125E-07
  -13.0699997      -2.34213061E-07
  -13.0600004      -1.57803839E-07
  -13.0500002      -4.15113171E-08
  -13.0400000       9.59550022E-08
  -13.0299997       2.29737381E-07
  -13.0200005       3.33711370E-07
  -13.0100002       3.86023686E-07
  -13.0000000       3.74052775E-07
  -12.9899998       2.97604601E-07
  -12.9799995       1.69491116E-07
  -12.9700003       1.32008902E-08
  -12.9600000      -1.41952768E-07
  -12.9499998      -2.67192291E-07
  -12.9399996      -3.40706748E-07
  -12.9300003      -3.52610670E-07
  -12.9200001      -3.07158075E-07
  -12.9099998      -2.21542805E-07
  -12.8999996      -1.21426197E-07
  -12.8900003      -3.41663160E-08
  -12.8800001       1.86300149E-08
  -12.8699999       2.73293370E-08
  -12.8599997      -2.45523446E-09
  -12.8500004      -5.06267845E-08
  -12.8400002      -8.75256703E-08
  -12.8299999      -8.20539796E-08
  -12.8199997      -1.11288188E-08
  -12.8100004       1.31931245E-07
  -12.8000002       3.32432847E-07
  -12.7900000       5.54441158E-07
  -12.7799997       7.46571459E-07
  -12.7700005       8.52609332E-07
  -12.7600002       8.24827396E-07
  -12.7500000       6.36992809E-07
  -12.7399998       2.93842561E-07
  -12.7299995      -1.65626517E-07
  -12.7200003      -6.72452018E-07
  -12.7100000      -1.13928616E-06
  -12.6999998      -1.47721209E-06
  -12.6899996      -1.61436560E-06
  -12.6800003      -1.51225561E-06
  -12.6700001      -1.17595573E-06
  -12.6599998      -6.55490112E-07
  -12.6499996      -3.76279701E-08
  -12.6400003       5.70576162E-07
  -12.6300001       1.06321045E-06
  -12.6199999       1.35735820E-06
  -12.6099997       1.41056489E-06
  -12.6000004       1.22994174E-06
  -12.5900002       8.70693384E-07
  -12.5799999       4.24203193E-07
  -12.5699997      -1.84511595E-09
  -12.5600004      -3.06966228E-07
  -12.5500002      -4.19774778E-07
  -12.5400000      -3.13376319E-07
  -12.5299997      -1.07870735E-08
  -12.5200005       4.20789576E-07
  -12.5100002       8.85412874E-07
  -12.5000000       1.27986448E-06
  -12.4899998       1.51595600E-06
  -12.4799995       1.53829774E-06
  -12.4700003       1.33320532E-06
  -12.4600000       9.26563359E-07
  -12.4499998       3.71202475E-07
  -12.4399996      -2.72999245E-07
  -12.4300003      -9.61106934E-07
  -12.4200001      -1.68129395E-06
  -12.4099998      -2.46396144E-06
  -12.3999996      -3.37861229E-06
  -12.3900003      -4.51821006E-06
  -12.3800001      -5.97390363E-06
  -12.3699999      -7.80558639E-06
  -12.3599997      -1.00152420E-05
  -12.3500004      -1.25298056E-05
  -12.3400002      -1.51985396E-05
  -12.3299999      -1.78068458E-05
  -12.3199997      -2.01047387E-05
  -12.3100004      -2.18447858E-05
  -12.3000002      -2.28219633E-05
  -12.2900000      -2.29069847E-05
  -12.2799997      -2.20660058E-05
  -12.2700005      -2.03622658E-05
  -12.2600002      -1.79392409E-05
  -12.2500000      -1.49888938E-05
  -12.2399998      -1.17121135E-05
  -12.2299995      -8.28010525E-06
  -12.2200003      -4.80538529E-06
  -12.2100000      -1.32877494E-06
  -12.1999998       2.17491106E-06
  -12.1899996       5.77415676E-06
  -12.1800003       9.54683219E-06
  -12.1700001       1.35434593E-05
  -12.1599998       1.77569236E-05
  -12.1499996       2.21062692E-05
  -12.1400003       2.64390383E-05
  -12.1300001       3.05520007E-05
  -12.1199999       3.42258500E-05
  -12.1099997       3.72657596E-05
  -12.1000004       3.95383904E-05
  -12.0900002       4.09964305E-05
  -12.0799999       4.16848634E-05
  -12.0699997       4.17270967E-05
  -12.0600004       4.12945265E-05
  -12.0500002       4.05662104E-05
  -12.0400000       3.96885516E-05
  -12.0299997       3.87443833E-05
  -12.0200005       3.77387114E-05
  -12.0100002       3.66043460E-05
  -12.0000000       3.52256975E-05
  -11.9899998       3.34747165E-05
  -11.9799995       3.12496923E-05
  -11.9700003       2.85071892E-05
  -11.9600000       2.52787995E-05
  -11.9499998       2.16683602E-05
  -11.9399996       1.78297796E-05
  -11.9300003       1.39309896E-05
  -11.9200001       1.01125088E-05
  -11.9099998       6.45112459E-06
  -11.8999996       2.93794778E-06
  -11.8900003      -5.23098663E-07
  -11.8800001      -4.09507038E-06
  -11.8699999      -7.96986569E-06
  -11.8599997      -1.23203854E-05
  -11.8500004      -1.72535929E-05
  -11.8400002      -2.27750443E-05
  -11.8299999      -2.87731928E-05
  -11.8199997      -3.50272458E-05
  -11.8100004      -4.12373738E-05
  -11.8000002      -4.70710693E-05
  -11.7900000      -5.22159644E-05
  -11.7799997      -5.64282782E-05
  -11.7700005      -5.95671590E-05
  -11.7600002      -6.16083489E-05
  -11.7500000      -6.26354813E-05
  -11.7399998      -6.28118069E-05
  -11.7299995      -6.23395754E-05
  -11.7200003      -6.14161545E-05
  -11.7100000      -6.01965803E-05
  -11.6999998      -5.87696413E-05
  -11.6899996      -5.71517412E-05
  -11.6800003      -5.52980309E-05
  -11.6700001      -5.31268088E-05
  -11.6599998      -5.05502394E-05
  -11.6499996      -4.75038396E-05
  -11.6400003      -4.39677460E-05
  -11.6300001      -3.99755081E-05
  -11.6199999      -3.56092969E-05
  -11.6099997      -3.09837160E-05
  -11.6000004      -2.62228677E-05
  -11.5900002      -2.14364845E-05
  -11.5799999      -1.67008930E-05
  -11.5699997      -1.20485292E-05
  -11.5600004      -7.46775186E-06
  -11.5500002      -2.91195670E-06
  -11.5400000       1.68500037E-06
  -11.5299997       6.39116888E-06
  -11.5200005       1.12608759E-05
  -11.5100002       1.63241039E-05
  -11.5000000       2.15825003E-05
  -11.4899998       2.70117253E-05
  -11.4799995       3.25681322E-05
  -11.4700003       3.81973769E-05
  -11.4600000       4.38419484E-05
  -11.4499998       4.94456071E-05
  -11.4399996       5.49538563E-05
  -11.4300003       6.03106309E-05
  -11.4200001       6.54529504E-05
  -11.4099998       7.03054684E-05
  -11.3999996       7.47773302E-05
  -11.3900003       7.87629178E-05
  -11.3800001       8.21473877E-05
  -11.3699999       8.48164054E-05
  -11.3599997       8.66685441E-05
  -11.3500004       8.76284103E-05
  -11.3400002       8.76575941E-05
  -11.3299999       8.67618364E-05
  -11.3199997       8.49927383E-05
  -11.3100004       8.24443414E-05
  -11.3000002       7.92451538E-05
  -11.2900000       7.55476431E-05
  -11.2799997       7.15169735E-05
  -11.2700005       6.73207978E-05
  -11.2600002       6.31210132E-05
  -11.2500000       5.90673371E-05
  -11.2399998       5.52919155E-05
  -11.2299995       5.19037640E-05
  -11.2200003       4.89821214E-05
  -11.2100000       4.65687772E-05
  -11.1999998       4.46605336E-05
  -11.1899996       4.32040652E-05
  -11.1800003       4.20959077E-05
  -11.1700001       4.11897054E-05
  -11.1599998       4.03115046E-05
  -11.1499996       3.92817274E-05
  -11.1400003       3.79401354E-05
  -11.1300001       3.61688435E-05
  -11.1199999       3.39078360E-05
  -11.1099997       3.11588919E-05
  -11.1000004       2.79766973E-05
  -11.0900002       2.44490348E-05
  -11.0799999       2.06712957E-05
  -11.0699997       1.67226590E-05
  -11.0600004       1.26510267E-05
  -11.0500002       8.47192950E-06
  -11.0400000       4.18256423E-06
  -11.0299997      -2.12147214E-07
  -11.0200005      -4.66874462E-06
  -11.0100002      -9.07889626E-06
  -11.0000000      -1.32564801E-05
  -10.9899998      -1.69440500E-05
  -10.9799995      -1.98399630E-05
  -10.9700003      -2.16420540E-05
  -10.9600000      -2.20992915E-05
  -10.9499998      -2.10604030E-05
  -10.9399996      -1.85087283E-05
  -10.9300003      -1.45754220E-05
  -10.9200001      -9.52785922E-06
  -10.9099998      -3.73534544E-06
  -10.8999996       2.38101256E-06
  -10.8900003       8.40459234E-06
  -10.8800001       1.39752947E-05
  -10.8699999       1.88283047E-05
  -10.8599997       2.28136651E-05
  -10.8500004       2.58947512E-05
  -10.8400002       2.81274752E-05
  -10.8299999       2.96253820E-05
  -10.8199997       3.05178692E-05
  -10.8100004       3.09095085E-05
  -10.8000002       3.08481758E-05
  -10.7900000       3.03079178E-05
  -10.7799997       2.91899960E-05
  -10.7700005       2.73421720E-05
  -10.7600002       2.45928441E-05
  -10.7500000       2.07933972E-05
  -10.7399998       1.58599596E-05
  -10.7299995       9.80537698E-06
  -10.7200003       2.75390948E-06
  -10.7100000      -5.06533343E-06
  -10.6999998      -1.33452295E-05
  -10.6899996      -2.17416728E-05
  -10.6800003      -2.99191070E-05
  -10.6700001      -3.75895543E-05
  -10.6599998      -4.45358492E-05
  -10.6499996      -5.06145225E-05
  -10.6400003      -5.57395470E-05
  -10.6300001      -5.98542356E-05
  -10.6199999      -6.29021160E-05
  -10.6099997      -6.48081186E-05
  -10.6000004      -6.54778778E-05
  -10.5900002      -6.48170899E-05
  -10.5799999      -6.27657719E-05
  -10.5699997      -5.93365803E-05
  -10.5600004      -5.46443116E-05
  -10.5500002      -4.89148770E-05
  -10.5400000      -4.24683058E-05
  -10.5299997      -3.56773962E-05
  -10.5200005      -2.89113323E-05
  -10.5100002      -2.24781088E-05
  -10.5000000      -1.65803394E-05
  -10.4899998      -1.12952530E-05
  -10.4799995      -6.58274666E-06
  -10.4700003      -2.31791091E-06
  -10.4600000       1.66214716E-06
  -10.4499998       5.50994810E-06
  -10.4399996       9.32952935E-06
  -10.4300003       1.31558118E-05
  -10.4200001       1.69527739E-05
  -10.4099998       2.06262303E-05
  -10.3999996       2.40442132E-05
  -10.3900003       2.70579185E-05
  -10.3800001       2.95191603E-05
  -10.3699999       3.12940174E-05
  -10.3599997       3.22756896E-05
  -10.3500004       3.24002394E-05
  -10.3400002       3.16670921E-05
  -10.3299999       3.01619893E-05
  -10.3199997       2.80758395E-05
  -10.3100004       2.57102020E-05
  -10.3000002       2.34606887E-05
  -10.2900000       2.17739380E-05
  -10.2799997       2.10809958E-05
  -10.2700005       2.17177003E-05
  -10.2600002       2.38486045E-05
  -10.2500000       2.74127178E-05
  -10.2399998       3.21063962E-05
  -10.2299995       3.74107549E-05
  -10.2200003       4.26612532E-05
  -10.2100000       4.71470412E-05
  -10.1999998       5.02212060E-05
  -10.1899996       5.14008898E-05
  -10.1800003       5.04394993E-05
  -10.1700001       4.73597320E-05
  -10.1599998       4.24451064E-05
  -10.1499996       3.61948187E-05
  -10.1400003       2.92526001E-05
  -10.1300001       2.23217921E-05
  -10.1199999       1.60783929E-05
  -10.1099997       1.10913898E-05
  -10.1000004       7.75749777E-06
  -10.0900002       6.25542589E-06
  -10.0799999       6.52451627E-06
  -10.0699997       8.27136773E-06
  -10.0600004       1.10068931E-05
  -10.0500002       1.41128894E-05
  -10.0400000       1.69320447E-05
  -10.0299997       1.88693957E-05
  -10.0200005       1.94887325E-05
  -10.0100002       1.85854260E-05
  -10.0000000       1.62197884E-05
  -9.98999977       1.27022968E-05
  -9.97999954       8.53210349E-06
  -9.97000027       4.30133969E-06
  -9.96000004       5.85503187E-07
  -9.94999981      -2.15632895E-06
  -9.93999958      -3.65071969E-06
  -9.93000031      -3.83669203E-06
  -9.92000008      -2.84909311E-06
  -9.90999985      -9.68560471E-07
  -9.89999962       1.44474404E-06
  -9.89000034       4.01533362E-06
  -9.88000011       6.40077405E-06
  -9.86999989       8.31882880E-06
  -9.85999966       9.55692030E-06
  -9.85000038       9.97416737E-06
  -9.84000015       9.50714275E-06
  -9.82999992       8.18659464E-06
  -9.81999969       6.16422267E-06
  -9.81000042       3.73968464E-06
  -9.80000019       1.37241284E-06
  -9.78999996      -3.37335138E-07
  -9.77999973      -7.07435220E-07
  -9.77000046       9.29096757E-07
  -9.76000023       5.10430300E-06
  -9.75000000       1.20977675E-05
  -9.73999977       2.18502664E-05
  -9.72999954       3.39330145E-05
  -9.72000027       4.75847082E-05
  -9.71000004       6.18122212E-05
  -9.69999981       7.55350920E-05
  -9.68999958       8.77425773E-05
  -9.68000031       9.76300653E-05
  -9.67000008       1.04687781E-04
  -9.65999985       1.08728505E-04
  -9.64999962       1.09857101E-04
  -9.64000034       1.08398883E-04
  -9.63000011       1.04811712E-04
  -9.61999989       9.96061935E-05
  -9.60999966       9.32905750E-05
  -9.60000038       8.63451278E-05
  -9.59000015       7.92181017E-05
  -9.57999992       7.23288103E-05
  -9.56999969       6.60620644E-05
  -9.56000042       6.07444999E-05
  -9.55000019       5.66040653E-05
  -9.53999996       5.37247106E-05
  -9.52999973       5.20139874E-05
  -9.52000046       5.12026127E-05
  -9.51000023       5.08854173E-05
  -9.50000000       5.06021534E-05
  -9.48999977       4.99419002E-05
  -9.47999954       4.86461031E-05
  -9.47000027       4.66823694E-05
  -9.46000004       4.42681157E-05
  -9.44999981       4.18357558E-05
  -9.43999958       3.99476266E-05
  -9.43000031       3.91821595E-05
  -9.42000008       4.00203644E-05
  -9.40999985       4.27597406E-05
  -9.39999962       4.74732296E-05
  -9.39000034       5.40169131E-05
  -9.38000011       6.20756327E-05
  -9.36999989       7.12273977E-05
  -9.35999966       8.10045749E-05
  -9.35000038       9.09373994E-05
  -9.34000015       1.00574456E-04
  -9.32999992       1.09486653E-04
  -9.31999969       1.17268683E-04
  -9.31000042       1.23550926E-04
  -9.30000019       1.28029569E-04
  -9.28999996       1.30511093E-04
  -9.27999973       1.30957735E-04
  -9.27000046       1.29514083E-04
  -9.26000023       1.26498358E-04
  -9.25000000       1.22350131E-04
  -9.23999977       1.17541706E-04
  -9.22999954       1.12473448E-04
  -9.22000027       1.07381165E-04
  -9.21000004       1.02282778E-04
  -9.19999981       9.69807588E-05
  -9.18999958       9.11202296E-05
  -9.18000031       8.42853551E-05
  -9.17000008       7.61051269E-05
  -9.15999985       6.63368191E-05
  -9.14999962       5.49051947E-05
  -9.14000034       4.18910313E-05
  -9.13000011       2.74805407E-05
  -9.11999989       1.19013212E-05
  -9.10999966      -4.62658090E-06
  -9.10000038      -2.19031317E-05
  -9.09000015      -3.97199510E-05
  -9.07999992      -5.78035761E-05
  -9.06999969      -7.57594389E-05
  -9.06000042      -9.30463357E-05
  -9.05000019      -1.09004337E-04
  -9.03999996      -1.22939149E-04
  -9.02999973      -1.34244721E-04
  -9.02000046      -1.42529170E-04
  -9.01000023      -1.47702318E-04
  -9.00000000      -1.49994201E-04
  -8.98999977      -1.49893007E-04
  -8.97999954      -1.48017323E-04
  -8.97000027      -1.44960854E-04
  -8.96000004      -1.41155790E-04
  -8.94999981      -1.36797273E-04
  -8.93999958      -1.31849913E-04
  -8.93000031      -1.26129773E-04
  -8.92000008      -1.19430239E-04
  -8.90999985      -1.11645139E-04
  -8.89999962      -1.02844664E-04
  -8.89000034      -9.32771654E-05
  -8.88000011      -8.32987571E-05
  -8.86999989      -7.32577755E-05
  -8.85999966      -6.33801101E-05
  -8.85000038      -5.36993393E-05
  -8.84000015      -4.40617005E-05
  -8.82999992      -3.42060921E-05
  -8.81999969      -2.38915400E-05
  -8.81000042      -1.30261042E-05
  -8.80000019      -1.74795559E-06
  -8.78999996       9.57374050E-06
  -8.77999973       2.04226799E-05
  -8.77000046       3.02781827E-05
  -8.76000023       3.87688960E-05
  -8.75000000       4.57856913E-05
  -8.73999977       5.15145693E-05
  -8.72999954       5.63809845E-05
  -8.72000027       6.09261879E-05
  -8.71000004       6.56617267E-05
  -8.69999981       7.09535962E-05
  -8.68999958       7.69763064E-05
  -8.68000031       8.37476182E-05
  -8.67000008       9.12241012E-05
  -8.65999985       9.94136208E-05
  -8.64999962       1.08452747E-04
  -8.64000034       1.18612152E-04
  -8.63000011       1.30221131E-04
  -8.61999989       1.43537385E-04
  -8.60999966       1.58612631E-04
  -8.60000038       1.75212408E-04
  -8.59000015       1.92830630E-04
  -8.57999992       2.10807659E-04
  -8.56999969       2.28519784E-04
  -8.56000042       2.45576724E-04
  -8.55000019       2.61955458E-04
  -8.53999996       2.78014282E-04
  -8.52999973       2.94370257E-04
  -8.52000046       3.11671989E-04
  -8.51000023       3.30337265E-04
  -8.50000000       3.50347924E-04
  -8.48999977       3.71175876E-04
  -8.47999954       3.91878770E-04
  -8.47000027       4.11344226E-04
  -8.46000004       4.28613508E-04
  -8.44999981       4.43180208E-04
  -8.43999958       4.55165864E-04
  -8.43000031       4.65307297E-04
  -8.42000008       4.74751054E-04
  -8.40999985       4.84710559E-04
  -8.39999962       4.96088585E-04
  -8.39000034       5.09181817E-04
  -8.38000011       5.23558585E-04
  -8.36999989       5.38148452E-04
  -8.35999966       5.51516714E-04
  -8.35000038       5.62240195E-04
  -8.34000015       5.69266966E-04
  -8.32999992       5.72154706E-04
  -8.31999969       5.71118260E-04
  -8.31000042       5.66881965E-04
  -8.30000019       5.60393499E-04
  -8.28999996       5.52494661E-04
  -8.27999973       5.43660135E-04
  -8.27000046       5.33882878E-04
  -8.26000023       5.22739254E-04
  -8.25000000       5.09601552E-04
  -8.23999977       4.93922562E-04
  -8.22999954       4.75490262E-04
  -8.22000027       4.54566907E-04
  -8.21000004       4.31862107E-04
  -8.19999981       4.08348948E-04
  -8.18999958       3.84981045E-04
  -8.18000031       3.62401857E-04
  -8.17000008       3.40740866E-04
  -8.15999985       3.19562474E-04
  -8.14999962       2.97986728E-04
  -8.14000034       2.74947699E-04
  -8.13000011       2.49511679E-04
  -8.11999989       2.21162540E-04
  -8.10999966       1.89967817E-04
  -8.10000038       1.56579103E-04
  -8.09000015       1.22067926E-04
  -8.07999992       8.76463091E-05
  -8.06999969       5.43557762E-05
  -8.06000042       2.28163681E-05
  -8.05000019      -6.89236867E-06
  -8.03999996      -3.51850285E-05
  -8.02999973      -6.27750051E-05
  -8.02000046      -9.03896798E-05
  -8.01000023      -1.18484008E-04
  -8.00000000      -1.47038445E-04
  -7.98999977      -1.75505062E-04
  -7.98000002      -2.02919196E-04
  -7.96999979      -2.28146237E-04
  -7.96000004      -2.50189216E-04
  -7.94999981      -2.68463133E-04
  -7.94000006      -2.82949273E-04
  -7.92999983      -2.94176250E-04
  -7.92000008      -3.03025852E-04
  -7.90999985      -3.10419418E-04
  -7.90000010      -3.16977559E-04
  -7.88999987      -3.22761683E-04
  -7.88000011      -3.27185990E-04
  -7.86999989      -3.29138507E-04
  -7.86000013      -3.27284884E-04
  -7.84999990      -3.20473075E-04
  -7.84000015      -3.08112882E-04
  -7.82999992      -2.90411554E-04
  -7.82000017      -2.68381613E-04
  -7.80999994      -2.43607661E-04
  -7.80000019      -2.17832683E-04
  -7.78999996      -1.92487714E-04
  -7.78000021      -1.68309562E-04
  -7.76999998      -1.45171085E-04
  -7.76000023      -1.22183366E-04
  -7.75000000      -9.80432815E-05
  -7.73999977      -7.15191563E-05
  -7.73000002      -4.19195567E-05
  -7.71999979      -9.39130132E-06
  -7.71000004       2.50561443E-05
  -7.69999981       5.98111437E-05
  -7.69000006       9.31246177E-05
  -7.67999983       1.23626640E-04
  -7.67000008       1.50721477E-04
  -7.65999985       1.74725792E-04
  -7.65000010       1.96700508E-04
  -7.63999987       2.18027330E-04
  -7.63000011       2.39875313E-04
  -7.61999989       2.62739806E-04
  -7.61000013       2.86217692E-04
  -7.59999990       3.09106079E-04
  -7.59000015       3.29799601E-04
  -7.57999992       3.46858171E-04
  -7.57000017       3.59553233E-04
  -7.55999994       3.68202076E-04
  -7.55000019       3.74163996E-04
  -7.53999996       3.79486621E-04
  -7.53000021       3.86307307E-04
  -7.51999998       3.96200456E-04
  -7.51000023       4.09685948E-04
  -7.50000000       4.26063198E-04
  -7.48999977       4.43634053E-04
  -7.48000002       4.60245094E-04
  -7.46999979       4.73979715E-04
  -7.46000004       4.83775715E-04
  -7.44999981       4.89770027E-04
  -7.44000006       4.93260915E-04