  -16.0000000       0.00000000    
  -15.9899998       0.00000000    
  -15.9799995       0.00000000    
  -15.9700003       0.00000000    
  -15.9600000       0.00000000    
  -15.9499998       0.00000000    
  -15.9399996       0.00000000    
  -15.9300003       0.00000000    
  -15.9200001       0.00000000    
  -15.9099998       0.00000000    
  -15.8999996       0.00000000    
  -15.8900003       0.00000000    
  -15.8800001      -0.00000000    
  -15.8699999      -0.00000000    
  -15.8599997      -1.40129846E-45
  -15.8500004      -0.00000000    
  -15.8400002       3.08285662E-44
  -15.8299999       3.08285662E-43
  -15.8199997       2.02767888E-42
  -15.8100004       1.08488527E-41
  -15.8000002       5.07662408E-41
  -15.7900000       2.13091254E-40
  -15.7799997       8.07767289E-40
  -15.7700005       2.76588851E-39
  -15.7600002       8.54570378E-39
  -15.7500000       2.38022007E-38
  -15.7399998       5.96940926E-38
  -15.7299995       1.34472524E-37
  -15.7200003       2.70689833E-37
  -15.7100000       4.81854481E-37
  -15.6999998       7.42736301E-37
  -15.6899996       9.46230981E-37
  -15.6800003       8.71388370E-37
  -15.6700001       2.17916462E-37
  -15.6599998      -1.22067338E-36
  -15.6499996      -3.21409564E-36
  -15.6400003      -4.69301555E-36
  -15.6300001      -3.62414831E-36
  -15.6199999       2.33995786E-36
  -15.6099997       1.41480087E-35
  -15.6000004       2.91735858E-35
  -15.5900002       4.06686808E-35
  -15.5799999       4.20690229E-35
  -15.5699997       3.80740525E-35
  -15.5600004       5.83926761E-35
  -15.5500002       1.59148814E-34
  -15.5400000       3.86685938E-34
  -15.5299997       6.82135744E-34
  -15.5200005       7.40082886E-34
  -15.5100002      -9.03369131E-35
  -15.5000000      -2.68002941E-33
  -15.4899998      -7.54707854E-33
  -15.4799995      -1.37389341E-32
  -15.4700003      -1.74684294E-32
  -15.4600000      -1.14496595E-32
  -15.4499998       1.34983104E-32
  -15.4399996       6.30066148E-32
  -15.4300003       1.29660706E-31
  -15.4200001       1.82423146E-31
  -15.4099998       1.62368684E-31
  -15.3999996      -4.43693392E-33
  -15.3900003      -3.67467763E-31
  -15.3800001      -8.86500193E-31
  -15.3699999      -1.36193236E-30
  -15.3599997      -1.40764057E-30
  -15.3500004      -5.30206962E-31
  -15.3400002       1.63448559E-30
  -15.3299999       4.93800049E-30
  -15.3199997       8.31282296E-30
  -15.3100004       9.59795990E-30
  -15.3000002       5.93041151E-30
  -15.2900000      -5.03926679E-30
  -15.2799997      -2.31613719E-29
  -15.2700005      -4.36311785E-29
  -15.2600002      -5.58838245E-29
  -15.2500000      -4.51251254E-29
  -15.2399998       2.24480225E-30
  -15.2299995       8.94232745E-29
  -15.2200003       1.98693028E-28
  -15.2100000       2.84811865E-28
  -15.1999998       2.79228834E-28
  -15.1899996       1.11022759E-28
  -15.1800003      -2.54728069E-28
  -15.1700001      -7.69793236E-28
  -15.1599998      -1.26670656E-27
  -15.1499996      -1.46169666E-27
  -15.1400003      -1.02299110E-27
  -15.1300001       2.86106138E-28
  -15.1199999       2.41348450E-27
  -15.1099997       4.84121126E-27
  -15.1000004       6.52927845E-27
  -15.0900002       6.09099419E-27
  -15.0799999       2.26523142E-27
  -15.0699997      -5.35769367E-27
  -15.0600004      -1.55561013E-26
  -15.0500002      -2.49990807E-26
  -15.0400000      -2.85059664E-26
  -15.0299997      -2.03930944E-26
  -15.0200005       3.05333428E-27
  -15.0100002       4.04665430E-26
  -15.0000000       8.27620292E-26
  -14.9899998       1.12564091E-25
  -14.9799995       1.07300540E-25
  -14.9700003       4.68192090E-26
  -14.9600000      -7.52620758E-26
  -14.9499998      -2.39569390E-25
  -14.9399996      -3.93743774E-25
  -14.9300003      -4.56535697E-25
  -14.9200001      -3.38543528E-25
  -14.9099998       1.96979277E-26
  -14.8999996       5.99512644E-25
  -14.8900003       1.26257858E-24
  -14.8800001       1.74055927E-24
  -14.8699999       1.68103005E-24
  -14.8599997       7.63817332E-25
  -14.8500004      -1.12313283E-24
  -14.8400002      -3.69508719E-24
  -14.8299999      -6.15195662E-24
  -14.8199997      -7.23192731E-24
  -14.8100004      -5.52138539E-24
  -14.8000002      -3.52143595E-26
  -14.7900000       9.03934254E-24
  -14.7799997       1.96874107E-23
  -14.7700005       2.78669312E-23
  -14.7600002       2.81428495E-23
  -14.7500000       1.53705303E-23
  -14.7399998      -1.27188075E-23
  -14.7299995      -5.26909607E-23
  -14.7200003      -9.35091357E-23
  -14.7100000      -1.16996807E-22
  -14.6999998      -1.01851403E-22
  -14.6899996      -3.14597918E-23
  -14.6800003       9.58264430E-23
  -14.6700001       2.57186755E-22
  -14.6599998       4.01313232E-22
  -14.6499996       4.54776520E-22
  -14.6400003       3.41762363E-22
  -14.6300001       1.58727081E-23
  -14.6199999      -5.03346370E-22
  -14.6099997      -1.10250322E-21
  -14.6000004      -1.57179745E-21
  -14.5900002      -1.64232833E-21
  -14.5799999      -1.06824257E-21
  -14.5699997       2.57905136E-22
  -14.5600004       2.18821786E-21
  -14.5500002       4.24914158E-21
  -14.5400000       5.67038570E-21
  -14.5299997       5.55024216E-21
  -14.5200005       3.15609733E-21
  -14.5100002      -1.69708644E-21
  -14.5000000      -8.30655337E-21
  -14.4899998      -1.49348187E-20
  -14.4799995      -1.90049302E-20
  -14.4700003      -1.77179583E-20
  -14.4600000      -9.04103805E-21
  -14.4499998       7.15490470E-21
  -14.4399996       2.81846833E-20
  -14.4300003       4.83175551E-20
  -14.4200001       5.96081277E-20
  -14.4099998       5.39263695E-20
  -14.3999996       2.59226190E-20
  -14.3900003      -2.38007166E-20
  -14.3800001      -8.64132774E-20
  -14.3699999      -1.44687900E-19
  -14.3599997      -1.75845867E-19
  -14.3500004      -1.57565202E-19
  -14.3400002      -7.61947534E-20
  -14.3299999       6.49518567E-20
  -14.3199997       2.40180111E-19
  -14.3100004       4.01893585E-19
  -14.3000002       4.88981667E-19
  -14.2900000       4.43043985E-19
  -14.2799997       2.29582842E-19
  -14.2700005      -1.41456764E-19
  -14.2600002      -6.03139881E-19
  -14.2500000      -1.03406831E-18
  -14.2399998      -1.28025494E-18
  -14.2299995      -1.19541661E-18
  -14.2200003      -6.92195231E-19
  -14.2100000       2.09297711E-19
  -14.1999998       1.35263365E-18
  -14.1899996       2.45170791E-18
  -14.1800003       3.14177238E-18
  -14.1700001       3.07184605E-18
  -14.1599998       2.02107066E-18
  -14.1499996       8.65225912E-21
  -14.1400003      -2.63970952E-18
  -14.1300001      -5.30262271E-18
  -14.1199999      -7.16964917E-18
  -14.1099997      -7.43718585E-18
  -14.1000004      -5.55705478E-18
  -14.0900002      -1.47511780E-18
  -14.0799999       4.21636292E-18
  -14.0699997       1.02818964E-17
  -14.0600004       1.50408435E-17
  -14.0500002       1.67501328E-17
  -14.0400000       1.41029613E-17
  -14.0299997       6.72310275E-18
  -14.0200005      -4.49290057E-18
  -14.0100002      -1.73229769E-17
  -14.0000000      -2.85394914E-17
  -13.9899998      -3.45948009E-17
  -13.9799995      -3.25566047E-17
  -13.9700003      -2.10792239E-17
  -13.9600000      -1.14053297E-18
  -13.9499998       2.37164361E-17
  -13.9399996       4.78106953E-17
  -13.9300003       6.44386403E-17
  -13.9200001       6.75057995E-17
  -13.9099998       5.33234736E-17
  -13.8999996       2.21032685E-17
  -13.8900003      -2.13230304E-17
  -13.8800001      -6.79066777E-17
  -13.8699999      -1.06009310E-16
  -13.8599997      -1.24038049E-16
  -13.8500004      -1.13553422E-16
  -13.8400002      -7.20901006E-17
  -13.8299999      -4.87418244E-18
  -13.8199997       7.52221241E-17
  -13.8100004       1.49779446E-16
  -13.8000002       1.98767465E-16
  -13.7900000       2.05563779E-16
  -13.7799997       1.61881787E-16
  -13.7700005       7.12645413E-17
  -13.7600002      -5.00278107E-17
  -13.7500000      -1.75391393E-16
  -13.7399998      -2.73381790E-16
  -13.7299995      -3.15342478E-16
  -13.7200003      -2.83414604E-16
  -13.7100000      -1.76803980E-16
  -13.6999998      -1.43297775E-17
  -13.6899996       1.68002619E-16
  -13.6800003       3.24478179E-16
  -13.6700001       4.10884010E-16
  -13.6599998       3.96888484E-16
  -13.6499996       2.76297250E-16
  -13.6400003       7.19772136E-17
  -13.6300001      -1.66754728E-16
  -13.6199999      -3.74688730E-16
  -13.6099997      -4.87429451E-16
  -13.6000004      -4.60408411E-16
  -13.5900002      -2.85052501E-16
  -13.5799999       3.06363256E-18
  -13.5699997       3.27803312E-16
  -13.5600004       5.88741791E-16
  -13.5500002       6.87550090E-16
  -13.5400000       5.58515949E-16
  -13.5299997       1.94971169E-16
  -13.5200005      -3.36903199E-16
  -13.5100002      -9.03290864E-16
  -13.5000000      -1.32904435E-15
  -13.4899998      -1.44145769E-15
  -13.4799995      -1.12219298E-15
  -13.4700003      -3.54005827E-16
  -13.4600000       7.52067637E-16
  -13.4499998       1.96054775E-15
  -13.4399996       2.95122754E-15
  -13.4300003       3.39056023E-15
  -13.4200001       3.02097286E-15
  -13.4099998       1.74701244E-15
  -13.3999996      -3.05641092E-16
  -13.3900003      -2.77906089E-15
  -13.3800001      -5.13135101E-15
  -13.3699999      -6.74194138E-15
  -13.3599997      -7.05604322E-15
  -13.3500004      -5.73736750E-15
  -13.3400002      -2.79107245E-15
  -13.3299999       1.37913163E-15
  -13.3199997       6.00435229E-15
  -13.3100004       1.00796074E-14
  -13.3000002       1.25702620E-14
  -13.2900000       1.26555980E-14
  -13.2799997       9.95449467E-15
  -13.2700005       4.67561763E-15
  -13.2600002      -2.35414427E-15
  -13.2500000      -9.80475704E-15
  -13.2399998      -1.60909104E-14
  -13.2299995      -1.97081494E-14
  -13.2200003      -1.95864528E-14
  -13.2100000      -1.53786878E-14
  -13.1999998      -7.60880887E-15
  -13.1899996       2.36873463E-15
  -13.1800003       1.26060830E-14
  -13.1700001       2.09562575E-14
  -13.1599998       2.55443419E-14
  -13.1499996       2.52097215E-14
  -13.1400003       1.98123514E-14
  -13.1300001       1.03203477E-14
  -13.1199999      -1.35682534E-15
  -13.1099997      -1.27660986E-14
  -13.1000004      -2.14579399E-14
  -13.0900002      -2.55594343E-14
  -13.0799999      -2.42351559E-14
  -13.0699997      -1.79162647E-14
  -13.0600004      -8.22834148E-15
  -13.0500002       2.38090903E-15
  -13.0400000       1.12375243E-14
  -13.0299997       1.61223387E-14
  -13.0200005       1.58681594E-14
  -13.0100002       1.07139410E-14
  -13.0000000       2.30770569E-15
  -12.9899998      -6.66679008E-15
  -12.9799995      -1.31695776E-14
  -12.9700003      -1.46344813E-14
  -12.9600000      -9.74286857E-15
  -12.9499998       1.06891704E-15
  -12.9399996       1.55264663E-14
  -12.9300003       2.99210594E-14
  -12.9200001       3.99411170E-14
  -12.9099998       4.17571929E-14
  -12.8999996       3.31039890E-14
  -12.8900003       1.40808801E-14
  -12.8800001      -1.25623888E-14
  -12.8699999      -4.17785618E-14
  -12.8599997      -6.71880493E-14
  -12.8500004      -8.24747036E-14
  -12.8400002      -8.29066430E-14
  -12.8299999      -6.66200561E-14
  -12.8199997      -3.53320007E-14
  -12.8100004       5.73703293E-15
  -12.8000002       4.87751827E-14
  -12.7900000       8.49685719E-14
  -12.7799997       1.06436242E-13
  -12.7700005       1.08073062E-13
  -12.7600002       8.88575509E-14
  -12.7500000       5.22852195E-14
  -12.7399998       5.77708064E-15
  -12.7299995      -4.08464393E-14
  -12.7200003      -7.75083936E-14
  -12.7100000      -9.61554377E-14
  -12.6999998      -9.26421415E-14
  -12.6899996      -6.77615312E-14
  -12.6800003      -2.71540721E-14
  -12.6700001       1.99123775E-14
  -12.6599998       6.26246830E-14
  -12.6499996       9.10875515E-14
  -12.6400003       9.85822548E-14
  -12.6300001       8.30743623E-14
  -12.6199999       4.75992198E-14
  -12.6099997      -5.73180313E-16
  -12.6000004      -5.17878451E-14
  -12.5900002      -9.64016058E-14
  -12.5799999      -1.27111090E-13
  -12.5699997      -1.40598769E-13
  -12.5600004      -1.38046923E-13
  -12.5500002      -1.24352392E-13
  -12.5400000      -1.06217152E-13
  -12.5299997      -8.96002090E-14
  -12.5200005      -7.72203075E-14
  -12.5100002      -6.68381705E-14
  -12.5000000      -5.08996430E-14
  -12.4899998      -1.78222254E-14
  -12.4799995       4.51879406E-14
  -12.4700003       1.48293622E-13
  -12.4600000       2.94957743E-13
  -12.4499998       4.78582885E-13
  -12.4399996       6.80704299E-13
  -12.4300003       8.71297663E-13
  -12.4200001       1.01134986E-12
  -12.4099998       1.05734302E-12
  -12.3999996       9.66906351E-13
  -12.3900003       7.04608355E-13
  -12.3800001       2.46816673E-13
  -12.3699999      -4.15246722E-13
  -12.3599997      -1.27477055E-12
  -12.3500004      -2.31091968E-12
  -12.3400002      -3.49224512E-12
  -12.3299999      -4.78103364E-12
  -12.3199997      -6.13760258E-12
  -12.3100004      -7.52354949E-12
  -12.3000002      -8.90332079E-12
  -12.2900000      -1.02439108E-11
  -12.2799997      -1.15130266E-11
  -12.2700005      -1.26764337E-11
  -12.2600002      -1.36955386E-11
  -12.2500000      -1.45260878E-11
  -12.2399998      -1.51187275E-11
  -12.2299995      -1.54216188E-11
  -12.2200003      -1.53846918E-11
  -12.2100000      -1.49647881E-11
  -12.1999998      -1.41305431E-11
  -12.1899996      -1.28657970E-11
  -12.1800003      -1.11708091E-11
  -12.1700001      -9.06086230E-12
  -12.1599998      -6.56261850E-12
  -12.1499996      -3.70911895E-12
  -12.1400003      -5.34689805E-13
  -12.1300001       2.92885508E-12
  -12.1199999       6.65379123E-12
  -12.1099997       1.06151806E-11
  -12.1000004       1.47871906E-11
  -12.0900002       1.91378215E-11
  -12.0799999       2.36236326E-11
  -12.0699997       2.81859831E-11
  -12.0600004       3.27501359E-11
  -12.0500002       3.72278458E-11
  -12.0400000       4.15232744E-11
  -12.0299997       4.55412513E-11
  -12.0200005       4.91960049E-11
  -12.0100002       5.24186042E-11
  -12.0000000       5.51613789E-11
  -11.9899998       5.73980447E-11
  -11.9799995       5.91196814E-11
  -11.9700003       6.03271738E-11
  -11.9600000       6.10221526E-11
  -11.9499998       6.11981368E-11
  -11.9399996       6.08346429E-11
  -11.9300003       5.98948391E-11
  -11.9200001       5.83283005E-11
  -11.9099998       5.60777536E-11
  -11.8999996       5.30885336E-11
  -11.8900003       4.93183966E-11
  -11.8800001       4.47457939E-11
  -11.8699999       3.93745800E-11
  -11.8599997       3.32340371E-11
  -11.8500004       2.63745258E-11
  -11.8400002       1.88600108E-11
  -11.8299999       1.07590412E-11
  -11.8199997       2.13661575E-12
  -11.8100004      -6.95106646E-12
  -11.8000002      -1.64579097E-11
  -11.7900000      -2.63450060E-11
  -11.7799997      -3.65744206E-11
  -11.7700005      -4.71011806E-11
  -11.7600002      -5.78658267E-11
  -11.7500000      -6.87894047E-11
  -11.7399998      -7.97722166E-11
  -11.7299995      -9.06969846E-11
  -11.7200003      -1.01435679E-10
  -11.7100000      -1.11858529E-10
  -11.6999998      -1.21843396E-10
  -11.6899996      -1.31283123E-10
  -11.6800003      -1.40089690E-10
  -11.6700001      -1.48194013E-10
  -11.6599998      -1.55541705E-10
  -11.6499996      -1.62086219E-10
  -11.6400003      -1.67780706E-10
  -11.6300001      -1.72570708E-10
  -11.6199999      -1.76389528E-10
  -11.6099997      -1.79156981E-10
  -11.6000004      -1.80781945E-10
  -11.5900002      -1.81167345E-10
  -11.5799999      -1.80217535E-10
  -11.5699997      -1.77845086E-10
  -11.5600004      -1.73976500E-10
  -11.5500002      -1.68555989E-10
  -11.5400000      -1.61546179E-10
  -11.5299997      -1.52928184E-10
  -11.5200005      -1.42699672E-10
  -11.5100002      -1.30874062E-10
  -11.5000000      -1.17479873E-10
  -11.4899998      -1.02561994E-10
  -11.4799995      -8.61823390E-11
  -11.4700003      -6.84212617E-11
  -11.4600000      -4.93760970E-11
  -11.4499998      -2.91579226E-11
  -11.4399996      -7.88463999E-12
  -11.4300003       1.43284542E-11
  -11.4200001       3.73785655E-11
  -11.4099998       6.11851542E-11
  -11.3999996       8.56948054E-11
  -11.3900003       1.10882289E-10
  -11.3800001       1.36745351E-10
  -11.3699999       1.63293948E-10
  -11.3599997       1.90536920E-10
  -11.3500004       2.18468132E-10
  -11.3400002       2.47056042E-10
  -11.3299999       2.76239004E-10
  -11.3199997       3.05927866E-10
  -11.3100004       3.36015521E-10
  -11.3000002       3.66391500E-10
  -11.2900000       3.96957689E-10
  -11.2799997       4.27641506E-10
  -11.2700005       4.58402982E-10
  -11.2600002       4.89234597E-10
  -11.2500000       5.20151866E-10
  -11.2399998       5.51177715E-10
  -11.2299995       5.82325688E-10
  -11.2200003       6.13582796E-10
  -11.2100000       6.44900411E-10
  -11.1999998       6.76191769E-10
  -11.1899996       7.07339742E-10
  -11.1800003       7.38211381E-10
  -11.1700001       7.68676900E-10
  -11.1599998       7.98628275E-10
  -11.1499996       8.27991176E-10
  -11.1400003       8.56731519E-10
  -11.1300001       8.84851692E-10
  -11.1199999       9.12377285E-10
  -11.1099997       9.39340716E-10
  -11.1000004       9.65765357E-10
  -11.0900002       9.91651761E-10
  -11.0799999       1.01697017E-09
  -11.0699997       1.04166631E-09
  -11.0600004       1.06567122E-09
  -11.0500002       1.08891862E-09
  -11.0400000       1.11136178E-09
  -11.0299997       1.13299325E-09
  -11.0200005       1.15384735E-09
  -11.0100002       1.17400667E-09
  -11.0000000       1.19359000E-09
  -10.9899998       1.21274080E-09
  -10.9799995       1.23160349E-09
  -10.9700003       1.25030863E-09
  -10.9600000       1.26895117E-09
  -10.9499998       1.28758115E-09
  -10.9399996       1.30620526E-09
  -10.9300003       1.32478217E-09
  -10.9200001       1.34323508E-09
  -10.9099998       1.36146383E-09
  -10.8999996       1.37935474E-09
  -10.8900003       1.39679734E-09
  -10.8800001       1.41368517E-09
  -10.8699999       1.42992751E-09
  -10.8599997       1.44544299E-09
  -10.8500004       1.46016343E-09
  -10.8400002       1.47402046E-09
  -10.8299999       1.48694235E-09
  -10.8199997       1.49884860E-09
  -10.8100004       1.50963919E-09
  -10.8000002       1.51920643E-09
  -10.7900000       1.52743151E-09
  -10.7799997       1.53420032E-09
  -10.7700005       1.53941526E-09
  -10.7600002       1.54300717E-09
  -10.7500000       1.54494306E-09
  -10.7399998       1.54524049E-09
  -10.7299995       1.54395230E-09
  -10.7200003       1.54116342E-09
  -10.7100000       1.53696933E-09
  -10.6999998       1.53145563E-09
  -10.6899996       1.52468471E-09
  -10.6800003       1.51668123E-09
  -10.6700001       1.50743551E-09
  -10.6599998       1.49690693E-09
  -10.6499996       1.48504897E-09
  -10.6400003       1.47182933E-09
  -10.6300001       1.45725387E-09
  -10.6199999       1.44138002E-09
  -10.6099997       1.42432433E-09
  -10.6000004       1.40624945E-09
  -10.5900002       1.38735157E-09
  -10.5799999       1.36784939E-09
  -10.5699997       1.34794831E-09
  -10.5600004       1.32782185E-09
  -10.5500002       1.30761613E-09
  -10.5400000       1.28742239E-09
  -10.5299997       1.26730815E-09
  -10.5200005       1.24730026E-09
  -10.5100002       1.22740285E-09
  -10.5000000       1.20761356E-09
  -10.4899998       1.18792165E-09
  -10.4799995       1.16832199E-09
  -10.4700003       1.14882592E-09
  -10.4600000       1.12945830E-09
  -10.4499998       1.11027743E-09
  -10.4399996       1.09136689E-09
  -10.4300003       1.07284892E-09
  -10.4200001       1.05486841E-09
  -10.4099998       1.03757614E-09
  -10.3999996       1.02111108E-09
  -10.3900003       1.00556385E-09
  -10.3800001       9.90970306E-10
  -10.3699999       9.77297687E-10
  -10.3599997       9.64431757E-10
  -10.3500004       9.52209089E-10
  -10.3400002       9.40433398E-10
  -10.3299999       9.28909893E-10
  -10.3199997       9.17464049E-10
  -10.3100004       9.05967690E-10
  -10.3000002       8.94352259E-10
  -10.2900000       8.82592555E-10
  -10.2799997       8.70693961E-10
  -10.2700005       8.58669302E-10
  -10.2600002       8.46523684E-10
  -10.2500000       8.34242508E-10
  -10.2399998       8.21778867E-10
  -10.2299995       8.09079581E-10
  -10.2200003       7.96079203E-10
  -10.2100000       7.82710396E-10
  -10.1999998       7.68933195E-10
  -10.1899996       7.54716067E-10
  -10.1800003       7.40062733E-10
  -10.1700001       7.24997840E-10
  -10.1599998       7.09569903E-10
  -10.1499996       6.93852642E-10
  -10.1400003       6.77954193E-10
  -10.1300001       6.62015776E-10
  -10.1199999       6.46208198E-10
  -10.1099997       6.30729635E-10
  -10.1000004       6.15796358E-10
  -10.0900002       6.01610872E-10
  -10.0799999       5.88354143E-10
  -10.0699997       5.76166947E-10
  -10.0600004       5.65143710E-10
  -10.0500002       5.55332003E-10
  -10.0400000       5.46733825E-10
  -10.0299997       5.39337741E-10
  -10.0200005       5.33117162E-10
  -10.0100002       5.28058208E-10
  -10.0000000       5.24145782E-10
  -9.98999977       5.21374943E-10
  -9.97999954       5.19729093E-10
  -9.97000027       5.19186083E-10
  -9.96000004       5.19714882E-10
  -9.94999981       5.21280352E-10
  -9.93999958       5.23865118E-10
  -9.93000031       5.27474731E-10
  -9.92000008       5.32162425E-10
  -9.90999985       5.38032563E-10
  -9.89999962       5.45222867E-10
  -9.89000034       5.53892432E-10
  -9.88000011       5.64185199E-10
  -9.86999989       5.76200532E-10
  -9.85999966       5.89984506E-10
  -9.85000038       6.05519412E-10
  -9.84000015       6.22745633E-10
  -9.82999992       6.41588727E-10
  -9.81999969       6.61995236E-10
  -9.81000042       6.83969159E-10
  -9.80000019       7.07580605E-10
  -9.78999996       7.32954808E-10
  -9.77999973       7.60248919E-10
  -9.77000046       7.89601828E-10
  -9.76000023       8.21088475E-10
  -9.75000000       8.54680215E-10
  -9.73999977       8.90229113E-10
  -9.72999954       9.27471766E-10
  -9.72000027       9.66065672E-10
  -9.71000004       1.00563513E-09
  -9.69999981       1.04582232E-09
  -9.68999958       1.08632980E-09
  -9.68000031       1.12694354E-09
  -9.67000008       1.16753596E-09
  -9.65999985       1.20804100E-09
  -9.64999962       1.24842436E-09
  -9.64000034       1.28865840E-09
  -9.63000011       1.32870437E-09
  -9.61999989       1.36850709E-09
  -9.60999966       1.40801160E-09
  -9.60000038       1.44718248E-09
  -9.59000015       1.48603141E-09
  -9.57999992       1.52462531E-09
  -9.56999969       1.56308966E-09
  -9.56000042       1.60157354E-09
  -9.55000019       1.64023173E-09
  -9.53999996       1.67918046E-09
  -9.52999973       1.71848502E-09
  -9.52000046       1.75815384E-09
  -9.51000023       1.79815274E-09
  -9.50000000       1.83844351E-09
  -9.48999977       1.87900540E-09
  -9.47999954       1.91987493E-09
  -9.47000027       1.96113925E-09
  -9.46000004       2.00292916E-09
  -9.44999981       2.04537631E-09
  -9.43999958       2.08857420E-09
  -9.43000031       2.13255280E-09
  -9.42000008       2.17726837E-09
  -9.40999985       2.22262164E-09
  -9.39999962       2.26850316E-09
  -9.39000034       2.31484254E-09
  -9.38000011       2.36165199E-09
  -9.36999989       2.40902276E-09
  -9.35999966       2.45712983E-09
  -9.35000038       2.50614618E-09
  -9.34000015       2.55618815E-09
  -9.32999992       2.60723443E-09
  -9.31999969       2.65908007E-09
  -9.31000042       2.71132805E-09
  -9.30000019       2.76342238E-09
  -9.28999996       2.81470669E-09
  -9.27999973       2.86450352E-09
  -9.27000046       2.91215274E-09
  -9.26000023       2.95705216E-09
  -9.25000000       2.99863201E-09
  -9.23999977       3.03632341E-09
  -9.22999954       3.06952752E-09
  -9.22000027       3.09757486E-09
  -9.21000004       3.11976445E-09
  -9.19999981       3.13540571E-09
  -9.18999958       3.14390491E-09
  -9.18000031       3.14485149E-09
  -9.17000008       3.13807424E-09
  -9.15999985       3.12364801E-09
  -9.14999962       3.10184900E-09
  -9.14000034       3.07307091E-09
  -9.13000011       3.03771808E-09
  -9.11999989       2.99612912E-09
  -9.10999966       2.94854896E-09
  -9.10000038       2.89515145E-09
  -9.09000015       2.83612200E-09
  -9.07999992       2.77174195E-09
  -9.06999969       2.70248068E-09
  -9.06000042       2.62901456E-09
  -9.05000019       2.55221488E-09
  -9.03999996       2.47304222E-09
  -9.02999973       2.39244624E-09
  -9.02000046       2.31126540E-09
  -9.01000023       2.23018182E-09
  -9.00000000       2.14972595E-09
  -8.98999977       2.07035455E-09
  -8.97999954       1.99257189E-09
  -8.97000027       1.91701433E-09
  -8.96000004       1.84451787E-09
  -8.94999981       1.77608706E-09
  -8.93999958       1.71282633E-09
  -8.93000031       1.65580794E-09
  -8.92000008       1.60595293E-09
  -8.90999985       1.56394642E-09
  -8.89999962       1.53024693E-09
  -8.89000034       1.50513579E-09
  -8.88000011       1.48883583E-09
  -8.86999989       1.48164714E-09
  -8.85999966       1.48401791E-09
  -8.85000038       1.49658119E-09
  -8.84000015       1.52010660E-09
  -8.82999992       1.55540414E-09
  -8.81999969       1.60319924E-09
  -8.81000042       1.66406533E-09
  -8.80000019       1.73837700E-09
  -8.78999996       1.82634097E-09
  -8.77999973       1.92809679E-09
  -8.77000046       2.04376049E-09
  -8.76000023       2.17351981E-09
  -8.75000000       2.31763098E-09
  -8.73999977       2.47636445E-09
  -8.72999954       2.64991584E-09
  -8.72000027       2.83832069E-09
  -8.71000004       3.04139358E-09
  -8.69999981       3.25873395E-09
  -8.68999958       3.48979090E-09
  -8.68000031       3.73396691E-09
  -8.67000008       3.99073086E-09
  -8.65999985       4.25968993E-09
  -8.64999962       4.54060833E-09
  -8.64000034       4.83334883E-09
  -8.63000011       5.13777954E-09
  -8.61999989       5.45368462E-09
  -8.60999966       5.78067949E-09
  -8.60000038       6.11822415E-09
  -8.59000015       6.46566978E-09
  -8.57999992       6.82235513E-09
  -8.56999969       7.18771842E-09
  -8.56000042       7.56135154E-09
  -8.55000019       7.94303290E-09
  -8.53999996       8.33266345E-09
  -8.52999973       8.73019523E-09
  -8.52000046       9.13552078E-09
  -8.51000023       9.54842161E-09
  -8.50000000       9.96854688E-09
  -8.48999977       1.03954658E-08
  -8.47999954       1.08287157E-08
  -8.47000027       1.12678800E-08
  -8.46000004       1.17125980E-08
  -8.44999981       1.21625376E-08
  -8.43999958       1.26173161E-08
  -8.43000031       1.30763897E-08
  -8.42000008       1.35389842E-08
  -8.40999985       1.40040521E-08
  -8.39999962       1.44703405E-08
  -8.39000034       1.49364947E-08
  -8.38000011       1.54011932E-08
  -8.36999989       1.58632947E-08
  -8.35999966       1.63218861E-08
  -8.35000038       1.67762444E-08
  -8.34000015       1.72258208E-08
  -8.32999992       1.76700450E-08
  -8.31999969       1.81082171E-08
  -8.31000042       1.85394686E-08
  -8.30000019       1.89627301E-08
  -8.28999996       1.93768344E-08
  -8.27999973       1.97806518E-08
  -8.27000046       2.01731396E-08
  -8.26000023       2.05535198E-08
  -8.25000000       2.09211795E-08
  -8.23999977       2.12756230E-08
  -8.22999954       2.16163265E-08
  -8.22000027       2.19426148E-08
  -8.21000004       2.22535750E-08
  -8.19999981       2.25480683E-08
  -8.18999958       2.28247412E-08
  -8.18000031       2.30822454E-08
  -8.17000008       2.33192861E-08
  -8.15999985       2.35347883E-08
  -8.14999962       2.37279121E-08
  -8.14000034       2.38980160E-08
  -8.13000011       2.40445814E-08
  -8.11999989       2.41671199E-08
  -8.10999966       2.42650895E-08
  -8.10000038       2.43379290E-08
  -8.09000015       2.43850256E-08
  -8.07999992       2.44059599E-08
  -8.06999969       2.44004994E-08
  -8.06000042       2.43687346E-08
  -8.05000019       2.43111078E-08
  -8.03999996       2.42284148E-08
  -8.02999973       2.41216505E-08
  -8.02000046       2.39918876E-08
  -8.01000023       2.38402613E-08
  -8.00000000       2.36678765E-08
  -7.98999977       2.34757938E-08
  -7.98000002       2.32651107E-08
  -7.96999979       2.30369466E-08
  -7.96000004       2.27925803E-08
  -7.94999981       2.25334134E-08
  -7.94000006       2.22609557E-08
  -7.92999983       2.19767706E-08
  -7.92000008       2.16823821E-08
  -7.90999985       2.13792486E-08
  -7.90000010       2.10686384E-08
  -7.88999987       2.07516688E-08
  -7.88000011       2.04294626E-08
  -7.86999989       2.01030090E-08
  -7.86000013       1.97732852E-08
  -7.84999990       1.94413641E-08
  -7.84000015       1.91083025E-08
  -7.82999992       1.87751983E-08
  -7.82000017       1.84431581E-08
  -7.80999994       1.81132442E-08
  -7.80000019       1.77864958E-08
  -7.78999996       1.74639716E-08
  -7.78000021       1.71465970E-08
  -7.76999998       1.68353811E-08
  -7.76000023       1.65312617E-08
  -7.75000000       1.62351910E-08
  -7.73999977       1.59480606E-08
  -7.73000002       1.56707998E-08
  -7.71999979       1.54042876E-08
  -7.71000004       1.51493946E-08
  -7.69999981       1.49070107E-08
  -7.69000006       1.46780961E-08
  -7.67999983       1.44637111E-08
  -7.67000008       1.42649084E-08
  -7.65999985       1.40828256E-08
  -7.65000010       1.39185206E-08
  -7.63999987       1.37729987E-08
  -7.63000011       1.36471963E-08
  -7.61999989       1.35418272E-08
  -7.61000013       1.34575915E-08
  -7.59999990       1.33949181E-08
  -7.59000015       1.33542377E-08
  -7.57999992       1.33358622E-08
  -7.57000017       1.33399256E-08
  -7.55999994       1.33664306E-08
  -7.55000019       1.34151943E-08
  -7.53999996       1.34858666E-08
  -7.53000021       1.35778500E-08
  -7.51999998       1.36904088E-08
  -7.51000023       1.38227119E-08
  -7.50000000       1.39738878E-08
  -7.48999977       1.41432084E-08
  -7.48000002       1.43300305E-08
  -7.46999979       1.45338452E-08
  -7.46000004       1.47542751E-08
  -7.44999981       1.49908690E-08
  -7.44000006       1.52432325E-08