  -16.0000000       0.00000000    
  -15.9899998       0.00000000    
  -15.9799995       0.00000000    
  -15.9700003       0.00000000    
  -15.9600000       0.00000000    
  -15.9499998       0.00000000    
  -15.9399996       0.00000000    
  -15.9300003       0.00000000    
  -15.9200001       0.00000000    
  -15.9099998       0.00000000    
  -15.8999996       0.00000000    
  -15.8900003      -0.00000000    
  -15.8800001       0.00000000    
  -15.8699999       4.20389539E-45
  -15.8599997       2.94272678E-44
  -15.8500004       1.06498683E-43
  -15.8400002       1.72359711E-43
  -15.8299999      -1.96181785E-43
  -15.8199997      -1.13925565E-42
  -15.8100004       3.12209298E-42
  -15.8000002       3.62249666E-41
  -15.7900000       1.12134706E-40
  -15.7799997      -6.48184618E-41
  -15.7700005      -2.35257974E-39
  -15.7600002      -1.36921041E-38
  -15.7500000      -5.32890881E-38
  -15.7399998      -1.62441735E-37
  -15.7299995      -4.08279989E-37
  -15.7200003      -8.58231141E-37
  -15.7100000      -1.48555143E-36
  -15.6999998      -1.96341206E-36
  -15.6899996      -1.34146477E-36
  -15.6800003       2.30249741E-36
  -15.6700001       1.19843758E-35
  -15.6599998       3.12822264E-35
  -15.6499996       6.26041716E-35
  -15.6400003       1.03705406E-34
  -15.6300001       1.42074173E-34
  -15.6199999       1.47367192E-34
  -15.6099997       6.37477072E-35
  -15.6000004      -1.91818236E-34
  -15.5900002      -7.11277489E-34
  -15.5799999      -1.53329729E-33
  -15.5699997      -2.51130593E-33
  -15.5600004      -3.11316859E-33
  -15.5500002      -2.23702563E-33
  -15.5400000       1.72594787E-33
  -15.5299997       1.01993619E-32
  -15.5200005       2.27277013E-32
  -15.5100002       3.43481183E-32
  -15.5000000       3.31945822E-32
  -15.4899998       1.13782848E-33
  -15.4799995      -7.84328857E-32
  -15.4700003      -2.02449232E-31
  -15.4600000      -3.21740186E-31
  -15.4499998      -3.19488221E-31
  -15.4399996      -2.17742490E-32
  -15.4300003       7.24502872E-31
  -15.4200001       1.88438064E-30
  -15.4099998       3.00697887E-30
  -15.3999996       3.05670304E-30
  -15.3900003       5.25854483E-31
  -15.3800001      -5.90763437E-30
  -15.3699999      -1.60422125E-29
  -15.3599997      -2.63932479E-29
  -15.3500004      -2.89189696E-29
  -15.3400002      -1.18161520E-29
  -15.3299999       3.58223210E-29
  -15.3199997       1.14632349E-28
  -15.3100004       2.02642545E-28
  -15.3000002       2.45852035E-28
  -15.2900000       1.61769340E-28
  -15.2799997      -1.32781158E-28
  -15.2700005      -6.63779892E-28
  -15.2600002      -1.32139594E-27
  -15.2500000      -1.79367229E-27
  -15.2399998      -1.56988376E-27
  -15.2299995      -8.00338184E-29
  -15.2200003       2.98956982E-27
  -15.2100000       7.24226927E-27
  -15.1999998       1.11408083E-26
  -15.1899996       1.18970239E-26
  -15.1800003       6.04388325E-27
  -15.1700001      -9.04977687E-27
  -15.1599998      -3.28136092E-26
  -15.1499996      -5.89497882E-26
  -15.1400003      -7.41262209E-26
  -15.1300001      -5.97087155E-26
  -15.1199999       1.92202917E-27
  -15.1099997       1.16325355E-25
  -15.1000004       2.63701311E-25
  -15.0900002       3.89089519E-25
  -15.0799999       4.04407103E-25
  -15.0699997       2.10567683E-25
  -15.0600004      -2.56840735E-25
  -15.0500002      -9.65141538E-25
  -15.0400000      -1.72651952E-24
  -15.0299997      -2.17887090E-24
  -15.0200005      -1.84479106E-24
  -15.0100002      -2.95199886E-25
  -15.0000000       2.59171573E-24
  -14.9899998       6.34187961E-24
  -14.9799995       9.69424698E-24
  -14.9700003       1.06734198E-23
  -14.9600000       7.07302075E-24
  -14.9499998      -2.60933533E-24
  -14.9399996      -1.79422232E-23
  -14.9300003      -3.54428326E-23
  -14.9200001      -4.81924593E-23
  -14.9099998      -4.68542641E-23
  -14.8999996      -2.25183611E-23
  -14.8900003       2.88043156E-23
  -14.8800001       1.01113029E-22
  -14.8699999       1.74787671E-22
  -14.8599997       2.16985974E-22
  -14.8500004       1.88367375E-22
  -14.8400002       5.69226000E-23
  -14.8299999      -1.83089466E-22
  -14.8199997      -4.92594032E-22
  -14.8100004      -7.78073579E-22
  -14.8000002      -9.00350453E-22
  -14.7900000      -7.08533913E-22
  -14.7799997      -9.86414143E-23
  -14.7700005       9.14631940E-22
  -14.7600002       2.13661641E-21
  -14.7500000       3.17387363E-21
  -14.7399998       3.48911891E-21
  -14.7299995       2.54650985E-21
  -14.7200003       3.47081917E-23
  -14.7100000      -3.88398981E-21
  -14.6999998      -8.38778589E-21
  -14.6899996      -1.19816845E-20
  -14.6800003      -1.27495287E-20
  -14.6700001      -8.90400153E-21
  -14.6599998       4.37593943E-22
  -14.6499996       1.44499131E-20
  -14.6400003       3.00733629E-20
  -14.6300001       4.21060167E-20
  -14.6199999       4.41725465E-20
  -14.6099997       3.06069557E-20
  -14.6000004      -1.05118964E-21
  -14.5900002      -4.76215989E-20
  -14.5799999      -9.88633925E-20
  -14.5699997      -1.38064315E-19
  -14.5600004      -1.45309771E-19
  -14.5500002      -1.03386332E-19
  -14.5400000      -5.27415973E-21
  -14.5299997       1.38853420E-19
  -14.5200005       2.97892528E-19
  -14.5100002       4.22054354E-19
  -14.5000000       4.52750174E-19
  -14.4899998       3.39675256E-19
  -14.4799995       6.18919993E-20
  -14.4700003      -3.52976734E-19
  -14.4600000      -8.18941532E-19
  -14.4499998      -1.19829199E-18
  -14.4399996      -1.32865193E-18
  -14.4300003      -1.06877350E-18
  -14.4200001      -3.54294924E-19
  -14.4099998       7.51928373E-19
  -14.3999996       2.03394221E-18
  -14.3900003       3.13870333E-18
  -14.3800001       3.64331701E-18
  -14.3699999       3.16883876E-18
  -14.3599997       1.51884691E-18
  -14.3500004      -1.19445945E-18
  -14.3400002      -4.48201404E-18
  -14.3299999      -7.50853514E-18
  -14.3199997      -9.24391788E-18
  -14.3100004      -8.72500680E-18
  -14.3000002      -5.37853059E-18
  -14.2900000       6.78468634E-19
  -14.2799997       8.46225619E-18
  -14.2700005       1.61621745E-17
  -14.2600002       2.14472514E-17
  -14.2500000       2.20213032E-17
  -14.2399998       1.63256998E-17
  -14.2299995       4.21558992E-18
  -14.2200003      -1.26033994E-17
  -14.2100000      -3.05744185E-17
  -14.1999998      -4.48392607E-17
  -14.1899996      -5.03167713E-17
  -14.1800003      -4.31228609E-17
  -14.1700001      -2.19971627E-17
  -14.1599998       1.06814709E-17
  -14.1499996       4.86859814E-17
  -14.1400003       8.27885106E-17
  -14.1300001       1.02661849E-16
  -14.1199999       9.95252530E-17
  -14.1099997       6.89423608E-17
  -14.1000004       1.30075533E-17
  -14.0900002      -5.88266963E-17
  -14.0799999      -1.30795109E-16
  -14.0699997      -1.83822667E-16
  -14.0600004      -2.00036029E-16
  -14.0500002      -1.67822823E-16
  -14.0400000      -8.61470094E-17
  -14.0299997       3.32002372E-17
  -14.0200005       1.66400787E-16
  -14.0100002       2.81775780E-16
  -14.0000000       3.46766236E-16
  -13.9899998       3.36313955E-16
  -13.9799995       2.40622102E-16
  -13.9700003       7.01241107E-17
  -13.9600000      -1.44091104E-16
  -13.9499998      -3.55191434E-16
  -13.9399996      -5.10329833E-16
  -13.9300003      -5.63312221E-16
  -13.9200001      -4.87287943E-16
  -13.9099998      -2.84144111E-16
  -13.8999996       1.22756308E-17
  -13.8900003       3.40750264E-16
  -13.8800001       6.24836776E-16
  -13.8699999       7.90366814E-16
  -13.8599997       7.84388085E-16
  -13.8500004       5.90828880E-16
  -13.8400002       2.38479188E-16
  -13.8299999      -2.01603079E-16
  -13.8199997      -6.29723839E-16
  -13.8100004      -9.39868182E-16
  -13.8000002      -1.04585805E-15
  -13.7900000      -9.05011929E-16
  -13.7799997      -5.32976847E-16
  -13.7700005      -5.06054044E-18
  -13.7600002       5.57587337E-16
  -13.7500000       1.01483430E-15
  -13.7399998       1.24178609E-15
  -13.7299995       1.16224916E-15
  -13.7200003       7.72732329E-16
  -13.7100000       1.49926102E-16
  -13.6999998      -5.61831819E-16
  -13.6899996      -1.18172933E-15
  -13.6800003      -1.53599525E-15
  -13.6700001      -1.50370022E-15
  -13.6599998      -1.05325148E-15
  -13.6499996      -2.59338407E-16
  -13.6400003       7.05864901E-16
  -13.6300001       1.60734931E-15
  -13.6199999       2.20130205E-15
  -13.6099997       2.29649754E-15
  -13.6000004       1.80807886E-15
  -13.5900002       7.89392673E-16
  -13.5799999      -5.68095680E-16
  -13.5699997      -1.96951296E-15
  -13.5600004      -3.08007925E-15
  -13.5500002      -3.60377494E-15
  -13.5400000      -3.35869972E-15
  -13.5299997      -2.33003581E-15
  -13.5200005      -6.85840248E-16
  -13.5100002       1.25081885E-15
  -13.5000000       3.06929165E-15
  -13.4899998       4.36394763E-15
  -13.4799995       4.83046542E-15
  -13.4700003       4.34190656E-15
  -13.4600000       2.98465103E-15
  -13.4499998       1.04327672E-15
  -13.4399996      -1.06402701E-15
  -13.4300003      -2.88517485E-15
  -13.4200001      -4.04488810E-15
  -13.4099998      -4.33827067E-15
  -13.3999996      -3.78217660E-15
  -13.3900003      -2.60918801E-15
  -13.3800001      -1.20340374E-15
  -13.3699999       7.35517586E-18
  -13.3599997       6.75768020E-16
  -13.3500004       6.42408792E-16
  -13.3400002      -4.55329096E-18
  -13.3299999      -9.37517348E-16
  -13.3199997      -1.66885756E-15
  -13.3100004      -1.68600161E-15
  -13.3000002      -6.10381577E-16
  -13.2900000       1.66079444E-15
  -13.2799997       4.87021032E-15
  -13.2700005       8.40270321E-15
  -13.2600002       1.13837560E-14
  -13.2500000       1.28601980E-14
  -13.2399998       1.20273562E-14
  -13.2299995       8.45197766E-15
  -13.2200003       2.23665127E-15
  -13.2100000      -5.91917974E-15
  -13.1999998      -1.47861002E-14
  -13.1899996      -2.27959978E-14
  -13.1800003      -2.83256339E-14
  -13.1700001      -3.00177804E-14
  -13.1599998      -2.70731703E-14
  -13.1499996      -1.94499788E-14
  -13.1400003      -7.92468440E-15
  -13.1300001       6.00368694E-15
  -13.1199999       2.03506645E-14
  -13.1099997       3.29800511E-14
  -13.1000004       4.19682125E-14
  -13.0900002       4.59267871E-14
  -13.0799999       4.42219503E-14
  -13.0699997       3.70502985E-14
  -13.0600004       2.53634648E-14
  -13.0500002       1.06656889E-14
  -13.0400000      -5.26654085E-15
  -13.0299997      -2.06797165E-14
  -13.0200005      -3.40920089E-14
  -13.0100002      -4.44503680E-14
  -13.0000000      -5.11751760E-14
  -12.9899998      -5.41006144E-14
  -12.9799995      -5.33432348E-14
  -12.9700003      -4.91457630E-14
  -12.9600000      -4.17455275E-14
  -12.9499998      -3.13061311E-14
  -12.9399996      -1.79312182E-14
  -12.9300003      -1.75598739E-15
  -12.9200001       1.69096558E-14
  -12.9099998       3.74267640E-14
  -12.8999996       5.87062205E-14
  -12.8900003       7.91601078E-14
  -12.8800001       9.67504749E-14
  -12.8699999       1.09143312E-13
  -12.8599997       1.13956411E-13
  -12.8500004       1.09074865E-13
  -12.8400002       9.29969263E-14
  -12.8299999       6.51667034E-14
  -12.8199997       2.62478129E-14
  -12.8100004      -2.17067998E-14
  -12.8000002      -7.52297598E-14
  -12.7900000      -1.29590999E-13
  -12.7799997      -1.79145110E-13
  -12.7700005      -2.17871104E-13
  -12.7600002      -2.40072285E-13
  -12.7500000      -2.41169335E-13
  -12.7399998      -2.18486470E-13
  -12.7299995      -1.71903534E-13
  -12.7200003      -1.04238260E-13
  -12.7100000      -2.12401423E-14
  -12.6999998       6.88774938E-14
  -12.6899996       1.56369560E-13
  -12.6800003       2.31267994E-13
  -12.6700001       2.84891387E-13
  -12.6599998       3.11309572E-13
  -12.6499996       3.08483490E-13
  -12.6400003       2.78825248E-13
  -12.6300001       2.28999328E-13
  -12.6199999       1.68912952E-13
  -12.6099997       1.09998355E-13
  -12.6000004       6.30478336E-14
  -12.5900002       3.59736892E-14
  -12.5799999       3.19259457E-14
  -12.5699997       4.81634081E-14
  -12.5600004       7.59587773E-14
  -12.5500002       1.01633423E-13
  -12.5400000       1.08598670E-13
  -12.5299997       8.00769837E-14
  -12.5200005       2.03043644E-15
  -12.5100002      -1.34222792E-13
  -12.5000000      -3.30155879E-13
  -12.4899998      -5.79232842E-13
  -12.4799995      -8.67205504E-13
  -12.4700003      -1.17331004E-12
  -12.4600000      -1.47196350E-12
  -12.4499998      -1.73446457E-12
  -12.4399996      -1.93024850E-12
  -12.4300003      -2.02740667E-12
  -12.4200001      -1.99246739E-12
  -12.4099998      -1.78972137E-12
  -12.3999996      -1.38063703E-12
  -12.3900003      -7.24017200E-13
  -12.3800001       2.22479004E-13
  -12.3699999       1.49908417E-12
  -12.3599997       3.13894787E-12
  -12.3500004       5.16193078E-12
  -12.3400002       7.56803821E-12
  -12.3299999       1.03316721E-11
  -12.3199997       1.33979121E-11
  -12.3100004       1.66817619E-11
  -12.3000002       2.00709449E-11
  -12.2900000       2.34320861E-11
  -12.2799997       2.66195122E-11
  -12.2700005       2.94854176E-11
  -12.2600002       3.18897547E-11
  -12.2500000       3.37083521E-11
  -12.2399998       3.48380318E-11
  -12.2299995       3.51982540E-11
  -12.2200003       3.47294415E-11
  -12.2100000       3.33890242E-11
  -12.1999998       3.11465992E-11
  -12.1899996       2.79798944E-11
  -12.1800003       2.38728690E-11
  -12.1700001       1.88168422E-11
  -12.1599998       1.28147163E-11
  -12.1499996       5.88733055E-12
  -12.1400003      -1.91942946E-12
  -12.1300001      -1.05287098E-11
  -12.1199999      -1.98297039E-11
  -12.1099997      -2.96787872E-11
  -12.1000004      -3.99052388E-11
  -12.0900002      -5.03208551E-11
  -12.0799999      -6.07319195E-11
  -12.0699997      -7.09513767E-11
  -12.0600004      -8.08090470E-11
  -12.0500002      -9.01577354E-11
  -12.0400000      -9.88744850E-11
  -12.0299997      -1.06856843E-10
  -12.0200005      -1.14015408E-10
  -12.0100002      -1.20264701E-10
  -12.0000000      -1.25514724E-10
  -11.9899998      -1.29665625E-10
  -11.9799995      -1.32606967E-10
  -11.9700003      -1.34222466E-10
  -11.9600000      -1.34398492E-10
  -11.9499998      -1.33035999E-10
  -11.9399996      -1.30061559E-10
  -11.9300003      -1.25436550E-10
  -11.9200001      -1.19161167E-10
  -11.9099998      -1.11272484E-10
  -11.8999996      -1.01837157E-10
  -11.8900003      -9.09398806E-11
  -11.8800001      -7.86701745E-11
  -11.8699999      -6.51105836E-11
  -11.8599997      -5.03292095E-11
  -11.8500004      -3.43780178E-11
  -11.8400002      -1.72980172E-11
  -11.8299999       8.69854427E-13
  -11.8199997       2.00702250E-11
  -11.8100004       4.02183217E-11
  -11.8000002       6.11876730E-11
  -11.7900000       8.28036806E-11
  -11.7799997       1.04844210E-10
  -11.7700005       1.27048039E-10
  -11.7600002       1.49129598E-10
  -11.7500000       1.70797473E-10
  -11.7399998       1.91773541E-10
  -11.7299995       2.11809278E-10
  -11.7200003       2.30696490E-10
  -11.7100000       2.48271459E-10
  -11.6999998       2.64411631E-10
  -11.6899996       2.79026885E-10
  -11.6800003       2.92047858E-10
  -11.6700001       3.03413378E-10
  -11.6599998       3.13060744E-10
  -11.6499996       3.20920512E-10
  -11.6400003       3.26916161E-10
  -11.6300001       3.30968558E-10
  -11.6199999       3.33004069E-10
  -11.6099997       3.32962435E-10
  -11.6000004       3.30804301E-10
  -11.5900002       3.26514316E-10
  -11.5799999       3.20100113E-10
  -11.5699997       3.11586257E-10
  -11.5600004       3.01005998E-10
  -11.5500002       2.88390645E-10
  -11.5400000       2.73761291E-10
  -11.5299997       2.57122351E-10
  -11.5200005       2.38460807E-10
  -11.5100002       2.17749360E-10
  -11.5000000       1.94954566E-10
  -11.4899998       1.70046435E-10
  -11.4799995       1.43008855E-10
  -11.4700003       1.13847223E-10
  -11.4600000       8.25936958E-11
  -11.4499998       4.93061252E-11
  -11.4399996       1.40640026E-11
  -11.4300003      -2.30396778E-11
  -11.4200001      -6.19069171E-11
  -11.4099998      -1.02443713E-10
  -11.3999996      -1.44565568E-10
  -11.3900003      -1.88199720E-10
  -11.3800001      -2.33283587E-10
  -11.3699999      -2.79760493E-10
  -11.3599997      -3.27573385E-10
  -11.3500004      -3.76660175E-10
  -11.3400002      -4.26949892E-10
  -11.3299999      -4.78364237E-10
  -11.3199997      -5.30822664E-10
  -11.3100004      -5.84251092E-10
  -11.3000002      -6.38593012E-10
  -11.2900000      -6.93820501E-10
  -11.2799997      -7.49944384E-10
  -11.2700005      -8.07018674E-10
  -11.2600002      -8.65142125E-10
  -11.2500000      -9.24452459E-10
  -11.2399998      -9.85116655E-10
  -11.2299995      -1.04731634E-09
  -11.2200003      -1.11123277E-09
  -11.2100000      -1.17703081E-09
  -11.1999998      -1.24484556E-09
  -11.1899996      -1.31477029E-09
  -11.1800003      -1.38685152E-09
  -11.1700001      -1.46108647E-09
  -11.1599998      -1.53742563E-09
  -11.1499996      -1.61577784E-09
  -11.1400003      -1.69601899E-09
  -11.1300001      -1.77800075E-09
  -11.1199999      -1.86155868E-09
  -11.1099997      -1.94651850E-09
  -11.1000004      -2.03270112E-09
  -11.0900002      -2.11992535E-09
  -11.0799999      -2.20800689E-09
  -11.0699997      -2.29675678E-09
  -11.0600004      -2.38598030E-09
  -11.0500002      -2.47547760E-09
  -11.0400000      -2.56504817E-09
  -11.0299997      -2.65449285E-09
  -11.0200005      -2.74362644E-09
  -11.0100002      -2.83228885E-09
  -11.0000000      -2.92035240E-09
  -10.9899998      -3.00773606E-09
  -10.9799995      -3.09440651E-09
  -10.9700003      -3.18037707E-09
  -10.9600000      -3.26569993E-09
  -10.9499998      -3.35045325E-09
  -10.9399996      -3.43471651E-09
  -10.9300003      -3.51855234E-09
  -10.9200001      -3.60198560E-09
  -10.9099998      -3.68497699E-09
  -10.8999996      -3.76742104E-09
  -10.8900003      -3.84913434E-09
  -10.8800001      -3.92986310E-09
  -10.8699999      -4.00929512E-09
  -10.8599997      -4.08707024E-09
  -10.8500004      -4.16281187E-09
  -10.8400002      -4.23613900E-09
  -10.8299999      -4.30669278E-09
  -10.8199997      -4.37413394E-09
  -10.8100004      -4.43816450E-09
  -10.8000002      -4.49851756E-09
  -10.7900000      -4.55495108E-09
  -10.7799997      -4.60723770E-09
  -10.7700005      -4.65515537E-09
  -10.7600002      -4.69847494E-09
  -10.7500000      -4.73696327E-09
  -10.7399998      -4.77038187E-09
  -10.7299995      -4.79850160E-09
  -10.7200003      -4.82111329E-09
  -10.7100000      -4.83804685E-09
  -10.6999998      -4.84919127E-09
  -10.6899996      -4.85449547E-09
  -10.6800003      -4.85398921E-09
  -10.6700001      -4.84777107E-09
  -10.6599998      -4.83601470E-09
  -10.6499996      -4.81895190E-09
  -10.6400003      -4.79686335E-09
  -10.6300001      -4.77006878E-09
  -10.6199999      -4.73890838E-09
  -10.6099997      -4.70374628E-09
  -10.6000004      -4.66495376E-09
  -10.5900002      -4.62290206E-09
  -10.5799999      -4.57796023E-09
  -10.5699997      -4.53048044E-09
  -10.5600004      -4.48080240E-09
  -10.5500002      -4.42923609E-09
  -10.5400000      -4.37606396E-09
  -10.5299997      -4.32153691E-09
  -10.5200005      -4.26587432E-09
  -10.5100002      -4.20926094E-09
  -10.5000000      -4.15185175E-09
  -10.4899998      -4.09377421E-09
  -10.4799995      -4.03512557E-09
  -10.4700003      -3.97597688E-09
  -10.4600000      -3.91636323E-09
  -10.4499998      -3.85629306E-09
  -10.4399996      -3.79574416E-09
  -10.4300003      -3.73466991E-09
  -10.4200001      -3.67299191E-09
  -10.4099998      -3.61062469E-09
  -10.3999996      -3.54746299E-09
  -10.3900003      -3.48339402E-09
  -10.3800001      -3.41829520E-09
  -10.3699999      -3.35204575E-09
  -10.3599997      -3.28451999E-09
  -10.3500004      -3.21559357E-09
  -10.3400002      -3.14515591E-09
  -10.3299999      -3.07310843E-09
  -10.3199997      -2.99938807E-09
  -10.3100004      -2.92397195E-09
  -10.3000002      -2.84690072E-09
  -10.2900000      -2.76827872E-09
  -10.2799997      -2.68828382E-09
  -10.2700005      -2.60716204E-09
  -10.2600002      -2.52521692E-09
  -10.2500000      -2.44278886E-09
  -10.2399998      -2.36023689E-09
  -10.2299995      -2.27790609E-09
  -10.2200003      -2.19611485E-09
  -10.2100000      -2.11512208E-09
  -10.1999998      -2.03511563E-09
  -10.1899996      -1.95622407E-09
  -10.1800003      -1.87850846E-09
  -10.1700001      -1.80198600E-09
  -10.1599998      -1.72666570E-09
  -10.1499996      -1.65256353E-09
  -10.1400003      -1.57975688E-09
  -10.1300001      -1.50838486E-09
  -10.1199999      -1.43868395E-09
  -10.1099997      -1.37098721E-09
  -10.1000004      -1.30570521E-09
  -10.0900002      -1.24330368E-09
  -10.0799999      -1.18426946E-09
  -10.0699997      -1.12906140E-09
  -10.0600004      -1.07807852E-09
  -10.0500002      -1.03162701E-09
  -10.0400000      -9.89905824E-10
  -10.0299997      -9.53002788E-10
  -10.0200005      -9.20913290E-10
  -10.0100002      -8.93558949E-10
  -10.0000000      -8.70819195E-10
  -9.98999977      -8.52555304E-10
  -9.97999954      -8.38637604E-10
  -9.97000027      -8.28954572E-10
  -9.96000004      -8.23429325E-10
  -9.94999981      -8.22003632E-10
  -9.93999958      -8.24644686E-10
  -9.93000031      -8.31333780E-10
  -9.92000008      -8.42052483E-10
  -9.90999985      -8.56778259E-10
  -9.89999962      -8.75475303E-10
  -9.89000034      -8.98087438E-10
  -9.88000011      -9.24534282E-10
  -9.86999989      -9.54709090E-10
  -9.85999966      -9.88484072E-10
  -9.85000038      -1.02570763E-09
  -9.84000015      -1.06621822E-09
  -9.82999992      -1.10985876E-09
  -9.81999969      -1.15648879E-09
  -9.81000042      -1.20599586E-09
  -9.80000019      -1.25831334E-09
  -9.78999996      -1.31342337E-09
  -9.77999973      -1.37136169E-09
  -9.77000046      -1.43221246E-09
  -9.76000023      -1.49609469E-09
  -9.75000000      -1.56315272E-09
  -9.73999977      -1.63352498E-09
  -9.72999954      -1.70733228E-09
  -9.72000027      -1.78465176E-09
  -9.71000004      -1.86549931E-09
  -9.69999981      -1.94982230E-09
  -9.68999958      -2.03748285E-09
  -9.68000031      -2.12826778E-09
  -9.67000008      -2.22190111E-09
  -9.65999985      -2.31804864E-09
  -9.64999962      -2.41636533E-09
  -9.64000034      -2.51649590E-09
  -9.63000011      -2.61812572E-09
  -9.61999989      -2.72098477E-09
  -9.60999966      -2.82487567E-09
  -9.60000038      -2.92966718E-09
  -9.59000015      -3.03530223E-09
  -9.57999992      -3.14178217E-09
  -9.56999969      -3.24915628E-09
  -9.56000042      -3.35751738E-09
  -9.55000019      -3.46698847E-09
  -9.53999996      -3.57771834E-09
  -9.52999973      -3.68988173E-09
  -9.52000046      -3.80367826E-09
  -9.51000023      -3.91932620E-09
  -9.50000000      -4.03705869E-09
  -9.48999977      -4.15711066E-09
  -9.47999954      -4.27970193E-09
  -9.47000027      -4.40503012E-09
  -9.46000004      -4.53324889E-09
  -9.44999981      -4.66448125E-09
  -9.43999958      -4.79880446E-09
  -9.43000031      -4.93626873E-09
  -9.42000008      -5.07689535E-09
  -9.40999985      -5.22069055E-09
  -9.39999962      -5.36764233E-09
  -9.39000034      -5.51772095E-09
  -9.38000011      -5.67084957E-09
  -9.36999989      -5.82690296E-09
  -9.35999966      -5.98568350E-09
  -9.35000038      -6.14691142E-09
  -9.34000015      -6.31021813E-09
  -9.32999992      -6.47514753E-09
  -9.31999969      -6.64116140E-09
  -9.31000042      -6.80765844E-09
  -9.30000019      -6.97398983E-09
  -9.28999996      -7.13944370E-09
  -9.27999973      -7.30328553E-09
  -9.27000046      -7.46472573E-09
  -9.26000023      -7.62295738E-09
  -9.25000000      -7.77712117E-09
  -9.23999977      -7.92635024E-09
  -9.22999954      -8.06977152E-09
  -9.22000027      -8.20653323E-09
  -9.21000004      -8.33581559E-09
  -9.19999981      -8.45687786E-09
  -9.18999958      -8.56905746E-09
  -9.18000031      -8.67178418E-09
  -9.17000008      -8.76459261E-09
  -9.15999985      -8.84710261E-09
  -9.14999962      -8.91902019E-09
  -9.14000034      -8.98012598E-09
  -9.13000011      -9.03027342E-09
  -9.11999989      -9.06938080E-09
  -9.10999966      -9.09744635E-09
  -9.10000038      -9.11455000E-09
  -9.09000015      -9.12087739E-09
  -9.07999992      -9.11672160E-09
  -9.06999969      -9.10251163E-09
  -9.06000042      -9.07881414E-09
  -9.05000019      -9.04633257E-09
  -9.03999996      -9.00593822E-09
  -9.02999973      -8.95861962E-09
  -9.02000046      -8.90550567E-09
  -9.01000023      -8.84783891E-09
  -9.00000000      -8.78693740E-09
  -8.98999977      -8.72418937E-09
  -8.97999954      -8.66099903E-09
  -8.97000027      -8.59876526E-09
  -8.96000004      -8.53886917E-09
  -8.94999981      -8.48265458E-09
  -8.93999958      -8.43140580E-09
  -8.93000031      -8.38635472E-09
  -8.92000008      -8.34867286E-09
  -8.90999985      -8.31946423E-09
  -8.89999962      -8.29977509E-09
  -8.89000034      -8.29057623E-09
  -8.88000011      -8.29276470E-09
  -8.86999989      -8.30716029E-09
  -8.85999966      -8.33449221E-09
  -8.85000038      -8.37542746E-09
  -8.84000015      -8.43053716E-09
  -8.82999992      -8.50033910E-09
  -8.81999969      -8.58526494E-09
  -8.81000042      -8.68570282E-09
  -8.80000019      -8.80195472E-09
  -8.78999996      -8.93426932E-09
  -8.77999973      -9.08281006E-09
  -8.77000046      -9.24766219E-09
  -8.76000023      -9.42883460E-09
  -8.75000000      -9.62627666E-09
  -8.73999977      -9.83988357E-09
  -8.72999954      -1.00695230E-08
  -8.72000027      -1.03150626E-08
  -8.71000004      -1.05763629E-08
  -8.69999981      -1.08533245E-08
  -8.68999958      -1.11458736E-08
  -8.68000031      -1.14539747E-08
  -8.67000008      -1.17776473E-08
  -8.65999985      -1.21169448E-08
  -8.64999962      -1.24719879E-08
  -8.64000034      -1.28429578E-08
  -8.63000011      -1.32300864E-08
  -8.61999989      -1.36336835E-08
  -8.60999966      -1.40540575E-08
  -8.60000038      -1.44915413E-08
  -8.59000015      -1.49464388E-08
  -8.57999992      -1.54189959E-08
  -8.56999969      -1.59093787E-08
  -8.56000042      -1.64176939E-08
  -8.55000019      -1.69439804E-08
  -8.53999996      -1.74882384E-08
  -8.52999973      -1.80504642E-08
  -8.52000046      -1.86306792E-08
  -8.51000023      -1.92288763E-08
  -8.50000000      -1.98450589E-08
  -8.48999977      -2.04791526E-08
  -8.47999954      -2.11309992E-08
  -8.47000027      -2.18003002E-08
  -8.46000004      -2.24865868E-08
  -8.44999981      -2.31892834E-08
  -8.43999958      -2.39076616E-08
  -8.43000031      -2.46409382E-08
  -8.42000008      -2.53883083E-08
  -8.40999985      -2.61489781E-08
  -8.39999962      -2.69221339E-08
  -8.39000034      -2.77069638E-08
  -8.38000011      -2.85025763E-08
  -8.36999989      -2.93080049E-08
  -8.35999966      -3.01221093E-08
  -8.35000038      -3.09436494E-08
  -8.34000015      -3.17711901E-08
  -8.32999992      -3.26032712E-08
  -8.31999969      -3.34383401E-08
  -8.31000042      -3.42748443E-08
  -8.30000019      -3.51112348E-08
  -8.28999996      -3.59459307E-08
  -8.27999973      -3.67773580E-08
  -8.27000046      -3.76038543E-08
  -8.26000023      -3.84236998E-08
  -8.25000000      -3.92350863E-08
  -8.23999977      -4.00361877E-08
  -8.22999954      -4.08251317E-08
  -8.22000027      -4.16001633E-08
  -8.21000004      -4.23596127E-08
  -8.19999981      -4.31019309E-08
  -8.18999958      -4.38257040E-08
  -8.18000031      -4.45295925E-08
  -8.17000008      -4.52122535E-08
  -8.15999985      -4.58723903E-08
  -8.14999962      -4.65086494E-08
  -8.14000034      -4.71196024E-08
  -8.13000011      -4.77038498E-08
  -8.11999989      -4.82599987E-08
  -8.10999966      -4.87867382E-08
  -8.10000038      -4.92828889E-08
  -8.09000015      -4.97473707E-08
  -8.07999992      -5.01792208E-08
  -8.06999969      -5.05776150E-08
  -8.06000042      -5.09417468E-08
  -8.05000019      -5.12709377E-08
  -8.03999996      -5.15646015E-08
  -8.02999973      -5.18222834E-08
  -8.02000046      -5.20437524E-08
  -8.01000023      -5.22290549E-08
  -8.00000000      -5.23784571E-08
  -7.98999977      -5.24925134E-08
  -7.98000002      -5.25720587E-08
  -7.96999979      -5.26180663E-08
  -7.96000004      -5.26316626E-08
  -7.94999981      -5.26140660E-08
  -7.94000006      -5.25665520E-08
  -7.92999983      -5.24904493E-08
  -7.92000008      -5.23871009E-08
  -7.90999985      -5.22580201E-08
  -7.90000010      -5.21047347E-08
  -7.88999987      -5.19289038E-08
  -7.88000011      -5.17322754E-08
  -7.86999989      -5.15167144E-08
  -7.86000013      -5.12840899E-08
  -7.84999990      -5.10363236E-08
  -7.84000015      -5.07753590E-08
  -7.82999992      -5.05031927E-08
  -7.82000017      -5.02217290E-08
  -7.80999994      -4.99329502E-08
  -7.80000019      -4.96387997E-08
  -7.78999996      -4.93411072E-08
  -7.78000021      -4.90416561E-08
  -7.76999998      -4.87421410E-08
  -7.76000023      -4.84442033E-08
  -7.75000000      -4.81492535E-08
  -7.73999977      -4.78587587E-08
  -7.73000002      -4.75740478E-08
  -7.71999979      -4.72964707E-08
  -7.71000004      -4.70272177E-08
  -7.69999981      -4.67674930E-08
  -7.69000006      -4.65183199E-08
  -7.67999983      -4.62806824E-08
  -7.67000008      -4.60553657E-08
  -7.65999985      -4.58430911E-08
  -7.65000010      -4.56444269E-08
  -7.63999987      -4.54599949E-08
  -7.63000011      -4.52903492E-08
  -7.61999989      -4.51360798E-08
  -7.61000013      -4.49978366E-08
  -7.59999990      -4.48761739E-08
  -7.59000015      -4.47716104E-08
  -7.57999992      -4.46846222E-08
  -7.57000017      -4.46154615E-08
  -7.55999994      -4.45643629E-08
  -7.55000019      -4.45314896E-08
  -7.53999996      -4.45170762E-08
  -7.53000021      -4.45214283E-08
  -7.51999998      -4.45450219E-08
  -7.51000023      -4.45884893E-08
  -7.50000000      -4.46526371E-08
  -7.48999977      -4.47381865E-08
  -7.48000002      -4.48459154E-08
  -7.46999979      -4.49764741E-08
  -7.46000004      -4.51303563E-08
  -7.44999981      -4.53079956E-08
  -7.44000006      -4.55096831E-08