  -16.0000000       0.00000000    
  -15.9899998       0.00000000    
  -15.9799995       0.00000000    
  -15.9700003       0.00000000    
  -15.9600000       0.00000000    
  -15.9499998       0.00000000    
  -15.9399996       0.00000000    
  -15.9300003       0.00000000    
  -15.9200001       0.00000000    
  -15.9099998       0.00000000    
  -15.8999996       0.00000000    
  -15.8900003       0.00000000    
  -15.8800001       6.01025319E-40
  -15.8699999       2.75467000E-38
  -15.8599997       5.19172965E-37
  -15.8500004       6.18360395E-36
  -15.8400002       5.42648887E-35
  -15.8299999       3.77664019E-34
  -15.8199997       2.17407019E-33
  -15.8100004       1.06393751E-32
  -15.8000002       4.51340989E-32
  -15.7900000       1.68418624E-31
  -15.7799997       5.59022231E-31
  -15.7700005       1.66451185E-30
  -15.7600002       4.47275149E-30
  -15.7500000       1.08854358E-29
  -15.7399998       2.40122734E-29
  -15.7299995       4.78653987E-29
  -15.7200003       8.54332472E-29
  -15.7100000       1.33666074E-28
  -15.6999998       1.74059434E-28
  -15.6899996       1.59243146E-28
  -15.6800003       3.23898911E-31
  -15.6700001      -4.32897437E-28
  -15.6599998      -1.27814610E-27
  -15.6499996      -2.58870946E-27
  -15.6400003      -4.16985442E-27
  -15.6300001      -5.36926119E-27
  -15.6199999      -4.92018517E-27
  -15.6099997      -1.02783857E-27
  -15.6000004       8.05309888E-27
  -15.5900002       2.27718428E-26
  -15.5799999       4.04883445E-26
  -15.5699997       5.38183528E-26
  -15.5600004       5.04732189E-26
  -15.5500002       1.63041156E-26
  -15.5400000      -5.73441974E-26
  -15.5299997      -1.62955540E-25
  -15.5200005      -2.67273618E-25
  -15.5100002      -3.10634270E-25
  -15.5000000      -2.23500663E-25
  -15.4899998       3.69966458E-26
  -15.4799995       4.40320513E-25
  -15.4700003       8.51326757E-25
  -15.4600000       1.04935914E-24
  -15.4499998       8.20984357E-25
  -15.4399996       1.09334174E-25
  -15.4300003      -8.56986933E-25
  -15.4200001      -1.57686935E-24
  -15.4099998      -1.52833853E-24
  -15.3999996      -6.20467698E-25
  -15.3900003       4.15944810E-25
  -15.3800001       1.46627844E-25
  -15.3699999      -2.55853703E-24
  -15.3599997      -6.75910933E-24
  -15.3500004      -7.97504770E-24
  -15.3400002       1.05093263E-24
  -15.3299999       2.54883136E-23
  -15.3199997       5.95545997E-23
  -15.3100004       7.78628938E-23
  -15.3000002       3.59523105E-23
  -15.2900000      -1.09285218E-22
  -15.2799997      -3.54693976E-22
  -15.2700005      -5.93982525E-22
  -15.2600002      -5.86425969E-22
  -15.2500000      -8.67543470E-24
  -15.2399998       1.35986473E-21
  -15.2299995       3.32413818E-21
  -15.2200003       4.94967228E-21
  -15.2100000       4.47739133E-21
  -15.1999998      -2.00906969E-22
  -15.1899996      -1.02850539E-20
  -15.1800003      -2.41724470E-20
  -15.1700001      -3.56888594E-20
  -15.1599998      -3.38561406E-20
  -15.1499996      -5.86480829E-21
  -15.1400003       5.57591594E-20
  -15.1300001       1.42785151E-19
  -15.1199999       2.21778651E-19
  -15.1099997       2.32613942E-19
  -15.1000004       1.03159025E-19
  -15.0900002      -2.15121424E-19
  -15.0799999      -6.95254404E-19
  -15.0699997      -1.18531652E-18
  -15.0600004      -1.39426648E-18
  -15.0500002      -9.50931485E-19
  -15.0400000       4.40001615E-19
  -15.0299997       2.76038711E-18
  -15.0200005       5.43526567E-18
  -15.0100002       7.22136781E-18
  -15.0000000       6.39295925E-18
  -14.9899998       1.34406985E-18
  -14.9799995      -8.42199648E-18
  -14.9700003      -2.11833957E-17
  -14.9600000      -3.22961950E-17
  -14.9499998      -3.45721427E-17
  -14.9399996      -2.02966382E-17
  -14.9300003       1.50503792E-17
  -14.9200001       6.81729703E-17
  -14.9099998       1.24256491E-16
  -14.8999996       1.56723992E-16
  -14.8900003       1.32872497E-16
  -14.8800001       2.63508889E-17
  -14.8699999      -1.65421816E-16
  -14.8599997      -4.04498599E-16
  -14.8500004      -6.05051940E-16
  -14.8400002      -6.44935704E-16
  -14.8299999      -4.02133153E-16
  -14.8199997       1.86474727E-16
  -14.8100004       1.05884328E-15
  -14.8000002       1.98124585E-15
  -14.7900000       2.55507023E-15
  -14.7799997       2.30473917E-15
  -14.7700005       8.52322880E-16
  -14.7600002      -1.85262178E-15
  -14.7500000      -5.32249458E-15
  -14.7399998      -8.44680059E-15
  -14.7299995      -9.64041570E-15
  -14.7200003      -7.28484757E-15
  -14.7100000      -4.23777095E-16
  -14.6999998       1.04595144E-14
  -14.6899996       2.28798490E-14
  -14.6800003       3.23595893E-14
  -14.6700001       3.32986338E-14
  -14.6599998       2.07698103E-14
  -14.6499996      -7.05895278E-15
  -14.6400003      -4.65864428E-14
  -14.6300001      -8.75429896E-14
  -14.6199999      -1.13910129E-13
  -14.6099997      -1.07647154E-13
  -14.6000004      -5.50348172E-14
  -14.5900002       4.57147849E-14
  -14.5799999       1.78063944E-13
  -14.5699997       3.05096470E-13
  -14.5600004       3.74587704E-13
  -14.5500002       3.32405652E-13
  -14.5400000       1.42684042E-13
  -14.5299997      -1.90106232E-13
  -14.5200005      -6.04894498E-13
  -14.5100002      -9.82297685E-13
  -14.5000000      -1.16429891E-12
  -14.4899998      -9.96850172E-13
  -14.4799995      -3.88927633E-13
  -14.4700003       6.27239038E-13
  -14.4600000       1.85661100E-12
  -14.4499998       2.94531738E-12
  -14.4399996       3.44399704E-12
  -14.4300003       2.93086323E-12
  -14.4200001       1.17325670E-12
  -14.4099998      -1.71529956E-12
  -14.3999996      -5.18014494E-12
  -14.3900003      -8.24947489E-12
  -14.3800001      -9.71293879E-12
  -14.3699999      -8.44929075E-12
  -14.3599997      -3.84382370E-12
  -14.3500004       3.81593628E-12
  -14.3400002       1.31091752E-11
  -14.3299999       2.15511463E-11
  -14.3199997       2.60438199E-11
  -14.3100004       2.36872414E-11
  -14.3000002       1.28030832E-11
  -14.2900000      -6.09683441E-12
  -14.2799997      -2.97335559E-11
  -14.2700005      -5.21918724E-11
  -14.2600002      -6.59449856E-11
  -14.2500000      -6.37266351E-11
  -14.2399998      -4.09178941E-11
  -14.2299995       2.15225971E-12
  -14.2200003       5.87466534E-11
  -14.2100000       1.15816523E-10
  -14.1999998       1.56089058E-10
  -14.1899996       1.62088634E-10
  -14.1800003       1.21413643E-10
  -14.1700001       3.20048293E-11
  -14.1599998      -9.41997244E-11
  -14.1499996      -2.30797575E-10
  -14.1400003      -3.40663220E-10
  -14.1300001      -3.83931692E-10
  -14.1199999      -3.28989225E-10
  -14.1099997      -1.63998828E-10
  -14.1000004       9.42931774E-11
  -14.0900002       3.97783723E-10
  -14.0799999       6.72612743E-10
  -14.0699997       8.33643210E-10
  -14.0600004       8.05833622E-10
  -14.0500002       5.48038281E-10
  -14.0400000       7.30214153E-11
  -14.0299997      -5.42950684E-10
  -14.0200005      -1.16608789E-09
  -14.0100002      -1.62853442E-09
  -14.0000000      -1.76672721E-09
  -13.9899998      -1.46722912E-09
  -13.9799995      -7.08965775E-10
  -13.9700003       4.10630474E-10
  -13.9600000       1.67616909E-09
  -13.9499998       2.78698331E-09
  -13.9399996       3.41961659E-09
  -13.9300003       3.30910321E-09
  -13.9200001       2.33080533E-09
  -13.9099998       5.60843816E-10
  -13.8999996      -1.70513470E-09
  -13.8900003      -3.98756184E-09
  -13.8800001      -5.71338088E-09
  -13.8699999      -6.34704378E-09
  -13.8599997      -5.53461055E-09
  -13.8500004      -3.22530025E-09
  -13.8400002       2.65036632E-10
  -13.8299999       4.27440527E-09
  -13.8199997       7.90707233E-09
  -13.8100004       1.02227276E-08
  -13.8000002       1.04650715E-08
  -13.7900000       8.27679791E-09
  -13.7799997       3.84358101E-09
  -13.7700005      -2.07892614E-09
  -13.7600002      -8.27814617E-09
  -13.7500000      -1.33263534E-08
  -13.7399998      -1.59055702E-08
  -13.7299995      -1.51432520E-08
  -13.7200003      -1.08745377E-08
  -13.7100000      -3.75576592E-09
  -13.6999998       4.81500662E-09
  -13.6899996       1.29715279E-08
  -13.6800003       1.87959497E-08
  -13.6700001       2.07868123E-08
  -13.6599998       1.82627442E-08
  -13.6499996       1.15922250E-08
  -13.6400003       2.17350227E-09
  -13.6300001      -7.85166510E-09
  -13.6199999      -1.60997331E-08
  -13.6099997      -2.05481445E-08
  -13.6000004      -2.00875512E-08
  -13.5900002      -1.48705634E-08
  -13.5799999      -6.34321529E-09
  -13.5699997       3.07863157E-09
  -13.5600004       1.06337756E-08
  -13.5500002       1.39958969E-08
  -13.5400000       1.20066526E-08
  -13.5299997       5.14677589E-09
  -13.5200005      -4.42195613E-09
  -13.5100002      -1.33110198E-08
  -13.5000000      -1.77931287E-08
  -13.4899998      -1.49279291E-08
  -13.4799995      -3.63634478E-09
  -13.4700003       1.45946402E-08
  -13.4600000       3.56402836E-08
  -13.4499998       5.34233884E-08
  -13.4399996       6.12952462E-08
  -13.4300003       5.38421752E-08
  -13.4200001       2.86930391E-08
  -13.4099998      -1.21683827E-08
  -13.3999996      -6.20273042E-08
  -13.3900003      -1.10258313E-07
  -13.3800001      -1.44326322E-07
  -13.3699999      -1.52639174E-07
  -13.3599997      -1.27649045E-07
  -13.3500004      -6.84471715E-08
  -13.3400002       1.78841848E-08
  -13.3299999       1.16682983E-07
  -13.3199997       2.08033242E-07
  -13.3100004       2.70684012E-07
  -13.3000002       2.86816771E-07
  -13.2900000       2.46590446E-07
  -13.2799997       1.51357270E-07
  -13.2700005       1.46058357E-08
  -13.2600002      -1.39813309E-07
  -13.2500000      -2.82039338E-07
  -13.2399998      -3.82319712E-07
  -13.2299995      -4.17598159E-07
  -13.2200003      -3.77044188E-07
  -13.2100000      -2.65137118E-07
  -13.1999998      -1.01410848E-07
  -13.1899996       8.32913116E-08
  -13.1800003       2.53324913E-07
  -13.1700001       3.76102264E-07
  -13.1599998       4.29447283E-07
  -13.1499996       4.06627777E-07
  -13.1400003       3.17739392E-07
  -13.1300001       1.86970709E-07
  -13.1199999       4.63062939E-08
  -13.1099997      -7.28254221E-08
  -13.1000004      -1.47839359E-07
  -13.0900002      -1.71015898E-07
  -13.0799999      -1.51505432E-07
  -13.0699997      -1.12563718E-07
  -13.0600004      -8.44742871E-08
  -13.0500002      -9.48438483E-08
  -13.0400000      -1.58766554E-07
  -13.0299997      -2.71678630E-07
  -13.0200005      -4.07155653E-07
  -13.0100002      -5.20924345E-07
  -13.0000000      -5.60723322E-07
  -12.9899998      -4.80133053E-07
  -12.9799995      -2.53178740E-07
  -12.9700003       1.13976292E-07
  -12.9600000       5.77728656E-07
  -12.9499998       1.06027937E-06
  -12.9399996       1.46181287E-06
  -12.9300003       1.67979363E-06
  -12.9200001       1.63171842E-06
  -12.9099998       1.27640055E-06
  -12.8999996       6.28744942E-07
  -12.8900003      -2.35992246E-07
  -12.8800001      -1.19041420E-06
  -12.8699999      -2.07497237E-06
  -12.8599997      -2.72635293E-06
  -12.8500004      -3.00868669E-06
  -12.8400002      -2.84123826E-06
  -12.8299999      -2.21643813E-06
  -12.8199997      -1.20422760E-06
  -12.8100004       5.85821596E-08
  -12.8000002       1.39188603E-06
  -12.7900000       2.60382558E-06
  -12.7799997       3.52354482E-06
  -12.7700005       4.02825617E-06
  -12.7600002       4.05897435E-06
  -12.7500000       3.62246919E-06
  -12.7399998       2.78011157E-06
  -12.7299995       1.62797483E-06
  -12.7200003       2.74381335E-07
  -12.7100000      -1.17823117E-06
  -12.6999998      -2.64198547E-06
  -12.6899996      -4.04069260E-06
  -12.6800003      -5.29739236E-06
  -12.6700001      -6.31781541E-06
  -12.6599998      -6.97753603E-06
  -12.6499996      -7.12067913E-06
  -12.6400003      -6.57530518E-06
  -12.6300001      -5.18640672E-06
  -12.6199999      -2.86172417E-06
  -12.6099997       3.79324860E-07
  -12.6000004       4.36623850E-06
  -12.5900002       8.76046670E-06
  -12.5799999       1.30701519E-05
  -12.5699997       1.66996688E-05
  -12.5600004       1.90294431E-05
  -12.5500002       1.95137891E-05
  -12.5400000       1.77786860E-05
  -12.5299997       1.37008647E-05
  -12.5200005       7.45095940E-06
  -12.5100002      -5.09164181E-07
  -12.5000000      -9.47575791E-06
  -12.4899998      -1.85905683E-05
  -12.4799995      -2.69494703E-05
  -12.4700003      -3.37115343E-05
  -12.4600000      -3.81879327E-05
  -12.4499998      -3.98958473E-05
  -12.4399996      -3.85698295E-05
  -12.4300003      -3.41344239E-05
  -12.4200001      -2.66492189E-05
  -12.4099998      -1.62444703E-05
  -12.3999996      -3.06615334E-06
  -12.3900003       1.27542125E-05
  -12.3800001       3.10974356E-05
  -12.3699999       5.18218258E-05
  -12.3599997       7.47044396E-05
  -12.3500004       9.93808717E-05
  -12.3400002       1.25291903E-04
  -12.3299999       1.51665110E-04
  -12.3199997       1.77532202E-04
  -12.3100004       2.01790783E-04
  -12.3000002       2.23297582E-04
  -12.2900000       2.40979425E-04
  -12.2799997       2.53938313E-04
  -12.2700005       2.61534733E-04
  -12.2600002       2.63422640E-04
  -12.2500000       2.59536144E-04
  -12.2399998       2.50023877E-04
  -12.2299995       2.35147643E-04
  -12.2200003       2.15157721E-04
  -12.2100000       1.90185630E-04
  -12.1999998       1.60161668E-04
  -12.1899996       1.24792656E-04
  -12.1800003       8.36013496E-05
  -12.1700001       3.60263512E-05
  -12.1599998      -1.84370747E-05
  -12.1499996      -8.00727939E-05
  -12.1400003      -1.48798994E-04
  -12.1300001      -2.24068164E-04
  -12.1199999      -3.04830202E-04
  -12.1099997      -3.89578316E-04
  -12.1000004      -4.76463989E-04
  -12.0900002      -5.63463313E-04
  -12.0799999      -6.48560643E-04
  -12.0699997      -7.29909516E-04
  -12.0600004      -8.05952877E-04
  -12.0500002      -8.75463884E-04
  -12.0400000      -9.37516568E-04
  -12.0299997      -9.91391018E-04
  -12.0200005      -1.03645260E-03
  -12.0100002      -1.07202516E-03
  -12.0000000      -1.09730777E-03
  -11.9899998      -1.11135282E-03
  -11.9799995      -1.11311313E-03
  -11.9700003      -1.10154576E-03
  -11.9600000      -1.07576558E-03
  -11.9499998      -1.03517808E-03
  -11.9399996      -9.79592558E-04
  -11.9300003      -9.09263967E-04
  -11.9200001      -8.24858900E-04
  -11.9099998      -7.27355247E-04
  -11.8999996      -6.17894635E-04
  -11.8900003      -4.97634348E-04
  -11.8800001      -3.67609173E-04
  -11.8699999      -2.28668257E-04
  -11.8599997      -8.14624436E-05
  -11.8500004       7.34882269E-05
  -11.8400002       2.35690415E-04
  -11.8299999       4.04558174E-04
  -11.8199997       5.79319196E-04
  -11.8100004       7.58961949E-04
  -11.8000002       9.42251878E-04
  -11.7900000       1.12779438E-03
  -11.7799997       1.31414330E-03
  -11.7700005       1.49991177E-03
  -11.7600002       1.68385089E-03
  -11.7500000       1.86488102E-03
  -11.7399998       2.04205303E-03
  -11.7299995       2.21445598E-03
  -11.7200003       2.38107564E-03
  -11.7100000       2.54065963E-03
  -11.6999998       2.69160396E-03
  -11.6899996       2.83190119E-03
  -11.6800003       2.95917061E-03
  -11.6700001       3.07075609E-03
  -11.6599998       3.16388276E-03
  -11.6499996       3.23583884E-03
  -11.6400003       3.28414585E-03
  -11.6300001       3.30669270E-03
  -11.6199999       3.30179487E-03
  -11.6099997       3.26819695E-03
  -11.6000004       3.20502138E-03
  -11.5900002       3.11169564E-03
  -11.5799999       2.98787653E-03
  -11.5699997       2.83341715E-03
  -11.5600004       2.64838105E-03
  -11.5500002       2.43309909E-03
  -11.5400000       2.18825834E-03
  -11.5299997       1.91498909E-03
  -11.5200005       1.61488692E-03
  -11.5100002       1.28999434E-03
  -11.5000000       9.42668004E-04
  -11.4899998       5.75378712E-04
  -11.4799995       1.90465944E-04
  -11.4700003      -2.10104219E-04
  -11.4600000      -6.24927226E-04
  -11.4499998      -1.05323526E-03
  -11.4399996      -1.49483827E-03
  -11.4300003      -1.94993569E-03
  -11.4200001      -2.41882401E-03
  -11.4099998      -2.90155178E-03
  -11.3999996      -3.39761283E-03
  -11.3900003      -3.90572171E-03
  -11.3800001      -4.42375010E-03
  -11.3699999      -4.94881673E-03
  -11.3599997      -5.47753135E-03
  -11.3500004      -6.00633770E-03
  -11.3400002      -6.53190166E-03
  -11.3299999      -7.05142412E-03
  -11.3199997      -7.56288087E-03
  -11.3100004      -8.06508306E-03
  -11.3000002      -8.55760183E-03
  -11.2900000      -9.04054102E-03
  -11.2799997      -9.51426942E-03
  -11.2700005      -9.97909997E-03
  -11.2600002      -1.04350708E-02
  -11.2500000      -1.08817788E-02
  -11.2399998      -1.13183698E-02
  -11.2299995      -1.17436182E-02
  -11.2200003      -1.21560786E-02
  -11.2100000      -1.25542972E-02
  -11.1999998      -1.29369469E-02
  -11.1899996      -1.33029595E-02
  -11.1800003      -1.36515545E-02
  -11.1700001      -1.39821609E-02
  -11.1599998      -1.42943496E-02
  -11.1499996      -1.45876817E-02
  -11.1400003      -1.48616154E-02
  -11.1300001      -1.51154539E-02
  -11.1199999      -1.53483385E-02
  -11.1099997      -1.55593455E-02
  -11.1000004      -1.57475937E-02
  -11.0900002      -1.59124173E-02
  -11.0799999      -1.60534792E-02
  -11.0699997      -1.61708910E-02
  -11.0600004      -1.62652358E-02
  -11.0500002      -1.63375400E-02
  -11.0400000      -1.63891781E-02
  -11.0299997      -1.64217036E-02
  -11.0200005      -1.64366681E-02
  -11.0100002      -1.64354295E-02
  -11.0000000      -1.64189804E-02
  -10.9899998      -1.63877830E-02
  -10.9799995      -1.63417403E-02
  -10.9700003      -1.62801202E-02
  -10.9600000      -1.62016805E-02
  -10.9499998      -1.61047354E-02
  -10.9399996      -1.59873739E-02
  -10.9300003      -1.58476345E-02
  -10.9200001      -1.56837087E-02
  -10.9099998      -1.54941110E-02
  -10.8999996      -1.52777703E-02
  -10.8900003      -1.50340730E-02
  -10.8800001      -1.47628160E-02
  -10.8699999      -1.44641064E-02
  -10.8599997      -1.41382506E-02
  -10.8500004      -1.37856379E-02
  -10.8400002      -1.34067005E-02
  -10.8299999      -1.30019262E-02
  -10.8199997      -1.25719141E-02
  -10.8100004      -1.21175097E-02
  -10.8000002      -1.16398744E-02
  -10.7900000      -1.11405440E-02
  -10.7799997      -1.06213745E-02
  -10.7700005      -1.00843823E-02
  -10.7600002      -9.53153800E-03
  -10.7500000      -8.96453857E-03
  -10.7399998      -8.38462077E-03
  -10.7299995      -7.79250264E-03
  -10.7200003      -7.18850829E-03
  -10.7100000      -6.57278439E-03
  -10.6999998      -5.94565086E-03
  -10.6899996      -5.30792354E-03
  -10.6800003      -4.66113957E-03
  -10.6700001      -4.00760630E-03
  -10.6599998      -3.35021969E-03
  -10.6499996      -2.69209594E-03
  -10.6400003      -2.03609024E-03
  -10.6300001      -1.38434418E-03
  -10.6199999      -7.37934199E-04
  -10.6099997      -9.67786618E-05
  -10.6000004       5.40237757E-04
  -10.5900002       1.17490091E-03
  -10.5799999       1.80923427E-03
  -10.5699997       2.44504563E-03
  -10.5600004       3.08364886E-03
  -10.5500002       3.72571568E-03
  -10.5400000       4.37141163E-03
  -10.5299997       5.02057374E-03
  -10.5200005       5.67293167E-03
  -10.5100002       6.32824609E-03
  -10.5000000       6.98623061E-03
  -10.4899998       7.64632830E-03
  -10.4799995       8.30732286E-03
  -10.4700003       8.96694139E-03
  -10.4600000       9.62159410E-03
  -10.4499998       1.02662994E-02
  -10.4399996       1.08948965E-02
  -10.4300003       1.15005160E-02
  -10.4200001       1.20761478E-02
  -10.4099998       1.26153296E-02
  -10.3999996       1.31126512E-02
  -10.3900003       1.35641387E-02
  -10.3800001       1.39674190E-02
  -10.3699999       1.43216848E-02
  -10.3599997       1.46275843E-02
  -10.3500004       1.48870470E-02
  -10.3400002       1.51031278E-02
  -10.3299999       1.52798286E-02
  -10.3199997       1.54219130E-02
  -10.3100004       1.55346189E-02
  -10.3000002       1.56232323E-02
  -10.2900000       1.56925805E-02
  -10.2799997       1.57464705E-02
  -10.2700005       1.57872047E-02
  -10.2600002       1.58153363E-02
  -10.2500000       1.58297494E-02
  -10.2399998       1.58281475E-02
  -10.2299995       1.58078019E-02
  -10.2200003       1.57665405E-02
  -10.2100000       1.57036167E-02
  -10.1999998       1.56203769E-02
  -10.1899996       1.55204507E-02
  -10.1800003       1.54094528E-02
  -10.1700001       1.52942371E-02
  -10.1599998       1.51818804E-02
  -10.1499996       1.50785893E-02
  -10.1400003       1.49887912E-02
  -10.1300001       1.49146356E-02
  -10.1199999       1.48558691E-02
  -10.1099997       1.48102213E-02
  -10.1000004       1.47740515E-02
  -10.0900002       1.47431688E-02
  -10.0799999       1.47135900E-02
  -10.0699997       1.46821346E-02
  -10.0600004       1.46467593E-02
  -10.0500002       1.46065978E-02
  -10.0400000       1.45618441E-02
  -10.0299997       1.45134535E-02
  -10.0200005       1.44628640E-02
  -10.0100002       1.44117344E-02
  -10.0000000       1.43617932E-02
  -9.98999977       1.43147763E-02
  -9.97999954       1.42724337E-02
  -9.97000027       1.42365703E-02
  -9.96000004       1.42090898E-02
  -9.94999981       1.41919879E-02
  -9.93999958       1.41872885E-02
  -9.93000031       1.41969174E-02
  -9.92000008       1.42225474E-02
  -9.90999985       1.42653845E-02
  -9.89999962       1.43260891E-02
  -9.89000034       1.44046908E-02
  -9.88000011       1.45006776E-02
  -9.86999989       1.46132130E-02
  -9.85999966       1.47414710E-02
  -9.85000038       1.48850046E-02
  -9.84000015       1.50441304E-02
  -9.82999992       1.52202016E-02
  -9.81999969       1.54156331E-02
  -9.81000042       1.56337153E-02
  -9.80000019       1.58782471E-02
  -9.78999996       1.61529277E-02
  -9.77999973       1.64607689E-02
  -9.77000046       1.68036073E-02
  -9.76000023       1.71817970E-02
  -9.75000000       1.75942462E-02
  -9.73999977       1.80386957E-02
  -9.72999954       1.85122471E-02
  -9.72000027       1.90119836E-02
  -9.71000004       1.95355099E-02
  -9.69999981       2.00813618E-02
  -9.68999958       2.06490420E-02
  -9.68000031       2.12389026E-02
  -9.67000008       2.18516309E-02
  -9.65999985       2.24876665E-02
  -9.64999962       2.31466070E-02
  -9.64000034       2.38266904E-02
  -9.63000011       2.45244782E-02
  -9.61999989       2.52347775E-02
  -9.60999966       2.59508137E-02
  -9.60000038       2.66646035E-02
  -9.59000015       2.73673721E-02
  -9.57999992       2.80500893E-02
  -9.56999969       2.87038833E-02
  -9.56000042       2.93204021E-02
  -9.55000019       2.98919715E-02
  -9.53999996       3.04117240E-02
  -9.52999973       3.08735352E-02
  -9.52000046       3.12719718E-02
  -9.51000023       3.16021815E-02
  -9.50000000       3.18598934E-02
  -9.48999977       3.20414715E-02
  -9.47999954       3.21440175E-02
  -9.47000027       3.21655348E-02
  -9.46000004       3.21051590E-02
  -9.44999981       3.19632739E-02
  -9.43999958       3.17415148E-02
  -9.43000031       3.14428359E-02
  -9.42000008       3.10713053E-02
  -9.40999985       3.06319278E-02
  -9.39999962       3.01305000E-02
  -9.39000034       2.95734555E-02
  -9.38000011       2.89677083E-02
  -9.36999989       2.83207614E-02
  -9.35999966       2.76406128E-02
  -9.35000038       2.69358847E-02
  -9.34000015       2.62158029E-02
  -9.32999992       2.54902188E-02
  -9.31999969       2.47696210E-02
  -9.31000042       2.40651034E-02
  -9.30000019       2.33883876E-02
  -9.28999996       2.27518752E-02
  -9.27999973       2.21686363E-02
  -9.27000046       2.16523111E-02
  -9.26000023       2.12169942E-02
  -9.25000000       2.08767634E-02
  -9.23999977       2.06451509E-02
  -9.22999954       2.05344949E-02
  -9.22000027       2.05553900E-02
  -9.21000004       2.07161196E-02
  -9.19999981       2.10225992E-02
  -9.18999958       2.14784052E-02
  -9.18000031       2.20852308E-02
  -9.17000008       2.28434391E-02
  -9.15999985       2.37524156E-02
  -9.14999962       2.48110313E-02
  -9.14000034       2.60174051E-02
  -9.13000011       2.73687337E-02
  -9.11999989       2.88607255E-02
  -9.10999966       3.04871537E-02
  -9.10000038       3.22394334E-02
  -9.09000015       3.41068320E-02
  -9.07999992       3.60767320E-02
  -9.06999969       3.81353647E-02
  -9.06000042       4.02684510E-02
  -9.05000019       4.24617566E-02
  -9.03999996       4.47013453E-02
  -9.02999973       4.69733551E-02
  -9.02000046       4.92636263E-02
  -9.01000023       5.15570939E-02
  -9.00000000       5.38374037E-02
  -8.98999977       5.60866930E-02
  -8.97999954       5.82859069E-02
  -8.97000027       6.04154617E-02
  -8.96000004       6.24560155E-02
  -8.94999981       6.43893629E-02
  -8.93999958       6.61990270E-02
  -8.93000031       6.78706914E-02
  -8.92000008       6.93921596E-02
  -8.90999985       7.07531944E-02
  -8.89999962       7.19450861E-02
  -8.89000034       7.29607046E-02
  -8.88000011       7.37939700E-02
  -8.86999989       7.44400620E-02
  -8.85999966       7.48951733E-02
  -8.85000038       7.51565695E-02
  -8.84000015       7.52222389E-02
  -8.82999992       7.50906393E-02
  -8.81999969       7.47603476E-02
  -8.81000042       7.42298290E-02
  -8.80000019       7.34976009E-02
  -8.78999996       7.25625232E-02
  -8.77999973       7.14243278E-02
  -8.77000046       7.00842515E-02
  -8.76000023       6.85454383E-02
  -8.75000000       6.68130443E-02
  -8.73999977       6.48940802E-02
  -8.72999954       6.27967045E-02
  -8.72000027       6.05296418E-02
  -8.71000004       5.81014976E-02
  -8.69999981       5.55206127E-02
  -8.68999958       5.27950376E-02
  -8.68000031       4.99329790E-02
  -8.67000008       4.69431579E-02
  -8.65999985       4.38354127E-02
  -8.64999962       4.06204164E-02
  -8.64000034       3.73095535E-02
  -8.63000011       3.39142084E-02
  -8.61999989       3.04451007E-02
  -8.60999966       2.69120168E-02
  -8.60000038       2.33235825E-02
  -8.59000015       1.96876861E-02
  -8.57999992       1.60124302E-02
  -8.56999969       1.23065952E-02
  -8.56000042       8.58012121E-03
  -8.55000019       4.84413095E-03
  -8.53999996       1.10999250E-03
  -8.52999973      -2.61134026E-03
  -8.52000046      -6.31065294E-03
  -8.51000023      -9.98079684E-03
  -8.50000000      -1.36167901E-02
  -8.48999977      -1.72149073E-02
  -8.47999954      -2.07715966E-02
  -8.47000027      -2.42821500E-02
  -8.46000004      -2.77399626E-02
  -8.44999981      -3.11366729E-02
  -8.43999958      -3.44631486E-02
  -8.43000031      -3.77110578E-02
  -8.42000008      -4.08748649E-02
  -8.40999985      -4.39530425E-02
  -8.39999962      -4.69485447E-02
  -8.39000034      -4.98678796E-02
  -8.38000011      -5.27191460E-02
  -8.36999989      -5.55097423E-02
  -8.35999966      -5.82440756E-02
  -8.35000038      -6.09222203E-02
  -8.34000015      -6.35397136E-02
  -8.32999992      -6.60888404E-02
  -8.31999969      -6.85605183E-02
  -8.31000042      -7.09464327E-02
  -8.30000019      -7.32407272E-02
  -8.28999996      -7.54403174E-02
  -8.27999973      -7.75444135E-02
  -8.27000046      -7.95527026E-02
  -8.26000023      -8.14636648E-02
  -8.25000000      -8.32729042E-02
  -8.23999977      -8.49728808E-02
  -8.22999954      -8.65535513E-02
  -8.22000027      -8.80039409E-02
  -8.21000004      -8.93146396E-02
  -8.19999981      -9.04793441E-02
  -8.18999958      -9.14956480E-02
  -8.18000031      -9.23648849E-02
  -8.17000008      -9.30900797E-02
  -8.15999985      -9.36739445E-02
  -8.14999962      -9.41162780E-02
  -8.14000034      -9.44125727E-02
  -8.13000011      -9.45540145E-02
  -8.11999989      -9.45285037E-02
  -8.10999966      -9.43229720E-02
  -8.10000038      -9.39259306E-02
  -8.09000015      -9.33293402E-02
  -8.07999992      -9.25298110E-02
  -8.06999969      -9.15277451E-02
  -8.06000042      -9.03261751E-02
  -8.05000019      -8.89283642E-02
  -8.03999996      -8.73359740E-02
  -8.02999973      -8.55479836E-02
  -8.02000046      -8.35608393E-02
  -8.01000023      -8.13698694E-02
  -8.00000000      -7.89713487E-02
  -7.98999977      -7.63646960E-02
  -7.98000002      -7.35535845E-02
  -7.96999979      -7.05465153E-02
  -7.96000004      -6.73551783E-02
  -7.94999981      -6.39927611E-02
  -7.94000006      -6.04714751E-02
  -7.92999983      -5.68007343E-02
  -7.92000008      -5.29865772E-02
  -7.90999985      -4.90321293E-02
  -7.90000010      -4.49396819E-02
  -7.88999987      -4.07128967E-02
  -7.88000011      -3.63589153E-02
  -7.86999989      -3.18893120E-02
  -7.86000013      -2.73198243E-02
  -7.84999990      -2.26689130E-02
  -7.84000015      -1.79550461E-02
  -7.82999992      -1.31943766E-02
  -7.82000017      -8.39911215E-03
  -7.80999994      -3.57728847E-03
  -7.80000019       1.26614550E-03
  -7.78999996       6.12700032E-03
  -7.78000021       1.09990481E-02
  -7.76999998       1.58723816E-02
  -7.76000023       2.07325853E-02
  -7.75000000       2.55615860E-02
  -7.73999977       3.03402394E-02
  -7.73000002       3.50511745E-02
  -7.71999979       3.96815166E-02
  -7.71000004       4.42245491E-02
  -7.69999981       4.86796536E-02
  -7.69000006       5.30507416E-02
  -7.67999983       5.73430508E-02
  -7.67000008       6.15606382E-02
  -7.65999985       6.57038465E-02
  -7.65000010       6.97686374E-02
  -7.63999987       7.37475306E-02
  -7.63000011       7.76315704E-02
  -7.61999989       8.14132169E-02
  -7.61000013       8.50886777E-02
  -7.59999990       8.86586383E-02
  -7.59000015       9.21283960E-02
  -7.57999992       9.55055654E-02
  -7.57000017       9.87977833E-02
  -7.55999994      0.102010444    
  -7.55000019      0.105144992    
  -7.53999996      0.108199365    
  -7.53000021      0.111169256    
  -7.51999998      0.114050262    
  -7.51000023      0.116840787    
  -7.50000000      0.119543277    
  -7.48999977      0.122164965    
  -7.48000002      0.124716923    
  -7.46999979      0.127211943    
  -7.46000004      0.129662514    
  -7.44999981      0.132078767    
  -7.44000006      0.134467661    