  -16.0000000       0.00000000    
  -15.9899998       0.00000000    
  -15.9799995       0.00000000    
  -15.9700003       0.00000000    
  -15.9600000       0.00000000    
  -15.9499998       0.00000000    
  -15.9399996       0.00000000    
  -15.9300003       0.00000000    
  -15.9200001       0.00000000    
  -15.9099998       0.00000000    
  -15.8999996       0.00000000    
  -15.8900003       0.00000000    
  -15.8800001      -0.00000000    
  -15.8699999      -0.00000000    
  -15.8599997      -0.00000000    
  -15.8500004       5.60519386E-45
  -15.8400002      -2.57838917E-43
  -15.8299999      -4.74339530E-42
  -15.8199997      -4.48065184E-41
  -15.8100004      -2.99024481E-40
  -15.8000002      -1.57179024E-39
  -15.7900000      -6.87010254E-39
  -15.7799997      -2.57801138E-38
  -15.7700005      -8.47424709E-38
  -15.7600002      -2.47084972E-37
  -15.7500000      -6.43175816E-37
  -15.7399998      -1.49520555E-36
  -15.7299995      -3.07973421E-36
  -15.7200003      -5.49223835E-36
  -15.7100000      -7.97147819E-36
  -15.6999998      -7.48356624E-36
  -15.6899996       3.54348123E-36
  -15.6800003       3.96695737E-35
  -15.6700001       1.22710624E-34
  -15.6599998       2.74955912E-34
  -15.6499996       4.98522241E-34
  -15.6400003       7.36016043E-34
  -15.6300001       8.18592776E-34
  -15.6199999       4.31163246E-34
  -15.6099997      -8.43457880E-34
  -15.6000004      -3.31972498E-33
  -15.5900002      -6.79503326E-33
  -15.5799999      -1.00091360E-32
  -15.5699997      -1.03037010E-32
  -15.5600004      -4.07451578E-33
  -15.5500002       1.13391058E-32
  -15.5400000       3.41940933E-32
  -15.5299997       5.45088309E-32
  -15.5200005       5.29757864E-32
  -15.5100002       7.16652621E-33
  -15.5000000      -9.15526898E-32
  -15.4899998      -2.12806748E-31
  -15.4799995      -2.67022805E-31
  -15.4700003      -1.15609940E-31
  -15.4600000       3.59854650E-31
  -15.4499998       1.11978495E-30
  -15.4399996       1.80109545E-30
  -15.4300003       1.63931207E-30
  -15.4200001      -3.46436429E-31
  -15.4099998      -4.75282308E-30
  -15.3999996      -1.08008852E-29
  -15.3900003      -1.53340120E-29
  -15.3800001      -1.26181634E-29
  -15.3699999       3.99945646E-30
  -15.3599997       3.78522482E-29
  -15.3500004       8.26588067E-29
  -15.3400002       1.16796384E-28
  -15.3299999       1.03000756E-28
  -15.3199997      -8.30908244E-31
  -15.3100004      -2.16553248E-28
  -15.3000002      -5.10336720E-28
  -15.2900000      -7.61661960E-28
  -15.2799997      -7.61946660E-28
  -15.2700005      -2.70415659E-28
  -15.2600002       8.59091867E-28
  -15.2500000       2.50143633E-27
  -15.2399998       4.10443443E-27
  -15.2299995       4.66935976E-27
  -15.2200003       2.98987971E-27
  -15.2100000      -1.79293639E-27
  -15.1999998      -9.41156204E-27
  -15.1899996      -1.77663386E-26
  -15.1800003      -2.27670773E-26
  -15.1700001      -1.92140555E-26
  -15.1599998      -2.94789097E-27
  -15.1499996       2.60871587E-26
  -15.1400003       6.10027247E-26
  -15.1300001       8.71365032E-26
  -15.1199999       8.50647080E-26
  -15.1099997       3.83002169E-26
  -15.1000004      -5.56271985E-26
  -15.0900002      -1.74824211E-25
  -15.0799999      -2.69841336E-25
  -15.0699997      -2.74174647E-25
  -15.0600004      -1.31434864E-25
  -15.0500002       1.65452568E-25
  -15.0400000       5.37656285E-25
  -15.0299997       8.09317350E-25
  -15.0200005       7.45528529E-25
  -15.0100002       1.50907526E-25
  -15.0000000      -9.86303028E-25
  -14.9899998      -2.35541619E-24
  -14.9799995      -3.27188521E-24
  -14.9700003      -2.80263229E-24
  -14.9600000      -1.20644788E-25
  -14.9499998       4.94738140E-24
  -14.9399996       1.13442892E-23
  -14.9300003       1.64651190E-23
  -14.9200001       1.64426381E-23
  -14.9099998       7.29321944E-24
  -14.8999996      -1.30904935E-23
  -14.8900003      -4.25493460E-23
  -14.8800001      -7.28025656E-23
  -14.8699999      -8.93855578E-23
  -14.8599997      -7.45528271E-23
  -14.8500004      -1.36166969E-23
  -14.8400002       9.61494090E-23
  -14.8299999       2.36637496E-22
  -14.8199997       3.64178912E-22
  -14.8100004       4.13583440E-22
  -14.8000002       3.14233768E-22
  -14.7900000       1.79794511E-23
  -14.7799997      -4.66829658E-22
  -14.7700005      -1.04664964E-21
  -14.7600002      -1.53474760E-21
  -14.7500000      -1.67848033E-21
  -14.7399998      -1.22890605E-21
  -14.7299995      -4.53614931E-23
  -14.7200003       1.79088197E-21
  -14.7100000       3.89649203E-21
  -14.6999998       5.58898192E-21
  -14.6899996       6.01153510E-21
  -14.6800003       4.38683444E-21
  -14.6700001       3.57521784E-22
  -14.6599998      -5.68355274E-21
  -14.6499996      -1.24091301E-20
  -14.6400003      -1.76557291E-20
  -14.6300001      -1.88858162E-20
  -14.6199999      -1.39848243E-20
  -14.6099997      -2.21906547E-21
  -14.6000004       1.49522880E-20
  -14.5900002       3.35802888E-20
  -14.5799999       4.77520576E-20
  -14.5699997       5.10389599E-20
  -14.5600004       3.86413481E-20
  -14.5500002       9.65233906E-21
  -14.5400000      -3.13832874E-20
  -14.5299997      -7.44398316E-20
  -14.5200005      -1.06002937E-19
  -14.5100002      -1.12934633E-19
  -14.5000000      -8.72697906E-20
  -14.4899998      -3.03364386E-20
  -14.4799995       4.56159606E-20
  -14.4700003       1.19617852E-19
  -14.4600000       1.68150361E-19
  -14.4499998       1.73779803E-19
  -14.4399996       1.33228075E-19
  -14.4300003       6.11712018E-20
  -14.4200001      -1.32123604E-20
  -14.4099998      -5.75787952E-20
  -14.3999996      -5.28176373E-20
  -14.3900003      -8.24779042E-21
  -14.3800001       3.24580373E-20
  -14.3699999       1.48709262E-21
  -14.3599997      -1.64810231E-19
  -14.3500004      -4.85384155E-19
  -14.3400002      -8.95975053E-19
  -14.3299999      -1.23225964E-18
  -14.3199997      -1.25321130E-18
  -14.3100004      -7.13340863E-19
  -14.3000002       5.25278249E-19
  -14.2900000       2.37165627E-18
  -14.2799997       4.42295996E-18
  -14.2700005       5.97230689E-18
  -14.2600002       6.14453168E-18
  -14.2500000       4.16103653E-18
  -14.2399998      -3.15525589E-19
  -14.2299995      -6.85667298E-18
  -14.2200003      -1.40942494E-17
  -14.2100000      -1.98209928E-17
  -14.1999998      -2.14329859E-17
  -14.1899996      -1.66817613E-17
  -14.1800003      -4.58173397E-18
  -14.1700001       1.37884109E-17
  -14.1599998       3.49002721E-17
  -14.1499996       5.30739397E-17
  -14.1400003       6.15786401E-17
  -14.1300001       5.44253741E-17
  -14.1199999       2.84812446E-17
  -14.1099997      -1.46721525E-17
  -14.1000004      -6.77901908E-17
  -14.0900002      -1.18468543E-16
  -14.0799999      -1.51329781E-16
  -14.0699997      -1.51672830E-16
  -14.0600004      -1.09875254E-16
  -14.0500002      -2.54569879E-17
  -14.0400000       9.04276162E-17
  -14.0299997       2.15115677E-16
  -14.0200005       3.17717717E-16
  -14.0100002       3.65334310E-16
  -14.0000000       3.31174953E-16
  -13.9899998       2.02863411E-16
  -13.9799995      -1.11274611E-17
  -13.9700003      -2.78859393E-16
  -13.9600000      -5.47476781E-16
  -13.9499998      -7.51295301E-16
  -13.9399996      -8.24594833E-16
  -13.9300003      -7.17122445E-16
  -13.9200001      -4.09365809E-16
  -13.9099998       7.58068415E-17
  -13.8999996       6.68457332E-16
  -13.8900003       1.25638269E-15
  -13.8800001       1.70056348E-15
  -13.8699999       1.86042761E-15
  -13.8599997       1.62579737E-15
  -13.8500004       9.50072494E-16
  -13.8400002      -1.22591806E-16
  -13.8299999      -1.44406221E-15
  -13.8199997      -2.76993453E-15
  -13.8100004      -3.79210128E-15
  -13.8000002      -4.19518605E-15
  -13.7900000      -3.72951656E-15
  -13.7799997      -2.28711644E-15
  -13.7700005       3.73877696E-17
  -13.7600002       2.91989875E-15
  -13.7500000       5.82920027E-15
  -13.7399998       8.10465180E-15
  -13.7299995       9.08263773E-15
  -13.7200003       8.25122492E-15
  -13.7100000       5.40095228E-15
  -13.6999998       7.34331190E-16
  -13.6899996      -5.09992481E-15
  -13.6800003      -1.10691739E-14
  -13.6700001      -1.59166198E-14
  -13.6599998      -1.83963664E-14
  -13.6499996      -1.75410732E-14
  -13.6400003      -1.29073803E-14
  -13.6300001      -4.74424551E-15
  -13.6199999       5.95792599E-15
  -13.6099997       1.75568348E-14
  -13.6000004       2.79789789E-14
  -13.5900002       3.50392458E-14
  -13.5799999       3.68104527E-14
  -13.5699997       3.19875453E-14
  -13.5600004       2.01948799E-14
  -13.5500002       2.19366308E-15
  -13.5400000      -2.00425190E-14
  -13.5299997      -4.34098626E-14
  -13.5200005      -6.39345076E-14
  -13.5100002      -7.72245088E-14
  -13.5000000      -7.91114068E-14
  -13.4899998      -6.64472139E-14
  -13.4799995      -3.79728089E-14
  -13.4700003       4.88654747E-15
  -13.4600000       5.74977010E-14
  -13.4499998       1.11991593E-13
  -13.4399996       1.57926488E-13
  -13.4300003       1.83736801E-13
  -13.4200001       1.78896909E-13
  -13.4099998       1.36517384E-13
  -13.3999996       5.58827073E-14
  -13.3900003      -5.57004123E-14
  -13.3800001      -1.82393014E-13
  -13.3699999      -3.01148565E-13
  -13.3599997      -3.85046053E-13
  -13.3500004      -4.08348729E-13
  -13.3400002      -3.52514567E-13
  -13.3299999      -2.11961227E-13
  -13.3199997       1.82325917E-15
  -13.3100004       2.59150611E-13
  -13.3000002       5.14874655E-13
  -13.2900000       7.15172604E-13
  -13.2799997       8.07610001E-13
  -13.2700005       7.52823910E-13
  -13.2600002       5.35476990E-13
  -13.2500000       1.71876090E-13
  -13.2399998      -2.88044057E-13
  -13.2299995      -7.65777741E-13
  -13.2200003      -1.16638947E-12
  -13.2100000      -1.39617484E-12
  -13.1999998      -1.38279644E-12
  -13.1899996      -1.09381211E-12
  -13.1800003      -5.49254923E-13
  -13.1700001       1.75367099E-13
  -13.1599998       9.57649758E-13
  -13.1499996       1.64812294E-12
  -13.1400003       2.09841454E-12
  -13.1300001       2.19257099E-12
  -13.1199999       1.87496459E-12
  -13.1099997       1.16821938E-12
  -13.1000004       1.76054009E-13
  -13.0900002      -9.31153809E-13
  -13.0799999      -1.94655186E-12
  -13.0699997      -2.66740796E-12
  -13.0600004      -2.93782858E-12
  -13.0500002      -2.68410533E-12
  -13.0400000      -1.93406706E-12
  -13.0299997      -8.15008488E-13
  -13.0200005       4.70518806E-13
  -13.0100002       1.68639169E-12
  -13.0000000       2.61292073E-12
  -12.9899998       3.09334221E-12
  -12.9799995       3.06539364E-12
  -12.9700003       2.56986381E-12
  -12.9600000       1.73380407E-12
  -12.9499998       7.32832740E-13
  -12.9399996      -2.57045036E-13
  -12.9300003      -1.10431185E-12
  -12.9200001      -1.75001962E-12
  -12.9099998      -2.21003402E-12
  -12.8999996      -2.54985291E-12
  -12.8900003      -2.83913843E-12
  -12.8800001      -3.10053480E-12
  -12.8699999      -3.27110583E-12
  -12.8599997      -3.19321089E-12
  -12.8500004      -2.64462931E-12
  -12.8400002      -1.40654925E-12
  -12.8299999       6.44519540E-13
  -12.8199997       3.44534254E-12
  -12.8100004       6.68441301E-12
  -12.8000002       9.79691328E-12
  -12.7900000       1.20318365E-11
  -12.7799997       1.25898380E-11
  -12.7700005       1.08107542E-11
  -12.7600002       6.37264026E-12
  -12.7500000      -5.45556330E-13
  -12.7399998      -9.18445875E-12
  -12.7299995      -1.82417276E-11
  -12.7200003      -2.60372644E-11
  -12.7100000      -3.07889547E-11
  -12.6999998      -3.09541420E-11
  -12.6899996      -2.55725163E-11
  -12.6800003      -1.45395336E-11
  -12.6700001       1.25251860E-12
  -12.6599998       1.99453006E-11
  -12.6499996       3.89242562E-11
  -12.6400003       5.51794617E-11
  -12.6300001       6.57583502E-11
  -12.6199999       6.82331969E-11
  -12.6099997       6.11030393E-11
  -12.6000004       4.40632010E-11
  -12.5900002       1.81028942E-11
  -12.5799999      -1.45758804E-11
  -12.5699997      -5.07916799E-11
  -12.5600004      -8.67194094E-11
  -12.5500002      -1.18266938E-10
  -12.5400000      -1.41436238E-10
  -12.5299997      -1.52630034E-10
  -12.5200005      -1.48889609E-10
  -12.5100002      -1.28076716E-10
  -12.5000000      -8.90314489E-11
  -12.4899998      -3.17463486E-11
  -12.4799995       4.24104189E-11
  -12.4700003       1.30410016E-10
  -12.4600000       2.27233898E-10
  -12.4499998       3.25551558E-10
  -12.4399996       4.15484203E-10
  -12.4300003       4.84548568E-10
  -12.4200001       5.17873522E-10
  -12.4099998       4.98760033E-10
  -12.3999996       4.09610540E-10
  -12.3900003       2.33200015E-10
  -12.3800001      -4.58011129E-11
  -12.3699999      -4.39202064E-10
  -12.3599997      -9.53751411E-10
  -12.3500004      -1.58988511E-09
  -12.3400002      -2.34094411E-09
  -12.3299999      -3.19299298E-09
  -12.3199997      -4.12528234E-09
  -12.3100004      -5.11129672E-09
  -12.3000002      -6.12023987E-09
  -12.2900000      -7.11872872E-09
  -12.2799997      -8.07242362E-09
  -12.2700005      -8.94734686E-09
  -12.2600002      -9.71073444E-09
  -12.2500000      -1.03313544E-08
  -12.2399998      -1.07793694E-08
  -12.2299995      -1.10259846E-08
  -12.2200003      -1.10431326E-08
  -12.2100000      -1.08035598E-08
  -12.1999998      -1.02814992E-08
  -12.1899996      -9.45407397E-09
  -12.1800003      -8.30332869E-09
  -12.1700001      -6.81857415E-09
  -12.1599998      -4.99871433E-09
  -12.1499996      -2.85395552E-09
  -12.1400003      -4.06543160E-10
  -12.1300001       2.30976949E-09
  -12.1199999       5.25157251E-09
  -12.1099997       8.36870218E-09
  -12.1000004       1.16077965E-08
  -12.0900002       1.49157948E-08
  -12.0799999       1.82428437E-08
  -12.0699997       2.15440750E-08
  -12.0600004       2.47800003E-08
  -12.0500002       2.79155525E-08
  -12.0400000       3.09181232E-08
  -12.0299997       3.37551178E-08
  -12.0200005       3.63917749E-08
  -12.0100002       3.87896684E-08
  -12.0000000       4.09064462E-08
  -11.9899998       4.26967794E-08
  -11.9799995       4.41144863E-08
  -11.9700003       4.51151934E-08
  -11.9600000       4.56590925E-08
  -11.9499998       4.57131293E-08
  -11.9399996       4.52522251E-08
  -11.9300003       4.42592629E-08
  -11.9200001       4.27239826E-08
  -11.9099998       4.06411793E-08
  -11.8999996       3.80086860E-08
  -11.8900003       3.48257316E-08
  -11.8800001       3.10923411E-08
  -11.8699999       2.68097722E-08
  -11.8599997       2.19822986E-08
  -11.8500004       1.66197918E-08
  -11.8400002       1.07407603E-08
  -11.8299999       4.37495462E-09
  -11.8199997      -2.43468268E-09
  -11.8100004      -9.63182156E-09
  -11.8000002      -1.71478085E-08
  -11.7900000      -2.49044447E-08
  -11.7799997      -3.28177059E-08
  -11.7700005      -4.08022274E-08
  -11.7600002      -4.87752736E-08
  -11.7500000      -5.66602303E-08
  -11.7399998      -6.43887859E-08
  -11.7299995      -7.19017024E-08
  -11.7200003      -7.91483927E-08
  -11.7100000      -8.60851870E-08
  -11.6999998      -9.26732824E-08
  -11.6899996      -9.88761357E-08
  -11.6800003      -1.04657154E-07
  -11.6700001      -1.09977577E-07
  -11.6599998      -1.14794865E-07
  -11.6499996      -1.19061710E-07
  -11.6400003      -1.22725311E-07
  -11.6300001      -1.25727453E-07
  -11.6199999      -1.28005141E-07
  -11.6099997      -1.29491852E-07
  -11.6000004      -1.30119574E-07
  -11.5900002      -1.29821302E-07
  -11.5799999      -1.28534026E-07
  -11.5699997      -1.26201527E-07
  -11.5600004      -1.22776612E-07
  -11.5500002      -1.18222758E-07
  -11.5400000      -1.12514364E-07
  -11.5299997      -1.05636431E-07
  -11.5200005      -9.75833601E-08
  -11.5100002      -8.83579574E-08
  -11.5000000      -7.79712082E-08
  -11.4899998      -6.64427873E-08
  -11.4799995      -5.38029710E-08
  -11.4700003      -4.00954363E-08
  -11.4600000      -2.53796131E-08
  -11.4499998      -9.73230119E-09
  -11.4399996       6.75280099E-09
  -11.4300003       2.39681892E-08
  -11.4200001       4.17983905E-08
  -11.4099998       6.01274266E-08
  -11.3999996       7.88476697E-08
  -11.3900003       9.78673356E-08
  -11.3800001       1.17115981E-07
  -11.3699999       1.36546689E-07
  -11.3599997       1.56135087E-07
  -11.3500004       1.75874746E-07
  -11.3400002       1.95771221E-07
  -11.3299999       2.15834930E-07
  -11.3199997       2.36075707E-07
  -11.3100004       2.56497856E-07
  -11.3000002       2.77098422E-07
  -11.2900000       2.97867018E-07
  -11.2799997       3.18786647E-07
  -11.2700005       3.39835850E-07
  -11.2600002       3.60989930E-07
  -11.2500000       3.82222709E-07
  -11.2399998       4.03506931E-07
  -11.2299995       4.24815141E-07
  -11.2200003       4.46118776E-07
  -11.2100000       4.67388389E-07
  -11.1999998       4.88592207E-07
  -11.1899996       5.09693848E-07
  -11.1800003       5.30649402E-07
  -11.1700001       5.51403616E-07
  -11.1599998       5.71886574E-07
  -11.1499996       5.92012668E-07
  -11.1400003       6.11681742E-07
  -11.1300001       6.30786076E-07
  -11.1199999       6.49221022E-07
  -11.1099997       6.66897904E-07
  -11.1000004       6.83760618E-07
  -11.0900002       6.99796317E-07
  -11.0799999       7.15042916E-07
  -11.0699997       7.29587839E-07
  -11.0600004       7.43557109E-07
  -11.0500002       7.57096586E-07
  -11.0400000       7.70351903E-07
  -11.0299997       7.83445159E-07
  -11.0200005       7.96458892E-07
  -11.0100002       8.09428286E-07
  -11.0000000       8.22344191E-07
  -10.9899998       8.35163007E-07
  -10.9799995       8.47824879E-07
  -10.9700003       8.60271143E-07
  -10.9600000       8.72459680E-07
  -10.9499998       8.84372469E-07
  -10.9399996       8.96015990E-07
  -10.9300003       9.07412698E-07
  -10.9200001       9.18590104E-07
  -10.9099998       9.29566795E-07
  -10.8999996       9.40341181E-07
  -10.8900003       9.50886147E-07
  -10.8800001       9.61143655E-07
  -10.8699999       9.71031795E-07
  -10.8599997       9.80446771E-07
  -10.8500004       9.89270688E-07
  -10.8400002       9.97379743E-07
  -10.8299999       1.00465195E-06
  -10.8199997       1.01097623E-06
  -10.8100004       1.01626097E-06
  -10.8000002       1.02044589E-06
  -10.7900000       1.02350987E-06
  -10.7799997       1.02547199E-06
  -10.7700005       1.02639365E-06
  -10.7600002       1.02636341E-06
  -10.7500000       1.02548006E-06
  -10.7399998       1.02382592E-06
  -10.7299995       1.02144031E-06
  -10.7200003       1.01830676E-06
  -10.7100000       1.01433898E-06
  -10.6999998       1.00938951E-06
  -10.6899996       1.00327497E-06
  -10.6800003       9.95805181E-07
  -10.6700001       9.86817554E-07
  -10.6599998       9.76207161E-07
  -10.6499996       9.63950697E-07
  -10.6400003       9.50105630E-07
  -10.6300001       9.34803211E-07
  -10.6199999       9.18225908E-07
  -10.6099997       9.00580858E-07
  -10.6000004       8.82081224E-07
  -10.5900002       8.62926470E-07
  -10.5799999       8.43300313E-07
  -10.5699997       8.23362655E-07
  -10.5600004       8.03256228E-07
  -10.5500002       7.83108305E-07
  -10.5400000       7.63022285E-07
  -10.5299997       7.43075248E-07
  -10.5200005       7.23305050E-07
  -10.5100002       7.03710725E-07
  -10.5000000       6.84256463E-07
  -10.4899998       6.64889171E-07
  -10.4799995       6.45564342E-07
  -10.4700003       6.26272708E-07
  -10.4600000       6.07065658E-07
  -10.4499998       5.88062392E-07
  -10.4399996       5.69438726E-07
  -10.4300003       5.51396681E-07
  -10.4200001       5.34121057E-07
  -10.4099998       5.17731792E-07
  -10.3999996       5.02251567E-07
  -10.3900003       4.87584884E-07
  -10.3800001       4.73535863E-07
  -10.3699999       4.59830829E-07
  -10.3599997       4.46175903E-07
  -10.3500004       4.32306905E-07
  -10.3400002       4.18024882E-07
  -10.3299999       4.03224050E-07
  -10.3199997       3.87887638E-07
  -10.3100004       3.72065244E-07
  -10.3000002       3.55844804E-07
  -10.2900000       3.39320252E-07
  -10.2799997       3.22567786E-07
  -10.2700005       3.05639361E-07
  -10.2600002       2.88563825E-07
  -10.2500000       2.71360221E-07
  -10.2399998       2.54047393E-07
  -10.2299995       2.36644667E-07
  -10.2200003       2.19169664E-07
  -10.2100000       2.01621560E-07
  -10.1999998       1.83974265E-07
  -10.1899996       1.66163858E-07
  -10.1800003       1.48105812E-07
  -10.1700001       1.29715190E-07
  -10.1599998       1.10937243E-07
  -10.1499996       9.17871006E-08
  -10.1400003       7.23640667E-08
  -10.1300001       5.28533697E-08
  -10.1199999       3.34994468E-08
  -10.1099997       1.45618211E-08
  -10.1000004      -3.73516906E-09
  -10.0900002      -2.12500684E-08
  -10.0799999      -3.79431242E-08
  -10.0699997      -5.38733218E-08
  -10.0600004      -6.91639670E-08
  -10.0500002      -8.39463397E-08
  -10.0400000      -9.83101174E-08
  -10.0299997      -1.12261503E-07
  -10.0200005      -1.25710983E-07
  -10.0100002      -1.38492311E-07
  -10.0000000      -1.50401817E-07
  -9.98999977      -1.61247556E-07
  -9.97999954      -1.70892875E-07
  -9.97000027      -1.79271609E-07
  -9.96000004      -1.86380788E-07
  -9.94999981      -1.92244428E-07
  -9.93999958      -1.96863368E-07
  -9.93000031      -2.00175037E-07
  -9.92000008      -2.02036475E-07
  -9.90999985      -2.02234332E-07
  -9.89999962      -2.00526912E-07
  -9.89000034      -1.96701549E-07
  -9.88000011      -1.90634339E-07
  -9.86999989      -1.82323390E-07
  -9.85999966      -1.71891699E-07
  -9.85000038      -1.59552187E-07
  -9.84000015      -1.45553187E-07
  -9.82999992      -1.30110308E-07
  -9.81999969      -1.13357629E-07
  -9.81000042      -9.53266053E-08
  -9.80000019      -7.59630439E-08
  -9.78999996      -5.51736470E-08
  -9.77999973      -3.28833281E-08
  -9.77000046      -9.08829900E-09
  -9.76000023       1.61220104E-08
  -9.75000000       4.25737170E-08
  -9.73999977       7.00481309E-08
  -9.72999954       9.83385604E-08
  -9.72000027       1.27294754E-07
  -9.71000004       1.56846554E-07
  -9.69999981       1.86985531E-07
  -9.68999958       2.17720199E-07
  -9.68000031       2.49011180E-07
  -9.67000008       2.80718581E-07
  -9.65999985       3.12578408E-07
  -9.64999962       3.44223821E-07
  -9.64000034       3.75248760E-07
  -9.63000011       4.05297072E-07
  -9.61999989       4.34142891E-07
  -9.60999966       4.61743269E-07
  -9.60000038       4.88236878E-07
  -9.59000015       5.13889631E-07
  -9.57999992       5.39001007E-07
  -9.56999969       5.63806509E-07
  -9.56000042       5.88403168E-07
  -9.55000019       6.12730332E-07
  -9.53999996       6.36607467E-07
  -9.52999973       6.59821808E-07
  -9.52000046       6.82234372E-07
  -9.51000023       7.03865908E-07
  -9.50000000       7.24933784E-07
  -9.48999977       7.45822206E-07
  -9.47999954       7.66993082E-07
  -9.47000027       7.88871716E-07
  -9.46000004       8.11743348E-07
  -9.44999981       8.35692219E-07
  -9.43999958       8.60617149E-07
  -9.43000031       8.86306225E-07
  -9.42000008       9.12554526E-07
  -9.40999985       9.39273889E-07
  -9.39999962       9.66562538E-07
  -9.39000034       9.94695483E-07
  -9.38000011       1.02404374E-06
  -9.36999989       1.05493848E-06
  -9.35999966       1.08753034E-06
  -9.35000038       1.12168834E-06
  -9.34000015       1.15697333E-06
  -9.32999992       1.19269498E-06
  -9.31999969       1.22803658E-06
  -9.31000042       1.26219913E-06
  -9.30000019       1.29452121E-06
  -9.28999996       1.32452919E-06
  -9.27999973       1.35190226E-06
  -9.27000046       1.37637187E-06
  -9.26000023       1.39759641E-06
  -9.25000000       1.41505450E-06
  -9.23999977       1.42801775E-06
  -9.22999954       1.43560226E-06
  -9.22000027       1.43690409E-06
  -9.21000004       1.43117256E-06
  -9.19999981       1.41794919E-06
  -9.18999958       1.39714541E-06
  -9.18000031       1.36901269E-06
  -9.17000008       1.33402227E-06
  -9.15999985       1.29268881E-06
  -9.14999962       1.24540611E-06
  -9.14000034       1.19234062E-06
  -9.13000011       1.13343253E-06
  -9.11999989       1.06848768E-06
  -9.10999966       9.97332222E-07
  -9.10000038       9.19976344E-07
  -9.09000015       8.36714776E-07
  -9.07999992       7.48133118E-07
  -9.06999969       6.55012911E-07
  -9.06000042       5.58166050E-07
  -9.05000019       4.58268858E-07
  -9.03999996       3.55747602E-07
  -9.02999973       2.50773610E-07
  -9.02000046       1.43362712E-07
  -9.01000023       3.35557324E-08
  -9.00000000      -7.83888581E-08
  -8.98999977      -1.91858447E-07
  -8.97999954      -3.05860794E-07
  -8.97000027      -4.19119118E-07
  -8.96000004      -5.30263549E-07
  -8.94999981      -6.38051063E-07
  -8.93999958      -7.41542635E-07
  -8.93000031      -8.40164091E-07
  -8.92000008      -9.33634226E-07
  -8.90999985      -1.02179081E-06
  -8.89999962      -1.10435838E-06
  -8.89000034      -1.18075548E-06
  -8.88000011      -1.25000474E-06
  -8.86999989      -1.31078434E-06
  -8.85999966      -1.36160008E-06
  -8.85000038      -1.40103123E-06
  -8.84000015      -1.42795841E-06
  -8.82999992      -1.44170474E-06
  -8.81999969      -1.44203398E-06
  -8.81000042      -1.42902638E-06
  -8.80000019      -1.40286090E-06
  -8.78999996      -1.36359972E-06
  -8.77999973      -1.31104616E-06
  -8.77000046      -1.24472581E-06
  -8.76000023      -1.16400679E-06
  -8.75000000      -1.06830078E-06
  -8.73999977      -9.57292627E-07
  -8.72999954      -8.31093701E-07
  -8.72000027      -6.90283002E-07
  -8.71000004      -5.35807771E-07
  -8.69999981      -3.68786260E-07
  -8.68999958      -1.90274648E-07
  -8.68000031      -1.08347908E-09
  -8.67000008       1.98303667E-07
  -8.65999985       4.07682364E-07
  -8.64999962       6.26981091E-07
  -8.64000034       8.56075587E-07
  -8.63000011       1.09464315E-06
  -8.61999989       1.34211189E-06
  -8.60999966       1.59773333E-06
  -8.60000038       1.86075192E-06
  -8.59000015       2.13061571E-06
  -8.57999992       2.40714462E-06
  -8.56999969       2.69060070E-06
  -8.56000042       2.98162104E-06
  -8.55000019       3.28103420E-06
  -8.53999996       3.58961506E-06
  -8.52999973       3.90784953E-06
  -8.52000046       4.23578649E-06
  -8.51000023       4.57301712E-06
  -8.50000000       4.91877290E-06
  -8.48999977       5.27210977E-06
  -8.47999954       5.63211097E-06
  -8.47000027       5.99803070E-06
  -8.46000004       6.36934374E-06
  -8.44999981       6.74568764E-06
  -8.43999958       7.12672181E-06
  -8.43000031       7.51197786E-06
  -8.42000008       7.90072863E-06
  -8.40999985       8.29195687E-06
  -8.39999962       8.68440111E-06
  -8.39000034       9.07669073E-06
  -8.38000011       9.46750060E-06
  -8.36999989       9.85567658E-06
  -8.35999966       1.02402901E-05
  -8.35000038       1.06206235E-05
  -8.34000015       1.09960656E-05
  -8.32999992       1.13659826E-05
  -8.31999969       1.17296104E-05
  -8.31000042       1.20860022E-05
  -8.30000019       1.24340377E-05
  -8.28999996       1.27725116E-05
  -8.27999973       1.31002544E-05
  -8.27000046       1.34162437E-05
  -8.26000023       1.37196730E-05
  -8.25000000       1.40099619E-05
  -8.23999977       1.42866820E-05
  -8.22999954       1.45494678E-05
  -8.22000027       1.47978999E-05
  -8.21000004       1.50314181E-05
  -8.19999981       1.52492730E-05
  -8.18999958       1.54505597E-05
  -8.18000031       1.56342740E-05
  -8.17000008       1.57993982E-05
  -8.15999985       1.59449919E-05
  -8.14999962       1.60702657E-05
  -8.14000034       1.61745938E-05
  -8.13000011       1.62575179E-05
  -8.11999989       1.63187087E-05
  -8.10999966       1.63579352E-05
  -8.10000038       1.63750101E-05
  -8.09000015       1.63697623E-05
  -8.07999992       1.63420482E-05
  -8.06999969       1.62917186E-05
  -8.06000042       1.62186934E-05
  -8.05000019       1.61229636E-05
  -8.03999996       1.60046438E-05
  -8.02999973       1.58639905E-05
  -8.02000046       1.57014510E-05
  -8.01000023       1.55176294E-05
  -8.00000000       1.53132951E-05
  -7.98999977       1.50893475E-05
  -7.98000002       1.48467716E-05
  -7.96999979       1.45865915E-05
  -7.96000004       1.43098432E-05
  -7.94999981       1.40175780E-05
  -7.94000006       1.37108545E-05
  -7.92999983       1.33907561E-05
  -7.92000008       1.30584376E-05
  -7.90999985       1.27151088E-05
  -7.90000010       1.23620521E-05
  -7.88999987       1.20005843E-05
  -7.88000011       1.16319916E-05
  -7.86999989       1.12574944E-05
  -7.86000013       1.08782151E-05
  -7.84999990       1.04951723E-05
  -7.84000015       1.01093101E-05
  -7.82999992       9.72158250E-06
  -7.82000017       9.33299634E-06
  -7.80999994       8.94469940E-06
  -7.80000019       8.55798589E-06
  -7.78999996       8.17427372E-06
  -7.78000021       7.79503262E-06
  -7.76999998       7.42170005E-06
  -7.76000023       7.05557341E-06
  -7.75000000       6.69778046E-06
  -7.73999977       6.34923799E-06
  -7.73000002       6.01073089E-06
  -7.71999979       5.68296628E-06
  -7.71000004       5.36667903E-06
  -7.69999981       5.06264132E-06
  -7.69000006       4.77168896E-06
  -7.67999983       4.49468234E-06
  -7.67000008       4.23239271E-06
  -7.65999985       3.98541943E-06
  -7.65000010       3.75412264E-06
  -7.63999987       3.53864175E-06
  -7.63000011       3.33893331E-06
  -7.61999989       3.15487455E-06
  -7.61000013       2.98636132E-06
  -7.59999990       2.83343957E-06
  -7.59000015       2.69629368E-06
  -7.57999992       2.57523197E-06
  -7.57000017       2.47056050E-06
  -7.55999994       2.38250072E-06
  -7.55000019       2.31105810E-06
  -7.53999996       2.25594658E-06
  -7.53000021       2.21664504E-06
  -7.51999998       2.19246203E-06
  -7.51000023       2.18269406E-06
  -7.50000000       2.18670084E-06
  -7.48999977       2.20402626E-06
  -7.48000002       2.23441816E-06
  -7.46999979       2.27778082E-06
  -7.46000004       2.33404376E-06
  -7.44999981       2.40311056E-06
  -7.44000006       2.48472611E-06