  -16.0000000       0.00000000    
  -15.9899998       0.00000000    
  -15.9799995       0.00000000    
  -15.9700003       0.00000000    
  -15.9600000       0.00000000    
  -15.9499998       0.00000000    
  -15.9399996       0.00000000    
  -15.9300003       0.00000000    
  -15.9200001       0.00000000    
  -15.9099998       0.00000000    
  -15.8999996       0.00000000    
  -15.8900003       0.00000000    
  -15.8800001       0.00000000    
  -15.8699999      -0.00000000    
  -15.8599997      -0.00000000    
  -15.8500004      -8.40779079E-45
  -15.8400002      -1.00893489E-43
  -15.8299999      -9.47277762E-43
  -15.8199997      -7.12280009E-42
  -15.8100004      -4.45682977E-41
  -15.8000002      -2.38793870E-40
  -15.7900000      -1.11910358E-39
  -15.7799997      -4.66212419E-39
  -15.7700005      -1.74824357E-38
  -15.7600002      -5.95930814E-38
  -15.7500000      -1.86094499E-37
  -15.7399998      -5.35626585E-37
  -15.7299995      -1.42766933E-36
  -15.7200003      -3.53632739E-36
  -15.7100000      -8.15964123E-36
  -15.6999998      -1.75601809E-35
  -15.6899996      -3.52478639E-35
  -15.6800003      -6.58911764E-35
  -15.6700001      -1.14299985E-34
  -15.6599998      -1.82728806E-34
  -15.6499996      -2.65834925E-34
  -15.6400003      -3.43332719E-34
  -15.6300001      -3.72037419E-34
  -15.6199999      -2.81609210E-34
  -15.6099997       1.87851373E-35
  -15.6000004       6.14194513E-34
  -15.5900002       1.53188670E-33
  -15.5799999       2.66688665E-33
  -15.5699997       3.70527758E-33
  -15.5600004       4.08662338E-33
  -15.5500002       3.06274318E-33
  -15.5400000      -9.38856834E-35
  -15.5299997      -5.71686910E-33
  -15.5200005      -1.32695900E-32
  -15.5100002      -2.09284955E-32
  -15.5000000      -2.54736062E-32
  -15.4899998      -2.27467913E-32
  -15.4799995      -8.83053691E-33
  -15.4700003       1.81371916E-32
  -15.4600000       5.59064055E-32
  -15.4499998       9.64814377E-32
  -15.4399996       1.25685384E-31
  -15.4300003       1.24600908E-31
  -15.4200001       7.33314518E-32
  -15.4099998      -4.27021598E-32
  -15.3999996      -2.23896668E-31
  -15.3900003      -4.45431015E-31
  -15.3800001      -6.45836862E-31
  -15.3699999      -7.20050898E-31
  -15.3599997      -5.26568196E-31
  -15.3500004       7.74440129E-32
  -15.3400002       1.16037477E-30
  -15.3299999       2.60027569E-30
  -15.3199997       3.95920227E-30
  -15.3100004       4.42079803E-30
  -15.3000002       2.90126996E-30
  -15.2900000      -1.55805786E-30
  -15.2799997      -9.08866428E-30
  -15.2700005      -1.81348994E-29
  -15.2600002      -2.48376487E-29
  -15.2500000      -2.32787905E-29
  -15.2399998      -7.20956076E-30
  -15.2299995       2.65046960E-29
  -15.2200003       7.33663332E-29
  -15.2100000       1.17502298E-28
  -15.1999998       1.31592630E-28
  -15.1899996       8.34809441E-29
  -15.1800003      -4.91416914E-29
  -15.1700001      -2.58289643E-28
  -15.1599998      -4.86918038E-28
  -15.1499996      -6.23880883E-28
  -15.1400003      -5.25624849E-28
  -15.1300001      -7.18494346E-29
  -15.1199999       7.51617416E-28
  -15.1099997       1.76940057E-27
  -15.1000004       2.57802806E-27
  -15.0900002       2.60405469E-27
  -15.0799999       1.29303008E-27
  -15.0699997      -1.58429462E-27
  -15.0600004      -5.59366669E-27
  -15.0500002      -9.42438873E-27
  -15.0400000      -1.09945170E-26
  -15.0299997      -8.02363600E-27
  -15.0200005       9.25273560E-28
  -15.0100002       1.51736609E-26
  -15.0000000       3.09297292E-26
  -14.9899998       4.12418546E-26
  -14.9799995       3.75148535E-26
  -14.9700003       1.27902417E-26
  -14.9600000      -3.37658414E-26
  -14.9499998      -9.26583324E-26
  -14.9399996      -1.42392968E-25
  -14.9300003      -1.52698967E-25
  -14.9200001      -9.40286700E-26
  -14.9099998       4.75095579E-26
  -14.8999996       2.53763981E-25
  -14.8900003       4.63760824E-25
  -14.8800001       5.77119052E-25
  -14.8699999       4.78565328E-25
  -14.8599997       8.44929441E-26
  -14.8500004      -5.97438186E-25
  -14.8400002      -1.41623429E-24
  -14.8299999      -2.06231808E-24
  -14.8199997      -2.11842049E-24
  -14.8100004      -1.19220687E-24
  -14.8000002       8.82958896E-25
  -14.7900000       3.83274106E-24
  -14.7799997       6.80423691E-24
  -14.7700005       8.41639565E-24
  -14.7600002       7.08618921E-24
  -14.7500000       1.64172446E-24
  -14.7399998      -7.89273243E-24
  -14.7299995      -1.96008522E-23
  -14.7200003      -2.94382348E-23
  -14.7100000      -3.18291902E-23
  -14.6999998      -2.13017688E-23
  -14.6899996       4.98891611E-24
  -14.6800003       4.44851696E-23
  -14.6700001       8.73032869E-23
  -14.6599998       1.16494321E-22
  -14.6499996       1.11575149E-22
  -14.6400003       5.55523549E-23
  -14.6300001      -5.57638390E-23
  -14.6199999      -2.05007493E-22
  -14.6099997      -3.49173894E-22
  -14.6000004      -4.24422717E-22
  -14.5900002      -3.62308112E-22
  -14.5799999      -1.16351783E-22
  -14.5699997       3.07107690E-22
  -14.5600004       8.24705937E-22
  -14.5500002       1.27197094E-21
  -14.5400000       1.43094683E-21
  -14.5299997       1.09340423E-21
  -14.5200005       1.50530678E-22
  -14.5100002      -1.31523888E-21
  -14.5000000      -2.97278332E-21
  -14.4899998      -4.25844454E-21
  -14.4799995      -4.49279474E-21
  -14.4700003      -3.09643067E-21
  -14.4600000       1.37225043E-22
  -14.4499998       4.79525244E-21
  -14.4399996       9.73305218E-21
  -14.4300003       1.31980076E-20
  -14.4200001       1.32401841E-20
  -14.4099998       8.37072529E-21
  -14.3999996      -1.68321097E-21
  -14.3900003      -1.53757415E-20
  -14.3800001      -2.91806411E-20
  -14.3699999      -3.81047502E-20
  -14.3599997      -3.69458443E-20
  -14.3500004      -2.21119999E-20
  -14.3400002       6.45708091E-21
  -14.3299999       4.39322893E-20
  -14.3199997       8.04998343E-20
  -14.3100004       1.03016001E-19
  -14.3000002       9.84374268E-20
  -14.2900000       5.84241092E-20
  -14.2799997      -1.61087382E-20
  -14.2700005      -1.12102812E-19
  -14.2600002      -2.04688608E-19
  -14.2500000      -2.61671375E-19
  -14.2399998      -2.51965780E-19
  -14.2299995      -1.56355773E-19
  -14.2200003       2.23264788E-20
  -14.2100000       2.53183494E-19
  -14.1999998       4.78633793E-19
  -14.1899996       6.24909724E-19
  -14.1800003       6.20877167E-19
  -14.1700001       4.21454106E-19
  -14.1599998       2.94129916E-20
  -14.1499996      -4.91786326E-19
  -14.1400003      -1.02056024E-18
  -14.1300001      -1.39841066E-18
  -14.1199999      -1.46805596E-18
  -14.1099997      -1.12115202E-18
  -14.1000004      -3.43598393E-19
  -14.0900002       7.55668936E-19
  -14.0799999       1.94486375E-18
  -14.0699997       2.90528847E-18
  -14.0600004       3.30099162E-18
  -14.0500002       2.86998606E-18
  -14.0400000       1.51619787E-18
  -14.0299997      -6.23316367E-19
  -14.0200005      -3.15988805E-18
  -14.0100002      -5.49924643E-18
  -14.0000000      -6.95371450E-18
  -13.9899998      -6.90513046E-18
  -13.9799995      -4.98649661E-18
  -13.9700003      -1.23892269E-18
  -13.9600000       3.80235944E-18
  -13.9499998       9.13082657E-18
  -13.9399996       1.34188788E-17
  -13.9300003       1.52858990E-17
  -13.9200001       1.36428991E-17
  -13.9099998       8.04386493E-18
  -13.8999996      -1.04409704E-18
  -13.8900003      -1.21399574E-17
  -13.8800001      -2.28838888E-17
  -13.8699999      -3.04310549E-17
  -13.8599997      -3.20660932E-17
  -13.8500004      -2.59338642E-17
  -13.8400002      -1.17253820E-17
  -13.8299999       8.87093056E-18
  -13.8199997       3.21285917E-17
  -13.8100004       5.27637734E-17
  -13.8000002       6.49367684E-17
  -13.7900000       6.36336347E-17
  -13.7799997       4.61507324E-17
  -13.7700005       1.33110376E-17
  -13.7600002      -2.99731310E-17
  -13.7500000      -7.50870753E-17
  -13.7399998      -1.11154453E-16
  -13.7299995      -1.27371282E-16
  -13.7200003      -1.15795479E-16
  -13.7100000      -7.39390412E-17
  -13.6999998      -6.43336165E-18
  -13.6899996       7.48520369E-17
  -13.6800003       1.52551944E-16
  -13.6700001       2.07275487E-16
  -13.6599998       2.22177536E-16
  -13.6499996       1.87600910E-16
  -13.6400003       1.04572941E-16
  -13.6300001      -1.39414063E-17
  -13.6199999      -1.44682717E-16
  -13.6099997      -2.58602070E-16
  -13.6000004      -3.27413598E-16
  -13.5900002      -3.30718906E-16
  -13.5799999      -2.61885197E-16
  -13.5699997      -1.30976877E-16
  -13.5600004       3.63571919E-17
  -13.5500002       2.04157876E-16
  -13.5400000       3.34577882E-16
  -13.5299997       3.97459623E-16
  -13.5200005       3.78544477E-16
  -13.5100002       2.83907312E-16
  -13.5000000       1.39020884E-16
  -13.4899998      -1.77806030E-17
  -13.4799995      -1.46078005E-16
  -13.4700003      -2.15622679E-16
  -13.4600000      -2.16527601E-16
  -13.4499998      -1.63990396E-16
  -13.4399996      -9.53032636E-17
  -13.4300003      -5.88908921E-17
  -13.4200001      -9.75081102E-17
  -13.4099998      -2.29895621E-16
  -13.3999996      -4.36495877E-16
  -13.3900003      -6.54734022E-16
  -13.3800001      -7.87657791E-16
  -13.3699999      -7.26560828E-16
  -13.3599997      -3.84194637E-16
  -13.3500004       2.68753840E-16
  -13.3400002       1.17397348E-15
  -13.3299999       2.17319665E-15
  -13.3199997       3.02148532E-15
  -13.3100004       3.42924317E-15
  -13.3000002       3.12887279E-15
  -13.2900000       1.95424223E-15
  -13.2799997      -8.52403467E-17
  -13.2700005      -2.75707001E-15
  -13.2600002      -5.60371333E-15
  -13.2500000      -7.99785280E-15
  -13.2399998      -9.25415174E-15
  -13.2299995      -8.78217397E-15
  -13.2200003      -6.25128399E-15
  -13.2100000      -1.72914883E-15
  -13.1999998       4.24568023E-15
  -13.1899996       1.06881328E-14
  -13.1800003       1.63009475E-14
  -13.1700001       1.97074904E-14
  -13.1599998       1.97458203E-14
  -13.1499996       1.57655972E-14
  -13.1400003       7.85943915E-15
  -13.1300001      -3.03473969E-15
  -13.1199999      -1.52029810E-14
  -13.1099997      -2.64047783E-14
  -13.1000004      -3.42709395E-14
  -13.0900002      -3.67803966E-14
  -13.0799999      -3.27206083E-14
  -13.0699997      -2.20296397E-14
  -13.0600004      -5.93443692E-15
  -13.0500002       1.31632461E-14
  -13.0400000       3.20506595E-14
  -13.0299997       4.72610707E-14
  -13.0200005       5.57221912E-14
  -13.0100002       5.53693715E-14
  -13.0000000       4.55978097E-14
  -12.9899998       2.74561766E-14
  -12.9799995       3.53371600E-15
  -12.9700003      -2.24464849E-14
  -12.9600000      -4.62566285E-14
  -12.9499998      -6.38998335E-14
  -12.9399996      -7.23155192E-14
  -12.9300003      -6.99238573E-14
  -12.9200001      -5.69107072E-14
  -12.9099998      -3.52033127E-14
  -12.8999996      -8.14449453E-15
  -12.8900003       2.00734357E-14
  -12.8800001       4.51137439E-14
  -12.8699999       6.32167523E-14
  -12.8599997       7.18160272E-14
  -12.8500004       6.99473303E-14
  -12.8400002       5.83849240E-14
  -12.8299999       3.94837429E-14
  -12.8199997       1.67538018E-14
  -12.8100004      -5.76382712E-15
  -12.8000002      -2.42172615E-14
  -12.7900000      -3.56390874E-14
  -12.7799997      -3.84956891E-14
  -12.7700005      -3.29893888E-14
  -12.7600002      -2.10500478E-14
  -12.7500000      -6.00563512E-15
  -12.7399998       8.02016619E-15
  -12.7299995       1.68815411E-14
  -12.7200003       1.72160870E-14
  -12.7100000       7.13158289E-15
  -12.6999998      -1.33565364E-14
  -12.6899996      -4.22182227E-14
  -12.6800003      -7.56445484E-14
  -12.6700001      -1.08566659E-13
  -12.6599998      -1.35340971E-13
  -12.6499996      -1.50457785E-13
  -12.6400003      -1.49146280E-13
  -12.6300001      -1.27798407E-13
  -12.6199999      -8.42081667E-14
  -12.6099997      -1.76976320E-14
  -12.6000004       7.07586252E-14
  -12.5900002       1.78296817E-13
  -12.5799999       2.99762521E-13
  -12.5699997       4.27190889E-13
  -12.5600004       5.49334341E-13
  -12.5500002       6.51495459E-13
  -12.5400000       7.15958217E-13
  -12.5299997       7.23251212E-13
  -12.5200005       6.54331244E-13
  -12.5100002       4.93553982E-13
  -12.5000000       2.32067973E-13
  -12.4899998      -1.28928078E-13
  -12.4799995      -5.75700566E-13
  -12.4700003      -1.08084765E-12
  -12.4600000      -1.60388228E-12
  -12.4499998      -2.09358138E-12
  -12.4399996      -2.49178846E-12
  -12.4300003      -2.73806368E-12
  -12.4200001      -2.77439898E-12
  -12.4099998      -2.54927828E-12
  -12.3999996      -2.02055430E-12
  -12.3900003      -1.15699757E-12
  -12.3800001       6.12499485E-14
  -12.3699999       1.64276828E-12
  -12.3599997       3.58479587E-12
  -12.3500004       5.87247959E-12
  -12.3400002       8.47718857E-12
  -12.3299999       1.13540522E-11
  -12.3199997       1.44394687E-11
  -12.3100004       1.76494340E-11
  -12.3000002       2.08797181E-11
  -12.2900000       2.40085174E-11
  -12.2799997       2.69015955E-11
  -12.2700005       2.94194981E-11
  -12.2600002       3.14256156E-11
  -12.2500000       3.27937261E-11
  -12.2399998       3.34136954E-11
  -12.2299995       3.31946588E-11
  -12.2200003       3.20656245E-11
  -12.2100000       2.99743147E-11
  -12.1999998       2.68860646E-11
  -12.1899996       2.27842120E-11
  -12.1800003       1.76728771E-11
  -12.1700001       1.15832248E-11
  -12.1599998       4.58120954E-12
  -12.1499996      -3.22494830E-12
  -12.1400003      -1.16808768E-11
  -12.1300001      -2.05882828E-11
  -12.1199999      -2.97158409E-11
  -12.1099997      -3.88184832E-11
  -12.1000004      -4.76631165E-11
  -12.0900002      -5.60564303E-11
  -12.0799999      -6.38690420E-11
  -12.0699997      -7.10505196E-11
  -12.0600004      -7.76303188E-11
  -12.0500002      -8.37030792E-11
  -12.0400000      -8.93996127E-11
  -12.0299997      -9.48483236E-11
  -12.0200005      -1.00134727E-10
  -12.0100002      -1.05267496E-10
  -12.0000000      -1.10158320E-10
  -11.9899998      -1.14620619E-10
  -11.9799995      -1.18388147E-10
  -11.9700003      -1.21149812E-10
  -11.9600000      -1.22593519E-10
  -11.9499998      -1.22450994E-10
  -11.9399996      -1.20532612E-10
  -11.9300003      -1.16746876E-10
  -11.9200001      -1.11100615E-10
  -11.9099998      -1.03681556E-10
  -11.8999996      -9.46272852E-11
  -11.8900003      -8.40902417E-11
  -11.8800001      -7.22053944E-11
  -11.8699999      -5.90681670E-11
  -11.8599997      -4.47277285E-11
  -11.8500004      -2.91941749E-11
  -11.8400002      -1.24582861E-11
  -11.8299999       5.48453687E-12
  -11.8199997       2.46090821E-11
  -11.8100004       4.48425533E-11
  -11.8000002       6.60564312E-11
  -11.7900000       8.80674908E-11
  -11.7799997       1.10648588E-10
  -11.7700005       1.33543177E-10
  -11.7600002       1.56481578E-10
  -11.7500000       1.79194687E-10
  -11.7399998       2.01424155E-10
  -11.7299995       2.22928107E-10
  -11.7200003       2.43484594E-10
  -11.7100000       2.62893207E-10
  -11.6999998       2.80975826E-10
  -11.6899996       2.97577463E-10
  -11.6800003       3.12565723E-10
  -11.6700001       3.25828392E-10
  -11.6599998       3.37267658E-10
  -11.6499996       3.46792650E-10
  -11.6400003       3.54310026E-10
  -11.6300001       3.59717089E-10
  -11.6199999       3.62897878E-10
  -11.6099997       3.63726105E-10
  -11.6000004       3.62073566E-10
  -11.5900002       3.57822022E-10
  -11.5799999       3.50875967E-10
  -11.5699997       3.41168260E-10
  -11.5600004       3.28659489E-10
  -11.5500002       3.13324672E-10
  -11.5400000       2.95134001E-10
  -11.5299997       2.74029716E-10
  -11.5200005       2.49909871E-10
  -11.5100002       2.22622878E-10
  -11.5000000       1.91984401E-10
  -11.4899998       1.57813165E-10
  -11.4799995       1.19980567E-10
  -11.4700003       7.84686482E-11
  -11.4600000       3.34198537E-11
  -11.4499998      -1.48368505E-11
  -11.4399996      -6.57882568E-11
  -11.4300003      -1.18777418E-10
  -11.4200001      -1.73074152E-10
  -11.4099998      -2.27967228E-10
  -11.3999996      -2.82860096E-10
  -11.3900003      -3.37350342E-10
  -11.3800001      -3.91281507E-10
  -11.3699999      -4.44751319E-10
  -11.3599997      -4.98078689E-10
  -11.3500004      -5.51734658E-10
  -11.3400002      -6.06248718E-10
  -11.3299999      -6.62109811E-10
  -11.3199997      -7.19675153E-10
  -11.3100004      -7.79104670E-10
  -11.3000002      -8.40325753E-10
  -11.2900000      -9.03032871E-10
  -11.2799997      -9.66720148E-10
  -11.2700005      -1.03073561E-09
  -11.2600002      -1.09435516E-09
  -11.2500000      -1.15685816E-09
  -11.2399998      -1.21760280E-09
  -11.2299995      -1.27609112E-09
  -11.2200003      -1.33201083E-09
  -11.2100000      -1.38526279E-09
  -11.1999998      -1.43595391E-09
  -11.1899996      -1.48436985E-09
  -11.1800003      -1.53092083E-09
  -11.1700001      -1.57607050E-09
  -11.1599998      -1.62025704E-09
  -11.1499996      -1.66381831E-09
  -11.1400003      -1.70693215E-09
  -11.1300001      -1.74958859E-09
  -11.1199999      -1.79158754E-09
  -11.1099997      -1.83258464E-09
  -11.1000004      -1.87213423E-09
  -11.0900002      -1.90978389E-09
  -11.0799999      -1.94513805E-09
  -11.0699997      -1.97791739E-09
  -11.0600004      -2.00800399E-09
  -11.0500002      -2.03543160E-09
  -11.0400000      -2.06035522E-09
  -11.0299997      -2.08300643E-09
  -11.0200005      -2.10362017E-09
  -11.0100002      -2.12237294E-09
  -11.0000000      -2.13933959E-09
  -10.9899998      -2.15447460E-09
  -10.9799995      -2.16760943E-09
  -10.9700003      -2.17849383E-09
  -10.9600000      -2.18685026E-09
  -10.9499998      -2.19244578E-09
  -10.9399996      -2.19514318E-09
  -10.9300003      -2.19496221E-09
  -10.9200001      -2.19209073E-09
  -10.9099998      -2.18686158E-09
  -10.8999996      -2.17969953E-09
  -10.8900003      -2.17104268E-09
  -10.8800001      -2.16123230E-09
  -10.8699999      -2.15042961E-09
  -10.8599997      -2.13854756E-09
  -10.8500004      -2.12521534E-09
  -10.8400002      -2.10981699E-09
  -10.8299999      -2.09158357E-09
  -10.8199997      -2.06971285E-09
  -10.8100004      -2.04352979E-09
  -10.8000002      -2.01260453E-09
  -10.7900000      -1.97684824E-09
  -10.7799997      -1.93654559E-09
  -10.7700005      -1.89228233E-09
  -10.7600002      -1.84485605E-09
  -10.7500000      -1.79511539E-09
  -10.7399998      -1.74379355E-09
  -10.7299995      -1.69141678E-09
  -10.7200003      -1.63822278E-09
  -10.7100000      -1.58417035E-09
  -10.6999998      -1.52903601E-09
  -10.6899996      -1.47249313E-09
  -10.6800003      -1.41427470E-09
  -10.6700001      -1.35425848E-09
  -10.6599998      -1.29249833E-09
  -10.6499996      -1.22924204E-09
  -10.6400003      -1.16485133E-09
  -10.6300001      -1.09970943E-09
  -10.6199999      -1.03412479E-09
  -10.6099997      -9.68274905E-10
  -10.6000004      -9.02171338E-10
  -10.5900002      -8.35661318E-10
  -10.5799999      -7.68486497E-10
  -10.5699997      -7.00346003E-10
  -10.5600004      -6.30968833E-10
  -10.5500002      -5.60160252E-10
  -10.5400000      -4.87846097E-10
  -10.5299997      -4.14087653E-10
  -10.5200005      -3.39076128E-10
  -10.5100002      -2.63143785E-10
  -10.5000000      -1.86758775E-10
  -10.4899998      -1.10507339E-10
  -10.4799995      -3.50894834E-11
  -10.4700003       3.87474913E-11
  -10.4600000       1.10258636E-10
  -10.4499998       1.78786014E-10
  -10.4399996       2.43878195E-10
  -10.4300003       3.05322156E-10
  -10.4200001       3.63205466E-10
  -10.4099998       4.17866602E-10
  -10.3999996       4.69818073E-10
  -10.3900003       5.19621346E-10
  -10.3800001       5.67743075E-10
  -10.3699999       6.14441664E-10
  -10.3599997       6.59714394E-10
  -10.3500004       7.03278047E-10
  -10.3400002       7.44668216E-10
  -10.3299999       7.83334619E-10
  -10.3199997       8.18773604E-10
  -10.3100004       8.50625903E-10
  -10.3000002       8.78716933E-10
  -10.2900000       9.03051134E-10
  -10.2799997       9.23755406E-10
  -10.2700005       9.40976297E-10
  -10.2600002       9.54823776E-10
  -10.2500000       9.65352798E-10
  -10.2399998       9.72571912E-10
  -10.2299995       9.76534853E-10
  -10.2200003       9.77419812E-10
  -10.2100000       9.75628134E-10
  -10.1999998       9.71811742E-10
  -10.1899996       9.66838720E-10
  -10.1800003       9.61697499E-10
  -10.1700001       9.57343094E-10
  -10.1599998       9.54530122E-10
  -10.1499996       9.53675583E-10
  -10.1400003       9.54768264E-10
  -10.1300001       9.57377511E-10
  -10.1199999       9.60725277E-10
  -10.1099997       9.63828573E-10
  -10.1000004       9.65662439E-10
  -10.0900002       9.65323044E-10
  -10.0799999       9.62154134E-10
  -10.0699997       9.55835855E-10
  -10.0600004       9.46403844E-10
  -10.0500002       9.34241573E-10
  -10.0400000       9.20015675E-10
  -10.0299997       9.04609387E-10
  -10.0200005       8.89033180E-10
  -10.0100002       8.74332051E-10
  -10.0000000       8.61489380E-10
  -9.98999977       8.51340054E-10
  -9.97999954       8.44493864E-10
  -9.97000027       8.41284709E-10
  -9.96000004       8.41764380E-10
  -9.94999981       8.45725878E-10
  -9.93999958       8.52781845E-10
  -9.93000031       8.62464933E-10
  -9.92000008       8.74341044E-10
  -9.90999985       8.88095986E-10
  -9.89999962       9.03580932E-10
  -9.89000034       9.20792109E-10
  -9.88000011       9.39803790E-10
  -9.86999989       9.60659996E-10
  -9.85999966       9.83268245E-10
  -9.85000038       1.00733255E-09
  -9.84000015       1.03235487E-09
  -9.82999992       1.05771192E-09
  -9.81999969       1.08280152E-09
  -9.81000042       1.10721898E-09
  -9.80000019       1.13091925E-09
  -9.78999996       1.15430676E-09
  -9.77999973       1.17822985E-09
  -9.77000046       1.20386301E-09
  -9.76000023       1.23250066E-09
  -9.75000000       1.26531252E-09
  -9.73999977       1.30312272E-09
  -9.72999954       1.34626810E-09
  -9.72000027       1.39457401E-09
  -9.71000004       1.44746026E-09
  -9.69999981       1.50413226E-09
  -9.68999958       1.56382751E-09
  -9.68000031       1.62602320E-09
  -9.67000008       1.69056935E-09
  -9.65999985       1.75769899E-09
  -9.64999962       1.82793147E-09
  -9.64000034       1.90187976E-09
  -9.63000011       1.98005479E-09
  -9.61999989       2.06267892E-09
  -9.60999966       2.14960072E-09
  -9.60000038       2.24029795E-09
  -9.59000015       2.33396591E-09
  -9.57999992       2.42964249E-09
  -9.56999969       2.52632582E-09
  -9.56000042       2.62304689E-09
  -9.55000019       2.71885914E-09
  -9.53999996       2.81277091E-09
  -9.52999973       2.90365065E-09
  -9.52000046       2.99015745E-09
  -9.51000023       3.07074477E-09
  -9.50000000       3.14371618E-09
  -9.48999977       3.20738613E-09
  -9.47999954       3.26024407E-09
  -9.47000027       3.30111316E-09
  -9.46000004       3.32921712E-09
  -9.44999981       3.34414807E-09
  -9.43999958       3.34576367E-09
  -9.43000031       3.33402173E-09
  -9.42000008       3.30883121E-09
  -9.40999985       3.27000205E-09
  -9.39999962       3.21726423E-09
  -9.39000034       3.15044368E-09
  -9.38000011       3.06967141E-09
  -9.36999989       2.97558445E-09
  -9.35999966       2.86949264E-09
  -9.35000038       2.75336531E-09
  -9.34000015       2.62972844E-09
  -9.32999992       2.50141485E-09
  -9.31999969       2.37134556E-09
  -9.31000042       2.24228991E-09
  -9.30000019       2.11677231E-09
  -9.28999996       1.99708272E-09
  -9.27999973       1.88538163E-09
  -9.27000046       1.78386472E-09
  -9.26000023       1.69483649E-09
  -9.25000000       1.62076574E-09
  -9.23999977       1.56415114E-09
  -9.22999954       1.52730628E-09
  -9.22000027       1.51216162E-09
  -9.21000004       1.52002932E-09
  -9.19999981       1.55162072E-09
  -9.18999958       1.60706914E-09
  -9.18000031       1.68617009E-09
  -9.17000008       1.78864024E-09
  -9.15999985       1.91435778E-09
  -9.14999962       2.06345185E-09
  -9.14000034       2.23626784E-09
  -9.13000011       2.43317877E-09
  -9.11999989       2.65434474E-09
  -9.10999966       2.89942137E-09
  -9.10000038       3.16746140E-09
  -9.09000015       3.45690498E-09
  -9.07999992       3.76574905E-09
  -9.06999969       4.09182066E-09
  -9.06000042       4.43301040E-09
  -9.05000019       4.78744022E-09
  -9.03999996       5.15345100E-09
  -9.02999973       5.52949420E-09
  -9.02000046       5.91380100E-09
  -9.01000023       6.30413988E-09
  -9.00000000       6.69767175E-09
  -8.98999977       7.09093761E-09
  -8.97999954       7.48003437E-09
  -8.97000027       7.86094656E-09
  -8.96000004       8.22989144E-09
  -8.94999981       8.58365201E-09
  -8.93999958       8.91966945E-09
  -8.93000031       9.23600130E-09
  -8.92000008       9.53108792E-09
  -8.90999985       9.80345227E-09
  -8.89999962       1.00513509E-08
  -8.89000034       1.02726423E-08
  -8.88000011       1.04647322E-08
  -8.86999989       1.06247144E-08
  -8.85999966       1.07496607E-08
  -8.85000038       1.08368559E-08
  -8.84000015       1.08840226E-08
  -8.82999992       1.08894511E-08
  -8.81999969       1.08519265E-08
  -8.81000042       1.07706226E-08
  -8.80000019       1.06449933E-08
  -8.78999996       1.04745972E-08
  -8.77999973       1.02591322E-08
  -8.77000046       9.99847405E-09
  -8.76000023       9.69283143E-09
  -8.75000000       9.34285183E-09
  -8.73999977       8.94964103E-09
  -8.72999954       8.51479243E-09
  -8.72000027       8.04026090E-09
  -8.71000004       7.52814966E-09
  -8.69999981       6.98061342E-09
  -8.68999958       6.39968434E-09
  -8.68000031       5.78730930E-09
  -8.67000008       5.14539567E-09
  -8.65999985       4.47594051E-09
  -8.64999962       3.78118781E-09
  -8.64000034       3.06361314E-09
  -8.63000011       2.32585484E-09
  -8.61999989       1.57066138E-09
  -8.60999966       8.00514655E-10
  -8.60000038       1.75603004E-11
  -8.59000015      -7.76575693E-10
  -8.57999992      -1.58082925E-09
  -8.56999969      -2.39454989E-09
  -8.56000042      -3.21724403E-09
  -8.55000019      -4.04833855E-09
  -8.53999996      -4.88690333E-09
  -8.52999973      -5.73155479E-09
  -8.52000046      -6.58035004E-09
  -8.51000023      -7.43097495E-09
  -8.50000000      -8.28086666E-09
  -8.48999977      -9.12762488E-09
  -8.47999954      -9.96908955E-09
  -8.47000027      -1.08035794E-08
  -8.46000004      -1.16298864E-08
  -8.44999981      -1.24472761E-08
  -8.43999958      -1.32554323E-08
  -8.43000031      -1.40541614E-08
  -8.42000008      -1.48433825E-08
  -8.40999985      -1.56230229E-08
  -8.39999962      -1.63929954E-08
  -8.39000034      -1.71531660E-08
  -8.38000011      -1.79034494E-08
  -8.36999989      -1.86437639E-08
  -8.35999966      -1.93740508E-08
  -8.35000038      -2.00942072E-08
  -8.34000015      -2.08040198E-08
  -8.32999992      -2.15031513E-08
  -8.31999969      -2.21910081E-08
  -8.31000042      -2.28667840E-08
  -8.30000019      -2.35295801E-08
  -8.28999996      -2.41783944E-08
  -8.27999973      -2.48122713E-08
  -8.27000046      -2.54303441E-08
  -8.26000023      -2.60318895E-08
  -8.25000000      -2.66162861E-08
  -8.23999977      -2.71829474E-08
  -8.22999954      -2.77312182E-08
  -8.22000027      -2.82603612E-08
  -8.21000004      -2.87694704E-08
  -8.19999981      -2.92575137E-08
  -8.18999958      -2.97234450E-08
  -8.18000031      -3.01662340E-08
  -8.17000008      -3.05850314E-08
  -8.15999985      -3.09791552E-08
  -8.14999962      -3.13480868E-08
  -8.14000034      -3.16913429E-08
  -8.13000011      -3.20083657E-08
  -8.11999989      -3.22983880E-08
  -8.10999966      -3.25603331E-08
  -8.10000038      -3.27927978E-08
  -8.09000015      -3.29941763E-08
  -8.07999992      -3.31627241E-08
  -8.06999969      -3.32967787E-08
  -8.06000042      -3.33948336E-08
  -8.05000019      -3.34556489E-08
  -8.03999996      -3.34782229E-08
  -8.02999973      -3.34617205E-08
  -8.02000046      -3.34054633E-08
  -8.01000023      -3.33088224E-08
  -8.00000000      -3.31712435E-08
  -7.98999977      -3.29923573E-08
  -7.98000002      -3.27720606E-08
  -7.96999979      -3.25106235E-08
  -7.96000004      -3.22087992E-08
  -7.94999981      -3.18677422E-08
  -7.94000006      -3.14889270E-08
  -7.92999983      -3.10739949E-08
  -7.92000008      -3.06245340E-08
  -7.90999985      -3.01420435E-08
  -7.90000010      -2.96278966E-08
  -7.88999987      -2.90834308E-08
  -7.88000011      -2.85100903E-08
  -7.86999989      -2.79097065E-08
  -7.86000013      -2.72845320E-08
  -7.84999990      -2.66373146E-08
  -7.84000015      -2.59712785E-08
  -7.82999992      -2.52898147E-08
  -7.82000017      -2.45964049E-08
  -7.80999994      -2.38943922E-08
  -7.80000019      -2.31868995E-08
  -7.78999996      -2.24767831E-08
  -7.78000021      -2.17667857E-08
  -7.76999998      -2.10595701E-08
  -7.76000023      -2.03578612E-08
  -7.75000000      -1.96643555E-08
  -7.73999977      -1.89816731E-08
  -7.73000002      -1.83122157E-08
  -7.71999979      -1.76580564E-08
  -7.71000004      -1.70208310E-08
  -7.69999981      -1.64017830E-08
  -7.69000006      -1.58018452E-08
  -7.67999983      -1.52218398E-08
  -7.67000008      -1.46626036E-08
  -7.65999985      -1.41250664E-08
  -7.65000010      -1.36102702E-08
  -7.63999987      -1.31192017E-08
  -7.63000011      -1.26526665E-08
  -7.61999989      -1.22110926E-08
  -7.61000013      -1.17945120E-08
  -7.59999990      -1.14025189E-08
  -7.59000015      -1.10344702E-08
  -7.57999992      -1.06896225E-08
  -7.57000017      -1.03673541E-08
  -7.55999994      -1.00672528E-08
  -7.55000019      -9.78903092E-09
  -7.53999996      -9.53251167E-09
  -7.53000021      -9.29735844E-09
  -7.51999998      -9.08303655E-09
  -7.51000023      -8.88870311E-09
  -7.50000000      -8.71328165E-09
  -7.48999977      -8.55563353E-09
  -7.48000002      -8.41471159E-09
  -7.46999979      -8.28970492E-09
  -7.46000004      -8.18005752E-09
  -7.44999981      -8.08540968E-09
  -7.44000006      -8.00539279E-09