  -16.0000000       0.00000000    
  -15.9899998       0.00000000    
  -15.9799995       0.00000000    
  -15.9700003       0.00000000    
  -15.9600000       0.00000000    
  -15.9499998       0.00000000    
  -15.9399996       0.00000000    
  -15.9300003       0.00000000    
  -15.9200001       0.00000000    
  -15.9099998       0.00000000    
  -15.8999996       0.00000000    
  -15.8900003       0.00000000    
  -15.8800001       0.00000000    
  -15.8699999      -0.00000000    
  -15.8599997       0.00000000    
  -15.8500004       2.80259693E-45
  -15.8400002       3.36311631E-44
  -15.8299999       2.84463588E-43
  -15.8199997       1.94780487E-42
  -15.8100004       1.12972682E-41
  -15.8000002       5.67820151E-41
  -15.7900000       2.51683013E-40
  -15.7799997       9.97480681E-40
  -15.7700005       3.57287388E-39
  -15.7600002       1.16652716E-38
  -15.7500000       3.49543168E-38
  -15.7399998       9.66489115E-38
  -15.7299995       2.47642038E-37
  -15.7200003       5.89854145E-37
  -15.7100000       1.30870263E-36
  -15.6999998       2.70694057E-36
  -15.6899996       5.21677312E-36
  -15.6800003       9.34390372E-36
  -15.6700001       1.54719493E-35
  -15.6599998       2.34458318E-35
  -15.6499996       3.18898646E-35
  -15.6400003       3.73418711E-35
  -15.6300001       3.35299461E-35
  -15.6199999       1.14652922E-35
  -15.6099997      -3.86513448E-35
  -15.6000004      -1.22683763E-34
  -15.5900002      -2.34621326E-34
  -15.5799999      -3.46851006E-34
  -15.5699997      -4.02920387E-34
  -15.5600004      -3.20283433E-34
  -15.5500002      -1.21017201E-35
  -15.5400000       5.65912322E-34
  -15.5299997       1.34830993E-33
  -15.5200005       2.09585867E-33
  -15.5100002       2.37990696E-33
  -15.5000000       1.67247059E-33
  -15.4899998      -4.17156956E-34
  -15.4799995      -3.78038542E-33
  -15.4700003      -7.45029642E-33
  -15.4600000      -9.49304258E-33
  -15.4499998      -7.45250194E-33
  -15.4399996       4.58064710E-34
  -15.4300003       1.35737183E-32
  -15.4200001       2.71238327E-32
  -15.4099998       3.19910170E-32
  -15.3999996       1.73328626E-32
  -15.3900003      -2.32013976E-32
  -15.3800001      -8.28128247E-32
  -15.3699999      -1.34369337E-31
  -15.3599997      -1.31092588E-31
  -15.3500004      -2.17345967E-32
  -15.3400002       2.17273603E-31
  -15.3299999       5.39640821E-31
  -15.3199997       7.96765588E-31
  -15.3100004       7.45321817E-31
  -15.3000002       1.24601261E-31
  -15.2900000      -1.18705153E-30
  -15.2799997      -2.97048495E-30
  -15.2700005      -4.50892625E-30
  -15.2600002      -4.61139362E-30
  -15.2500000      -1.94849699E-30
  -15.2399998       4.25346857E-30
  -15.2299995       1.32941196E-29
  -15.2200003       2.22262652E-29
  -15.2100000       2.57931251E-29
  -15.1999998       1.76490084E-29
  -15.1899996      -6.87680897E-30
  -15.1800003      -4.68998006E-29
  -15.1700001      -9.23426774E-29
  -15.1599998      -1.22727924E-28
  -15.1499996      -1.10780297E-28
  -15.1400003      -3.22397633E-29
  -15.1300001       1.19121885E-28
  -15.1199999       3.15771718E-28
  -15.1099997       4.87862225E-28
  -15.1000004       5.31183468E-28
  -15.0900002       3.38362202E-28
  -15.0799999      -1.47786114E-28
  -15.0699997      -8.72245005E-28
  -15.0600004      -1.62391158E-27
  -15.0500002      -2.04445052E-27
  -15.0400000      -1.71911704E-27
  -15.0299997      -3.54556456E-28
  -15.0200005       1.99388561E-27
  -15.0100002       4.73289233E-27
  -15.0000000       6.70361748E-27
  -14.9899998       6.43360711E-27
  -14.9799995       2.71389934E-27
  -14.9700003      -4.59575688E-27
  -14.9600000      -1.38144105E-26
  -14.9499998      -2.11747662E-26
  -14.9399996      -2.15030032E-26
  -14.9300003      -1.00960969E-26
  -14.9200001       1.44230398E-26
  -14.9099998       4.71549433E-26
  -14.8999996       7.53878499E-26
  -14.8900003       8.02254223E-26
  -14.8800001       4.26021559E-26
  -14.8699999      -4.65949846E-26
  -14.8599997      -1.74908039E-25
  -14.8500004      -3.00270782E-25
  -14.8400002      -3.53061527E-25
  -14.8299999      -2.53754786E-25
  -14.8199997       5.27449041E-26
  -14.8100004       5.52749610E-25
  -14.8000002       1.12528346E-24
  -14.7900000       1.53226607E-24
  -14.7799997       1.46016004E-24
  -14.7700005       6.24598125E-25
  -14.7600002      -1.07405138E-24
  -14.7500000      -3.38788464E-24
  -14.7399998      -5.62435225E-24
  -14.7299995      -6.69924820E-24
  -14.7200003      -5.40258885E-24
  -14.7100000      -8.77054568E-25
  -14.6999998       6.78916730E-24
  -14.6899996       1.60597549E-23
  -14.6800003       2.38134341E-23
  -14.6700001       2.58326356E-23
  -14.6599998       1.80374655E-23
  -14.6499996      -1.68139647E-24
  -14.6400003      -3.15144788E-23
  -14.6300001      -6.44493364E-23
  -14.6199999      -8.85348439E-23
  -14.6099997      -8.93532776E-23
  -14.6000004      -5.47447948E-23
  -14.5900002       1.90973349E-23
  -14.5799999       1.22031796E-22
  -14.5699997       2.27409086E-22
  -14.5600004       2.94994498E-22
  -14.5500002       2.80689231E-22
  -14.5400000       1.52189696E-22
  -14.5299997      -9.30447175E-23
  -14.5200005      -4.13640263E-22
  -14.5100002      -7.21190221E-22
  -14.5000000      -8.94060366E-22
  -14.4899998      -8.09801590E-22
  -14.4799995      -3.91290660E-22
  -14.4700003       3.45560482E-22
  -14.4600000       1.26010364E-21
  -14.4499998       2.08956950E-21
  -14.4399996       2.49832133E-21
  -14.4300003       2.17311636E-21
  -14.4200001       9.46276142E-22
  -14.4099998      -1.08840167E-21
  -14.3999996      -3.51220969E-21
  -14.3900003      -5.61264058E-21
  -14.3800001      -6.53138379E-21
  -14.3699999      -5.51687181E-21
  -14.3599997      -2.22712705E-21
  -14.3500004       3.00758468E-21
  -14.3400002       9.06855069E-21
  -14.3299999       1.41681062E-20
  -14.3199997       1.62401711E-20
  -14.3100004       1.35541104E-20
  -14.3000002       5.41205251E-21
  -14.2900000      -7.28177756E-21
  -14.2799997      -2.18118125E-20
  -14.2700005      -3.39818042E-20
  -14.2600002      -3.90374158E-20
  -14.2500000      -3.30512066E-20
  -14.2399998      -1.44514221E-20
  -14.2299995       1.47606099E-20
  -14.2200003       4.85848798E-20
  -14.2100000       7.77466541E-20
  -14.1999998       9.16588820E-20
  -14.1899996       8.13460400E-20
  -14.1800003       4.26809590E-20
  -14.1700001      -2.09773666E-20
  -14.1599998      -9.77055141E-20
  -14.1499996      -1.68226836E-19
  -14.1400003      -2.09639711E-19
  -14.1300001      -2.01200026E-19
  -14.1199999      -1.30984851E-19
  -14.1099997      -1.72709233E-21
  -14.1000004       1.66057387E-19
  -14.0900002       3.35203750E-19
  -14.0799999       4.58016574E-19
  -14.0699997       4.86882024E-19
  -14.0600004       3.87532566E-19
  -14.0500002       1.51977700E-19
  -14.0400000      -1.92495036E-19
  -14.0299997      -5.81619950E-19
  -14.0200005      -9.21975821E-19
  -14.0100002      -1.10855375E-18
  -14.0000000      -1.04978381E-18
  -13.9899998      -6.95245718E-19
  -13.9799995      -5.94575227E-20
  -13.9700003       7.65425117E-19
  -13.9600000       1.61400122E-18
  -13.9499998       2.27213362E-18
  -13.9399996       2.52012630E-18
  -13.9300003       2.18795269E-18
  -13.9200001       1.21121493E-18
  -13.9099998      -3.26387246E-19
  -13.8999996      -2.17820478E-18
  -13.8900003      -3.95776517E-18
  -13.8800001      -5.20286555E-18
  -13.8699999      -5.47379739E-18
  -13.8599997      -4.46854010E-18
  -13.8500004      -2.12952706E-18
  -13.8400002       1.28678853E-18
  -13.8299999       5.20316913E-18
  -13.8199997       8.79262220E-18
  -13.8100004       1.11257000E-17
  -13.8000002       1.13731130E-17
  -13.7900000       9.02474562E-18
  -13.7799997       4.07484762E-18
  -13.7700005      -2.87769600E-18
  -13.7600002      -1.06532872E-17
  -13.7500000      -1.76556954E-17
  -13.7399998      -2.21611546E-17
  -13.7299995      -2.26854515E-17
  -13.7200003      -1.83568104E-17
  -13.7100000      -9.21087450E-18
  -13.6999998       3.66923258E-18
  -13.6899996       1.82197432E-17
  -13.6800003       3.16823608E-17
  -13.6700001       4.10758602E-17
  -13.6599998       4.37766049E-17
  -13.6499996       3.81010772E-17
  -13.6400003       2.37739814E-17
  -13.6300001       2.17798454E-18
  -13.6199999      -2.36846724E-17
  -13.6099997      -4.95393671E-17
  -13.6000004      -7.04617989E-17
  -13.5900002      -8.16920000E-17
  -13.5799999      -7.95173090E-17
  -13.5699997      -6.20824395E-17
  -13.5600004      -2.99855619E-17
  -13.5500002       1.34604570E-17
  -13.5400000       6.23832950E-17
  -13.5299997       1.08953649E-16
  -13.5200005       1.44404347E-16
  -13.5100002       1.60370640E-16
  -13.5000000       1.50394128E-16
  -13.4899998       1.11378572E-16
  -13.4799995       4.47520891E-17
  -13.4700003      -4.29144644E-17
  -13.4600000      -1.40049579E-16
  -13.4499998      -2.31121172E-16
  -13.4399996      -2.98589278E-16
  -13.4300003      -3.25626676E-16
  -13.4200001      -2.99290727E-16
  -13.4099998      -2.13670295E-16
  -13.3999996      -7.24221971E-17
  -13.3900003       1.09911081E-16
  -13.3800001       3.08324599E-16
  -13.3699999       4.89822477E-16
  -13.3599997       6.17919747E-16
  -13.3500004       6.58755523E-16
  -13.3400002       5.87982214E-16
  -13.3299999       3.97254852E-16
  -13.3199997       9.89621812E-17
  -13.3100004      -2.72103061E-16
  -13.3000002      -6.61094286E-16
  -13.2900000      -9.99822127E-16
  -13.2799997      -1.21733849E-15
  -13.2700005      -1.25301309E-15
  -13.2600002      -1.06992162E-15
  -13.2500000      -6.65900563E-16
  -13.2399998      -7.96142017E-17
  -13.2299995       6.10429593E-16
  -13.2200003       1.29485503E-15
  -13.2100000       1.84978295E-15
  -13.1999998       2.15833482E-15
  -13.1899996       2.13362538E-15
  -13.1800003       1.73877431E-15
  -13.1700001       9.99540065E-16
  -13.1599998       6.21987419E-18
  -13.1499996      -1.09665462E-15
  -13.1400003      -2.13186737E-15
  -13.1300001      -2.91894245E-15
  -13.1199999      -3.30619554E-15
  -13.1099997      -3.19928770E-15
  -13.1000004      -2.58061780E-15
  -13.0900002      -1.51554767E-15
  -13.0799999      -1.44079100E-16
  -13.0699997       1.34048830E-15
  -13.0600004       2.72178389E-15
  -13.0500002       3.79378603E-15
  -13.0400000       4.39139403E-15
  -13.0299997       4.41323859E-15
  -13.0200005       3.83383121E-15
  -13.0100002       2.70462025E-15
  -13.0000000       1.14563355E-15
  -12.9899998      -6.69297536E-16
  -12.9799995      -2.53070787E-15
  -12.9700003      -4.21282805E-15
  -12.9600000      -5.49330343E-15
  -12.9499998      -6.17371102E-15
  -12.9399996      -6.10167172E-15
  -12.9300003      -5.19456084E-15
  -12.9200001      -3.46291908E-15
  -12.9099998      -1.02934504E-15
  -12.8999996       1.86330858E-15
  -12.8900003       4.86098444E-15
  -12.8800001       7.52956894E-15
  -12.8699999       9.40901054E-15
  -12.8599997       1.00855832E-14
  -12.8500004       9.27164636E-15
  -12.8400002       6.87766105E-15
  -12.8299999       3.05981525E-15
  -12.8199997      -1.77093615E-15
  -12.8100004      -6.98602197E-15
  -12.8000002      -1.18208606E-14
  -12.7900000      -1.54890139E-14
  -12.7799997      -1.73087761E-14
  -12.7700005      -1.68179069E-14
  -12.7600002      -1.38536186E-14
  -12.7500000      -8.58217509E-15
  -12.7399998      -1.47338512E-15
  -12.7299995       6.77207076E-15
  -12.7200003       1.53240610E-14
  -12.7100000       2.33289747E-14
  -12.6999998       2.99966452E-14
  -12.6899996       3.46519857E-14
  -12.6800003       3.67466779E-14
  -12.6700001       3.58392583E-14
  -12.6599998       3.15627583E-14
  -12.6499996       2.36042824E-14
  -12.6400003       1.17188389E-14
  -12.6300001      -4.20892069E-15
  -12.6199999      -2.40547514E-14
  -12.6099997      -4.73105746E-14
  -12.6000004      -7.29324438E-14
  -12.5900002      -9.92125151E-14
  -12.5799999      -1.23707034E-13
  -12.5699997      -1.43245862E-13
  -12.5600004      -1.54038390E-13
  -12.5500002      -1.51880583E-13
  -12.5400000      -1.32458972E-13
  -12.5299997      -9.17424367E-14
  -12.5200005      -2.64519241E-14
  -12.5100002       6.54033644E-14
  -12.5000000       1.83937758E-13
  -12.4899998       3.26766988E-13
  -12.4799995       4.88385699E-13
  -12.4700003       6.59595479E-13
  -12.4600000       8.27049421E-13
  -12.4499998       9.72992845E-13
  -12.4399996       1.07528580E-12
  -12.4300003       1.10777555E-12
  -12.4200001       1.04107434E-12
  -12.4099998       8.43742502E-13
  -12.3999996       4.83856553E-13
  -12.3900003      -6.91248071E-14
  -12.3800001      -8.42283220E-13
  -12.3699999      -1.85709911E-12
  -12.3599997      -3.12733693E-12
  -12.3500004      -4.65711063E-12
  -12.3400002      -6.43918903E-12
  -12.3299999      -8.45365011E-12
  -12.3199997      -1.06669482E-11
  -12.3100004      -1.30314752E-11
  -12.3000002      -1.54856822E-11
  -12.2900000      -1.79548824E-11
  -12.2799997      -2.03527733E-11
  -12.2700005      -2.25837751E-11
  -12.2600002      -2.45461863E-11
  -12.2500000      -2.61360412E-11
  -12.2399998      -2.72514997E-11
  -12.2299995      -2.77976149E-11
  -12.2200003      -2.76910560E-11
  -12.2100000      -2.68643805E-11
  -12.1999998      -2.52695243E-11
  -12.1899996      -2.28803920E-11
  -12.1800003      -1.96939982E-11
  -12.1700001      -1.57304274E-11
  -12.1599998      -1.10316183E-11
  -12.1499996      -5.65899150E-12
  -12.1400003       3.09600761E-13
  -12.1300001       6.78334645E-12
  -12.1199999       1.36621929E-11
  -12.1099997       2.08405428E-11
  -12.1000004       2.82107324E-11
  -12.0900002       3.56662824E-11
  -12.0799999       4.31047802E-11
  -12.0699997       5.04302988E-11
  -12.0600004       5.75554257E-11
  -12.0500002       6.44025805E-11
  -12.0400000       7.09045184E-11
  -12.0299997       7.70039796E-11
  -12.0200005       8.26522600E-11
  -12.0100002       8.78068104E-11
  -12.0000000       9.24281623E-11
  -11.9899998       9.64760910E-11
  -11.9799995       9.99061597E-11
  -11.9700003       1.02666285E-10
  -11.9600000       1.04694635E-10
  -11.9499998       1.05918607E-10
  -11.9399996       1.06255366E-10
  -11.9300003       1.05614281E-10
  -11.9200001       1.03900007E-10
  -11.9099998       1.01017500E-10
  -11.8999996       9.68769509E-11
  -11.8900003       9.13995338E-11
  -11.8800001       8.45224654E-11
  -11.8699999       7.62038557E-11
  -11.8599997       6.64266350E-11
  -11.8500004       5.52015933E-11
  -11.8400002       4.25692884E-11
  -11.8299999       2.86004172E-11
  -11.8199997       1.33950004E-11
  -11.8100004      -2.91992559E-12
  -11.8000002      -2.01944780E-11
  -11.7900000      -3.82606967E-11
  -11.7799997      -5.69388738E-11
  -11.7700005      -7.60437130E-11
  -11.7600002      -9.53904733E-11
  -11.7500000      -1.14800253E-10
  -11.7399998      -1.34103728E-10
  -11.7299995      -1.53143137E-10
  -11.7200003      -1.71772652E-10
  -11.7100000      -1.89857380E-10
  -11.6999998      -2.07271325E-10
  -11.6899996      -2.23894764E-10
  -11.6800003      -2.39612163E-10
  -11.6700001      -2.54310295E-10
  -11.6599998      -2.67876776E-10
  -11.6499996      -2.80199280E-10
  -11.6400003      -2.91164842E-10
  -11.6300001      -3.00659275E-10
  -11.6199999      -3.08566117E-10
  -11.6099997      -3.14765797E-10
  -11.6000004      -3.19134746E-10
  -11.5900002      -3.21545957E-10
  -11.5799999      -3.21868560E-10
  -11.5699997      -3.19971716E-10
  -11.5600004      -3.15727139E-10
  -11.5500002      -3.09014564E-10
  -11.5400000      -2.99727271E-10
  -11.5299997      -2.87777163E-10
  -11.5200005      -2.73099349E-10
  -11.5100002      -2.55655858E-10
  -11.5000000      -2.35436365E-10
  -11.4899998      -2.12458065E-10
  -11.4799995      -1.86763688E-10
  -11.4700003      -1.58417945E-10
  -11.4600000      -1.27502203E-10
  -11.4499998      -9.41103584E-11
  -11.4399996      -5.83414497E-11
  -11.4300003      -2.02948283E-11
  -11.4200001       1.99353971E-11
  -11.4099998       6.22652693E-11
  -11.3999996       1.06623009E-10
  -11.3900003       1.52950042E-10
  -11.3800001       2.01198516E-10
  -11.3699999       2.51324961E-10
  -11.3599997       3.03283482E-10
  -11.3500004       3.57016694E-10
  -11.3400002       4.12446272E-10
  -11.3299999       4.69466688E-10
  -11.3199997       5.27941524E-10
  -11.3100004       5.87704274E-10
  -11.3000002       6.48562259E-10
  -11.2900000       7.10304482E-10
  -11.2799997       7.72710340E-10
  -11.2700005       8.35557179E-10
  -11.2600002       8.98627617E-10
  -11.2500000       9.61712154E-10
  -11.2399998       1.02461029E-09
  -11.2299995       1.08712983E-09
  -11.2200003       1.14908516E-09
  -11.2100000       1.21029808E-09
  -11.1999998       1.27059896E-09
  -11.1899996       1.32983247E-09
  -11.1800003       1.38786249E-09
  -11.1700001       1.44457923E-09
  -11.1599998       1.49990265E-09
  -11.1499996       1.55378577E-09
  -11.1400003       1.60620939E-09
  -11.1300001       1.65718184E-09
  -11.1199999       1.70672876E-09
  -11.1099997       1.75488879E-09
  -11.1000004       1.80170812E-09
  -11.0900002       1.84723692E-09
  -11.0799999       1.89153471E-09
  -11.0699997       1.93466065E-09
  -11.0600004       1.97668748E-09
  -11.0500002       2.01769224E-09
  -11.0400000       2.05775863E-09
  -11.0299997       2.09697215E-09
  -11.0200005       2.13541540E-09
  -11.0100002       2.17316365E-09
  -11.0000000       2.21028462E-09
  -10.9899998       2.24683649E-09
  -10.9799995       2.28287300E-09
  -10.9700003       2.31845032E-09
  -10.9600000       2.35362130E-09
  -10.9499998       2.38844144E-09
  -10.9399996       2.42296294E-09
  -10.9300003       2.45722420E-09
  -10.9200001       2.49125276E-09
  -10.9099998       2.52505306E-09
  -10.8999996       2.55860200E-09
  -10.8900003       2.59186561E-09
  -10.8800001       2.62480349E-09
  -10.8699999       2.65738320E-09
  -10.8599997       2.68959766E-09
  -10.8500004       2.72147194E-09
  -10.8400002       2.75305734E-09
  -10.8299999       2.78442380E-09
  -10.8199997       2.81563017E-09
  -10.8100004       2.84672774E-09
  -10.8000002       2.87770718E-09
  -10.7900000       2.90851521E-09
  -10.7799997       2.93903879E-09
  -10.7700005       2.96912117E-09
  -10.7600002       2.99857494E-09
  -10.7500000       3.02722070E-09
  -10.7399998       3.05490300E-09
  -10.7299995       3.08148995E-09
  -10.7200003       3.10691228E-09
  -10.7100000       3.13113491E-09
  -10.6999998       3.15414272E-09
  -10.6899996       3.17595306E-09
  -10.6800003       3.19657212E-09
  -10.6700001       3.21602411E-09
  -10.6599998       3.23432658E-09
  -10.6499996       3.25149752E-09
  -10.6400003       3.26757577E-09
  -10.6300001       3.28260241E-09
  -10.6199999       3.29665140E-09
  -10.6099997       3.30979866E-09
  -10.6000004       3.32211814E-09
  -10.5900002       3.33369998E-09
  -10.5799999       3.34462236E-09
  -10.5699997       3.35496808E-09
  -10.5600004       3.36481665E-09
  -10.5500002       3.37427752E-09
  -10.5400000       3.38349726E-09
  -10.5299997       3.39264861E-09
  -10.5200005       3.40194051E-09
  -10.5100002       3.41159567E-09
  -10.5000000       3.42183637E-09
  -10.4899998       3.43289486E-09
  -10.4799995       3.44494744E-09
  -10.4700003       3.45815288E-09
  -10.4600000       3.47258955E-09
  -10.4499998       3.48829921E-09
  -10.4399996       3.50528029E-09
  -10.4300003       3.52348573E-09
  -10.4200001       3.54282581E-09
  -10.4099998       3.56319863E-09
  -10.3999996       3.58448538E-09
  -10.3900003       3.60655084E-09
  -10.3800001       3.62929842E-09
  -10.3699999       3.65264152E-09
  -10.3599997       3.67655373E-09
  -10.3500004       3.70106079E-09
  -10.3400002       3.72625308E-09
  -10.3299999       3.75226117E-09
  -10.3199997       3.77921072E-09
  -10.3100004       3.80724652E-09
  -10.3000002       3.83644716E-09
  -10.2900000       3.86683618E-09
  -10.2799997       3.89839716E-09
  -10.2700005       3.93105548E-09
  -10.2600002       3.96475874E-09
  -10.2500000       3.99947098E-09
  -10.2399998       4.03526235E-09
  -10.2299995       4.07227363E-09
  -10.2200003       4.11072021E-09
  -10.2100000       4.15087609E-09
  -10.1999998       4.19298996E-09
  -10.1899996       4.23725499E-09
  -10.1800003       4.28377334E-09
  -10.1700001       4.33254277E-09
  -10.1599998       4.38346692E-09
  -10.1499996       4.43638237E-09
  -10.1400003       4.49112214E-09
  -10.1300001       4.54757076E-09
  -10.1199999       4.60570426E-09
  -10.1099997       4.66557948E-09
  -10.1000004       4.72734518E-09
  -10.0900002       4.79118123E-09
  -10.0799999       4.85725282E-09
  -10.0699997       4.92572383E-09
  -10.0600004       4.99671327E-09
  -10.0500002       5.07026510E-09
  -10.0400000       5.14641307E-09
  -10.0299997       5.22520516E-09
  -10.0200005       5.30669686E-09
  -10.0100002       5.39098144E-09
  -10.0000000       5.47819035E-09
  -9.98999977       5.56848700E-09
  -9.97999954       5.66203129E-09
  -9.97000027       5.75895553E-09
  -9.96000004       5.85941384E-09
  -9.94999981       5.96354566E-09
  -9.93999958       6.07149264E-09
  -9.93000031       6.18344353E-09
  -9.92000008       6.29962171E-09
  -9.90999985       6.42026832E-09
  -9.89999962       6.54559873E-09
  -9.89000034       6.67576838E-09
  -9.88000011       6.81082879E-09
  -9.86999989       6.95068358E-09
  -9.85999966       7.09512404E-09
  -9.85000038       7.24384863E-09
  -9.84000015       7.39648920E-09
  -9.82999992       7.55275398E-09
  -9.81999969       7.71244668E-09
  -9.81000042       7.87554733E-09
  -9.80000019       8.04220068E-09
  -9.78999996       8.21270874E-09
  -9.77999973       8.38744718E-09
  -9.77000046       8.56678994E-09
  -9.76000023       8.75114115E-09
  -9.75000000       8.94079211E-09
  -9.73999977       9.13601372E-09
  -9.72999954       9.33698807E-09
  -9.72000027       9.54394075E-09
  -9.71000004       9.75708847E-09
  -9.69999981       9.97674299E-09
  -9.68999958       1.02032214E-08
  -9.68000031       1.04368389E-08
  -9.67000008       1.06778515E-08
  -9.65999985       1.09264198E-08
  -9.64999962       1.11825260E-08
  -9.64000034       1.14460539E-08
  -9.63000011       1.17166907E-08
  -9.61999989       1.19941062E-08
  -9.60999966       1.22778125E-08
  -9.60000038       1.25673116E-08
  -9.59000015       1.28621247E-08
  -9.57999992       1.31616424E-08
  -9.56999969       1.34651250E-08
  -9.56000042       1.37716425E-08
  -9.55000019       1.40799905E-08
  -9.53999996       1.43887258E-08
  -9.52999973       1.46962202E-08
  -9.52000046       1.50006390E-08
  -9.51000023       1.53001611E-08
  -9.50000000       1.55929527E-08
  -9.48999977       1.58773386E-08
  -9.47999954       1.61518088E-08
  -9.47000027       1.64149867E-08
  -9.46000004       1.66657053E-08
  -9.44999981       1.69028826E-08
  -9.43999958       1.71255738E-08
  -9.43000031       1.73329937E-08
  -9.42000008       1.75245294E-08
  -9.40999985       1.76999002E-08
  -9.39999962       1.78592234E-08
  -9.39000034       1.80030000E-08
  -9.38000011       1.81322086E-08
  -9.36999989       1.82482847E-08
  -9.35999966       1.83530116E-08
  -9.35000038       1.84484197E-08
  -9.34000015       1.85367028E-08
  -9.32999992       1.86201206E-08
  -9.31999969       1.87009928E-08
  -9.31000042       1.87816482E-08
  -9.30000019       1.88645437E-08
  -9.28999996       1.89522211E-08
  -9.27999973       1.90473681E-08
  -9.27000046       1.91527718E-08
  -9.26000023       1.92712388E-08
  -9.25000000       1.94054923E-08
  -9.23999977       1.95580938E-08
  -9.22999954       1.97313490E-08
  -9.22000027       1.99273238E-08
  -9.21000004       2.01477945E-08
  -9.19999981       2.03943777E-08
  -9.18999958       2.06685300E-08
  -9.18000031       2.09717292E-08
  -9.17000008       2.13052651E-08
  -9.15999985       2.16702922E-08
  -9.14999962       2.20677432E-08
  -9.14000034       2.24980798E-08
  -9.13000011       2.29614159E-08
  -9.11999989       2.34572823E-08
  -9.10999966       2.39848159E-08
  -9.10000038       2.45427767E-08
  -9.09000015       2.51297863E-08
  -9.07999992       2.57442689E-08
  -9.06999969       2.63846456E-08
  -9.06000042       2.70493317E-08
  -9.05000019       2.77365171E-08
  -9.03999996       2.84442017E-08
  -9.02999973       2.91700673E-08
  -9.02000046       2.99113552E-08
  -9.01000023       3.06649852E-08
  -9.00000000       3.14276498E-08
  -8.98999977       3.21959206E-08
  -8.97999954       3.29664331E-08
  -8.97000027       3.37359474E-08
  -8.96000004       3.45015074E-08
  -8.94999981       3.52602072E-08
  -8.93999958       3.60092294E-08
  -8.93000031       3.67455186E-08
  -8.92000008       3.74659166E-08
  -8.90999985       3.81671796E-08
  -8.89999962       3.88460037E-08
  -8.89000034       3.94990565E-08
  -8.88000011       4.01234033E-08
  -8.86999989       4.07166283E-08
  -8.85999966       4.12766781E-08
  -8.85000038       4.18020925E-08
  -8.84000015       4.22917061E-08
  -8.82999992       4.27443609E-08
  -8.81999969       4.31592078E-08
  -8.81000042       4.35351879E-08
  -8.80000019       4.38714949E-08
  -8.78999996       4.41673187E-08
  -8.77999973       4.44224888E-08
  -8.77000046       4.46371473E-08
  -8.76000023       4.48121114E-08
  -8.75000000       4.49485462E-08
  -8.73999977       4.50481004E-08
  -8.72999954       4.51123086E-08
  -8.72000027       4.51427304E-08
  -8.71000004       4.51405917E-08
  -8.69999981       4.51068978E-08
  -8.68999958       4.50424764E-08
  -8.68000031       4.49482762E-08
  -8.67000008       4.48254909E-08
  -8.65999985       4.46755841E-08
  -8.64999962       4.45005561E-08
  -8.64000034       4.43026629E-08
  -8.63000011       4.40841426E-08
  -8.61999989       4.38472547E-08
  -8.60999966       4.35940350E-08
  -8.60000038       4.33262848E-08
  -8.59000015       4.30455707E-08
  -8.57999992       4.27534808E-08
  -8.56999969       4.24518625E-08
  -8.56000042       4.21427586E-08
  -8.55000019       4.18284785E-08
  -8.53999996       4.15115053E-08
  -8.52999973       4.11943972E-08
  -8.52000046       4.08794740E-08
  -8.51000023       4.05685512E-08
  -8.50000000       4.02631706E-08
  -8.48999977       3.99644335E-08
  -8.47999954       3.96732318E-08
  -8.47000027       3.93906419E-08
  -8.46000004       3.91179782E-08
  -8.44999981       3.88563848E-08
  -8.43999958       3.86076486E-08
  -8.43000031       3.83732086E-08
  -8.42000008       3.81546563E-08
  -8.40999985       3.79529226E-08
  -8.39999962       3.77686078E-08
  -8.39000034       3.76018612E-08
  -8.38000011       3.74524376E-08
  -8.36999989       3.73202056E-08
  -8.35999966       3.72049058E-08
  -8.35000038       3.71065703E-08
  -8.34000015       3.70252415E-08
  -8.32999992       3.69611151E-08
  -8.31999969       3.69143756E-08
  -8.31000042       3.68849129E-08
  -8.30000019       3.68721551E-08
  -8.28999996       3.68755089E-08
  -8.27999973       3.68940647E-08
  -8.27000046       3.69268243E-08
  -8.26000023       3.69730841E-08
  -8.25000000       3.70321374E-08
  -8.23999977       3.71040443E-08
  -8.22999954       3.71887410E-08
  -8.22000027       3.72863163E-08
  -8.21000004       3.73968518E-08
  -8.19999981       3.75205396E-08
  -8.18999958       3.76573013E-08
  -8.18000031       3.78073750E-08
  -8.17000008       3.79708105E-08
  -8.15999985       3.81482614E-08
  -8.14999962       3.83405805E-08
  -8.14000034       3.85492243E-08
  -8.13000011       3.87757879E-08
  -8.11999989       3.90223889E-08
  -8.10999966       3.92910664E-08
  -8.10000038       3.95838384E-08
  -8.09000015       3.99027407E-08
  -8.07999992       4.02496845E-08
  -8.06999969       4.06266203E-08
  -8.06000042       4.10352499E-08
  -8.05000019       4.14776231E-08
  -8.03999996       4.19554382E-08
  -8.02999973       4.24707416E-08
  -8.02000046       4.30249116E-08
  -8.01000023       4.36197354E-08
  -8.00000000       4.42561863E-08
  -7.98999977       4.49351596E-08
  -7.98000002       4.56568650E-08
  -7.96999979       4.64217322E-08
  -7.96000004       4.72293955E-08
  -7.94999981       4.80794284E-08
  -7.94000006       4.89712271E-08
  -7.92999983       4.99037824E-08
  -7.92000008       5.08761033E-08
  -7.90999985       5.18868717E-08
  -7.90000010       5.29348441E-08
  -7.88999987       5.40184466E-08
  -7.88000011       5.51360628E-08
  -7.86999989       5.62862397E-08
  -7.86000013       5.74671049E-08
  -7.84999990       5.86774114E-08
  -7.84000015       5.99153793E-08
  -7.82999992       6.11792430E-08
  -7.82000017       6.24675494E-08
  -7.80999994       6.37782378E-08
  -7.80000019       6.51098802E-08
  -7.78999996       6.64606716E-08
  -7.78000021       6.78289922E-08
  -7.76999998       6.92135771E-08
  -7.76000023       7.06125292E-08
  -7.75000000       7.20243278E-08
  -7.73999977       7.34473957E-08
  -7.73000002       7.48804325E-08
  -7.71999979       7.63214345E-08
  -7.71000004       7.77689380E-08
  -7.69999981       7.92214152E-08
  -7.69000006       8.06775731E-08
  -7.67999983       8.21363670E-08
  -7.67000008       8.35966958E-08
  -7.65999985       8.50576569E-08
  -7.65000010       8.65183551E-08
  -7.63999987       8.79782505E-08
  -7.63000011       8.94364334E-08
  -7.61999989       9.08918381E-08
  -7.61000013       9.23435337E-08
  -7.59999990       9.37909377E-08
  -7.59000015       9.52338297E-08
  -7.57999992       9.66717124E-08
  -7.57000017       9.81047421E-08
  -7.55999994       9.95333025E-08
  -7.55000019       1.00957941E-07
  -7.53999996       1.02379460E-07
  -7.53000021       1.03798250E-07
  -7.51999998       1.05214980E-07
  -7.51000023       1.06630253E-07
  -7.50000000       1.08044638E-07
  -7.48999977       1.09459002E-07
  -7.48000002       1.10874637E-07
  -7.46999979       1.12292632E-07
  -7.46000004       1.13714655E-07
  -7.44999981       1.15142633E-07
  -7.44000006       1.16577873E-07