  -16.0000000       0.00000000    
  -15.9899998       0.00000000    
  -15.9799995       0.00000000    
  -15.9700003       0.00000000    
  -15.9600000       0.00000000    
  -15.9499998       0.00000000    
  -15.9399996       0.00000000    
  -15.9300003       0.00000000    
  -15.9200001       0.00000000    
  -15.9099998       0.00000000    
  -15.8999996       0.00000000    
  -15.8900003      -9.31162830E-42
  -15.8800001       7.49867038E-40
  -15.8699999       2.29209759E-38
  -15.8599997       3.35044992E-37
  -15.8500004       3.33713727E-36
  -15.8400002       2.55520674E-35
  -15.8299999       1.59641052E-34
  -15.8199997       8.43186598E-34
  -15.8100004       3.85546462E-33
  -15.8000002       1.55262556E-32
  -15.7900000       5.57887444E-32
  -15.7799997       1.80672189E-31
  -15.7700005       5.31482326E-31
  -15.7600002       1.42856211E-30
  -15.7500000       3.52310741E-30
  -15.7399998       7.99120846E-30
  -15.7299995       1.66780448E-29
  -15.7200003       3.19602688E-29
  -15.7100000       5.59072967E-29
  -15.6999998       8.81794368E-29
  -15.6899996       1.22213026E-28
  -15.6800003       1.39931907E-28
  -15.6700001       1.06808933E-28
  -15.6599998      -2.84136327E-29
  -15.6499996      -3.22418945E-28
  -15.6400003      -8.06756839E-28
  -15.6300001      -1.43470456E-27
  -15.6199999      -2.01493526E-27
  -15.6099997      -2.16310687E-27
  -15.6000004      -1.32719367E-27
  -15.5900002       1.04582426E-27
  -15.5799999       5.16012330E-27
  -15.5699997       1.03828347E-26
  -15.5600004       1.48106463E-26
  -15.5500002       1.52472823E-26
  -15.5400000       8.01512493E-27
  -15.5299997      -9.15537252E-27
  -15.5200005      -3.44552133E-26
  -15.5100002      -5.96886057E-26
  -15.5000000      -7.02734551E-26
  -15.4899998      -4.95986865E-26
  -15.4799995       1.15595817E-26
  -15.4700003       1.02977114E-25
  -15.4600000       1.86816869E-25
  -15.4499998       2.02777830E-25
  -15.4399996       9.42260208E-26
  -15.4300003      -1.46261308E-25
  -15.4200001      -4.29864753E-25
  -15.4099998      -5.58164203E-25
  -15.3999996      -2.84176270E-25
  -15.3900003       5.32373826E-25
  -15.3800001       1.71066104E-24
  -15.3699999       2.58777931E-24
  -15.3599997       2.08476610E-24
  -15.3500004      -8.42261957E-25
  -15.3400002      -6.35502559E-24
  -15.3299999      -1.27634839E-23
  -15.3199997      -1.60382553E-23
  -15.3100004      -1.05885597E-23
  -15.3000002       8.13858014E-24
  -15.2900000       3.94915760E-23
  -15.2799997       7.34348345E-23
  -15.2700005       8.92057606E-23
  -15.2600002       6.00607265E-23
  -15.2500000      -3.40888191E-23
  -15.2399998      -1.88115495E-22
  -15.2299995      -3.54524643E-22
  -15.2200003      -4.39733889E-22
  -15.2100000      -3.26325427E-22
  -15.1999998       7.31671393E-23
  -15.1899996       7.40806781E-22
  -15.1800003       1.48623879E-21
  -15.1700001       1.93419950E-21
  -15.1599998       1.61182948E-21
  -15.1499996       1.52846660E-22
  -15.1400003      -2.42115422E-21
  -15.1300001      -5.45245269E-21
  -15.1199999      -7.59388476E-21
  -15.1099997      -7.10412760E-21
  -15.1000004      -2.54515659E-21
  -15.0900002       6.25497016E-21
  -15.0799999       1.73383486E-20
  -15.0699997       2.63764181E-20
  -15.0600004       2.75416926E-20
  -15.0500002       1.56627457E-20
  -15.0400000      -1.07534764E-20
  -15.0299997      -4.67323603E-20
  -15.0200005      -7.98440222E-20
  -15.0100002      -9.24764014E-20
  -15.0000000      -6.78995536E-20
  -14.9899998       1.02543860E-21
  -14.9799995       1.03565171E-19
  -14.9700003       2.07630644E-19
  -14.9600000       2.65156907E-19
  -14.9499998       2.27887871E-19
  -14.9399996       7.06090160E-20
  -14.9300003      -1.86240994E-19
  -14.9200001      -4.66051497E-19
  -14.9099998      -6.48287812E-19
  -14.8999996      -6.07658303E-19
  -14.8900003      -2.72830481E-19
  -14.8800001       3.15664090E-19
  -14.8699999       9.77316168E-19
  -14.8599997       1.42032753E-18
  -14.8500004       1.33789940E-18
  -14.8400002       5.54301070E-19
  -14.8299999      -8.29488757E-19
  -14.8199997      -2.36259885E-18
  -14.8100004      -3.31187939E-18
  -14.8000002      -2.90012025E-18
  -14.7900000      -6.75347217E-19
  -14.7799997       3.10876870E-18
  -14.7700005       7.27922496E-18
  -14.7600002       9.87389946E-18
  -14.7500000       8.70930112E-18
  -14.7399998       2.31831201E-18
  -14.7299995      -9.00767344E-18
  -14.7200003      -2.24982539E-17
  -14.7100000      -3.29689774E-17
  -14.6999998      -3.39866544E-17
  -14.6899996      -2.01062428E-17
  -14.6800003       1.03151879E-17
  -14.6700001       5.26628838E-17
  -14.6599998       9.51270939E-17
  -14.6499996       1.20287837E-16
  -14.6400003       1.09611966E-16
  -14.6300001       5.02665482E-17
  -14.6199999      -5.74609152E-17
  -14.6099997      -1.94707477E-16
  -14.6000004      -3.23331296E-16
  -14.5900002      -3.92022968E-16
  -14.5799999      -3.49585479E-16
  -14.5699997      -1.63329459E-16
  -14.5600004       1.61987507E-16
  -14.5500002       5.71045314E-16
  -14.5400000       9.57302979E-16
  -14.5299997       1.17957427E-15
  -14.5200005       1.09654450E-15
  -14.5100002       6.14236212E-16
  -14.5000000      -2.64632177E-16
  -14.4899998      -1.40503898E-15
  -14.4799995      -2.53459575E-15
  -14.4700003      -3.28188527E-15
  -14.4600000      -3.26145166E-15
  -14.4499998      -2.19451858E-15
  -14.4399996      -3.85955989E-17
  -14.4300003       2.91358222E-15
  -14.4200001       6.00967758E-15
  -14.4099998       8.32269078E-15
  -14.3999996       8.85576673E-15
  -14.3900003       6.84053559E-15
  -14.3800001       2.06172669E-15
  -14.3699999      -4.89166482E-15
  -14.3599997      -1.25572490E-14
  -14.3500004      -1.87948225E-14
  -14.3400002      -2.12654482E-14
  -14.3299999      -1.81214686E-14
  -14.3199997      -8.73922008E-15
  -14.3100004       5.73945502E-15
  -14.3000002       2.22944577E-14
  -14.2900000       3.65002726E-14
  -14.2799997       4.35820610E-14
  -14.2700005       3.98485058E-14
  -14.2600002       2.41093410E-14
  -14.2500000      -1.40901930E-15
  -14.2399998      -3.10796988E-14
  -14.2299995      -5.70251650E-14
  -14.2200003      -7.12462045E-14
  -14.2100000      -6.81878531E-14
  -14.1999998      -4.69224099E-14
  -14.1899996      -1.20946251E-14
  -14.1800003       2.69506792E-14
  -14.1700001       5.88758778E-14
  -14.1599998       7.42163899E-14
  -14.1499996       6.91362183E-14
  -14.1400003       4.75708916E-14
  -14.1300001       2.05570966E-14
  -14.1199999       2.40586791E-15
  -14.1099997       4.56702420E-15
  -14.1000004       2.91976187E-14
  -14.0900002       6.50981276E-14
  -14.0799999       8.84366162E-14
  -14.0699997       6.94311348E-14
  -14.0600004      -1.59155034E-14
  -14.0500002      -1.72184044E-13
  -14.0400000      -3.73851747E-13
  -14.0299997      -5.62691061E-13
  -14.0200005      -6.56889528E-13
  -14.0100002      -5.72304140E-13
  -14.0000000      -2.52077629E-13
  -13.9899998       3.03100942E-13
  -13.9799995       1.01407977E-12
  -13.9700003       1.72122613E-12
  -13.9600000       2.20723331E-12
  -13.9499998       2.24449951E-12
  -13.9399996       1.65936752E-12
  -13.9300003       3.98931024E-13
  -13.9200001      -1.41773160E-12
  -13.9099998      -3.48165984E-12
  -13.8999996      -5.32209953E-12
  -13.8900003      -6.38414191E-12
  -13.8800001      -6.14803304E-12
  -13.8699999      -4.27077514E-12
  -13.8599997      -7.21415495E-13
  -13.8500004       4.12337482E-12
  -13.8400002       9.45569664E-12
  -13.8299999       1.41091123E-11
  -13.8199997       1.67370701E-11
  -13.8100004       1.60855912E-11
  -13.8000002       1.13239860E-11
  -13.7900000       2.37265849E-12
  -13.7799997      -9.85175309E-12
  -13.7700005      -2.33598696E-11
  -13.7600002      -3.52540393E-11
  -13.7500000      -4.21692056E-11
  -13.7399998      -4.09655157E-11
  -13.7299995      -2.95742146E-11
  -13.7200003      -7.82604363E-12
  -13.7100000       2.19577082E-11
  -13.6999998       5.48347548E-11
  -13.6899996       8.37384884E-11
  -13.6800003       1.00648427E-10
  -13.6700001       9.83153281E-11
  -13.6599998       7.22438498E-11
  -13.6499996       2.24929554E-11
  -13.6400003      -4.52056378E-11
  -13.6300001      -1.19451934E-10
  -13.6199999      -1.84559701E-10
  -13.6099997      -2.23280255E-10
  -13.6000004      -2.20494636E-10
  -13.5900002      -1.67193717E-10
  -13.5799999      -6.38699649E-11
  -13.5699997       7.75740999E-11
  -13.5600004       2.34111147E-10
  -13.5500002       3.74407089E-10
  -13.5400000       4.64013467E-10
  -13.5299997       4.72243633E-10
  -13.5200005       3.79580894E-10
  -13.5100002       1.84169180E-10
  -13.5000000      -9.41239239E-11
  -13.4899998      -4.13371837E-10
  -13.4799995      -7.13795911E-10
  -13.4700003      -9.26608124E-10
  -13.4600000      -9.86687954E-10
  -13.4499998      -8.47348247E-10
  -13.4399996      -4.94584818E-10
  -13.4300003       4.23511538E-11
  -13.4200001       6.87285395E-10
  -13.4099998       1.32294509E-09
  -13.3999996       1.80743942E-09
  -13.3900003       2.00041295E-09
  -13.3800001       1.79530291E-09
  -13.3699999       1.15165366E-09
  -13.3599997       1.19737997E-10
  -13.3500004      -1.15044196E-09
  -13.3400002      -2.42188691E-09
  -13.3299999      -3.40721118E-09
  -13.3199997      -3.82570686E-09
  -13.3100004      -3.47131746E-09
  -13.3000002      -2.27690711E-09
  -13.2900000      -3.57842422E-10
  -13.2799997       1.98042449E-09
  -13.2700005       4.27993285E-09
  -13.2600002       6.01218098E-09
  -13.2500000       6.69199318E-09
  -13.2399998       6.00017325E-09
  -13.2299995       3.88542976E-09
  -13.2200003       6.16581619E-10
  -13.2100000      -3.23571236E-09
  -13.1999998      -6.89317714E-09
  -13.1899996      -9.52665147E-09
  -13.1800003      -1.04438591E-08
  -13.1700001      -9.26479160E-09
  -13.1599998      -6.03950934E-09
  -13.1499996      -1.27336508E-09
  -13.1400003       4.15466417E-09
  -13.1300001       9.16824128E-09
  -13.1199999       1.27266091E-08
  -13.1099997       1.40588838E-08
  -13.1000004       1.28409194E-08
  -13.0900002       9.26848376E-09
  -13.0799999       4.00661548E-09
  -13.0699997      -1.97194217E-09
  -13.0600004      -7.61561214E-09
  -13.0500002      -1.20275132E-08
  -13.0400000      -1.46399373E-08
  -13.0299997      -1.52843409E-08
  -13.0200005      -1.41440681E-08
  -13.0100002      -1.16145769E-08
  -13.0000000      -8.12609979E-09
  -12.9899998      -3.99616207E-09
  -12.9799995       6.31381614E-10
  -12.9700003       5.73584025E-09
  -12.9600000       1.12760299E-08
  -12.9499998       1.70119474E-08
  -12.9399996       2.23722445E-08
  -12.9300003       2.64416116E-08
  -12.9200001       2.81060046E-08
  -12.9099998       2.63372257E-08
  -12.8999996       2.05394421E-08
  -12.8900003       1.08408873E-08
  -12.8800001      -1.78850434E-09
  -12.8699999      -1.56704214E-08
  -12.8599997      -2.88008088E-08
  -12.8500004      -3.93871247E-08
  -12.8400002      -4.63700296E-08
  -12.8299999      -4.97319341E-08
  -12.8199997      -5.04350446E-08
  -12.8100004      -4.99379773E-08
  -12.8000002      -4.93874523E-08
  -12.7900000      -4.87266156E-08
  -12.7799997      -4.60511806E-08
  -12.7700005      -3.75382854E-08
  -12.7600002      -1.81510629E-08
  -12.7500000       1.68956547E-08
  -12.7399998       7.01839866E-08
  -12.7299995       1.40157937E-07
  -12.7200003       2.19818986E-07
  -12.7100000       2.96607681E-07
  -12.6999998       3.53787158E-07
  -12.6899996       3.73265863E-07
  -12.6800003       3.39375561E-07
  -12.6700001       2.42780487E-07
  -12.6599998       8.35413800E-08
  -12.6499996      -1.27525681E-07
  -12.6400003      -3.69682652E-07
  -12.6300001      -6.15230704E-07
  -12.6199999      -8.33948718E-07
  -12.6099997      -9.97922029E-07
  -12.6000004      -1.08552103E-06
  -12.5900002      -1.08350378E-06
  -12.5799999      -9.86765144E-07
  -12.5699997      -7.95999426E-07
  -12.5600004      -5.14261501E-07
  -12.5500002      -1.43887476E-07
  -12.5400000       3.14723053E-07
  -12.5299997       8.61405283E-07
  -12.5200005       1.49141238E-06
  -12.5100002       2.18833429E-06
  -12.5000000       2.91653851E-06
  -12.4899998       3.61545540E-06
  -12.4799995       4.19795288E-06
  -12.4700003       4.55428926E-06
  -12.4600000       4.56189855E-06
  -12.4499998       4.09980157E-06
  -12.4399996       3.06515676E-06
  -12.4300003       1.38877431E-06
  -12.4200001      -9.53535164E-07
  -12.4099998      -3.93601840E-06
  -12.3999996      -7.48521006E-06
  -12.3900003      -1.14884251E-05
  -12.3800001      -1.58061557E-05
  -12.3699999      -2.02852170E-05
  -12.3599997      -2.47696316E-05
  -12.3500004      -2.91070392E-05
  -12.3400002      -3.31501105E-05
  -12.3299999      -3.67539833E-05
  -12.3199997      -3.97721051E-05
  -12.3100004      -4.20534489E-05
  -12.3000002      -4.34437206E-05
  -12.2900000      -4.37920280E-05
  -12.2799997      -4.29629945E-05
  -12.2700005      -4.08523083E-05
  -12.2600002      -3.74030096E-05
  -12.2500000      -3.26189693E-05
  -12.2399998      -2.65727886E-05
  -12.2299995      -1.94064214E-05
  -12.2200003      -1.13243141E-05
  -12.2100000      -2.58023533E-06
  -12.1999998       6.54002724E-06
  -12.1899996       1.57378709E-05
  -12.1800003       2.47210173E-05
  -12.1700001       3.32214186E-05
  -12.1599998       4.10113425E-05
  -12.1499996       4.79175178E-05
  -12.1400003       5.38326494E-05
  -12.1300001       5.87234317E-05
  -12.1199999       6.26329784E-05
  -12.1099997       6.56754710E-05
  -12.1000004       6.80213343E-05
  -12.0900002       6.98724616E-05
  -12.0799999       7.14293419E-05
  -12.0699997       7.28546947E-05
  -12.0600004       7.42397606E-05
  -12.0500002       7.55809160E-05
  -12.0400000       7.67726597E-05
  -12.0299997       7.76206507E-05
  -12.0200005       7.78740432E-05
  -12.0100002       7.72714775E-05
  -12.0000000       7.55917135E-05
  -11.9899998       7.26973740E-05
  -11.9799995       6.85615378E-05
  -11.9700003       6.32702213E-05
  -11.9600000       5.69994372E-05
  -11.9499998       4.99721464E-05
  -11.9399996       4.24053796E-05
  -11.9300003       3.44612599E-05
  -11.9200001       2.62145968E-05
  -11.9099998       1.76462327E-05
  -11.8999996       8.66458049E-06
  -11.8900003      -8.49749824E-07
  -11.8800001      -1.09875846E-05
  -11.8699999      -2.17579563E-05
  -11.8599997      -3.30524854E-05
  -11.8500004      -4.46376325E-05
  -11.8400002      -5.61776287E-05
  -11.8299999      -6.72830938E-05
  -11.8199997      -7.75734152E-05
  -11.8100004      -8.67371564E-05
  -11.8000002      -9.45756619E-05
  -11.7900000      -1.01019556E-04
  -11.7799997      -1.06115243E-04
  -11.7700005      -1.09986904E-04
  -11.7600002      -1.12785856E-04
  -11.7500000      -1.14642186E-04
  -11.7399998      -1.15632509E-04
  -11.7299995      -1.15772047E-04
  -11.7200003      -1.15031857E-04
  -11.7100000      -1.13373979E-04
  -11.6999998      -1.10791952E-04
  -11.6899996      -1.07342130E-04
  -11.6800003      -1.03154234E-04
  -11.6700001      -9.84159924E-05
  -11.6599998      -9.33344418E-05
  -11.6499996      -8.80846856E-05
  -11.6400003      -8.27604745E-05
  -11.6300001      -7.73418215E-05
  -11.6199999      -7.16898649E-05
  -11.6099997      -6.55721378E-05
  -11.6000004      -5.87123577E-05
  -11.5900002      -5.08523881E-05
  -11.5799999      -4.18104355E-05
  -11.5699997      -3.15213620E-05
  -11.5600004      -2.00504510E-05
  -11.5500002      -7.58001443E-06
  -11.5400000       5.62381592E-06
  -11.5299997       1.92517491E-05
  -11.5200005       3.29864015E-05
  -11.5100002       4.65222183E-05
  -11.5000000       5.95683341E-05
  -11.4899998       7.18397278E-05
  -11.4799995       8.30485296E-05
  -11.4700003       9.29080561E-05
  -11.4600000       1.01158810E-04
  -11.4499998       1.07617365E-04
  -11.4399996       1.12238515E-04
  -11.4300003       1.15172748E-04
  -11.4200001       1.16797208E-04
  -11.4099998       1.17700831E-04
  -11.3999996       1.18614786E-04
  -11.3900003       1.20293116E-04
  -11.3800001       1.23364051E-04
  -11.3699999       1.28184067E-04
  -11.3599997       1.34730391E-04
  -11.3500004       1.42562072E-04
  -11.3400002       1.50866297E-04
  -11.3299999       1.58586350E-04
  -11.3199997       1.64607991E-04
  -11.3100004       1.67966413E-04
  -11.3000002       1.68029554E-04
  -11.2900000       1.64618541E-04
  -11.2799997       1.58040479E-04
  -11.2700005       1.49028594E-04
  -11.2600002       1.38605028E-04
  -11.2500000       1.27897481E-04
  -11.2399998       1.17947915E-04
  -11.2299995       1.09550361E-04
  -11.2200003       1.03142971E-04
  -11.2100000       9.87681196E-05
  -11.1999998       9.60972538E-05
  -11.1899996       9.45084466E-05
  -11.1800003       9.31979012E-05
  -11.1700001       9.13070398E-05
  -11.1599998       8.80494335E-05
  -11.1499996       8.28255725E-05
  -11.1400003       7.53159184E-05
  -11.1300001       6.55431941E-05
  -11.1199999       5.38939494E-05
  -11.1099997       4.10909852E-05
  -11.1000004       2.81115808E-05
  -11.0900002       1.60554118E-05
  -11.0799999       5.97792905E-06
  -11.0699997      -1.28377451E-06
  -11.0600004      -5.25681571E-06
  -11.0500002      -5.91553271E-06
  -11.0400000      -3.67703888E-06
  -11.0299997       6.95852691E-07
  -11.0200005       6.26590599E-06
  -11.0100002       1.21270332E-05
  -11.0000000       1.75927362E-05
  -10.9899998       2.23181814E-05
  -10.9799995       2.63232305E-05
  -10.9700003       2.99123112E-05
  -10.9600000       3.35167861E-05
  -10.9499998       3.75092350E-05
  -10.9399996       4.20483266E-05
  -10.9300003       4.70036393E-05
  -10.9200001       5.19845962E-05
  -10.9099998       5.64636830E-05
  -10.8999996       5.99532068E-05
  -10.8900003       6.21760119E-05
  -10.8800001       6.31711882E-05
  -10.8699999       6.32969677E-05
  -10.8599997       6.31262737E-05
  -10.8500004       6.32672309E-05
  -10.8400002       6.41669103E-05
  -10.8299999       6.59637444E-05
  -10.8199997       6.84390616E-05
  -10.8100004       7.10849054E-05
  -10.8000002       7.32663611E-05
  -10.7900000       7.44230056E-05
  -10.7799997       7.42402553E-05
  -10.7700005       7.27300212E-05
  -10.7600002       7.01919707E-05
  -10.7500000       6.70678637E-05
  -10.7399998       6.37412450E-05
  -10.7299995       6.03562003E-05
  -10.7200003       5.67257193E-05
  -10.7100000       5.23708004E-05
  -10.6999998       4.66873789E-05
  -10.6899996       3.91904032E-05
  -10.6800003       2.97543847E-05
  -10.6700001       1.87638270E-05
  -10.6599998       7.11211351E-06
  -10.6499996      -3.96600990E-06
  -10.6400003      -1.31883671E-05
  -10.6300001      -1.95621978E-05
  -10.6199999      -2.26616576E-05
  -10.6099997      -2.27577148E-05
  -10.6000004      -2.07550474E-05
  -10.5900002      -1.79490362E-05
  -10.5799999      -1.56710703E-05
  -10.5699997      -1.49255184E-05
  -10.5600004      -1.61239259E-05
  -10.5500002      -1.89927214E-05
  -10.5400000      -2.26771226E-05
  -10.5299997      -2.60052584E-05
  -10.5200005      -2.78299249E-05
  -10.5100002      -2.73452151E-05
  -10.5000000      -2.42881251E-05
  -10.4899998      -1.89735347E-05
  -10.4799995      -1.21636403E-05
  -10.4700003      -4.82167889E-06
  -10.4600000       2.17005231E-06
  -10.4499998       8.24403833E-06
  -10.4399996       1.32716214E-05
  -10.4300003       1.75536752E-05
  -10.4200001       2.16947337E-05
  -10.4099998       2.64088867E-05
  -10.3999996       3.23170498E-05
  -10.3900003       3.97877375E-05
  -10.3800001       4.88523874E-05
  -10.3699999       5.91995558E-05
  -10.3599997       7.02326215E-05
  -10.3500004       8.11657665E-05
  -10.3400002       9.11357056E-05
  -10.3299999       9.93152644E-05
  -10.3199997       1.05024279E-04
  -10.3100004       1.07836429E-04
  -10.3000002       1.07674568E-04
  -10.2900000       1.04877465E-04
  -10.2799997       1.00211786E-04
  -10.2700005       9.48028101E-05
  -10.2600002       8.99713923E-05
  -10.2500000       8.69897995E-05
  -10.2399998       8.68001807E-05
  -10.2299995       8.97640566E-05
  -10.2200003       9.55175783E-05
  -10.2100000       1.02991857E-04
  -10.1999998       1.10617104E-04
  -10.1899996       1.16677933E-04
  -10.1800003       1.19738193E-04
  -10.1700001       1.19023382E-04
  -10.1599998       1.14651637E-04
  -10.1499996       1.07638451E-04
  -10.1400003       9.96620656E-05
  -10.1300001       9.26450739E-05
  -10.1199999       8.82623208E-05
  -10.1099997       8.75102778E-05
  -10.1000004       9.04581320E-05
  -10.0900002       9.62491249E-05
  -10.0799999       1.03349827E-04
  -10.0699997       1.09973262E-04
  -10.0600004       1.14554488E-04
  -10.0500002       1.16144845E-04
  -10.0400000       1.14620001E-04
  -10.0299997       1.10655594E-04
  -10.0200005       1.05492443E-04
  -10.0100002       1.00573758E-04
  -10.0000000       9.71658083E-05
  -9.98999977       9.60695543E-05
  -9.97999954       9.74925788E-05
  -9.97000027       1.01096564E-04
  -9.96000004       1.06180421E-04
  -9.94999981       1.11924222E-04
  -9.93999958       1.17610245E-04
  -9.93000031       1.22758254E-04
  -9.92000008       1.27151841E-04
  -9.90999985       1.30773129E-04
  -9.89999962       1.33694048E-04
  -9.89000034       1.35980576E-04
  -9.88000011       1.37651616E-04
  -9.86999989       1.38705203E-04
  -9.85999966       1.39189942E-04
  -9.85000038       1.39279437E-04
  -9.84000015       1.39304437E-04
  -9.82999992       1.39714728E-04
  -9.81999969       1.40973498E-04
  -9.81000042       1.43419369E-04
  -9.80000019       1.47150102E-04
  -9.78999996       1.51980668E-04
  -9.77999973       1.57504837E-04
  -9.77000046       1.63251665E-04
  -9.76000023       1.68889266E-04
  -9.75000000       1.74404457E-04
  -9.73999977       1.80184725E-04
  -9.72999954       1.86958147E-04
  -9.72000027       1.95590866E-04
  -9.71000004       2.06793644E-04
  -9.69999981       2.20829461E-04
  -9.68999958       2.37321088E-04
  -9.68000031       2.55239633E-04
  -9.67000008       2.73099518E-04
  -9.65999985       2.89321935E-04
  -9.64999962       3.02668690E-04
  -9.64000034       3.12618096E-04
  -9.63000011       3.19558516E-04
  -9.61999989       3.24724271E-04
  -9.60999966       3.29873088E-04
  -9.60000038       3.36781872E-04
  -9.59000015       3.46701301E-04
  -9.57999992       3.59927944E-04
  -9.56999969       3.75625910E-04
  -9.56000042       3.91961512E-04
  -9.55000019       4.06520354E-04
  -9.53999996       4.16893599E-04
  -9.52999973       4.21264122E-04
  -9.52000046       4.18822659E-04
  -9.51000023       4.09895933E-04
  -9.50000000       3.95754090E-04
  -9.48999977       3.78167460E-04
  -9.47999954       3.58857797E-04
  -9.47000027       3.39022983E-04
  -9.46000004       3.19085782E-04
  -9.44999981       2.98741390E-04
  -9.43999958       2.77277897E-04
  -9.43000031       2.54048937E-04
  -9.42000008       2.28925332E-04
  -9.40999985       2.02558920E-04
  -9.39999962       1.76356072E-04
  -9.39000034       1.52158769E-04
  -9.38000011       1.31736568E-04
  -9.36999989       1.16262941E-04
  -9.35999966       1.05961779E-04
  -9.35000038       1.00054574E-04
  -9.34000015       9.70365290E-05
  -9.32999992       9.51960246E-05
  -9.31999969       9.32013500E-05
  -9.31000042       9.05499619E-05
  -9.30000019       8.77201892E-05
  -9.28999996       8.59652719E-05
  -9.27999973       8.68196730E-05
  -9.27000046       9.14898992E-05
  -9.26000023       1.00354046E-04
  -9.25000000       1.12758462E-04
  -9.23999977       1.27200517E-04
  -9.22999954       1.41847078E-04
  -9.22000027       1.55214599E-04
  -9.21000004       1.66766680E-04
  -9.19999981       1.77205686E-04
  -9.18999958       1.88333521E-04
  -9.18000031       2.02506024E-04
  -9.17000008       2.21850860E-04
  -9.15999985       2.47510005E-04
  -9.14999962       2.79170927E-04
  -9.14000034       3.15054232E-04
  -9.13000011       3.52375937E-04
  -9.11999989       3.88132845E-04
  -9.10999966       4.19951190E-04
  -9.10000038       4.46708756E-04
  -9.09000015       4.68726677E-04
  -9.07999992       4.87471407E-04
  -9.06999969       5.04888303E-04
  -9.06000042       5.22614166E-04
  -9.05000019       5.41355868E-04
  -9.03999996       5.60663640E-04
  -9.02999973       5.79170359E-04
  -9.02000046       5.95193880E-04
  -9.01000023       6.07465045E-04
  -9.00000000       6.15686062E-04
  -8.98999977       6.20693492E-04
  -8.97999954       6.24144508E-04
  -8.97000027       6.27837609E-04
  -8.96000004       6.32920302E-04
  -8.94999981       6.39298989E-04
  -8.93999958       6.45499153E-04
  -8.93000031       6.49062218E-04
  -8.92000008       6.47367502E-04
  -8.90999985       6.38594734E-04
  -8.89999962       6.22476451E-04
  -8.89000034       6.00550440E-04
  -8.88000011       5.75790589E-04
  -8.86999989       5.51720324E-04
  -8.85999966       5.31303347E-04
  -8.85000038       5.16001717E-04
  -8.84000015       5.05337724E-04
  -8.82999992       4.97129513E-04
  -8.81999969       4.88329388E-04
  -8.81000042       4.76173474E-04
  -8.80000019       4.59237432E-04
  -8.78999996       4.38016985E-04
  -8.77999973       4.14819893E-04
  -8.77000046       3.93001974E-04
  -8.76000023       3.75814241E-04
  -8.75000000       3.65271670E-04
  -8.73999977       3.61450046E-04
  -8.72999954       3.62464139E-04
  -8.72000027       3.65134445E-04
  -8.71000004       3.66103690E-04
  -8.69999981       3.62999534E-04
  -8.68999958       3.55227996E-04
  -8.68000031       3.44117812E-04
  -8.67000008       3.32373515E-04
  -8.65999985       3.23048647E-04
  -8.64999962       3.18424660E-04
  -8.64000034       3.19210259E-04
  -8.63000011       3.24355409E-04
  -8.61999989       3.31541232E-04
  -8.60999966       3.38154932E-04
  -8.60000038       3.42380023E-04
  -8.59000015       3.43988591E-04
  -8.57999992       3.44533357E-04
  -8.56999969       3.46867135E-04
  -8.56000042       3.54164862E-04
  -8.55000019       3.68811132E-04
  -8.53999996       3.91566486E-04
  -8.52999973       4.21321223E-04
  -8.52000046       4.55527304E-04
  -8.51000023       4.91145125E-04
  -8.50000000       5.25747426E-04
  -8.48999977       5.58372994E-04
  -8.47999954       5.89805306E-04
  -8.47000027       6.22174528E-04
  -8.46000004       6.58032135E-04
  -8.44999981       6.99238852E-04
  -8.43999958       7.46087404E-04
  -8.43000031       7.96982495E-04
  -8.42000008       8.48806929E-04
  -8.40999985       8.97844846E-04
  -8.39999962       9.40934347E-04
  -8.39000034       9.76430019E-04
  -8.38000011       1.00464525E-03
  -8.36999989       1.02761260E-03
  -8.35999966       1.04826712E-03
  -8.35000038       1.06934924E-03
  -8.34000015       1.09242019E-03
  -8.32999992       1.11733703E-03
  -8.31999969       1.14234921E-03
  -8.31000042       1.16476580E-03
  -8.30000019       1.18191820E-03
  -8.28999996       1.19207148E-03
  -8.27999973       1.19494589E-03
  -8.27000046       1.19168905E-03
  -8.26000023       1.18432788E-03
  -8.25000000       1.17492781E-03
  -8.23999977       1.16479327E-03
  -8.22999954       1.15399854E-03
  -8.22000027       1.14142802E-03
  -8.21000004       1.12528645E-03
  -8.19999981       1.10389385E-03
  -8.18999958       1.07645174E-03
  -8.18000031       1.04351458E-03
  -8.17000008       1.00699160E-03
  -8.15999985       9.69692075E-04
  -8.14999962       9.34583368E-04
  -8.14000034       9.04025568E-04
  -8.13000011       8.79240746E-04
  -8.11999989       8.60182045E-04
  -8.10999966       8.45814473E-04
  -8.10000038       8.34675564E-04
  -8.09000015       8.25506519E-04
  -8.07999992       8.17721419E-04
  -8.06999969       8.11576610E-04
  -8.06000042       8.08002776E-04
  -8.05000019       8.08195095E-04
  -8.03999996       8.13126971E-04
  -8.02999973       8.23156326E-04
  -8.02000046       8.37853993E-04
  -8.01000023       8.56088474E-04
  -8.00000000       8.76302307E-04
  -7.98999977       8.96878715E-04
  -7.98000002       9.16473975E-04
  -7.96999979       9.34225449E-04
  -7.96000004       9.49811365E-04
  -7.94999981       9.63383936E-04
  -7.94000006       9.75438626E-04
  -7.92999983       9.86669096E-04
  -7.92000008       9.97853465E-04
  -7.90999985       1.00976729E-03
  -7.90000010       1.02311606E-03
  -7.88999987       1.03846472E-03
  -7.88000011       1.05616439E-03
  -7.86999989       1.07629795E-03
  -7.86000013       1.09867787E-03
  -7.84999990       1.12291030E-03
  -7.84000015       1.14853284E-03
  -7.82999992       1.17517717E-03
  -7.82000017       1.20269775E-03
  -7.80999994       1.23120786E-03
  -7.80000019       1.26098318E-03
  -7.78999996       1.29226106E-03
  -7.78000021       1.32500357E-03
  -7.76999998       1.35872315E-03
  -7.76000023       1.39246206E-03
  -7.75000000       1.42496300E-03
  -7.73999977       1.45499315E-03
  -7.73000002       1.48172432E-03
  -7.71999979       1.50501903E-03
  -7.71000004       1.52551476E-03
  -7.69999981       1.54443947E-03
  -7.69000006       1.56320899E-03
  -7.67999983       1.58292882E-03
  -7.67000008       1.60397938E-03
  -7.65999985       1.62584020E-03
  -7.65000010       1.64722628E-03
  -7.63999987       1.66651420E-03
  -7.63000011       1.68230361E-03
  -7.61999989       1.69392838E-03
  -7.61000013       1.70172879E-03
  -7.59999990       1.70697120E-03
  -7.59000015       1.71145296E-03
  -7.57999992       1.71690399E-03
  -7.57000017       1.72442524E-03
  -7.55999994       1.73413951E-03
  -7.55000019       1.74520758E-03
  -7.53999996       1.75619626E-03
  -7.53000021       1.76566874E-03
  -7.51999998       1.77279802E-03
  -7.51000023       1.77777244E-03
  -7.50000000       1.78184663E-03
  -7.48999977       1.78701850E-03
  -7.48000002       1.79543812E-03
  -7.46999979       1.80874672E-03
  -7.46000004       1.82758330E-03
  -7.44999981       1.85141130E-03
  -7.44000006       1.87872932E-03