  -16.0000000       0.00000000    
  -15.9899998       0.00000000    
  -15.9799995       0.00000000    
  -15.9700003       0.00000000    
  -15.9600000       0.00000000    
  -15.9499998       0.00000000    
  -15.9399996       0.00000000    
  -15.9300003       0.00000000    
  -15.9200001       0.00000000    
  -15.9099998       0.00000000    
  -15.8999996       0.00000000    
  -15.8900003       0.00000000    
  -15.8800001       2.55748825E-38
  -15.8699999       9.59089923E-37
  -15.8599997       1.52876298E-35
  -15.8500004       1.50060705E-34
  -15.8400002       1.05106635E-33
  -15.8299999       5.66658439E-33
  -15.8199997       2.45374851E-32
  -15.8100004       8.72643513E-32
  -15.8000002       2.56039526E-31
  -15.7900000       6.06649078E-31
  -15.7799997       1.06050984E-30
  -15.7700005       7.96999934E-31
  -15.7600002      -3.20803768E-30
  -15.7500000      -1.89645645E-29
  -15.7399998      -6.32886821E-29
  -15.7299995      -1.64041974E-28
  -15.7200003      -3.53306143E-28
  -15.7100000      -6.36721347E-28
  -15.6999998      -9.17861523E-28
  -15.6899996      -8.61026271E-28
  -15.6800003       2.89427356E-28
  -15.6700001       3.82366004E-27
  -15.6599998       1.13405234E-26
  -15.6499996       2.37048249E-26
  -15.6400003       3.86304261E-26
  -15.6300001       4.67209188E-26
  -15.6199999       2.71640462E-26
  -15.6099997      -5.30143309E-26
  -15.6000004      -2.28646156E-25
  -15.5900002      -5.05471894E-25
  -15.5799999      -8.03340694E-25
  -15.5699997      -8.86027861E-25
  -15.5600004      -3.25265520E-25
  -15.5500002       1.40816632E-24
  -15.5400000       4.60803789E-24
  -15.5299997       8.68465254E-24
  -15.5200005       1.13376296E-23
  -15.5100002       8.05739610E-24
  -15.5000000      -7.08193330E-24
  -15.4899998      -3.81564794E-23
  -15.4799995      -8.10317922E-23
  -15.4700003      -1.15207342E-22
  -15.4600000      -9.85921199E-23
  -15.4499998       2.61451633E-23
  -15.4399996       3.03374472E-22
  -15.4300003       7.09217256E-22
  -15.4200001       1.07993569E-21
  -15.4099998       1.06214676E-21
  -15.3999996       1.53361616E-22
  -15.3900003      -2.08628017E-21
  -15.3800001      -5.60715243E-21
  -15.3699999      -9.29944637E-21
  -15.3599997      -1.05447773E-20
  -15.3500004      -5.37299933E-21
  -15.3400002       1.01919742E-20
  -15.3299999       3.72302426E-20
  -15.3199997       6.98202928E-20
  -15.3100004       9.13232923E-20
  -15.3000002       7.40835881E-20
  -15.2900000      -1.36040337E-20
  -15.2799997      -1.90373524E-19
  -15.2700005      -4.35505836E-19
  -15.2600002      -6.61546639E-19
  -15.2500000      -7.02562855E-19
  -15.2399998      -3.40977497E-19
  -15.2299995       6.06649091E-19
  -15.2200003       2.14230101E-18
  -15.2100000       3.91074781E-18
  -15.1999998       5.07603808E-18
  -15.1899996       4.37202011E-18
  -15.1800003       4.52884901E-19
  -15.1700001      -7.39674085E-18
  -15.1599998      -1.82903282E-17
  -15.1499996      -2.88378389E-17
  -15.1400003      -3.28818554E-17
  -15.1300001      -2.25486391E-17
  -15.1199999       8.88864381E-18
  -15.1099997       6.24324957E-17
  -15.1000004       1.28172351E-16
  -15.0900002       1.81769115E-16
  -15.0799999       1.85756191E-16
  -15.0699997       9.86451394E-17
  -15.0600004      -1.07002853E-16
  -15.0500002      -4.20121116E-16
  -15.0400000      -7.67981162E-16
  -15.0299997      -1.00682571E-15
  -15.0200005      -9.40684404E-16
  -15.0100002      -3.78854888E-16
  -15.0000000       7.69157056E-16
  -14.9899998       2.38130354E-15
  -14.9799995       4.03492657E-15
  -14.9700003       5.00034338E-15
  -14.9600000       4.37220239E-15
  -14.9499998       1.36644043E-15
  -14.9399996      -4.24797611E-15
  -14.9300003      -1.16937015E-14
  -14.9200001      -1.88955856E-14
  -14.9099998      -2.25862403E-14
  -14.8999996      -1.89963300E-14
  -14.8900003      -5.17327236E-15
  -14.8800001       1.92761168E-14
  -14.8699999       5.05224829E-14
  -14.8599997       7.96810128E-14
  -14.8500004       9.36217114E-14
  -14.8400002       7.79867978E-14
  -14.8299999       2.23617867E-14
  -14.8199997      -7.33714847E-14
  -14.8100004      -1.93461417E-13
  -14.8000002      -3.04144242E-13
  -14.7900000      -3.57540793E-13
  -14.7799997      -3.03085844E-13
  -14.7700005      -1.05730684E-13
  -14.7600002       2.32876001E-13
  -14.7500000       6.56987756E-13
  -14.7399998       1.05161420E-12
  -14.7299995       1.25730654E-12
  -14.7200003       1.10845393E-12
  -14.7100000       4.91377447E-13
  -14.6999998      -5.90550937E-13
  -14.6899996      -1.96571340E-12
  -14.6800003      -3.28171995E-12
  -14.6700001      -4.05252915E-12
  -14.6599998      -3.77315757E-12
  -14.6499996      -2.08873218E-12
  -14.6400003       1.02016063E-12
  -14.6300001       5.09464779E-12
  -14.6199999       9.16380947E-12
  -14.6099997       1.18735863E-11
  -14.6000004       1.17952896E-11
  -14.5900002       7.87481018E-12
  -14.5799999      -7.88087789E-14
  -14.5699997      -1.10159234E-11
  -14.5600004      -2.25451272E-11
  -14.5500002      -3.12369228E-11
  -14.5400000      -3.33685267E-11
  -14.5299997      -2.60116529E-11
  -14.5200005      -8.22092915E-12
  -14.5100002       1.80286324E-11
  -14.5000000       4.75331059E-11
  -14.4899998       7.24688087E-11
  -14.4799995       8.39986622E-11
  -14.4700003       7.46605208E-11
  -14.4600000       4.10147333E-11
  -14.4499998      -1.41969197E-11
  -14.4399996      -8.11749140E-11
  -14.4300003      -1.44071546E-10
  -14.4200001      -1.84059670E-10
  -14.4099998      -1.84045765E-10
  -14.3999996      -1.34011580E-10
  -14.3900003      -3.55427215E-11
  -14.3800001       9.59765600E-11
  -14.3699999       2.32654104E-10
  -14.3599997       3.39221207E-10
  -14.3500004       3.81290499E-10
  -14.3400002       3.34965333E-10
  -14.3299999       1.95293087E-10
  -14.3199997      -1.90565671E-11
  -14.3100004      -2.66856287E-10
  -14.3000002      -4.91749641E-10
  -14.2900000      -6.34913400E-10
  -14.2799997      -6.50140219E-10
  -14.2700005      -5.17433485E-10
  -14.2600002      -2.51124982E-10
  -14.2500000       1.00383153E-10
  -14.2399998       4.64047467E-10
  -14.2299995       7.58992758E-10
  -14.2200003       9.16568821E-10
  -14.2100000       8.98185137E-10
  -14.1999998       7.05658754E-10
  -14.1899996       3.80664916E-10
  -14.1800003      -7.02030534E-12
  -14.1700001      -3.79301424E-10
  -14.1599998      -6.71604383E-10
  -14.1499996      -8.49719517E-10
  -14.1400003      -9.15757969E-10
  -14.1300001      -9.00632569E-10
  -14.1199999      -8.45061188E-10
  -14.1099997      -7.75543518E-10
  -14.1000004      -6.84552803E-10
  -14.0900002      -5.24062627E-10
  -14.0799999      -2.18105881E-10
  -14.0699997       3.06041609E-10
  -14.0600004       1.07559606E-09
  -14.0500002       2.03237804E-09
  -14.0400000       3.01121705E-09
  -14.0299997       3.75011666E-09
  -14.0200005       3.93814803E-09
  -14.0100002       3.29598060E-09
  -14.0000000       1.67222369E-09
  -13.9899998      -8.70189809E-10
  -13.9799995      -4.00613276E-09
  -13.9700003      -7.16226145E-09
  -13.9600000      -9.60307744E-09
  -13.9499998      -1.05808526E-08
  -13.9399996      -9.52177892E-09
  -13.9300003      -6.20578122E-09
  -13.9200001      -8.91665353E-10
  -13.9099998       5.65423530E-09
  -13.8999996       1.22491235E-08
  -13.8900003       1.75004136E-08
  -13.8800001       2.00938253E-08
  -13.8699999       1.91035969E-08
  -13.8599997       1.42524383E-08
  -13.8500004       6.05241945E-09
  -13.8400002      -4.22051460E-09
  -13.8299999      -1.47301824E-08
  -13.8199997      -2.34315198E-08
  -13.8100004      -2.85001143E-08
  -13.8000002      -2.87450543E-08
  -13.7900000      -2.39057396E-08
  -13.7799997      -1.47533186E-08
  -13.7700005      -2.95905189E-09
  -13.7600002       9.25339894E-09
  -13.7500000       1.95996410E-08
  -13.7399998       2.62561102E-08
  -13.7299995       2.82817698E-08
  -13.7200003       2.58262443E-08
  -13.7100000       2.00585202E-08
  -13.6999998       1.28197870E-08
  -13.6899996       6.07961548E-09
  -13.6800003       1.33603251E-09
  -13.6700001      -8.70767569E-10
  -13.6599998      -1.17611865E-09
  -13.6499996      -1.24537081E-09
  -13.6400003      -3.26517680E-09
  -13.6300001      -9.17853971E-09
  -13.6199999      -1.98612575E-08
  -13.6099997      -3.44843052E-08
  -13.6000004      -5.02898345E-08
  -13.5900002      -6.29242649E-08
  -13.5799999      -6.73338292E-08
  -13.5699997      -5.90678297E-08
  -13.5600004      -3.56940113E-08
  -13.5500002       2.04838280E-09
  -13.5400000       4.97189667E-08
  -13.5299997       9.95163134E-08
  -13.5200005       1.41536006E-07
  -13.5100002       1.65757385E-07
  -13.5000000       1.64352457E-07
  -13.4899998       1.33775146E-07
  -13.4799995       7.60825003E-08
  -13.4700003      -9.23080390E-10
  -13.4600000      -8.48806607E-08
  -13.4499998      -1.61211915E-07
  -13.4399996      -2.16130942E-07
  -13.4300003      -2.39630168E-07
  -13.4200001      -2.27705442E-07
  -13.4099998      -1.83232956E-07
  -13.3999996      -1.15225383E-07
  -13.3900003      -3.66036303E-08
  -13.3800001       3.89798309E-08
  -13.3699999       1.00450187E-07
  -13.3599997       1.41861520E-07
  -13.3500004       1.63464250E-07
  -13.3400002       1.70940126E-07
  -13.3299999       1.72955026E-07
  -13.3199997       1.77674821E-07
  -13.3100004       1.89238094E-07
  -13.3000002       2.05275555E-07
  -13.2900000       2.16364342E-07
  -13.2799997       2.07832358E-07
  -13.2700005       1.63693684E-07
  -13.2600002       7.18605193E-08
  -13.2500000      -7.06885785E-08
  -13.2399998      -2.54258026E-07
  -13.2299995      -4.55547138E-07
  -13.2200003      -6.40188659E-07
  -13.2100000      -7.68560369E-07
  -13.1999998      -8.03860701E-07
  -13.1899996      -7.20757214E-07
  -13.1800003      -5.12600820E-07
  -13.1700001      -1.95353138E-07
  -13.1599998       1.92998129E-07
  -13.1499996       5.97792621E-07
  -13.1400003       9.56969302E-07
  -13.1300001       1.21244170E-06
  -13.1199999       1.32116963E-06
  -13.1099997       1.26347243E-06
  -13.1000004       1.04667924E-06
  -13.0900002       7.03223861E-07
  -13.0799999       2.83579425E-07
  -13.0699997      -1.54343411E-07
  -13.0600004      -5.56834266E-07
  -13.0500002      -8.84270662E-07
  -13.0400000      -1.11686927E-06
  -13.0299997      -1.25493227E-06
  -13.0200005      -1.31363731E-06
  -13.0100002      -1.31387469E-06
  -13.0000000      -1.27177623E-06
  -12.9899998      -1.19008234E-06
  -12.9799995      -1.05418076E-06
  -12.9700003      -8.34563366E-07
  -12.9600000      -4.95781023E-07
  -12.9499998      -1.01547872E-08
  -12.9399996       6.27055215E-07
  -12.9300003       1.38516748E-06
  -12.9200001       2.19227650E-06
  -12.9099998       2.93895641E-06
  -12.8999996       3.49224979E-06
  -12.8900003       3.71829424E-06
  -12.8800001       3.50960931E-06
  -12.8699999       2.81149710E-06
  -12.8599997       1.64154983E-06
  -12.8500004       9.72009815E-08
  -12.8400002      -1.65158622E-06
  -12.8299999      -3.38437053E-06
  -12.8199997      -4.86370436E-06
  -12.8100004      -5.87400700E-06
  -12.8000002      -6.25835401E-06
  -12.7900000      -5.94575249E-06
  -12.7799997      -4.96325856E-06
  -12.7700005      -3.43034617E-06
  -12.7600002      -1.53669612E-06
  -12.7500000       4.91827905E-07
  -12.7399998       2.43170416E-06
  -12.7299995       4.09654513E-06
  -12.7200003       5.36089829E-06
  -12.7100000       6.16857187E-06
  -12.6999998       6.52477911E-06
  -12.6899996       6.47546040E-06
  -12.6800003       6.08034588E-06
  -12.6700001       5.38785116E-06
  -12.6599998       4.41940165E-06
  -12.6499996       3.16814021E-06
  -12.6400003       1.61297203E-06
  -12.6300001      -2.55618517E-07
  -12.6199999      -2.40530699E-06
  -12.6099997      -4.73656155E-06
  -12.6000004      -7.07113031E-06
  -12.5900002      -9.16046520E-06
  -12.5799999      -1.07154783E-05
  -12.5699997      -1.14534896E-05
  -12.5600004      -1.11534155E-05
  -12.5500002      -9.70718702E-06
  -12.5400000      -7.15526858E-06
  -12.5299997      -3.69688200E-06
  -12.5200005       3.29221933E-07
  -12.5100002       4.49109211E-06
  -12.5000000       8.32849582E-06
  -12.4899998       1.14235536E-05
  -12.4799995       1.34628199E-05
  -12.4700003       1.42785057E-05
  -12.4600000       1.38614314E-05
  -12.4499998       1.23449236E-05
  -12.4399996       9.96554809E-06
  -12.4300003       7.01168619E-06
  -12.4200001       3.77313131E-06
  -12.4099998       5.03642809E-07
  -12.3999996      -2.59601643E-06
  -12.3900003      -5.37329606E-06
  -12.3800001      -7.70257884E-06
  -12.3699999      -9.45765260E-06
  -12.3599997      -1.04901601E-05
  -12.3500004      -1.06247126E-05
  -12.3400002      -9.67655251E-06
  -12.3299999      -7.49086576E-06
  -12.3199997      -3.99579403E-06
  -12.3100004       7.44057331E-07
  -12.3000002       6.48891319E-06
  -12.2900000       1.28132979E-05
  -12.2799997       1.91314120E-05
  -12.2700005       2.47582229E-05
  -12.2600002       2.89974705E-05
  -12.2500000       3.12410375E-05
  -12.2399998       3.10605719E-05
  -12.2299995       2.82732290E-05
  -12.2200003       2.29685247E-05
  -12.2100000       1.54914887E-05
  -12.1999998       6.38674146E-06
  -12.1899996      -3.68371434E-06
  -12.1800003      -1.40310194E-05
  -12.1700001      -2.40196296E-05
  -12.1599998      -3.31219817E-05
  -12.1499996      -4.09399909E-05
  -12.1400003      -4.71944222E-05
  -12.1300001      -5.16915243E-05
  -12.1199999      -5.42821836E-05
  -12.1099997      -5.48299395E-05
  -12.1000004      -5.32015438E-05
  -12.0900002      -4.92866129E-05
  -12.0799999      -4.30440050E-05
  -12.0699997      -3.45641129E-05
  -12.0600004      -2.41295529E-05
  -12.0500002      -1.22549964E-05
  -12.0400000       3.10428703E-07
  -12.0299997       1.26274908E-05
  -12.0200005       2.36572632E-05
  -12.0100002       3.23860622E-05
  -12.0000000       3.79647245E-05
  -11.9899998       3.98372067E-05
  -11.9799995       3.78338045E-05
  -11.9700003       3.22102642E-05
  -11.9600000       2.36236428E-05
  -11.9499998       1.30479302E-05
  -11.9399996       1.64400524E-06
  -11.9300003      -9.39313395E-06
  -11.9200001      -1.89828970E-05
  -11.9099998      -2.62782924E-05
  -11.8999996      -3.07376031E-05
  -11.8900003      -3.21407169E-05
  -11.8800001      -3.05541398E-05
  -11.8699999      -2.62588164E-05
  -11.8599997      -1.96617184E-05
  -11.8500004      -1.12135458E-05
  -11.8400002      -1.35117102E-06
  -11.8299999       9.52476876E-06
  -11.8199997       2.10371454E-05
  -11.8100004       3.27947273E-05
  -11.8000002       4.43471472E-05
  -11.7900000       5.51525991E-05
  -11.7799997       6.45753680E-05
  -11.7700005       7.19224336E-05
  -11.7600002       7.65177901E-05
  -11.7500000       7.78017347E-05
  -11.7399998       7.54340581E-05
  -11.7299995       6.93766851E-05
  -11.7200003       5.99338418E-05
  -11.7100000       4.77364920E-05
  -11.6999998       3.36698940E-05
  -11.6899996       1.87569167E-05
  -11.6800003       4.01998977E-06
  -11.6700001      -9.64937499E-06
  -11.6599998      -2.15865093E-05
  -11.6499996      -3.13960663E-05
  -11.6400003      -3.89355846E-05
  -11.6300001      -4.42494747E-05
  -11.6199999      -4.74754379E-05
  -11.6099997      -4.87522448E-05
  -11.6000004      -4.81570860E-05
  -11.5900002      -4.56918679E-05
  -11.5799999      -4.13238995E-05
  -11.5699997      -3.50695918E-05
  -11.5600004      -2.70960263E-05
  -11.5500002      -1.78074624E-05
  -11.5400000      -7.88489615E-06
  -11.5299997       1.74306876E-06
  -11.5200005       1.00027928E-05
  -11.5100002       1.58369785E-05
  -11.5000000       1.83928969E-05
  -11.4899998       1.71954689E-05
  -11.4799995       1.22633237E-05
  -11.4700003       4.13662474E-06
  -11.4600000      -6.19546745E-06
  -11.4499998      -1.74565685E-05
  -11.4399996      -2.83018562E-05
  -11.4300003      -3.75473246E-05
  -11.4200001      -4.43598001E-05
  -11.4099998      -4.83668118E-05
  -11.3999996      -4.96641951E-05
  -11.3900003      -4.87237594E-05
  -11.3800001      -4.62268217E-05
  -11.3699999      -4.28672211E-05
  -11.3599997      -3.91734429E-05
  -11.3500004      -3.53936230E-05
  -11.3400002      -3.14703211E-05
  -11.3299999      -2.71080971E-05
  -11.3199997      -2.19130870E-05
  -11.3100004      -1.55647995E-05
  -11.3000002      -7.97262055E-06
  -11.2900000       6.26731833E-07
  -11.2799997       9.65889558E-06
  -11.2700005       1.82942458E-05
  -11.2600002       2.56046151E-05
  -11.2500000       3.07566370E-05
  -11.2399998       3.31946248E-05
  -11.2299995       3.27682683E-05
  -11.2200003       2.97738206E-05
  -11.2100000       2.48987908E-05
  -11.1999998       1.90832925E-05
  -11.1899996       1.33306257E-05
  -11.1800003       8.51076584E-06
  -11.1700001       5.20059575E-06
  -11.1599998       3.59425599E-06
  -11.1499996       3.49922630E-06
  -11.1400003       4.41308794E-06
  -11.1300001       5.65782375E-06
  -11.1199999       6.53718143E-06
  -11.1099997       6.48014020E-06
  -11.1000004       5.14035446E-06
  -11.0900002       2.43469049E-06
  -11.0799999      -1.47988021E-06
  -11.0699997      -6.27703776E-06
  -11.0600004      -1.15557496E-05
  -11.0500002      -1.69321447E-05
  -11.0400000      -2.21061582E-05
  -11.0299997      -2.68897475E-05
  -11.0200005      -3.11953045E-05
  -11.0100002      -3.49936963E-05
  -11.0000000      -3.82585349E-05
  -10.9899998      -4.09156601E-05
  -10.9799995      -4.28136627E-05
  -10.9700003      -4.37245508E-05
  -10.9600000      -4.33746536E-05
  -10.9499998      -4.14981623E-05
  -10.9399996      -3.78994555E-05
  -10.9300003      -3.25088586E-05
  -10.9200001      -2.54181778E-05
  -10.9099998      -1.68874612E-05
  -10.8999996      -7.32114268E-06
  -10.8900003       2.78138464E-06
  -10.8800001       1.28904112E-05
  -10.8699999       2.25124804E-05
  -10.8599997       3.12458906E-05
  -10.8500004       3.88148110E-05
  -10.8400002       4.50767075E-05
  -10.8299999       5.00036185E-05
  -10.8199997       5.36435218E-05
  -10.8100004       5.60722146E-05
  -10.8000002       5.73483812E-05
  -10.7900000       5.74835285E-05
  -10.7799997       5.64356778E-05
  -10.7700005       5.41299160E-05
  -10.7600002       5.05022363E-05
  -10.7500000       4.55573791E-05
  -10.7399998       3.94258532E-05
  -10.7299995       3.24040375E-05
  -10.7200003       2.49630539E-05
  -10.7100000       1.77174352E-05
  -10.6999998       1.13534643E-05
  -10.6899996       6.52644712E-06
  -10.6800003       3.74515548E-06
  -10.6700001       3.26724171E-06
  -10.6599998       5.03007641E-06
  -10.6499996       8.63654805E-06
  -10.6400003       1.34049378E-05
  -10.6300001       1.84787568E-05
  -10.6199999       2.29783545E-05
  -10.6099997       2.61654150E-05
  -10.6000004       2.75864168E-05
  -10.5900002       2.71635326E-05
  -10.5799999       2.52117443E-05
  -10.5699997       2.23762618E-05
  -10.5600004       1.95022876E-05
  -10.5500002       1.74643519E-05
  -10.5400000       1.69920677E-05
  -10.5299997       1.85301396E-05
  -10.5200005       2.21622067E-05
  -10.5100002       2.76128412E-05
  -10.5000000       3.43235588E-05
  -10.4899998       4.15812501E-05
  -10.4799995       4.86658355E-05
  -10.4700003       5.49809993E-05
  -10.4600000       6.01385109E-05
  -10.4499998       6.39797945E-05
  -10.4399996       6.65367334E-05
  -10.4300003       6.79490258E-05
  -10.4200001       6.83662729E-05
  -10.4099998       6.78653159E-05
  -10.3999996       6.64065810E-05
  -10.3900003       6.38399943E-05
  -10.3800001       5.99557607E-05
  -10.3699999       5.45614348E-05
  -10.3599997       4.75596680E-05
  -10.3500004       3.90014611E-05
  -10.3400002       2.90983971E-05
  -10.3299999       1.81908472E-05
  -10.3199997       6.68312578E-06
  -10.3100004      -5.03259616E-06
  -10.3000002      -1.66385762E-05
  -10.2900000      -2.79192118E-05
  -10.2799997      -3.87448090E-05
  -10.2700005      -4.90165985E-05
  -10.2600002      -5.85912312E-05
  -10.2500000      -6.72111855E-05
  -10.2399998      -7.44669233E-05
  -10.2299995      -7.98088513E-05
  -10.2200003      -8.26127944E-05
  -10.2100000      -8.22869915E-05
  -10.1999998      -7.83956857E-05
  -10.1899996      -7.07683066E-05
  -10.1800003      -5.95658094E-05
  -10.1700001      -4.52860259E-05
  -10.1599998      -2.87058247E-05
  -10.1499996      -1.07734413E-05
  -10.1400003       7.52318556E-06
  -10.1300001       2.52815353E-05
  -10.1199999       4.17765114E-05
  -10.1099997       5.65033552E-05
  -10.1000004       6.91705063E-05
  -10.0900002       7.96548193E-05
  -10.0799999       8.79414656E-05
  -10.0699997       9.40711761E-05
  -10.0600004       9.81128396E-05
  -10.0500002       1.00166355E-04
  -10.0400000       1.00388941E-04
  -10.0299997       9.90261688E-05
  -10.0200005       9.64264764E-05
  -10.0100002       9.30208844E-05
  -10.0000000       8.92610624E-05
  -9.98999977       8.55241233E-05
  -9.97999954       8.20056812E-05
  -9.97000027       7.86323144E-05
  -9.96000004       7.50234685E-05
  -9.94999981       7.05241764E-05
  -9.93999958       6.43127933E-05
  -9.93000031       5.55677107E-05
  -9.92000008       4.36612318E-05
  -9.90999985       2.83370755E-05
  -9.89999962       9.83073187E-06
  -9.89000034      -1.10983119E-05
  -9.88000011      -3.32320633E-05
  -9.86999989      -5.50455916E-05
  -9.85999966      -7.49128521E-05
  -9.85000038      -9.13229815E-05
  -9.84000015      -1.03063270E-04
  -9.82999992      -1.09334484E-04
  -9.81999969      -1.09782806E-04
  -9.81000042      -1.04453095E-04
  -9.80000019      -9.36864162E-05
  -9.78999996      -7.79957772E-05
  -9.77999973      -5.79540210E-05
  -9.77000046      -3.41208652E-05
  -9.76000023      -7.02008538E-06
  -9.75000000       2.28377103E-05
  -9.73999977       5.49050455E-05
  -9.72999954       8.85457484E-05
  -9.72000027       1.23005768E-04
  -9.71000004       1.57422910E-04
  -9.69999981       1.90878854E-04
  -9.68999958       2.22484872E-04
  -9.68000031       2.51480902E-04
  -9.67000008       2.77323677E-04
  -9.65999985       2.99742038E-04
  -9.64999962       3.18742910E-04
  -9.64000034       3.34564975E-04
  -9.63000011       3.47585708E-04
  -9.61999989       3.58200021E-04
  -9.60999966       3.66693130E-04
  -9.60000038       3.73133167E-04
  -9.59000015       3.77305609E-04
  -9.57999992       3.78704426E-04
  -9.56999969       3.76585987E-04
  -9.56000042       3.70078807E-04
  -9.55000019       3.58333084E-04
  -9.53999996       3.40685161E-04
  -9.52999973       3.16805788E-04
  -9.52000046       2.86803406E-04
  -9.51000023       2.51260470E-04
  -9.50000000       2.11189617E-04
  -9.48999977       1.67915903E-04
  -9.47999954       1.22903890E-04
  -9.47000027       7.75620283E-05
  -9.46000004       3.30637340E-05
  -9.44999981      -9.77808122E-06
  -9.43999958      -5.05582757E-05
  -9.43000031      -8.92388998E-05
  -9.42000008      -1.26031970E-04
  -9.40999985      -1.61235599E-04
  -9.39999962      -1.95060988E-04
  -9.39000034      -2.27492244E-04
  -9.38000011      -2.58208136E-04
  -9.36999989      -2.86582683E-04
  -9.35999966      -3.11757321E-04
  -9.35000038      -3.32764845E-04
  -9.34000015      -3.48670292E-04
  -9.32999992      -3.58694349E-04
  -9.31999969      -3.62294057E-04
  -9.31000042      -3.59185913E-04
  -9.30000019      -3.49317765E-04
  -9.28999996      -3.32803698E-04
  -9.27999973      -3.09850555E-04
  -9.27000046      -2.80701352E-04
  -9.26000023      -2.45613133E-04
  -9.25000000      -2.04877841E-04
  -9.23999977      -1.58878349E-04
  -9.22999954      -1.08162640E-04
  -9.22000027      -5.35108375E-05
  -9.21000004       4.02953265E-06
  -9.19999981       6.31588846E-05
  -9.18999958       1.22400044E-04
  -9.18000031       1.80227245E-04
  -9.17000008       2.35230138E-04
  -9.15999985       2.86286231E-04
  -9.14999962       3.32706346E-04
  -9.14000034       3.74320225E-04
  -9.13000011       4.11479064E-04
  -9.11999989       4.44964709E-04
  -9.10999966       4.75814973E-04
  -9.10000038       5.05094591E-04
  -9.09000015       5.33653772E-04
  -9.07999992       5.61926339E-04
  -9.06999969       5.89810836E-04
  -9.06000042       6.16665347E-04
  -9.05000019       6.41417573E-04
  -9.03999996       6.62769715E-04
  -9.02999973       6.79448771E-04
  -9.02000046       6.90446410E-04
  -9.01000023       6.95189519E-04
  -9.00000000       6.93605631E-04
  -8.98999977       6.86073327E-04
  -8.97999954       6.73277187E-04
  -8.97000027       6.56016695E-04
  -8.96000004       6.35020202E-04
  -8.94999981       6.10820425E-04
  -8.93999958       5.83715737E-04
  -8.93000031       5.53820631E-04
  -8.92000008       5.21176145E-04
  -8.90999985       4.85875848E-04
  -8.89999962       4.48159000E-04
  -8.89000034       4.08438907E-04
  -8.88000011       3.67257657E-04
  -8.86999989       3.25185712E-04
  -8.85999966       2.82704248E-04
  -8.85000038       2.40115347E-04
  -8.84000015       1.97512287E-04
  -8.82999992       1.54823385E-04
  -8.81999969       1.11914916E-04
  -8.81000042       6.87198699E-05
  -8.80000019       2.53512280E-05
  -8.78999996      -1.78366481E-05
  -8.77999973      -6.02539549E-05
  -8.77000046      -1.01143632E-04
  -8.76000023      -1.39685682E-04
  -8.75000000      -1.75104127E-04
  -8.73999977      -2.06745535E-04
  -8.72999954      -2.34114254E-04
  -8.72000027      -2.56868574E-04
  -8.71000004      -2.74792139E-04
  -8.69999981      -2.87766772E-04
  -8.68999958      -2.95761187E-04
  -8.68000031      -2.98841565E-04
  -8.67000008      -2.97189981E-04
  -8.65999985      -2.91113392E-04
  -8.64999962      -2.81021115E-04
  -8.64000034      -2.67366762E-04
  -8.63000011      -2.50562618E-04
  -8.61999989      -2.30895370E-04
  -8.60999966      -2.08474754E-04
  -8.60000038      -1.83243596E-04
  -8.59000015      -1.55054469E-04
  -8.57999992      -1.23797276E-04
  -8.56999969      -8.95370031E-05
  -8.56000042      -5.26148979E-05
  -8.55000019      -1.36724275E-05
  -8.53999996       2.64170376E-05
  -8.52999973       6.66919805E-05
  -8.52000046       1.06279585E-04
  -8.51000023       1.44543446E-04
  -8.50000000       1.81154173E-04
  -8.48999977       2.16052009E-04
  -8.47999954       2.49314646E-04
  -8.47000027       2.80971610E-04
  -8.46000004       3.10831208E-04
  -8.44999981       3.38381418E-04
  -8.43999958       3.62805760E-04
  -8.43000031       3.83112754E-04
  -8.42000008       3.98344418E-04
  -8.40999985       4.07798507E-04
  -8.39999962       4.11197077E-04
  -8.39000034       4.08749096E-04
  -8.38000011       4.01092664E-04
  -8.36999989       3.89137509E-04
  -8.35999966       3.73860035E-04
  -8.35000038       3.56113393E-04
  -8.34000015       3.36505618E-04
  -8.32999992       3.15370417E-04
  -8.31999969       2.92826939E-04
  -8.31000042       2.68892560E-04
  -8.30000019       2.43605304E-04
  -8.28999996       2.17114866E-04
  -8.27999973       1.89719227E-04
  -8.27000046       1.61848744E-04
  -8.26000023       1.34014859E-04
  -8.25000000       1.06752923E-04
  -8.23999977       8.05787422E-05
  -8.22999954       5.59708787E-05
  -8.22000027       3.33729076E-05
  -8.21000004       1.32025270E-05
  -8.19999981      -4.14451870E-06
  -8.18999958      -1.83024877E-05
  -8.18000031      -2.89457876E-05
  -8.17000008      -3.57931858E-05
  -8.15999985      -3.85900894E-05
  -8.14999962      -3.70689850E-05
  -8.14000034      -3.09015959E-05
  -8.13000011      -1.96697147E-05
  -8.11999989      -2.88216233E-06
  -8.10999966       1.99460355E-05
  -8.10000038       4.91558530E-05
  -8.09000015       8.47806368E-05
  -8.07999992       1.26406449E-04
  -8.06999969       1.73109816E-04
  -8.06000042       2.23512528E-04
  -8.05000019       2.75952130E-04
  -8.03999996       3.28736962E-04
  -8.02999973       3.80418933E-04
  -8.02000046       4.30009910E-04
  -8.01000023       4.77077905E-04
  -8.00000000       5.21697686E-04
  -7.98999977       5.64278045E-04
  -7.98000002       6.05318055E-04
  -7.96999979       6.45174121E-04
  -7.96000004       6.83903985E-04
  -7.94999981       7.21230928E-04
  -7.94000006       7.56619382E-04
  -7.92999983       7.89428072E-04
  -7.92000008       8.19066365E-04
  -7.90999985       8.45105445E-04
  -7.90000010       8.67303112E-04
  -7.88999987       8.85546498E-04
  -7.88000011       8.99750332E-04
  -7.86999989       9.09762923E-04
  -7.86000013       9.15327400E-04
  -7.84999990       9.16121644E-04
  -7.84000015       9.11862473E-04
  -7.82999992       9.02438478E-04
  -7.82000017       8.88013863E-04
  -7.80999994       8.69063137E-04
  -7.80000019       8.46321404E-04
  -7.78999996       8.20662826E-04
  -7.78000021       7.92953710E-04
  -7.76999998       7.63925549E-04
  -7.76000023       7.34110479E-04
  -7.75000000       7.03848142E-04
  -7.73999977       6.73350994E-04
  -7.73000002       6.42788014E-04
  -7.71999979       6.12352276E-04
  -7.71000004       5.82284119E-04
  -7.69999981       5.52852929E-04
  -7.69000006       5.24317031E-04
  -7.67999983       4.96894703E-04
  -7.67000008       4.70769737E-04
  -7.65999985       4.46134945E-04
  -7.65000010       4.23250662E-04
  -7.63999987       4.02481470E-04
  -7.63000011       3.84276937E-04
  -7.61999989       3.69081099E-04
  -7.61000013       3.57193378E-04
  -7.59999990       3.48627538E-04
  -7.59000015       3.43035761E-04
  -7.57999992       3.39743128E-04
  -7.57000017       3.37907200E-04
  -7.55999994       3.36762343E-04
  -7.55000019       3.35871911E-04
  -7.53999996       3.35300894E-04
  -7.53000021       3.35629215E-04
  -7.51999998       3.37793783E-04
  -7.51000023       3.42800195E-04
  -7.50000000       3.51402588E-04
  -7.48999977       3.63864936E-04
  -7.48000002       3.79899197E-04
  -7.46999979       3.98805045E-04
  -7.46000004       4.19763004E-04
  -7.44999981       4.42173710E-04
  -7.44000006       4.65900986E-04