  -16.0000000       0.00000000    
  -15.9899998       0.00000000    
  -15.9799995       0.00000000    
  -15.9700003       0.00000000    
  -15.9600000       0.00000000    
  -15.9499998       0.00000000    
  -15.9399996       0.00000000    
  -15.9300003       0.00000000    
  -15.9200001       0.00000000    
  -15.9099998       0.00000000    
  -15.8999996       0.00000000    
  -15.8900003       0.00000000    
  -15.8800001      -0.00000000    
  -15.8699999      -0.00000000    
  -15.8599997      -0.00000000    
  -15.8500004       0.00000000    
  -15.8400002       3.50324616E-44
  -15.8299999       3.86758376E-43
  -15.8199997       2.83622809E-42
  -15.8100004       1.65339206E-41
  -15.8000002       8.18106069E-41
  -15.7900000       3.54276278E-40
  -15.7799997       1.36561300E-39
  -15.7700005       4.73383004E-39
  -15.7600002       1.48557956E-38
  -15.7500000       4.23966634E-38
  -15.7399998       1.10349575E-37
  -15.7299995       2.62297401E-37
  -15.7200003       5.69101207E-37
  -15.7100000       1.12364532E-36
  -15.6999998       2.00433284E-36
  -15.6899996       3.18145171E-36
  -15.6800003       4.34612956E-36
  -15.6700001       4.67213410E-36
  -15.6599998       2.58428530E-36
  -15.6499996      -4.30456647E-36
  -15.6400003      -1.88467087E-35
  -15.6300001      -4.33441272E-35
  -15.6199999      -7.76971805E-35
  -15.6099997      -1.16760384E-34
  -15.6000004      -1.47250228E-34
  -15.5900002      -1.44951976E-34
  -15.5799999      -7.36450827E-35
  -15.5699997       1.11532947E-34
  -15.5600004       4.51418575E-34
  -15.5500002       9.53818708E-34
  -15.5400000       1.54202910E-33
  -15.5299997       1.98441905E-33
  -15.5200005       1.83324607E-33
  -15.5100002       4.40355520E-34
  -15.5000000      -2.84455417E-33
  -15.4899998      -8.19107680E-33
  -15.4799995      -1.45221718E-32
  -15.4700003      -1.87141874E-32
  -15.4600000      -1.53731225E-32
  -15.4499998       1.89887741E-33
  -15.4399996       3.69200911E-32
  -15.4300003       8.50774792E-32
  -15.4200001       1.27114832E-31
  -15.4099998       1.26919771E-31
  -15.3999996       3.94100615E-32
  -15.3900003      -1.66474580E-31
  -15.3800001      -4.70723798E-31
  -15.3699999      -7.63692913E-31
  -15.3599997      -8.32338304E-31
  -15.3500004      -4.05697143E-31
  -15.3400002       7.14761503E-31
  -15.3299999       2.44962265E-30
  -15.3199997       4.23181239E-30
  -15.3100004       4.93142111E-30
  -15.3000002       3.08721191E-30
  -15.2900000      -2.43653610E-30
  -15.2799997      -1.14277100E-29
  -15.2700005      -2.12880545E-29
  -15.2600002      -2.66307151E-29
  -15.2500000      -2.02949051E-29
  -15.2399998       3.70428137E-30
  -15.2299995       4.55688236E-29
  -15.2200003       9.49698866E-29
  -15.2100000       1.28924555E-28
  -15.1999998       1.15564716E-28
  -15.1899996       2.59724533E-29
  -15.1800003      -1.46923225E-28
  -15.1700001      -3.68246063E-28
  -15.1599998      -5.50566508E-28
  -15.1499996      -5.65488372E-28
  -15.1400003      -2.86215868E-28
  -15.1300001       3.41629567E-28
  -15.1199999       1.22127195E-27
  -15.1099997       2.05618193E-27
  -15.1000004       2.37775157E-27
  -15.0900002       1.68324756E-27
  -15.0799999      -3.20181472E-28
  -15.0699997      -3.42929661E-27
  -15.0600004      -6.74198894E-27
  -15.0500002      -8.69577785E-27
  -15.0400000      -7.47330614E-27
  -15.0299997      -1.78339206E-27
  -15.0200005       8.16423428E-27
  -15.0100002       1.98787478E-26
  -15.0000000       2.85159628E-26
  -14.9899998       2.79604229E-26
  -14.9799995       1.31761265E-26
  -14.9700003      -1.66368392E-26
  -14.9600000      -5.52086893E-26
  -14.9499998      -8.82897316E-26
  -14.9399996      -9.61992331E-26
  -14.9300003      -6.05100626E-26
  -14.9200001       2.61143867E-26
  -14.9099998       1.49996724E-25
  -14.8999996       2.71223223E-25
  -14.8900003       3.28252024E-25
  -14.8800001       2.55554744E-25
  -14.8699999       1.30175438E-26
  -14.8599997      -3.80423512E-25
  -14.8500004      -8.22471162E-25
  -14.8400002      -1.12894081E-24
  -14.8299999      -1.07430865E-24
  -14.8199997      -4.73709445E-25
  -14.8100004       7.08893779E-25
  -14.8000002       2.26152676E-24
  -14.7900000       3.68350790E-24
  -14.7799997       4.25240954E-24
  -14.7700005       3.22563390E-24
  -14.7600002       1.58306375E-25
  -14.7500000      -4.74084223E-24
  -14.7399998      -1.03502503E-23
  -14.7299995      -1.46340309E-23
  -14.7200003      -1.50302788E-23
  -14.7100000      -9.26211134E-24
  -14.6999998       3.55710714E-24
  -14.6899996       2.18387922E-23
  -14.6800003       4.09139679E-23
  -14.6700001       5.33924979E-23
  -14.6599998       5.08095622E-23
  -14.6499996       2.65130628E-23
  -14.6400003      -2.07773940E-23
  -14.6300001      -8.38462649E-23
  -14.6199999      -1.45739389E-22
  -14.6099997      -1.81771488E-22
  -14.6000004      -1.65496366E-22
  -14.5900002      -7.81233504E-23
  -14.5799999       8.07107132E-23
  -14.5699997       2.84358355E-22
  -14.5600004       4.77028355E-22
  -14.5500002       5.81754247E-22
  -14.5400000       5.19845554E-22
  -14.5299997       2.39451420E-22
  -14.5200005      -2.53566956E-22
  -14.5100002      -8.72966554E-22
  -14.5000000      -1.44946802E-21
  -14.4899998      -1.75737106E-21
  -14.4799995      -1.57267411E-21
  -14.4700003      -7.54320006E-22
  -14.4600000       6.71552467E-22
  -14.4499998       2.45345001E-21
  -14.4399996       4.11346740E-21
  -14.4300003       5.02585085E-21
  -14.4200001       4.57793295E-21
  -14.4099998       2.38815121E-21
  -14.3999996      -1.47361903E-21
  -14.3900003      -6.33912851E-21
  -14.3800001      -1.09459340E-20
  -14.3699999      -1.36462328E-20
  -14.3599997      -1.28226429E-20
  -14.3500004      -7.44340978E-21
  -14.3400002       2.38138775E-21
  -14.3299999       1.50292126E-20
  -14.3199997       2.73680267E-20
  -14.3100004       3.52598079E-20
  -14.3000002       3.45679747E-20
  -14.2900000       2.25069269E-20
  -14.2799997      -9.93841451E-22
  -14.2700005      -3.23501484E-20
  -14.2600002      -6.42512541E-20
  -14.2500000      -8.67606222E-20
  -14.2399998      -8.96141045E-20
  -14.2299995      -6.53650011E-20
  -14.2200003      -1.26453823E-20
  -14.2100000       6.14501750E-20
  -14.1999998       1.40883437E-19
  -14.1899996       2.02834406E-19
  -14.1800003       2.22645614E-19
  -14.1700001       1.80861994E-19
  -14.1599998       7.08233656E-20
  -14.1499996      -9.53671392E-20
  -14.1400003      -2.84819637E-19
  -14.1300001      -4.47572385E-19
  -14.1199999      -5.26606494E-19
  -14.1099997      -4.72956955E-19
  -14.1000004      -2.62820535E-19
  -14.0900002       8.79428119E-20
  -14.0799999       5.17036221E-19
  -14.0699997       9.20916720E-19
  -14.0600004       1.17377063E-18
  -14.0500002       1.15844722E-18
  -14.0400000       8.03430241E-19
  -14.0299997       1.16494418E-19
  -14.0200005      -7.95852284E-19
  -14.0100002      -1.73272770E-18
  -14.0000000      -2.43208264E-18
  -13.9899998      -2.63056070E-18
  -13.9799995      -2.13933039E-18
  -13.9700003      -9.17754925E-19
  -13.9600000       8.77209633E-19
  -13.9499998       2.88637313E-18
  -13.9399996       4.60081124E-18
  -13.9300003       5.47013877E-18
  -13.9200001       5.04855625E-18
  -13.9099998       3.14539833E-18
  -13.8999996      -6.21124170E-20
  -13.8900003      -3.99486008E-18
  -13.8800001      -7.74388043E-18
  -13.8699999      -1.02511253E-17
  -13.8599997      -1.05708496E-17
  -13.8500004      -8.15444243E-18
  -13.8400002      -3.08296067E-18
  -13.8299999       3.82876801E-18
  -13.8199997       1.11110291E-17
  -13.8100004       1.69141726E-17
  -13.8000002       1.94396014E-17
  -13.7900000       1.74351244E-17
  -13.7799997       1.06283444E-17
  -13.7700005      -3.30221131E-20
  -13.7600002      -1.24331136E-17
  -13.7500000      -2.36660145E-17
  -13.7399998      -3.06877655E-17
  -13.7299995      -3.11051112E-17
  -13.7200003      -2.39044179E-17
  -13.7100000      -9.91110687E-18
  -13.6999998       8.18542779E-18
  -13.6899996       2.63085985E-17
  -13.6800003       3.99093668E-17
  -13.6700001       4.51237480E-17
  -13.6599998       3.98830062E-17
  -13.6499996       2.46616207E-17
  -13.6400003       2.60869914E-18
  -13.6300001      -2.10501270E-17
  -13.6199999      -4.02598763E-17
  -13.6099997      -4.97567601E-17
  -13.6000004      -4.66422365E-17
  -13.5900002      -3.14482885E-17
  -13.5799999      -8.31659051E-18
  -13.5699997       1.58799818E-17
  -13.5600004       3.33595423E-17
  -13.5500002       3.77876850E-17
  -13.5400000       2.65374761E-17
  -13.5299997       2.14898028E-18
  -13.5200005      -2.75960340E-17
  -13.5100002      -5.12584734E-17
  -13.5000000      -5.68164025E-17
  -13.4899998      -3.55868551E-17
  -13.4799995       1.40233683E-17
  -13.4700003       8.41096371E-17
  -13.4600000       1.57224323E-16
  -13.4499998       2.09242218E-16
  -13.4399996       2.14962735E-16
  -13.4300003       1.55457280E-16
  -13.4200001       2.54600452E-17
  -13.4099998      -1.61283173E-16
  -13.3999996      -3.70684382E-16
  -13.3900003      -5.52302804E-16
  -13.3800001      -6.48794044E-16
  -13.3699999      -6.09516121E-16
  -13.3599997      -4.05598418E-16
  -13.3500004      -4.28288115E-17
  -13.3400002       4.31477339E-16
  -13.3299999       9.30680310E-16
  -13.3199997       1.34142024E-15
  -13.3100004       1.54555582E-15
  -13.3000002       1.44779678E-15
  -13.2900000       1.00327612E-15
  -13.2799997       2.38274550E-16
  -13.2700005      -7.42197532E-16
  -13.2600002      -1.76410048E-15
  -13.2500000      -2.61195357E-15
  -13.2399998      -3.07067400E-15
  -13.2299995      -2.97403326E-15
  -13.2200003      -2.24937815E-15
  -13.2100000      -9.47689472E-16
  -13.1999998       7.49958895E-16
  -13.1899996       2.55409296E-15
  -13.1800003       4.11520073E-15
  -13.1700001       5.09089586E-15
  -13.1599998       5.21884697E-15
  -13.1499996       4.37974437E-15
  -13.1400003       2.63540622E-15
  -13.1300001       2.31499822E-16
  -13.1199999      -2.43842341E-15
  -13.1099997      -4.90234591E-15
  -13.1000004      -6.69949995E-15
  -13.0900002      -7.47189362E-15
  -13.0799999      -7.03789808E-15
  -13.0699997      -5.43137558E-15
  -13.0600004      -2.89717836E-15
  -13.0500002       1.56468320E-16
  -13.0400000       3.23823597E-15
  -13.0299997       5.86863643E-15
  -13.0200005       7.66822400E-15
  -13.0100002       8.41955324E-15
  -13.0000000       8.09004895E-15
  -12.9899998       6.81301337E-15
  -12.9799995       4.83467814E-15
  -12.9700003       2.44386539E-15
  -12.9600000      -9.50109776E-17
  -12.9499998      -2.58648244E-15
  -12.9399996      -4.91410188E-15
  -12.9300003      -7.01497779E-15
  -12.9200001      -8.82936726E-15
  -12.9099998      -1.02451100E-14
  -12.8999996      -1.10604232E-14
  -12.8900003      -1.09852423E-14
  -12.8800001      -9.69121989E-15
  -12.8699999      -6.90586936E-15
  -12.8599997      -2.53089908E-15
  -12.8500004       3.24709826E-15
  -12.8400002       9.88988554E-15
  -12.8299999       1.65158380E-14
  -12.8199997       2.19994108E-14
  -12.8100004       2.51564753E-14
  -12.8000002       2.49864521E-14
  -12.7900000       2.09226286E-14
  -12.7799997       1.30319543E-14
  -12.7700005       2.10889456E-15
  -12.7600002      -1.03746391E-14
  -12.7500000      -2.24723736E-14
  -12.7399998      -3.20944511E-14
  -12.7299995      -3.74080073E-14
  -12.7200003      -3.72276164E-14
  -12.7100000      -3.13090313E-14
  -12.6999998      -2.04732149E-14
  -12.6899996      -6.51807989E-15
  -12.6800003       8.08153542E-15
  -12.6700001       2.06389403E-14
  -12.6599998       2.87994624E-14
  -12.6499996       3.10535729E-14
  -12.6400003       2.71083662E-14
  -12.6300001       1.80290709E-14
  -12.6199999       6.10499293E-15
  -12.6099997      -5.55150899E-15
  -12.6000004      -1.36089455E-14
  -12.5900002      -1.52151851E-14
  -12.5799999      -8.65871638E-15
  -12.5699997       6.13694471E-15
  -12.5600004       2.73862964E-14
  -12.5500002       5.15348398E-14
  -12.5400000       7.36649511E-14
  -12.5299997       8.81522164E-14
  -12.5200005       8.94678076E-14
  -12.5100002       7.30049430E-14
  -12.5000000       3.58165510E-14
  -12.4899998      -2.28167315E-14
  -12.4799995      -1.01022503E-13
  -12.4700003      -1.94166325E-13
  -12.4600000      -2.94826202E-13
  -12.4499998      -3.92854477E-13
  -12.4399996      -4.75489114E-13
  -12.4300003      -5.27508592E-13
  -12.4200001      -5.31486855E-13
  -12.4099998      -4.68233200E-13
  -12.3999996      -3.17537121E-13
  -12.3900003      -5.93192081E-14
  -12.3800001       3.24785798E-13
  -12.3699999       8.49466493E-13
  -12.3599997       1.52357022E-12
  -12.3500004       2.34799398E-12
  -12.3400002       3.31399426E-12
  -12.3299999       4.40223335E-12
  -12.3199997       5.58278727E-12
  -12.3100004       6.81627584E-12
  -12.3000002       8.05599164E-12
  -12.2900000       9.25079371E-12
  -12.2799997       1.03483281E-11
  -12.2700005       1.12981170E-11
  -12.2600002       1.20540713E-11
  -12.2500000       1.25760921E-11
  -12.2399998       1.28306862E-11
  -12.2299995       1.27907320E-11
  -12.2200003       1.24346844E-11
  -12.2100000       1.17456479E-11
  -12.1999998       1.07108124E-11
  -12.1899996       9.32150798E-12
  -12.1800003       7.57402734E-12
  -12.1700001       5.47106327E-12
  -12.1599998       3.02339642E-12
  -12.1499996       2.51343082E-13
  -12.1400003      -2.81452834E-12
  -12.1300001      -6.13381741E-12
  -12.1199999      -9.65795673E-12
  -12.1099997      -1.33329554E-11
  -12.1000004      -1.71027897E-11
  -12.0900002      -2.09127698E-11
  -12.0799999      -2.47122600E-11
  -12.0699997      -2.84561073E-11
  -12.0600004      -3.21045274E-11
  -12.0500002      -3.56214849E-11
  -12.0400000      -3.89719090E-11
  -12.0299997      -4.21184962E-11
  -12.0200005      -4.50188498E-11
  -12.0100002      -4.76236238E-11
  -12.0000000      -4.98764433E-11
  -11.9899998      -5.17154514E-11
  -11.9799995      -5.30764183E-11
  -11.9700003      -5.38969112E-11
  -11.9600000      -5.41202916E-11
  -11.9499998      -5.36993609E-11
  -11.9399996      -5.25983111E-11
  -11.9300003      -5.07931579E-11
  -11.9200001      -4.82704571E-11
  -11.9099998      -4.50249490E-11
  -11.8999996      -4.10569738E-11
  -11.8900003      -3.63704865E-11
  -11.8800001      -3.09723774E-11
  -11.8699999      -2.48737385E-11
  -11.8599997      -1.80926298E-11
  -11.8500004      -1.06582130E-11
  -11.8400002      -2.61481613E-12
  -11.8299999       5.97480138E-12
  -11.8199997       1.50282720E-11
  -11.8100004       2.44449669E-11
  -11.8000002       3.41103569E-11
  -11.7900000       4.39021909E-11
  -11.7799997       5.36982993E-11
  -11.7700005       6.33840272E-11
  -11.7600002       7.28581501E-11
  -11.7500000       8.20364679E-11
  -11.7399998       9.08522493E-11
  -11.7299995       9.92538413E-11
  -11.7200003       1.07200172E-10
  -11.7100000       1.14655146E-10
  -11.6999998       1.21582355E-10
  -11.6899996       1.27941061E-10
  -11.6800003       1.33683745E-10
  -11.6700001       1.38756215E-10
  -11.6599998       1.43098672E-10
  -11.6499996       1.46648027E-10
  -11.6400003       1.49340304E-10
  -11.6300001       1.51112248E-10
  -11.6199999       1.51902574E-10
  -11.6099997       1.51651663E-10
  -11.6000004       1.50301646E-10
  -11.5900002       1.47795914E-10
  -11.5799999       1.44079540E-10
  -11.5699997       1.39100578E-10
  -11.5600004       1.32811900E-10
  -11.5500002       1.25174718E-10
  -11.5400000       1.16160803E-10
  -11.5299997       1.05755994E-10
  -11.5200005       9.39625114E-11
  -11.5100002       8.08000819E-11
  -11.5000000       6.63073554E-11
  -11.4899998       5.05409187E-11
  -11.4799995       3.35754445E-11
  -11.4700003       1.55017301E-11
  -11.4600000      -3.57536136E-12
  -11.4499998      -2.35394620E-11
  -11.4399996      -4.42664863E-11
  -11.4300003      -6.56290786E-11
  -11.4200001      -8.75016934E-11
  -11.4099998      -1.09765676E-10
  -11.3999996      -1.32314465E-10
  -11.3900003      -1.55057411E-10
  -11.3800001      -1.77923037E-10
  -11.3699999      -2.00859634E-10
  -11.3599997      -2.23834673E-10
  -11.3500004      -2.46832277E-10
  -11.3400002      -2.69848671E-10
  -11.3299999      -2.92886937E-10
  -11.3199997      -3.15950516E-10
  -11.3100004      -3.39036632E-10
  -11.3000002      -3.62130687E-10
  -11.2900000      -3.85202092E-10
  -11.2799997      -4.08201833E-10
  -11.2700005      -4.31064712E-10
  -11.2600002      -4.53713761E-10
  -11.2500000      -4.76068407E-10
  -11.2399998      -4.98054264E-10
  -11.2299995      -5.19611854E-10
  -11.2200003      -5.40704315E-10
  -11.2100000      -5.61319657E-10
  -11.1999998      -5.81465764E-10
  -11.1899996      -6.01161398E-10
  -11.1800003      -6.20421936E-10
  -11.1700001      -6.39244158E-10
  -11.1599998      -6.57593369E-10
  -11.1499996      -6.75398515E-10
  -11.1400003      -6.92556512E-10
  -11.1300001      -7.08943348E-10
  -11.1199999      -7.24434068E-10
  -11.1099997      -7.38926420E-10
  -11.1000004      -7.52359230E-10
  -11.0900002      -7.64726005E-10
  -11.0799999      -7.76076814E-10
  -11.0699997      -7.86508192E-10
  -11.0600004      -7.96145094E-10
  -11.0500002      -8.05120803E-10
  -11.0400000      -8.13556389E-10
  -11.0299997      -8.21544777E-10
  -11.0200005      -8.29149471E-10
  -11.0100002      -8.36407277E-10
  -11.0000000      -8.43341064E-10
  -10.9899998      -8.49971038E-10
  -10.9799995      -8.56326565E-10
  -10.9700003      -8.62449279E-10
  -10.9600000      -8.68392580E-10
  -10.9499998      -8.74207151E-10
  -10.9399996      -8.79930351E-10
  -10.9300003      -8.85573115E-10
  -10.9200001      -8.91112406E-10
  -10.9099998      -8.96490104E-10
  -10.8999996      -9.01616559E-10
  -10.8900003      -9.06381303E-10
  -10.8800001      -9.10659881E-10
  -10.8699999      -9.14322507E-10
  -10.8599997      -9.17243614E-10
  -10.8500004      -9.19298082E-10
  -10.8400002      -9.20368948E-10
  -10.8299999      -9.20355736E-10
  -10.8199997      -9.19169962E-10
  -10.8100004      -9.16752951E-10
  -10.8000002      -9.13078335E-10
  -10.7900000      -9.08148889E-10
  -10.7799997      -9.01999919E-10
  -10.7700005      -8.94681773E-10
  -10.7600002      -8.86237139E-10
  -10.7500000      -8.76689887E-10
  -10.7399998      -8.66016148E-10
  -10.7299995      -8.54151028E-10
  -10.7200003      -8.40991388E-10
  -10.7100000      -8.26418434E-10
  -10.6999998      -8.10329692E-10
  -10.6899996      -7.92667654E-10
  -10.6800003      -7.73437148E-10
  -10.6700001      -7.52717721E-10
  -10.6599998      -7.30644212E-10
  -10.6499996      -7.07391201E-10
  -10.6400003      -6.83135715E-10
  -10.6300001      -6.58031241E-10
  -10.6199999      -6.32192743E-10
  -10.6099997      -6.05692829E-10
  -10.6000004      -5.78588122E-10
  -10.5900002      -5.50929691E-10
  -10.5799999      -5.22790256E-10
  -10.5699997      -4.94280283E-10
  -10.5600004      -4.65536332E-10
  -10.5500002      -4.36707587E-10
  -10.5400000      -4.07922279E-10
  -10.5299997      -3.79268172E-10
  -10.5200005      -3.50767720E-10
  -10.5100002      -3.22391114E-10
  -10.5000000      -2.94082841E-10
  -10.4899998      -2.65799133E-10
  -10.4799995      -2.37552561E-10
  -10.4700003      -2.09447598E-10
  -10.4600000      -1.81687415E-10
  -10.4499998      -1.54559726E-10
  -10.4399996      -1.28387259E-10
  -10.4300003      -1.03467436E-10
  -10.4200001      -8.00113517E-11
  -10.4099998      -5.80967566E-11
  -10.3999996      -3.76443494E-11
  -10.3900003      -1.84296519E-11
  -10.3800001      -1.21692790E-13
  -10.3699999       1.76627844E-11
  -10.3599997       3.52981533E-11
  -10.3500004       5.31000799E-11
  -10.3400002       7.12919238E-11
  -10.3299999       8.99912922E-11
  -10.3199997       1.09225191E-10
  -10.3100004       1.28940095E-10
  -10.3000002       1.49046386E-10
  -10.2900000       1.69430747E-10
  -10.2799997       1.89993826E-10
  -10.2700005       2.10662793E-10
  -10.2600002       2.31411654E-10
  -10.2500000       2.52268456E-10
  -10.2399998       2.73323364E-10
  -10.2299995       2.94724911E-10
  -10.2200003       3.16664944E-10
  -10.2100000       3.39356626E-10
  -10.1999998       3.62992525E-10
  -10.1899996       3.87708282E-10
  -10.1800003       4.13543783E-10
  -10.1700001       4.40413150E-10
  -10.1599998       4.68103056E-10
  -10.1499996       4.96288288E-10
  -10.1400003       5.24578991E-10
  -10.1300001       5.52571877E-10
  -10.1199999       5.79916115E-10
  -10.1099997       6.06356187E-10
  -10.1000004       6.31760089E-10
  -10.0900002       6.56118826E-10
  -10.0799999       6.79522216E-10
  -10.0699997       7.02105318E-10
  -10.0600004       7.24011906E-10
  -10.0500002       7.45336459E-10
  -10.0400000       7.66105457E-10
  -10.0299997       7.86265053E-10
  -10.0200005       8.05695288E-10
  -10.0100002       8.24229907E-10
  -10.0000000       8.41685055E-10
  -9.98999977       8.57883209E-10
  -9.97999954       8.72663164E-10
  -9.97000027       8.85887641E-10
  -9.96000004       8.97438790E-10
  -9.94999981       9.07211251E-10
  -9.93999958       9.15112819E-10
  -9.93000031       9.21066334E-10
  -9.92000008       9.25014898E-10
  -9.90999985       9.26930255E-10
  -9.89999962       9.26816235E-10
  -9.89000034       9.24698706E-10
  -9.88000011       9.20612753E-10
  -9.86999989       9.14576415E-10
  -9.85999966       9.06567654E-10
  -9.85000038       8.96510255E-10
  -9.84000015       8.84275375E-10
  -9.82999992       8.69700922E-10
  -9.81999969       8.52630133E-10
  -9.81000042       8.32958369E-10
  -9.80000019       8.10673861E-10
  -9.78999996       7.85884025E-10
  -9.77999973       7.58814400E-10
  -9.77000046       7.29776128E-10
  -9.76000023       6.99117764E-10
  -9.75000000       6.67163713E-10
  -9.73999977       6.34164110E-10
  -9.72999954       6.00268057E-10
  -9.72000027       5.65536173E-10
  -9.71000004       5.29980559E-10
  -9.69999981       4.93632135E-10
  -9.68999958       4.56603949E-10
  -9.68000031       4.19138863E-10
  -9.67000008       3.81619292E-10
  -9.65999985       3.44536372E-10
  -9.64999962       3.08422954E-10
  -9.64000034       2.73773476E-10
  -9.63000011       2.40969911E-10
  -9.61999989       2.10240367E-10
  -9.60999966       1.81659410E-10
  -9.60000038       1.55185850E-10
  -9.59000015       1.30727512E-10
  -9.57999992       1.08201781E-10
  -9.56999969       8.75724493E-11
  -9.56000042       6.88452351E-11
  -9.55000019       5.20227646E-11
  -9.53999996       3.70339905E-11
  -9.52999973       2.36656337E-11
  -9.52000046       1.15256658E-11
  -9.51000023       5.43212089E-14
  -9.50000000      -1.14114811E-11
  -9.48999977      -2.35375330E-11
  -9.47999954      -3.68877602E-11
  -9.47000027      -5.18471759E-11
  -9.46000004      -6.85955945E-11
  -9.44999981      -8.71499886E-11
  -9.43999958      -1.07443041E-10
  -9.43000031      -1.29419045E-10
  -9.42000008      -1.53104168E-10
  -9.40999985      -1.78612874E-10
  -9.39999962      -2.06097209E-10
  -9.39000034      -2.35635678E-10
  -9.38000011      -2.67106975E-10
  -9.36999989      -3.00100111E-10
  -9.35999966      -3.33889916E-10
  -9.35000038      -3.67498060E-10
  -9.34000015      -3.99827338E-10
  -9.32999992      -4.29829700E-10
  -9.31999969      -4.56645971E-10
  -9.31000042      -4.79680795E-10
  -9.30000019      -4.98579678E-10
  -9.28999996      -5.13116327E-10
  -9.27999973      -5.23039945E-10
  -9.27000046      -5.27927091E-10
  -9.26000023      -5.27107691E-10
  -9.25000000      -5.19696397E-10
  -9.23999977      -5.04718267E-10
  -9.22999954      -4.81300721E-10
  -9.22000027      -4.48860893E-10
  -9.21000004      -4.07221534E-10
  -9.19999981      -3.56616958E-10
  -9.18999958      -2.97581987E-10
  -9.18000031      -2.30761785E-10
  -9.17000008      -1.56710714E-10
  -9.15999985      -7.57472973E-11
  -9.14999962       1.20807704E-11
  -9.14000034       1.06911181E-10
  -9.13000011       2.08895345E-10
  -9.11999989       3.18005233E-10
  -9.10999966       4.33898445E-10
  -9.10000038       5.55890278E-10
  -9.09000015       6.83060275E-10
  -9.07999992       8.14443790E-10
  -9.06999969       9.49258561E-10
  -9.06000042       1.08705811E-09
  -9.05000019       1.22777388E-09
  -9.03999996       1.37160994E-09
  -9.02999973       1.51882007E-09
  -9.02000046       1.66944969E-09
  -9.01000023       1.82312787E-09
  -9.00000000       1.97898564E-09
  -8.98999977       2.13572937E-09
  -8.97999954       2.29184582E-09
  -8.97000027       2.44586129E-09
  -8.96000004       2.59656274E-09
  -8.94999981       2.74310152E-09
  -8.93999958       2.88493451E-09
  -8.93000031       3.02162939E-09
  -8.92000008       3.15259641E-09
  -8.90999985       3.27685767E-09
  -8.89999962       3.39293504E-09
  -8.89000034       3.49890850E-09
  -8.88000011       3.59262819E-09
  -8.86999989       3.67202158E-09
  -8.85999966       3.73538178E-09
  -8.85000038       3.78155418E-09
  -8.84000015       3.80995724E-09
  -8.82999992       3.82044130E-09
  -8.81999969       3.81303966E-09
  -8.81000042       3.78772924E-09
  -8.80000019       3.74426623E-09
  -8.78999996       3.68218234E-09
  -8.77999973       3.60092689E-09
  -8.77000046       3.50011375E-09
  -8.76000023       3.37975981E-09
  -8.75000000       3.24043370E-09
  -8.73999977       3.08324655E-09
  -8.72999954       2.90967894E-09
  -8.72000027       2.72130118E-09
  -8.71000004       2.51947729E-09
  -8.69999981       2.30515917E-09
  -8.68999958       2.07882933E-09
  -8.68000031       1.84061266E-09
  -8.67000008       1.59050217E-09
  -8.65999985       1.32861200E-09
  -8.64999962       1.05535702E-09
  -8.64000034       7.71489816E-10
  -8.63000011       4.77977380E-10
  -8.61999989       1.75771883E-10
  -8.60999966      -1.34455724E-10
  -8.60000038      -4.52503701E-10
  -8.59000015      -7.78684062E-10
  -8.57999992      -1.11370568E-09
  -8.56999969      -1.45842716E-09
  -8.56000042      -1.81356730E-09
  -8.55000019      -2.17947038E-09
  -8.53999996      -2.55599830E-09
  -8.52999973      -2.94257574E-09
  -8.52000046      -3.33836869E-09
  -8.51000023      -3.74251252E-09
  -8.50000000      -4.15431201E-09
  -8.48999977      -4.57332971E-09
  -8.47999954      -4.99934938E-09
  -8.47000027      -5.43220846E-09
  -8.46000004      -5.87160276E-09
  -8.44999981      -6.31690700E-09
  -8.43999958      -6.76709089E-09
  -8.43000031      -7.22075555E-09
  -8.42000008      -7.67628627E-09
  -8.40999985      -8.13202750E-09
  -8.39999962      -8.58645954E-09
  -8.39000034      -9.03826702E-09
  -8.38000011      -9.48633971E-09
  -8.36999989      -9.92964289E-09
  -8.35999966      -1.03670752E-08
  -8.35000038      -1.07973310E-08
  -8.34000015      -1.12188605E-08
  -8.32999992      -1.16299246E-08
  -8.31999969      -1.20286989E-08
  -8.31000042      -1.24134543E-08
  -8.30000019      -1.27826949E-08
  -8.28999996      -1.31352245E-08
  -8.27999973      -1.34701370E-08
  -8.27000046      -1.37867344E-08
  -8.26000023      -1.40844101E-08
  -8.25000000      -1.43625414E-08
  -8.23999977      -1.46204169E-08
  -8.22999954      -1.48572790E-08
  -8.22000027      -1.50723221E-08
  -8.21000004      -1.52648330E-08
  -8.19999981      -1.54341819E-08
  -8.18999958      -1.55798876E-08
  -8.18000031      -1.57015325E-08
  -8.17000008      -1.57987383E-08
  -8.15999985      -1.58710662E-08
  -8.14999962      -1.59179958E-08
  -8.14000034      -1.59389302E-08
  -8.13000011      -1.59331996E-08
  -8.11999989      -1.59001647E-08
  -8.10999966      -1.58392499E-08
  -8.10000038      -1.57499755E-08
  -8.09000015      -1.56319757E-08
  -8.07999992      -1.54849396E-08
  -8.06999969      -1.53086006E-08
  -8.06000042      -1.51027297E-08
  -8.05000019      -1.48671786E-08
  -8.03999996      -1.46019250E-08
  -8.02999973      -1.43071626E-08
  -8.02000046      -1.39833247E-08
  -8.01000023      -1.36311460E-08
  -8.00000000      -1.32515714E-08
  -7.98999977      -1.28457138E-08
  -7.98000002      -1.24147235E-08
  -7.96999979      -1.19597381E-08
  -7.96000004      -1.14818919E-08
  -7.94999981      -1.09823235E-08
  -7.94000006      -1.04623012E-08
  -7.92999983      -9.92328708E-09
  -7.92000008      -9.36702005E-09
  -7.90999985      -8.79548701E-09
  -7.90000010      -8.21089152E-09
  -7.88999987      -7.61550467E-09
  -7.88000011      -7.01150826E-09
  -7.86999989      -6.40095976E-09
  -7.86000013      -5.78576254E-09
  -7.84999990      -5.16768761E-09
  -7.84000015      -4.54851090E-09
  -7.82999992      -3.93006294E-09
  -7.82000017      -3.31432792E-09
  -7.80999994      -2.70337575E-09
  -7.80000019      -2.09926654E-09
  -7.78999996      -1.50393520E-09
  -7.78000021      -9.18970067E-10
  -7.76999998      -3.45630496E-10
  -7.76000023       2.15233373E-10
  -7.75000000       7.63032415E-10
  -7.73999977       1.29727507E-09
  -7.73000002       1.81744730E-09
  -7.71999979       2.32287434E-09
  -7.71000004       2.81270696E-09
  -7.69999981       3.28602701E-09
  -7.69000006       3.74198805E-09
  -7.67999983       4.17993817E-09
  -7.67000008       4.59952432E-09
  -7.65999985       5.00066211E-09
  -7.65000010       5.38345590E-09
  -7.63999987       5.74798342E-09
  -7.63000011       6.09416917E-09
  -7.61999989       6.42166587E-09
  -7.61000013       6.72984246E-09
  -7.59999990       7.01792047E-09
  -7.59000015       7.28509653E-09
  -7.57999992       7.53078933E-09
  -7.57000017       7.75473019E-09
  -7.55999994       7.95701638E-09
  -7.55000019       8.13802181E-09
  -7.53999996       8.29824920E-09
  -7.53000021       8.43818793E-09
  -7.51999998       8.55814708E-09
  -7.51000023       8.65824834E-09
  -7.50000000       8.73848993E-09
  -7.48999977       8.79889939E-09
  -7.48000002       8.83964102E-09
  -7.46999979       8.86115981E-09
  -7.46000004       8.86418849E-09
  -7.44999981       8.84968010E-09
  -7.44000006       8.81866669E-09