  -16.0000000       0.00000000    
  -15.9899998       0.00000000    
  -15.9799995       0.00000000    
  -15.9700003       0.00000000    
  -15.9600000       0.00000000    
  -15.9499998       0.00000000    
  -15.9399996       0.00000000    
  -15.9300003       0.00000000    
  -15.9200001       0.00000000    
  -15.9099998       0.00000000    
  -15.8999996       0.00000000    
  -15.8900003       0.00000000    
  -15.8800001      -0.00000000    
  -15.8699999      -0.00000000    
  -15.8599997      -4.20389539E-45
  -15.8500004      -7.42688186E-44
  -15.8400002      -7.77720648E-43
  -15.8299999      -6.03959638E-42
  -15.8199997      -3.73263872E-41
  -15.8100004      -1.91323483E-40
  -15.8000002      -8.35738608E-40
  -15.7900000      -3.16992070E-39
  -15.7799997      -1.05728291E-38
  -15.7700005      -3.12483364E-38
  -15.7600002      -8.20609685E-38
  -15.7500000      -1.90797324E-37
  -15.7399998      -3.87281677E-37
  -15.7299995      -6.60966926E-37
  -15.7200003      -8.45417847E-37
  -15.7100000      -3.79640991E-37
  -15.6999998       2.07937930E-36
  -15.6899996       9.11128656E-36
  -15.6800003       2.47283891E-35
  -15.6700001       5.35934736E-35
  -15.6599998       9.81109485E-35
  -15.6499996       1.52132846E-34
  -15.6400003       1.90878357E-34
  -15.6300001       1.59306048E-34
  -15.6199999      -3.38892008E-35
  -15.6099997      -5.02976171E-34
  -15.6000004      -1.33390590E-33
  -15.5900002      -2.47912659E-33
  -15.5799999      -3.60176575E-33
  -15.5699997      -3.91563744E-33
  -15.5600004      -2.13409383E-33
  -15.5500002       3.28859165E-33
  -15.5400000       1.34113091E-32
  -15.5299997       2.74339663E-32
  -15.5200005       4.08737048E-32
  -15.5100002       4.40187017E-32
  -15.5000000       2.21337769E-32
  -15.4899998      -4.04708570E-32
  -15.4799995      -1.50484377E-31
  -15.4700003      -2.89453588E-31
  -15.4600000      -3.95399765E-31
  -15.4499998      -3.53037770E-31
  -15.4399996      -1.11721128E-32
  -15.4300003       7.50605993E-31
  -15.4200001       1.89298601E-30
  -15.4099998       3.04450818E-30
  -15.3999996       3.36304119E-30
  -15.3900003       1.58234555E-30
  -15.3800001      -3.55623378E-30
  -15.3699999      -1.23349170E-29
  -15.3599997      -2.26316043E-29
  -15.3500004      -2.85686821E-29
  -15.3400002      -2.03770565E-29
  -15.3299999       1.29376676E-29
  -15.3199997       7.67860445E-29
  -15.3100004       1.60278225E-28
  -15.3000002       2.25085623E-28
  -15.2900000       2.01736094E-28
  -15.2799997       4.64562815E-30
  -15.2700005      -4.23914610E-28
  -15.2600002      -1.04059237E-27
  -15.2500000      -1.61909753E-27
  -15.2399998      -1.70899474E-27
  -15.2299995      -7.08283511E-28
  -15.2200003       1.88010495E-27
  -15.2100000       5.99323245E-27
  -15.1999998       1.04622955E-26
  -15.1899996       1.26557309E-26
  -15.1800003       8.74360562E-27
  -15.1700001      -4.97335201E-27
  -15.1599998      -2.95010991E-26
  -15.1499996      -5.98357714E-26
  -15.1400003      -8.23213702E-26
  -15.1300001      -7.50183856E-26
  -15.1199999      -1.36679966E-26
  -15.1099997       1.15327545E-25
  -15.1000004       2.96590697E-25
  -15.0900002       4.68606304E-25
  -15.0799999       5.19220113E-25
  -15.0699997       3.07647076E-25
  -15.0600004      -2.77156492E-25
  -15.0500002      -1.22516607E-24
  -15.0400000      -2.30669042E-24
  -15.0299997      -3.01772271E-24
  -15.0200005      -2.63703342E-24
  -15.0100002      -4.53710490E-25
  -15.0000000       3.82583655E-24
  -14.9899998       9.57602828E-24
  -14.9799995       1.48588546E-23
  -14.9700003       1.64396199E-23
  -14.9600000       1.05175172E-23
  -14.9499998      -5.67965928E-24
  -14.9399996      -3.16397815E-23
  -14.9300003      -6.13533098E-23
  -14.9200001      -8.23350788E-23
  -14.9099998      -7.72841475E-23
  -14.8999996      -2.94148498E-23
  -14.8900003       6.86670412E-23
  -14.8800001       2.04559723E-22
  -14.8699999       3.38300664E-22
  -14.8599997       4.02910998E-22
  -14.8500004       3.18589996E-22
  -14.8400002       2.27206156E-23
  -14.8299999      -4.88454645E-22
  -14.8199997      -1.11894202E-21
  -14.8100004      -1.65292527E-21
  -14.8000002      -1.77828201E-21
  -14.7900000      -1.17008545E-21
  -14.7799997       3.67494627E-22
  -14.7700005       2.73058581E-21
  -14.7600002       5.37710736E-21
  -14.7500000       7.30271719E-21
  -14.7399998       7.21007215E-21
  -14.7299995       3.90908755E-21
  -14.7200003      -3.09570062E-21
  -14.7100000      -1.29825569E-20
  -14.6999998      -2.32074940E-20
  -14.6899996      -2.96147946E-20
  -14.6800003      -2.73011510E-20
  -14.6700001      -1.22760267E-20
  -14.6599998       1.63566016E-20
  -14.6499996       5.43371584E-20
  -14.6400003       9.12373301E-20
  -14.6300001       1.11464229E-19
  -14.6199999       9.79088649E-20
  -14.6099997       3.80926656E-20
  -14.6000004      -6.84311140E-20
  -14.5900002      -2.03787873E-19
  -14.5799999      -3.29676891E-19
  -14.5699997      -3.92327422E-19
  -14.5600004      -3.35947593E-19
  -14.5500002      -1.23412401E-19
  -14.5400000       2.40491544E-19
  -14.5299997       6.91096994E-19
  -14.5200005       1.10050053E-18
  -14.5100002       1.29671552E-18
  -14.5000000       1.10811017E-18
  -14.4899998       4.27508706E-19
  -14.4799995      -7.19521246E-19
  -14.4700003      -2.12584259E-18
  -14.4600000      -3.39972348E-18
  -14.4499998      -4.02794400E-18
  -14.4399996      -3.50936669E-18
  -14.4300003      -1.53928096E-18
  -14.4200001       1.80148047E-18
  -14.4099998       5.91852981E-18
  -14.3999996       9.70663444E-18
  -14.3900003       1.17328903E-17
  -14.3800001       1.06049997E-17
  -14.3699999       5.46587259E-18
  -14.3599997      -3.51022199E-18
  -14.3500004      -1.47905601E-17
  -14.3400002      -2.54993644E-17
  -14.3299999      -3.18928088E-17
  -14.3199997      -3.02945833E-17
  -14.3100004      -1.83367512E-17
  -14.3000002       3.80477646E-18
  -14.2900000       3.25931297E-17
  -14.2799997       6.11407572E-17
  -14.2700005       8.03146847E-17
  -14.2600002       8.09284924E-17
  -14.2500000       5.66542023E-17
  -14.2399998       6.93863500E-18
  -14.2299995      -6.10104200E-17
  -14.2200003      -1.32083816E-16
  -14.2100000      -1.85571340E-16
  -14.1999998      -1.99892298E-16
  -14.1899996      -1.58973949E-16
  -14.1800003      -5.87549301E-17
  -14.1700001       8.81676132E-17
  -14.1599998       2.51689779E-16
  -14.1499996       3.88434698E-16
  -14.1400003       4.51121595E-16
  -14.1300001       4.01561750E-16
  -14.1199999       2.24287072E-16
  -14.1099997      -6.31213982E-17
  -14.1000004      -4.06897872E-16
  -14.0900002      -7.23814800E-16
  -14.0799999      -9.18108329E-16
  -14.0699997      -9.05998828E-16
  -14.0600004      -6.42358341E-16
  -14.0500002      -1.42248543E-16
  -14.0400000       5.10026648E-16
  -14.0299997       1.16962343E-15
  -14.0200005       1.65882721E-15
  -14.0100002       1.80966874E-15
  -14.0000000       1.51236293E-15
  -13.9899998       7.57005574E-16
  -13.9799995      -3.44492561E-16
  -13.9700003      -1.56607953E-15
  -13.9600000      -2.60808432E-15
  -13.9499998      -3.16514910E-15
  -13.9399996      -3.00751288E-15
  -13.9300003      -2.05544657E-15
  -13.9200001      -4.25248444E-16
  -13.9099998       1.57040448E-15
  -13.8999996       3.47499163E-15
  -13.8900003       4.78734213E-15
  -13.8800001       5.08747470E-15
  -13.8699999       4.15884156E-15
  -13.8599997       2.07340748E-15
  -13.8500004      -7.88531452E-16
  -13.8400002      -3.79789499E-15
  -13.8299999      -6.21013090E-15
  -13.8199997      -7.34593897E-15
  -13.8100004      -6.77685650E-15
  -13.8000002      -4.46657160E-15
  -13.7900000      -8.24850319E-16
  -13.7799997       3.35060463E-15
  -13.7700005       7.04166399E-15
  -13.7600002       9.25421696E-15
  -13.7500000       9.28271115E-15
  -13.7399998       6.92625194E-15
  -13.7299995       2.59322927E-15
  -13.7200003      -2.74546058E-15
  -13.7100000      -7.75815942E-15
  -13.6999998      -1.10715643E-14
  -13.6899996      -1.16341822E-14
  -13.6800003      -9.03158451E-15
  -13.6700001      -3.66411122E-15
  -13.6599998       3.27485468E-15
  -13.6499996       1.00352084E-14
  -13.6400003       1.47205873E-14
  -13.6300001       1.57821415E-14
  -13.6199999       1.24733149E-14
  -13.6099997       5.14100591E-15
  -13.6000004      -4.74107168E-15
  -13.5900002      -1.48328564E-14
  -13.5799999      -2.24448230E-14
  -13.5699997      -2.52030334E-14
  -13.5600004      -2.17045366E-14
  -13.5500002      -1.19920883E-14
  -13.5400000       2.29300204E-15
  -13.5299997       1.81516874E-14
  -13.5200005       3.18390029E-14
  -13.5100002       3.97267499E-14
  -13.5000000       3.92213151E-14
  -13.4899998       2.95087542E-14
  -13.4799995       1.19227951E-14
  -13.4700003      -1.01906026E-14
  -13.4600000      -3.21211902E-14
  -13.4499998      -4.88340176E-14
  -13.4399996      -5.61701259E-14
  -13.4300003      -5.19175394E-14
  -13.4200001      -3.64718225E-14
  -13.4099998      -1.28884389E-14
  -13.3999996       1.37299738E-14
  -13.3900003       3.74009566E-14
  -13.3800001       5.27215973E-14
  -13.3699999       5.62609651E-14
  -13.3599997       4.75166950E-14
  -13.3500004       2.91525295E-14
  -13.3400002       6.40179709E-15
  -13.3299999      -1.42651495E-14
  -13.3199997      -2.69059440E-14
  -13.3100004      -2.78564081E-14
  -13.3000002      -1.69816350E-14
  -13.2900000       1.96744726E-15
  -13.2799997       2.20834178E-14
  -13.2700005       3.50331065E-14
  -13.2600002       3.34230866E-14
  -13.2500000       1.32189732E-14
  -13.2399998      -2.44448220E-14
  -13.2299995      -7.26437343E-14
  -13.2200003      -1.19561669E-13
  -13.2100000      -1.50878184E-13
  -13.1999998      -1.53217012E-13
  -13.1899996      -1.17897676E-13
  -13.1800003      -4.40599942E-14
  -13.1700001       5.97241711E-14
  -13.1599998       1.75960049E-13
  -13.1499996       2.81009591E-13
  -13.1400003       3.49743482E-13
  -13.1300001       3.61162028E-13
  -13.1199999       3.03747018E-13
  -13.1099997       1.79242268E-13
  -13.1000004       3.80861843E-15
  -13.0900002      -1.93976088E-13
  -13.0799999      -3.78098133E-13
  -13.0699997      -5.12178462E-13
  -13.0600004      -5.67175538E-13
  -13.0500002      -5.28003260E-13
  -13.0400000      -3.97480090E-13
  -13.0299997      -1.96541229E-13
  -13.0200005       3.95396606E-14
  -13.0100002       2.68251404E-13
  -13.0000000       4.48778303E-13
  -12.9899998       5.50762506E-13
  -12.9799995       5.60835287E-13
  -12.9700003       4.85295723E-13
  -12.9600000       3.48175292E-13
  -12.9499998       1.85018301E-13
  -12.9399996       3.37843258E-14
  -12.9300003      -7.49413959E-14
  -12.9200001      -1.25960359E-13
  -12.9099998      -1.23545298E-13
  -12.8999996      -9.03290165E-14
  -12.8900003      -6.09873548E-14
  -12.8800001      -7.20469759E-14
  -12.8699999      -1.50247544E-13
  -12.8599997      -3.02447168E-13
  -12.8500004      -5.09905377E-13
  -12.8400002      -7.28900989E-13
  -12.8299999      -8.98202194E-13
  -12.8199997      -9.52233626E-13
  -12.8100004      -8.37265695E-13
  -12.8000002      -5.26967142E-13
  -12.7900000      -3.35015693E-14
  -12.7799997       5.88915906E-13
  -12.7700005       1.24955526E-12
  -12.7600002       1.83536758E-12
  -12.7500000       2.23138847E-12
  -12.7399998       2.34333711E-12
  -12.7299995       2.11768992E-12
  -12.7200003       1.55482897E-12
  -12.7100000       7.12200969E-13
  -12.6999998      -3.03489926E-13
  -12.6899996      -1.35369710E-12
  -12.6800003      -2.29158901E-12
  -12.6700001      -2.98695964E-12
  -12.6599998      -3.34740764E-12
  -12.6499996      -3.33159065E-12
  -12.6400003      -2.95218537E-12
  -12.6300001      -2.26851610E-12
  -12.6199999      -1.37117596E-12
  -12.6099997      -3.62654188E-13
  -12.6000004       6.61227800E-13
  -12.5900002       1.62475003E-12
  -12.5799999       2.47777059E-12
  -12.5699997       3.19264038E-12
  -12.5600004       3.75430459E-12
  -12.5500002       4.14725762E-12
  -12.5400000       4.34397136E-12
  -12.5299997       4.29915348E-12
  -12.5200005       3.95274265E-12
  -12.5100002       3.24221813E-12
  -12.5000000       2.12215944E-12
  -12.4899998       5.86714488E-13
  -12.4799995      -1.31074817E-12
  -12.4700003      -3.44653798E-12
  -12.4600000      -5.62840703E-12
  -12.4499998      -7.61197095E-12
  -12.4399996      -9.13034839E-12
  -12.4300003      -9.93247585E-12
  -12.4200001      -9.82326720E-12
  -12.4099998      -8.69786621E-12
  -12.3999996      -6.56298019E-12
  -12.3900003      -3.54058297E-12
  -12.3800001       1.47347398E-13
  -12.3699999       4.21056896E-12
  -12.3599997       8.33298968E-12
  -12.3500004       1.22177260E-11
  -12.3400002       1.56263665E-11
  -12.3299999       1.84051958E-11
  -12.3199997       2.04941550E-11
  -12.3100004       2.19178790E-11
  -12.3000002       2.27621463E-11
  -12.2900000       2.31420039E-11
  -12.2799997       2.31694369E-11
  -12.2700005       2.29280848E-11
  -12.2600002       2.24604970E-11
  -12.2500000       2.17698793E-11
  -12.2399998       2.08347575E-11
  -12.2299995       1.96311196E-11
  -12.2200003       1.81549081E-11
  -12.2100000       1.64372509E-11
  -12.1999998       1.45465653E-11
  -12.1899996       1.25751033E-11
  -12.1800003       1.06116990E-11
  -12.1700001       8.70645309E-12
  -12.1599998       6.83600789E-12
  -12.1499996       4.87897049E-12
  -12.1400003       2.60977286E-12
  -12.1300001      -2.84482236E-13
  -12.1199999      -4.16418375E-12
  -12.1099997      -9.37992652E-12
  -12.1000004      -1.62074104E-11
  -12.0900002      -2.47867057E-11
  -12.0799999      -3.50780828E-11
  -12.0699997      -4.68435360E-11
  -12.0600004      -5.96587710E-11
  -12.0500002      -7.29541982E-11
  -12.0400000      -8.60779434E-11
  -12.0299997      -9.83697707E-11
  -12.0200005      -1.09232540E-10
  -12.0100002      -1.18189472E-10
  -12.0000000      -1.24918215E-10
  -11.9899998      -1.29257938E-10
  -11.9799995      -1.31192043E-10
  -11.9700003      -1.30812736E-10
  -11.9600000      -1.28277611E-10
  -11.9499998      -1.23769064E-10
  -11.9399996      -1.17464302E-10
  -11.9300003      -1.09521579E-10
  -11.9200001      -1.00082463E-10
  -11.9099998      -8.92857871E-11
  -11.8999996      -7.72868297E-11
  -11.8900003      -6.42728579E-11
  -11.8800001      -5.04688305E-11
  -11.8699999      -3.61290407E-11
  -11.8599997      -2.15153902E-11
  -11.8500004      -6.86573845E-12
  -11.8400002       7.64009082E-12
  -11.8299999       2.19088012E-11
  -11.8199997       3.59499132E-11
  -11.8100004       4.98746044E-11
  -11.8000002       6.38772438E-11
  -11.7900000       7.82017159E-11
  -11.7799997       9.30990424E-11
  -11.7700005       1.08783781E-10
  -11.7600002       1.25396513E-10
  -11.7500000       1.42978351E-10
  -11.7399998       1.61460248E-10
  -11.7299995       1.80667176E-10
  -11.7200003       2.00334180E-10
  -11.7100000       2.20129900E-10
  -11.6999998       2.39682191E-10
  -11.6899996       2.58601696E-10
  -11.6800003       2.76500406E-10
  -11.6700001       2.93003732E-10
  -11.6599998       3.07757431E-10
  -11.6499996       3.20430432E-10
  -11.6400003       3.30716260E-10
  -11.6300001       3.38334971E-10
  -11.6199999       3.43036211E-10
  -11.6099997       3.44604206E-10
  -11.6000004       3.42863377E-10
  -11.5900002       3.37684325E-10
  -11.5799999       3.28987754E-10
  -11.5699997       3.16746795E-10
  -11.5600004       3.00986014E-10
  -11.5500002       2.81778184E-10
  -11.5400000       2.59239491E-10
  -11.5299997       2.33522535E-10
  -11.5200005       2.04810627E-10
  -11.5100002       1.73311213E-10
  -11.5000000       1.39251291E-10
  -11.4899998       1.02873300E-10
  -11.4799995       6.44332920E-11
  -11.4700003       2.41994879E-11
  -11.4600000      -1.75486795E-11
  -11.4499998      -6.05214212E-11
  -11.4399996      -1.04421034E-10
  -11.4300003      -1.48946064E-10
  -11.4200001      -1.93799504E-10
  -11.4099998      -2.38699088E-10
  -11.3999996      -2.83391144E-10
  -11.3900003      -3.27666200E-10
  -11.3800001      -3.71373376E-10
  -11.3699999      -4.14432488E-10
  -11.3599997      -4.56839622E-10
  -11.3500004      -4.98665831E-10
  -11.3400002      -5.40047784E-10
  -11.3299999      -5.81170390E-10
  -11.3199997      -6.22245144E-10
  -11.3100004      -6.63485766E-10
  -11.3000002      -7.05086045E-10
  -11.2900000      -7.47202189E-10
  -11.2799997      -7.89941113E-10
  -11.2700005      -8.33356828E-10
  -11.2600002      -8.77449058E-10
  -11.2500000      -9.22168009E-10
  -11.2399998      -9.67417146E-10
  -11.2299995      -1.01305431E-09
  -11.2200003      -1.05889242E-09
  -11.2100000      -1.10469667E-09
  -11.1999998      -1.15018461E-09
  -11.1899996      -1.19502941E-09
  -11.1800003      -1.23887123E-09
  -11.1700001      -1.28133715E-09
  -11.1599998      -1.32206701E-09
  -11.1499996      -1.36074563E-09
  -11.1400003      -1.39713474E-09
  -11.1300001      -1.43110013E-09
  -11.1199999      -1.46262735E-09
  -11.1099997      -1.49182566E-09
  -11.1000004      -1.51892243E-09
  -11.0900002      -1.54423951E-09
  -11.0799999      -1.56817148E-09
  -11.0699997      -1.59115776E-09
  -11.0600004      -1.61365876E-09
  -11.0500002      -1.63613889E-09
  -11.0400000      -1.65904923E-09
  -11.0299997      -1.68282044E-09
  -11.0200005      -1.70785119E-09
  -11.0100002      -1.73448955E-09
  -11.0000000      -1.76301351E-09
  -10.9899998      -1.79360315E-09
  -10.9799995      -1.82631033E-09
  -10.9700003      -1.86103810E-09
  -10.9600000      -1.89752236E-09
  -10.9499998      -1.93533300E-09
  -10.9399996      -1.97389682E-09
  -10.9300003      -2.01253036E-09
  -10.9200001      -2.05049067E-09
  -10.9099998      -2.08702944E-09
  -10.8999996      -2.12143880E-09
  -10.8900003      -2.15309282E-09
  -10.8800001      -2.18146257E-09
  -10.8699999      -2.20612395E-09
  -10.8599997      -2.22674390E-09
  -10.8500004      -2.24306818E-09
  -10.8400002      -2.25490204E-09
  -10.8299999      -2.26210717E-09
  -10.8199997      -2.26460251E-09
  -10.8100004      -2.26237851E-09
  -10.8000002      -2.25551711E-09
  -10.7900000      -2.24420260E-09
  -10.7799997      -2.22873209E-09
  -10.7700005      -2.20950391E-09
  -10.7600002      -2.18699703E-09
  -10.7500000      -2.16172480E-09
  -10.7399998      -2.13419193E-09
  -10.7299995      -2.10484630E-09
  -10.7200003      -2.07404161E-09
  -10.7100000      -2.04201411E-09
  -10.6999998      -2.00888128E-09
  -10.6899996      -1.97464867E-09
  -10.6800003      -1.93923766E-09
  -10.6700001      -1.90250971E-09
  -10.6599998      -1.86429805E-09
  -10.6499996      -1.82442195E-09
  -10.6400003      -1.78270287E-09
  -10.6300001      -1.73897030E-09
  -10.6199999      -1.69305636E-09
  -10.6099997      -1.64480607E-09
  -10.6000004      -1.59407088E-09
  -10.5900002      -1.54071966E-09
  -10.5799999      -1.48464663E-09
  -10.5699997      -1.42576650E-09
  -10.5600004      -1.36402445E-09
  -10.5500002      -1.29938138E-09
  -10.5400000      -1.23179655E-09
  -10.5299997      -1.16121179E-09
  -10.5200005      -1.08753195E-09
  -10.5100002      -1.01061071E-09
  -10.5000000      -9.30253541E-10
  -10.4899998      -8.46235138E-10
  -10.4799995      -7.58329788E-10
  -10.4700003      -6.66353028E-10
  -10.4600000      -5.70204883E-10
  -10.4499998      -4.69909056E-10
  -10.4399996      -3.65638908E-10
  -10.4300003      -2.57722593E-10
  -10.4200001      -1.46634788E-10
  -10.4099998      -3.29676390E-11
  -10.3999996       8.26033894E-11
  -10.3900003       1.99354561E-10
  -10.3800001       3.16547677E-10
  -10.3699999       4.33452774E-10
  -10.3599997       5.49362222E-10
  -10.3500004       6.63599120E-10
  -10.3400002       7.75522979E-10
  -10.3299999       8.84541884E-10
  -10.3199997       9.90125870E-10
  -10.3100004       1.09183451E-09
  -10.3000002       1.18934151E-09
  -10.2900000       1.28246513E-09
  -10.2799997       1.37118805E-09
  -10.2700005       1.45566326E-09
  -10.2600002       1.53621404E-09
  -10.2500000       1.61330760E-09
  -10.2399998       1.68753012E-09
  -10.2299995       1.75954851E-09
  -10.2200003       1.83007853E-09
  -10.2100000       1.89985783E-09
  -10.1999998       1.96962380E-09
  -10.1899996       2.04009964E-09
  -10.1800003       2.11198525E-09
  -10.1700001       2.18593943E-09
  -10.1599998       2.26256769E-09
  -10.1499996       2.34239339E-09
  -10.1400003       2.42583176E-09
  -10.1300001       2.51316323E-09
  -10.1199999       2.60451016E-09
  -10.1099997       2.69983258E-09
  -10.1000004       2.79892820E-09
  -10.0900002       2.90146085E-09
  -10.0799999       3.00699177E-09
  -10.0699997       3.11502579E-09
  -10.0600004       3.22504512E-09
  -10.0500002       3.33654082E-09
  -10.0400000       3.44904327E-09
  -10.0299997       3.56212748E-09
  -10.0200005       3.67541619E-09
  -10.0100002       3.78856901E-09
  -10.0000000       3.90128241E-09
  -9.98999977       4.01327060E-09
  -9.97999954       4.12426093E-09
  -9.97000027       4.23398516E-09
  -9.96000004       4.34217062E-09
  -9.94999981       4.44853576E-09
  -9.93999958       4.55276705E-09
  -9.93000031       4.65451633E-09
  -9.92000008       4.75339501E-09
  -9.90999985       4.84897900E-09
  -9.89999962       4.94083530E-09
  -9.89000034       5.02855579E-09
  -9.88000011       5.11180565E-09
  -9.86999989       5.19038457E-09
  -9.85999966       5.26428989E-09
  -9.85000038       5.33375388E-09
  -9.84000015       5.39928235E-09
  -9.82999992       5.46165513E-09
  -9.81999969       5.52190604E-09
  -9.81000042       5.58128344E-09
  -9.80000019       5.64118396E-09
  -9.78999996       5.70307623E-09
  -9.77999973       5.76844039E-09
  -9.77000046       5.83869841E-09
  -9.76000023       5.91515903E-09
  -9.75000000       5.99898220E-09
  -9.73999977       6.09115602E-09
  -9.72999954       6.19247809E-09
  -9.72000027       6.30354835E-09
  -9.71000004       6.42476605E-09
  -9.69999981       6.55633281E-09
  -9.68999958       6.69824818E-09
  -9.68000031       6.85032475E-09
  -9.67000008       7.01218372E-09
  -9.65999985       7.18328641E-09
  -9.64999962       7.36293604E-09
  -9.64000034       7.55031593E-09
  -9.63000011       7.74449749E-09
  -9.61999989       7.94447708E-09
  -9.60999966       8.14918888E-09
  -9.60000038       8.35751024E-09
  -9.59000015       8.56824922E-09
  -9.57999992       8.78015527E-09
  -9.56999969       8.99190145E-09
  -9.56000042       9.20207555E-09
  -9.55000019       9.40920142E-09
  -9.53999996       9.61173985E-09
  -9.52999973       9.80812587E-09
  -9.52000046       9.99681404E-09
  -9.51000023       1.01763051E-08
  -9.50000000       1.03452198E-08
  -9.48999977       1.05023039E-08
  -9.47999954       1.06464633E-08
  -9.47000027       1.07767759E-08
  -9.46000004       1.08924789E-08
  -9.44999981       1.09929736E-08
  -9.43999958       1.10778116E-08
  -9.43000031       1.11467280E-08
  -9.42000008       1.11996190E-08
  -9.40999985       1.12365806E-08
  -9.39999962       1.12579492E-08
  -9.39000034       1.12643006E-08
  -9.38000011       1.12565042E-08
  -9.36999989       1.12356906E-08
  -9.35999966       1.12032934E-08
  -9.35000038       1.11610072E-08
  -9.34000015       1.11108163E-08
  -9.32999992       1.10549419E-08
  -9.31999969       1.09958638E-08
  -9.31000042       1.09362972E-08
  -9.30000019       1.08791536E-08
  -9.28999996       1.08275406E-08
  -9.27999973       1.07846621E-08
  -9.27000046       1.07538130E-08
  -9.26000023       1.07382583E-08
  -9.25000000       1.07411866E-08
  -9.23999977       1.07656604E-08
  -9.22999954       1.08145874E-08
  -9.22000027       1.08906502E-08
  -9.21000004       1.09963700E-08
  -9.19999981       1.11340688E-08
  -9.18999958       1.13058833E-08
  -9.18000031       1.15137606E-08
  -9.17000008       1.17594059E-08
  -9.15999985       1.20442500E-08
  -9.14999962       1.23693891E-08
  -9.14000034       1.27355371E-08
  -9.13000011       1.31429818E-08
  -9.11999989       1.35916283E-08
  -9.10999966       1.40809284E-08
  -9.10000038       1.46099879E-08
  -9.09000015       1.51775712E-08
  -9.07999992       1.57820921E-08
  -9.06999969       1.64217013E-08
  -9.06000042       1.70941838E-08
  -9.05000019       1.77969603E-08
  -9.03999996       1.85270697E-08
  -9.02999973       1.92811314E-08
  -9.02000046       2.00553618E-08
  -9.01000023       2.08456079E-08
  -9.00000000       2.16474128E-08
  -8.98999977       2.24560672E-08
  -8.97999954       2.32667148E-08
  -8.97000027       2.40744100E-08
  -8.96000004       2.48741241E-08
  -8.94999981       2.56607997E-08
  -8.93999958       2.64293760E-08
  -8.93000031       2.71747798E-08
  -8.92000008       2.78919945E-08
  -8.90999985       2.85761015E-08
  -8.89999962       2.92223916E-08
  -8.89000034       2.98264240E-08
  -8.88000011       3.03841396E-08
  -8.86999989       3.08918615E-08
  -8.85999966       3.13463957E-08
  -8.85000038       3.17449498E-08
  -8.84000015       3.20851825E-08
  -8.82999992       3.23650688E-08
  -8.81999969       3.25829390E-08
  -8.81000042       3.27374394E-08
  -8.80000019       3.28275043E-08
  -8.78999996       3.28523946E-08
  -8.77999973       3.28117551E-08
  -8.77000046       3.27056071E-08
  -8.76000023       3.25344089E-08
  -8.75000000       3.22989777E-08
  -8.73999977       3.20005533E-08
  -8.72999954       3.16407416E-08
  -8.72000027       3.12214894E-08
  -8.71000004       3.07451167E-08
  -8.69999981       3.02142595E-08
  -8.68999958       2.96318543E-08
  -8.68000031       2.90011979E-08
  -8.67000008       2.83258750E-08
  -8.65999985       2.76097083E-08
  -8.64999962       2.68567248E-08
  -8.64000034       2.60710245E-08
  -8.63000011       2.52566945E-08
  -8.61999989       2.44177976E-08
  -8.60999966       2.35582256E-08
  -8.60000038       2.26816326E-08
  -8.59000015       2.17915606E-08
  -8.57999992       2.08912496E-08
  -8.56999969       1.99837391E-08
  -8.56000042       1.90718570E-08
  -8.55000019       1.81582056E-08
  -8.53999996       1.72451990E-08
  -8.52999973       1.63349920E-08
  -8.52000046       1.54295652E-08
  -8.51000023       1.45306682E-08
  -8.50000000       1.36398768E-08
  -8.48999977       1.27585604E-08
  -8.47999954       1.18878578E-08
  -8.47000027       1.10287477E-08
  -8.46000004       1.01819584E-08
  -8.44999981       9.34799971E-09
  -8.43999958       8.52710613E-09
  -8.43000031       7.71931408E-09
  -8.42000008       6.92445967E-09
  -8.40999985       6.14228757E-09
  -8.39999962       5.37248068E-09
  -8.39000034       4.61470062E-09
  -8.38000011       3.86866317E-09
  -8.36999989       3.13416115E-09
  -8.35999966       2.41098452E-09
  -8.35000038       1.69888714E-09
  -8.34000015       9.97720684E-10
  -8.32999992       3.07207954E-10
  -8.31999969      -3.72875647E-10
  -8.31000042      -1.04275044E-09
  -8.30000019      -1.70251879E-09
  -8.28999996      -2.35215070E-09
  -8.27999973      -2.99141845E-09
  -8.27000046      -3.61993857E-09
  -8.26000023      -4.23714397E-09
  -8.25000000      -4.84227325E-09
  -8.23999977      -5.43456435E-09
  -8.22999954      -6.01316952E-09
  -8.22000027      -6.57716503E-09
  -8.21000004      -7.12551662E-09
  -8.19999981      -7.65708918E-09
  -8.18999958      -8.17053714E-09
  -8.18000031      -8.66423910E-09
  -8.17000008      -9.13643028E-09
  -8.15999985      -9.58504742E-09
  -8.14999962      -1.00079198E-08
  -8.14000034      -1.04028111E-08
  -8.13000011      -1.07673932E-08
  -8.11999989      -1.10993970E-08
  -8.10999966      -1.13965415E-08
  -8.10000038      -1.16565371E-08
  -8.09000015      -1.18771597E-08
  -8.07999992      -1.20561987E-08
  -8.06999969      -1.21915642E-08
  -8.06000042      -1.22812898E-08
  -8.05000019      -1.23236124E-08
  -8.03999996      -1.23170896E-08
  -8.02999973      -1.22605446E-08
  -8.02000046      -1.21530999E-08
  -8.01000023      -1.19941257E-08
  -8.00000000      -1.17831913E-08
  -7.98999977      -1.15200764E-08
  -7.98000002      -1.12045848E-08
  -7.96999979      -1.08366827E-08
  -7.96000004      -1.04165396E-08
  -7.94999981      -9.94455274E-09
  -7.94000006      -9.42138634E-09
  -7.92999983      -8.84805562E-09
  -7.92000008      -8.22588841E-09
  -7.90999985      -7.55652785E-09
  -7.90000010      -6.84185908E-09
  -7.88999987      -6.08387163E-09
  -7.88000011      -5.28473221E-09
  -7.86999989      -4.44669501E-09
  -7.86000013      -3.57211749E-09
  -7.84999990      -2.66347255E-09
  -7.84000015      -1.72344050E-09
  -7.82999992      -7.54926510E-10
  -7.82000017       2.39078535E-10
  -7.80999994       1.25535782E-09
  -7.80000019       2.29070429E-09
  -7.78999996       3.34186478E-09
  -7.78000021       4.40566028E-09
  -7.76999998       5.47903323E-09
  -7.76000023       6.55902976E-09
  -7.75000000       7.64279395E-09
  -7.73999977       8.72759465E-09
  -7.73000002       9.81080106E-09
  -7.71999979       1.08900808E-08
  -7.71000004       1.19632499E-08
  -7.69999981       1.30285143E-08
  -7.69000006       1.40844447E-08
  -7.67999983       1.51299329E-08
  -7.67000008       1.61641545E-08
  -7.65999985       1.71865846E-08
  -7.65000010       1.81968378E-08
  -7.63999987       1.91946334E-08
  -7.63000011       2.01797832E-08
  -7.61999989       2.11521698E-08
  -7.61000013       2.21118146E-08
  -7.59999990       2.30587993E-08
  -7.59000015       2.39934508E-08
  -7.57999992       2.49160745E-08
  -7.57000017       2.58270987E-08
  -7.55999994       2.67269620E-08
  -7.55000019       2.76160232E-08
  -7.53999996       2.84946644E-08
  -7.53000021       2.93633757E-08
  -7.51999998       3.02226830E-08
  -7.51000023       3.10735686E-08
  -7.50000000       3.19171818E-08
  -7.48999977       3.27552279E-08
  -7.48000002       3.35896999E-08
  -7.46999979       3.44228006E-08
  -7.46000004       3.52567433E-08
  -7.44999981       3.60936667E-08
  -7.44000006       3.69354680E-08