  -16.0000000       0.00000000    
  -15.9899998       0.00000000    
  -15.9799995       0.00000000    
  -15.9700003       0.00000000    
  -15.9600000       0.00000000    
  -15.9499998       0.00000000    
  -15.9399996       0.00000000    
  -15.9300003       0.00000000    
  -15.9200001       0.00000000    
  -15.9099998       0.00000000    
  -15.8999996       0.00000000    
  -15.8900003      -1.33613809E-41
  -15.8800001      -3.60872190E-40
  -15.8699999      -6.57883425E-39
  -15.8599997      -8.51791603E-38
  -15.8500004      -8.04985207E-37
  -15.8400002      -5.84141018E-36
  -15.8299999      -3.40672957E-35
  -15.8199997      -1.65326978E-34
  -15.8100004      -6.84712694E-34
  -15.8000002      -2.46372412E-33
  -15.7900000      -7.79450614E-33
  -15.7799997      -2.18286788E-32
  -15.7700005      -5.41831191E-32
  -15.7600002      -1.18493663E-31
  -15.7500000      -2.24053337E-31
  -15.7399998      -3.48534545E-31
  -15.7299995      -3.77629512E-31
  -15.7200003      -5.17714859E-33
  -15.7100000       1.37927485E-30
  -15.6999998       4.71584184E-30
  -15.6899996       1.10063955E-29
  -15.6800003       2.04603410E-29
  -15.6700001       3.08208194E-29
  -15.6599998       3.50286694E-29
  -15.6499996       1.92501407E-29
  -15.6400003      -3.64529849E-29
  -15.6300001      -1.51475582E-28
  -15.6199999      -3.29035766E-28
  -15.6099997      -5.31778773E-28
  -15.6000004      -6.55927057E-28
  -15.5900002      -5.21192899E-28
  -15.5799999       9.79894980E-29
  -15.5699997       1.37532670E-27
  -15.5600004       3.26409496E-27
  -15.5500002       5.29307256E-27
  -15.5400000       6.42015757E-27
  -15.5299997       5.08752344E-27
  -15.5200005      -3.69272054E-28
  -15.5100002      -1.08767795E-26
  -15.5000000      -2.54331468E-26
  -15.4899998      -3.99155298E-26
  -15.4799995      -4.65054858E-26
  -15.4700003      -3.45449555E-26
  -15.4600000       6.39215532E-27
  -15.4499998       8.08256160E-26
  -15.4399996       1.79626747E-25
  -15.4300003       2.72283994E-25
  -15.4200001       3.03313074E-25
  -15.4099998       1.98948070E-25
  -15.3999996      -1.09159454E-25
  -15.3900003      -6.39541221E-25
  -15.3800001      -1.30117074E-24
  -15.3699999      -1.83960647E-24
  -15.3599997      -1.82944239E-24
  -15.3500004      -7.65741857E-25
  -15.3400002       1.70414308E-24
  -15.3299999       5.41891788E-24
  -15.3199997       9.31992932E-24
  -15.3100004       1.12737208E-23
  -15.3000002       8.40766927E-24
  -15.2900000      -1.78820725E-24
  -15.2799997      -1.96128649E-23
  -15.2700005      -4.10796413E-23
  -15.2600002      -5.67268615E-23
  -15.2500000      -5.27900795E-23
  -15.2399998      -1.59266331E-23
  -15.2299995       5.85881062E-23
  -15.2200003       1.57481060E-22
  -15.2100000       2.43660024E-22
  -15.1999998       2.60028320E-22
  -15.1899996       1.47593856E-22
  -15.1800003      -1.22702240E-22
  -15.1700001      -5.13480090E-22
  -15.1599998      -8.97503889E-22
  -15.1499996      -1.06902482E-21
  -15.1400003      -8.05261689E-22
  -15.1300001       2.56594096E-23
  -15.1199999       1.34226604E-21
  -15.1099997       2.77109362E-21
  -15.1000004       3.67813291E-21
  -15.0900002       3.35157146E-21
  -15.0799999       1.31568711E-21
  -15.0699997      -2.32523378E-21
  -15.0600004      -6.67782464E-21
  -15.0500002      -1.01512897E-20
  -15.0400000      -1.09238304E-20
  -15.0299997      -7.68443115E-21
  -15.0200005      -3.62355217E-22
  -15.0100002       9.53718244E-21
  -15.0000000       1.92723098E-20
  -14.9899998       2.58423033E-20
  -14.9799995       2.71461969E-20
  -14.9700003       2.25848887E-20
  -14.9600000       1.25149018E-20
  -14.9499998      -3.33455528E-21
  -14.9399996      -2.73031415E-20
  -14.9300003      -6.31043100E-20
  -14.9200001      -1.11277002E-19
  -14.9099998      -1.61080616E-19
  -14.8999996      -1.82669629E-19
  -14.8900003      -1.26968838E-19
  -14.8800001       5.83932450E-20
  -14.8699999       3.93295585E-19
  -14.8599997       8.16941099E-19
  -14.8500004       1.15021098E-18
  -14.8400002       1.10395338E-18
  -14.8299999       3.67437609E-19
  -14.8199997      -1.21327171E-18
  -14.8100004      -3.40694022E-18
  -14.8000002      -5.42115810E-18
  -14.7900000      -5.92718915E-18
  -14.7799997      -3.42432446E-18
  -14.7700005       3.01679077E-18
  -14.7600002       1.27850524E-17
  -14.7500000       2.29257540E-17
  -14.7399998       2.80749964E-17
  -14.7299995       2.16845431E-17
  -14.7200003      -1.24644714E-18
  -14.7100000      -4.03914047E-17
  -14.6999998      -8.65898489E-17
  -14.6899996      -1.20646913E-16
  -14.6800003      -1.16559542E-16
  -14.6700001      -5.03338807E-17
  -14.6599998       8.65766206E-17
  -14.6499996       2.73106186E-16
  -14.6400003       4.50279538E-16
  -14.6300001       5.26386507E-16
  -14.6199999       4.01097920E-16
  -14.6099997       8.00203275E-18
  -14.6000004      -6.34035078E-16
  -14.5900002      -1.37979910E-15
  -14.5799999      -1.95175174E-15
  -14.5699997      -1.99118049E-15
  -14.5600004      -1.17414426E-15
  -14.5500002       6.25398359E-16
  -14.5400000       3.17311353E-15
  -14.5299997       5.78439774E-15
  -14.5200005       7.38322960E-15
  -14.5100002       6.75894980E-15
  -14.5000000       3.00886855E-15
  -14.4899998      -3.93035104E-15
  -14.4799995      -1.28429634E-14
  -14.4700003      -2.11119879E-14
  -14.4600000      -2.51123314E-14
  -14.4499998      -2.11945025E-14
  -14.4399996      -7.12715291E-15
  -14.4300003       1.63756744E-14
  -14.4200001       4.46116499E-14
  -14.4099998       6.89497220E-14
  -14.3999996       7.84350273E-14
  -14.3900003       6.29626424E-14
  -14.3800001       1.74482401E-14
  -14.3699999      -5.41850771E-14
  -14.3599997      -1.36775506E-13
  -14.3500004      -2.04965182E-13
  -14.3400002      -2.28390115E-13
  -14.3299999      -1.80686480E-13
  -14.3199997      -5.04645222E-14
  -14.3100004       1.48977795E-13
  -14.3000002       3.75121131E-13
  -14.2900000       5.60313840E-13
  -14.2799997       6.26064034E-13
  -14.2700005       5.06075488E-13
  -14.2600002       1.73057993E-13
  -14.2500000      -3.38583951E-13
  -14.2399998      -9.23208558E-13
  -14.2299995      -1.41498326E-12
  -14.2200003      -1.62239471E-12
  -14.2100000      -1.38220262E-12
  -14.1999998      -6.21226052E-13
  -14.1899996       5.91642512E-13
  -14.1800003       2.02279036E-12
  -14.1700001       3.29646857E-12
  -14.1599998       3.96866828E-12
  -14.1499996       3.64398138E-12
  -14.1400003       2.11148113E-12
  -14.1300001      -5.36688641E-13
  -14.1199999      -3.84488795E-12
  -14.1099997      -7.02589636E-12
  -14.1000004      -9.10068462E-12
  -14.0900002      -9.13366431E-12
  -14.0799999      -6.51956180E-12
  -14.0699997      -1.25177950E-12
  -14.0600004       5.91061271E-12
  -14.0500002       1.34520624E-11
  -14.0400000       1.93292118E-11
  -14.0299997       2.14109390E-11
  -14.0200005       1.80595192E-11
  -14.0100002       8.72504066E-12
  -14.0000000      -5.61113482E-12
  -13.9899998      -2.23073764E-11
  -13.9799995      -3.73644345E-11
  -13.9700003      -4.61858503E-11
  -13.9600000      -4.47011456E-11
  -13.9499998      -3.06309249E-11
  -13.9399996      -4.57698983E-12
  -13.9300003       2.94112304E-11
  -13.9200001       6.40847861E-11
  -13.9099998       9.01942132E-11
  -13.8999996       9.85425144E-11
  -13.8900003       8.25310653E-11
  -13.8800001       4.06077186E-11
  -13.8699999      -2.20931520E-11
  -13.8599997      -9.35739264E-11
  -13.8500004      -1.56661947E-10
  -13.8400002      -1.92530658E-10
  -13.8299999      -1.85493343E-10
  -13.8199997      -1.28015251E-10
  -13.8100004      -2.45827161E-11
  -13.8000002       1.06917183E-10
  -13.7900000       2.37245446E-10
  -13.7799997       3.31455779E-10
  -13.7700005       3.57311680E-10
  -13.7600002       2.94682029E-10
  -13.7500000       1.43465434E-10
  -13.7399998      -7.24943230E-11
  -13.7299995      -3.07406406E-10
  -13.7200003      -5.02037023E-10
  -13.7100000      -5.97564387E-10
  -13.6999998      -5.51875046E-10
  -13.6899996      -3.54139357E-10
  -13.6800003      -3.32199268E-11
  -13.6700001       3.43582218E-10
  -13.6599998       6.82804258E-10
  -13.6499996       8.86564933E-10
  -13.6400003       8.79228579E-10
  -13.6300001       6.32240371E-10
  -13.6199999       1.79743567E-10
  -13.6099997      -3.81042614E-10
  -13.6000004      -9.07351305E-10
  -13.5900002      -1.24429678E-09
  -13.5799999      -1.26729738E-09
  -13.5699997      -9.22850962E-10
  -13.5600004      -2.55691607E-10
  -13.5500002       5.87756455E-10
  -13.5400000       1.38465872E-09
  -13.5299997       1.88745686E-09
  -13.5200005       1.89172567E-09
  -13.5100002       1.30360478E-09
  -13.5000000       1.87464225E-10
  -13.4899998      -1.22329391E-09
  -13.4799995      -2.56199106E-09
  -13.4700003      -3.40926709E-09
  -13.4600000      -3.40391071E-09
  -13.4499998      -2.35825914E-09
  -13.4399996      -3.46613599E-10
  -13.4300003       2.26306907E-09
  -13.4200001       4.85364593E-09
  -13.4099998       6.68135680E-09
  -13.3999996       7.05735514E-09
  -13.3900003       5.54936941E-09
  -13.3800001       2.15216844E-09
  -13.3699999      -2.62544320E-09
  -13.3599997      -7.79618059E-09
  -13.3500004      -1.20654686E-08
  -13.3400002      -1.41171705E-08
  -13.3299999      -1.29582949E-08
  -13.3199997      -8.24147417E-09
  -13.3100004      -4.75715634E-10
  -13.3000002       8.94983998E-09
  -13.2900000       1.79677411E-08
  -13.2799997       2.42450362E-08
  -13.2700005       2.57344333E-08
  -13.2600002       2.12428972E-08
  -13.2500000       1.08729559E-08
  -13.2399998      -3.79754761E-09
  -13.2299995      -1.98836503E-08
  -13.2200003      -3.37182549E-08
  -13.2100000      -4.16512513E-08
  -13.1999998      -4.09573140E-08
  -13.1899996      -3.06357606E-08
  -13.1800003      -1.18846248E-08
  -13.1700001       1.19138726E-08
  -13.1599998       3.57541587E-08
  -13.1499996       5.40393117E-08
  -13.1400003       6.18798168E-08
  -13.1300001       5.63624027E-08
  -13.1199999       3.74674158E-08
  -13.1099997       8.36701108E-09
  -13.1000004      -2.50339021E-08
  -13.0900002      -5.52749420E-08
  -13.0799999      -7.50111013E-08
  -13.0699997      -7.88075809E-08
  -13.0600004      -6.46233858E-08
  -13.0500002      -3.45887194E-08
  -13.0400000       5.17726173E-09
  -13.0299997       4.57431497E-08
  -13.0200005       7.73277833E-08
  -13.0100002       9.16289693E-08
  -13.0000000       8.39757561E-08
  -12.9899998       5.47639516E-08
  -12.9799995       9.76903003E-09
  -12.9700003      -4.08272705E-08
  -12.9600000      -8.45610302E-08
  -12.9499998      -1.09539762E-07
  -12.9399996      -1.07399593E-07
  -12.9300003      -7.56706910E-08
  -12.9200001      -1.89441796E-08
  -12.9099998       5.15298559E-08
  -12.8999996       1.19847087E-07
  -12.8900003       1.68723247E-07
  -12.8800001       1.83389986E-07
  -12.8699999       1.55274122E-07
  -12.8599997       8.46078265E-08
  -12.8500004      -1.87084552E-08
  -12.8400002      -1.36328993E-07
  -12.8299999      -2.44671554E-07
  -12.8199997      -3.19561764E-07
  -12.8100004      -3.41396856E-07
  -12.8000002      -2.99725230E-07
  -12.7900000      -1.96177197E-07
  -12.7799997      -4.49685764E-08
  -12.7700005       1.29316774E-07
  -12.7600002       2.96360867E-07
  -12.7500000       4.26275960E-07
  -12.7399998       4.95981226E-07
  -12.7299995       4.94314918E-07
  -12.7200003       4.24578616E-07
  -12.7100000       3.03721691E-07
  -12.6999998       1.58130263E-07
  -12.6899996       1.68301444E-08
  -12.6800003      -9.63501279E-08
  -12.6700001      -1.69683744E-07
  -12.6599998      -2.07571475E-07
  -12.6499996      -2.30270828E-07
  -12.6400003      -2.68866955E-07
  -12.6300001      -3.56213690E-07
  -12.6199999      -5.15725333E-07
  -12.6099997      -7.50706192E-07
  -12.6000004      -1.03712580E-06
  -12.5900002      -1.32226000E-06
  -12.5799999      -1.53045926E-06
  -12.5699997      -1.57571037E-06
  -12.5600004      -1.37896780E-06
  -12.5500002      -8.86873295E-07
  -12.5400000      -8.78250077E-08
  -12.5299997       9.78390290E-07
  -12.5200005       2.22000199E-06
  -12.5100002       3.50241044E-06
  -12.5000000       4.66565052E-06
  -12.4899998       5.54679309E-06
  -12.4799995       6.00273097E-06
  -12.4700003       5.92865581E-06
  -12.4600000       5.26854865E-06
  -12.4499998       4.01591342E-06
  -12.4399996       2.20537549E-06
  -12.4300003      -1.01985016E-07
  -12.4200001      -2.83517920E-06
  -12.4099998      -5.92695778E-06
  -12.3999996      -9.32068360E-06
  -12.3900003      -1.29684686E-05
  -12.3800001      -1.68212136E-05
  -12.3699999      -2.08135607E-05
  -12.3599997      -2.48485030E-05
  -12.3500004      -2.87868770E-05
  -12.3400002      -3.24459506E-05
  -12.3299999      -3.56092823E-05
  -12.3199997      -3.80470774E-05
  -12.3100004      -3.95435127E-05
  -12.3000002      -3.99256169E-05
  -12.2900000      -3.90873574E-05
  -12.2799997      -3.70037560E-05
  -12.2700005      -3.37317942E-05
  -12.2600002      -2.93980447E-05
  -12.2500000      -2.41760499E-05
  -12.2399998      -1.82586627E-05
  -12.2299995      -1.18316848E-05
  -12.2200003      -5.05454682E-06
  -12.2100000       1.94819654E-06
  -12.1999998       9.08382117E-06
  -12.1899996       1.62787619E-05
  -12.1800003       2.34609815E-05
  -12.1700001       3.05428039E-05
  -12.1599998       3.74096016E-05
  -12.1499996       4.39176365E-05
  -12.1400003       4.99023263E-05
  -12.1300001       5.51949779E-05
  -12.1199999       5.96443533E-05
  -12.1099997       6.31381918E-05
  -12.1000004       6.56198899E-05
  -12.0900002       6.70971203E-05
  -12.0799999       6.76408818E-05
  -12.0699997       6.73756731E-05
  -12.0600004       6.64630061E-05
  -12.0500002       6.50812872E-05
  -12.0400000       6.34050884E-05
  -12.0299997       6.15861281E-05
  -12.0200005       5.97375183E-05
  -12.0100002       5.79215521E-05
  -12.0000000       5.61417619E-05
  -11.9899998       5.43391725E-05
  -11.9799995       5.23939998E-05
  -11.9700003       5.01334580E-05
  -11.9600000       4.73470100E-05
  -11.9499998       4.38091301E-05
  -11.9399996       3.93082228E-05
  -11.9300003       3.36786798E-05
  -11.9200001       2.68312378E-05
  -11.9099998       1.87760179E-05
  -11.8999996       9.63289403E-06
  -11.8900003      -3.74210316E-07
  -11.8800001      -1.09396215E-05
  -11.8699999      -2.17119505E-05
  -11.8599997      -3.23376589E-05
  -11.8500004      -4.25041289E-05
  -11.8400002      -5.19739042E-05
  -11.8299999      -6.06037320E-05
  -11.8199997      -6.83449616E-05
  -11.8100004      -7.52265114E-05
  -11.8000002      -8.13249353E-05
  -11.7900000      -8.67290873E-05
  -11.7799997      -9.15075507E-05
  -11.7700005      -9.56857257E-05
  -11.7600002      -9.92366768E-05
  -11.7500000      -1.02086378E-04
  -11.7399998      -1.04130464E-04
  -11.7299995      -1.05257277E-04
  -11.7200003      -1.05371488E-04
  -11.7100000      -1.04413259E-04
  -11.6999998      -1.02369624E-04
  -11.6899996      -9.92776186E-05
  -11.6800003      -9.52198097E-05
  -11.6700001      -9.03147302E-05
  -11.6599998      -8.47040574E-05
  -11.6499996      -7.85382072E-05
  -11.6400003      -7.19611489E-05
  -11.6300001      -6.50947040E-05
  -11.6199999      -5.80232627E-05
  -11.6099997      -5.07808509E-05
  -11.6000004      -4.33437526E-05
  -11.5900002      -3.56325254E-05
  -11.5799999      -2.75268230E-05
  -11.5699997      -1.88937865E-05
  -11.5600004      -9.62749891E-06
  -11.5500002       3.07492286E-07
  -11.5400000       1.08388003E-05
  -11.5299997       2.17663528E-05
  -11.5200005       3.27695052E-05
  -11.5100002       4.34451904E-05
  -11.5000000       5.33736820E-05
  -11.4899998       6.22001971E-05
  -11.4799995       6.97144278E-05
  -11.4700003       7.59077302E-05
  -11.4600000       8.09904668E-05
  -11.4499998       8.53601232E-05
  -11.4399996       8.95226040E-05
  -11.4300003       9.39809324E-05
  -11.4200001       9.91161651E-05
  -11.4099998       1.05088788E-04
  -11.3999996       1.11786227E-04
  -11.3900003       1.18832111E-04
  -11.3800001       1.25658131E-04
  -11.3699999       1.31623659E-04
  -11.3599997       1.36155038E-04
  -11.3500004       1.38871430E-04
  -11.3400002       1.39665586E-04
  -11.3299999       1.38719362E-04
  -11.3199997       1.36450471E-04
  -11.3100004       1.33404115E-04
  -11.3000002       1.30117754E-04
  -11.2900000       1.26994302E-04
  -11.2799997       1.24216152E-04
  -11.2700005       1.21721590E-04
  -11.2600002       1.19248005E-04
  -11.2500000       1.16428389E-04
  -11.2399998       1.12913673E-04
  -11.2299995       1.08486500E-04
  -11.2200003       1.03135382E-04
  -11.2100000       9.70693800E-05
  -11.1999998       9.06697678E-05
  -11.1899996       8.43922244E-05
  -11.1800003       7.86461242E-05
  -11.1700001       7.36826551E-05
  -11.1599998       6.95209819E-05
  -11.1499996       6.59309444E-05
  -11.1400003       6.24762251E-05
  -11.1300001       5.86081042E-05
  -11.1199999       5.37878477E-05
  -11.1099997       4.76115456E-05
  -11.1000004       3.99121418E-05
  -11.0900002       3.08201998E-05
  -11.0799999       2.07735557E-05
  -11.0699997       1.04762739E-05
  -11.0600004       8.14179486E-07
  -11.0500002      -7.26060625E-06
  -11.0400000      -1.28608517E-05
  -11.0299997      -1.52949706E-05
  -11.0200005      -1.41807495E-05
  -11.0100002      -9.52520531E-06
  -11.0000000      -1.75555419E-06
  -10.9899998       8.31055149E-06
  -10.9799995       1.95598368E-05
  -10.9700003       3.07364862E-05
  -10.9600000       4.06338077E-05
  -10.9499998       4.82927717E-05
  -10.9399996       5.31683654E-05
  -10.9300003       5.52253659E-05
  -10.9200001       5.49370234E-05
  -10.9099998       5.31791848E-05
  -10.8999996       5.10376994E-05
  -10.8900003       4.95695931E-05
  -10.8800001       4.95729219E-05
  -10.8699999       5.14210951E-05
  -10.8599997       5.50025106E-05
  -10.8500004       5.97801663E-05
  -10.8400002       6.49532740E-05
  -10.8299999       6.96751304E-05
  -10.8199997       7.32655972E-05
  -10.8100004       7.53587738E-05
  -10.8000002       7.59461836E-05
  -10.7900000       7.53078712E-05
  -10.7799997       7.38584567E-05
  -10.7700005       7.19615782E-05
  -10.7600002       6.97758369E-05
  -10.7500000       6.71846792E-05
  -10.7399998       6.38349156E-05
  -10.7299995       5.92723773E-05
  -10.7200003       5.31301412E-05
  -10.7100000       4.53060820E-05
  -10.6999998       3.60678059E-05
  -10.6899996       2.60459910E-05
  -10.6800003       1.61122425E-05
  -10.6700001       7.17603371E-06
  -10.6599998      -3.84573369E-08
  -10.6499996      -5.16659247E-06
  -10.6400003      -8.27477834E-06
  -10.6300001      -9.80828554E-06
  -10.6199999      -1.04334968E-05
  -10.6099997      -1.08263985E-05
  -10.6000004      -1.14751783E-05
  -10.5900002      -1.25578672E-05
  -10.5799999      -1.39298481E-05
  -10.5699997      -1.52178245E-05
  -10.5600004      -1.59813117E-05
  -10.5500002      -1.58811981E-05
  -10.5400000      -1.47950677E-05
  -10.5299997      -1.28402789E-05
  -10.5200005      -1.03006523E-05
  -10.5100002      -7.48840785E-06
  -10.5000000      -4.59720241E-06
  -10.4899998      -1.60534250E-06
  -10.4799995       1.73039143E-06
  -10.4700003       5.78323034E-06
  -10.4600000       1.08982294E-05
  -10.4499998       1.72238124E-05
  -10.4399996       2.45973479E-05
  -10.4300003       3.25316541E-05
  -10.4200001       4.03147460E-05
  -10.4099998       4.71953899E-05
  -10.3999996       5.25953874E-05
  -10.3900003       5.62774876E-05
  -10.3800001       5.84111149E-05
  -10.3699999       5.95128768E-05
  -10.3599997       6.02790351E-05
  -10.3500004       6.13674856E-05
  -10.3400002       6.32023584E-05
  -10.3299999       6.58667122E-05
  -10.3199997       6.91199966E-05
  -10.3100004       7.25300706E-05
  -10.3000002       7.56711670E-05
  -10.2900000       7.83141440E-05
  -10.2799997       8.05376985E-05
  -10.2700005       8.27167460E-05
  -10.2600002       8.53883903E-05
  -10.2500000       8.90401570E-05
  -10.2399998       9.38951125E-05
  -10.2299995       9.97719326E-05
  -10.2200003       1.06075357E-04
  -10.2100000       1.11926602E-04
  -10.1999998       1.16398092E-04
  -10.1899996       1.18776770E-04
  -10.1800003       1.18771437E-04
  -10.1700001       1.16595125E-04
  -10.1599998       1.12895177E-04
  -10.1499996       1.08554530E-04
  -10.1400003       1.04429571E-04
  -10.1300001       1.01111393E-04
  -10.1199999       9.87880339E-05
  -10.1099997       9.72492635E-05
  -10.1000004       9.60269172E-05
  -10.0900002       9.46172440E-05
  -10.0799999       9.27042274E-05
  -10.0699997       9.03040273E-05
  -10.0600004       8.77801504E-05
  -10.0500002       8.57246851E-05
  -10.0400000       8.47488336E-05
  -10.0299997       8.52593876E-05
  -10.0200005       8.73012686E-05
  -10.0100002       9.05247434E-05
  -10.0000000       9.42911502E-05
  -9.98999977       9.78821336E-05
  -9.97999954       1.00740632E-04
  -9.97000027       1.02659498E-04
  -9.96000004       1.03851351E-04
  -9.94999981       1.04874533E-04
  -9.93999958       1.06438776E-04
  -9.93000031       1.09157692E-04
  -9.92000008       1.13332790E-04
  -9.90999985       1.18843709E-04
  -9.89999962       1.25182109E-04
  -9.89000034       1.31616733E-04
  -9.88000011       1.37433031E-04
  -9.86999989       1.42161982E-04
  -9.85999966       1.45719911E-04
  -9.85000038       1.48410822E-04
  -9.84000015       1.50793174E-04
  -9.82999992       1.53461151E-04
  -9.81999969       1.56820461E-04
  -9.81000042       1.60943295E-04
  -9.80000019       1.65556325E-04
  -9.78999996       1.70169500E-04
  -9.77999973       1.74298926E-04
  -9.77000046       1.77702561E-04
  -9.76000023       1.80537769E-04
  -9.75000000       1.83375581E-04
  -9.73999977       1.87056678E-04
  -9.72999954       1.92430874E-04
  -9.72000027       2.00068462E-04
  -9.71000004       2.10045269E-04
  -9.69999981       2.21885712E-04
  -9.68999958       2.34692081E-04
  -9.68000031       2.47428310E-04
  -9.67000008       2.59263645E-04
  -9.65999985       2.69860844E-04
  -9.64999962       2.79498956E-04
  -9.64000034       2.88979005E-04
  -9.63000011       2.99328909E-04
  -9.61999989       3.11397016E-04
  -9.60999966       3.25467379E-04
  -9.60000038       3.41029983E-04
  -9.59000015       3.56794306E-04
  -9.57999992       3.70957074E-04
  -9.56999969       3.81650694E-04
  -9.56000042       3.87435924E-04
  -9.55000019       3.87681910E-04
  -9.53999996       3.82711616E-04
  -9.52999973       3.73662740E-04
  -9.52000046       3.62108316E-04
  -9.51000023       3.49562179E-04
  -9.50000000       3.37030418E-04
  -9.48999977       3.24757537E-04
  -9.47999954       3.12247867E-04
  -9.47000027       2.98547879E-04
  -9.46000004       2.82687077E-04
  -9.44999981       2.64114555E-04
  -9.43999958       2.42976792E-04
  -9.43000031       2.20131056E-04
  -9.42000008       1.96889523E-04
  -9.40999985       1.74585235E-04
  -9.39999962       1.54117763E-04
  -9.39000034       1.35652284E-04
  -9.38000011       1.18590477E-04
  -9.36999989       1.01839345E-04
  -9.35999966       8.42939116E-05
  -9.35000038       6.53680690E-05
  -9.34000015       4.53800130E-05
  -9.32999992       2.56440417E-05
  -9.31999969       8.21564026E-06
  -9.31000042      -4.63947345E-06
  -9.30000019      -1.10860719E-05
  -9.28999996      -1.02519816E-05
  -9.27999973      -2.47179878E-06
  -9.27000046       1.08520044E-05
  -9.26000023       2.77276704E-05
  -9.25000000       4.62353892E-05
  -9.23999977       6.51469527E-05
  -9.22999954       8.42882582E-05
  -9.22000027       1.04521067E-04
  -9.21000004       1.27344581E-04
  -9.19999981       1.54257970E-04
  -9.18999958       1.86107078E-04
  -9.18000031       2.22644943E-04
  -9.17000008       2.62466667E-04
  -9.15999985       3.03344015E-04
  -9.14999962       3.42847168E-04
  -9.14000034       3.79033940E-04
  -9.13000011       4.10969078E-04
  -9.11999989       4.38886578E-04
  -9.10999966       4.63945209E-04
  -9.10000038       4.87666286E-04
  -9.09000015       5.11262973E-04
  -9.07999992       5.35108091E-04
  -9.06999969       5.58540167E-04
  -9.06000042       5.80082822E-04
  -9.05000019       5.98000945E-04
  -9.03999996       6.10990042E-04
  -9.02999973       6.18742604E-04
  -9.02000046       6.22171152E-04
  -9.01000023       6.23190950E-04
  -9.00000000       6.24124892E-04
  -8.98999977       6.26931724E-04
  -8.97999954       6.32530428E-04
  -8.97000027       6.40465994E-04
  -8.96000004       6.49046386E-04
  -8.94999981       6.55912270E-04
  -8.93999958       6.58846810E-04
  -8.93000031       6.56542194E-04
  -8.92000008       6.49051042E-04
  -8.90999985       6.37759978E-04
  -8.89999962       6.24888577E-04
  -8.89000034       6.12689415E-04
  -8.88000011       6.02631189E-04
  -8.86999989       5.94859244E-04
  -8.85999966       5.88127179E-04
  -8.85000038       5.80230204E-04
  -8.84000015       5.68788324E-04
  -8.82999992       5.52103797E-04
  -8.81999969       5.29785641E-04
  -8.81000042       5.02918963E-04
  -8.80000019       4.73713881E-04
  -8.78999996       4.44760080E-04
  -8.77999973       4.18151903E-04
  -8.77000046       3.94797302E-04
  -8.76000023       3.74162424E-04
  -8.75000000       3.54543881E-04
  -8.73999977       3.33777978E-04
  -8.72999954       3.10136034E-04
  -8.72000027       2.83085945E-04
  -8.71000004       2.53649370E-04
  -8.69999981       2.24223098E-04
  -8.68999958       1.97923917E-04
  -8.68000031       1.77682596E-04
  -8.67000008       1.65402424E-04
  -8.65999985       1.61468619E-04
  -8.64999962       1.64774130E-04
  -8.64000034       1.73240085E-04
  -8.63000011       1.84636854E-04
  -8.61999989       1.97410249E-04
  -8.60999966       2.11216859E-04
  -8.60000038       2.26986493E-04
  -8.59000015       2.46497191E-04
  -8.57999992       2.71624682E-04
  -8.56999969       3.03542387E-04
  -8.56000042       3.42161336E-04
  -8.55000019       3.86009080E-04
  -8.53999996       4.32589062E-04
  -8.52999973       4.79088427E-04
  -8.52000046       5.23181283E-04
  -8.51000023       5.63644106E-04
  -8.50000000       6.00575644E-04
  -8.48999977       6.35152042E-04
  -8.47999954       6.69020810E-04
  -8.47000027       7.03555299E-04
  -8.46000004       7.39243231E-04
  -8.44999981       7.75416498E-04
  -8.43999958       8.10416474E-04
  -8.43000031       8.42118228E-04
  -8.42000008       8.68623611E-04
  -8.40999985       8.88874172E-04
  -8.39999962       9.02971311E-04
  -8.39000034       9.12103336E-04
  -8.38000011       9.18124453E-04
  -8.36999989       9.22943349E-04
  -8.35999966       9.27946297E-04
  -8.35000038       9.33649717E-04
  -8.34000015       9.39690392E-04
  -8.32999992       9.45133041E-04
  -8.31999969       9.48963861E-04
  -8.31000042       9.50580055E-04
  -8.30000019       9.50091984E-04
  -8.28999996       9.48345696E-04
  -8.27999973       9.46657849E-04
  -8.27000046       9.46382177E-04
  -8.26000023       9.48461762E-04
  -8.25000000       9.53127397E-04
  -8.23999977       9.59834608E-04
  -8.22999954       9.67447471E-04
  -8.22000027       9.74584895E-04
  -8.21000004       9.79998149E-04
  -8.19999981       9.82850092E-04
  -8.18999958       9.82819474E-04
  -8.18000031       9.80020734E-04
  -8.17000008       9.74802068E-04
  -8.15999985       9.67519416E-04
  -8.14999962       9.58382036E-04
  -8.14000034       9.47425724E-04
  -8.13000011       9.34601645E-04
  -8.11999989       9.19929065E-04
  -8.10999966       9.03635693E-04
  -8.10000038       8.86211346E-04
  -8.09000015       8.68354866E-04
  -8.07999992       8.50836921E-04
  -8.06999969       8.34333478E-04
  -8.06000042       8.19304259E-04
  -8.05000019       8.05958931E-04
  -8.03999996       7.94332998E-04
  -8.02999973       7.84420641E-04
  -8.02000046       7.76323315E-04
  -8.01000023       7.70337414E-04
  -8.00000000       7.66955840E-04
  -7.98999977       7.66788027E-04
  -7.98000002       7.70432292E-04
  -7.96999979       7.78361398E-04
  -7.96000004       7.90862832E-04
  -7.94999981       8.08050216E-04
  -7.94000006       8.29920871E-04
  -7.92999983       8.56411643E-04
  -7.92000008       8.87409318E-04
  -7.90999985       9.22690262E-04
  -7.90000010       9.61808953E-04
  -7.88999987       1.00399263E-03
  -7.88000011       1.04810682E-03
  -7.86999989       1.09274371E-03
  -7.86000013       1.13644043E-03
  -7.84999990       1.17797393E-03
  -7.84000015       1.21662812E-03
  -7.82999992       1.25233759E-03
  -7.82000017       1.28562516E-03
  -7.80999994       1.31733122E-03
  -7.80000019       1.34821178E-03
  -7.78999996       1.37853494E-03
  -7.78000021       1.40783039E-03
  -7.76999998       1.43489183E-03
  -7.76000023       1.45806826E-03
  -7.75000000       1.47575280E-03
  -7.73999977       1.48691970E-03
  -7.73000002       1.49151869E-03
  -7.71999979       1.49058411E-03
  -7.71000004       1.48600421E-03
  -7.69999981       1.48002303E-03
  -7.69000006       1.47463311E-03
  -7.67999983       1.47106906E-03
  -7.67000008       1.46958418E-03
  -7.65999985       1.46958348E-03
  -7.65000010       1.47005671E-03
  -7.63999987       1.47016265E-03
  -7.63000011       1.46973773E-03
  -7.61999989       1.46952295E-03
  -7.61000013       1.47103274E-03
  -7.59999990       1.47607794E-03
  -7.59000015       1.48612901E-03
  -7.57999992       1.50173344E-03
  -7.57000017       1.52222021E-03
  -7.55999994       1.54579955E-03
  -7.55000019       1.57006143E-03
  -7.53999996       1.59269443E-03
  -7.53000021       1.61219120E-03
  -7.51999998       1.62829412E-03
  -7.51000023       1.64202019E-03
  -7.50000000       1.65526045E-03
  -7.48999977       1.67007733E-03
  -7.48000002       1.68795628E-03
  -7.46999979       1.70926272E-03
  -7.46000004       1.73310027E-03
  -7.44999981       1.75761827E-03
  -7.44000006       1.78066141E-03