  -16.0000000       0.00000000    
  -15.9899998       0.00000000    
  -15.9799995       0.00000000    
  -15.9700003       0.00000000    
  -15.9600000       0.00000000    
  -15.9499998       0.00000000    
  -15.9399996       0.00000000    
  -15.9300003       0.00000000    
  -15.9200001       0.00000000    
  -15.9099998       0.00000000    
  -15.8999996       0.00000000    
  -15.8900003       0.00000000    
  -15.8800001       0.00000000    
  -15.8699999      -0.00000000    
  -15.8599997       2.80259693E-45
  -15.8500004       2.94272678E-44
  -15.8400002       1.17709071E-43
  -15.8299999      -8.26766094E-44
  -15.8199997      -4.45192522E-42
  -15.8100004      -3.48951344E-41
  -15.8000002      -1.79140594E-40
  -15.7900000      -7.07361452E-40
  -15.7799997      -2.27019740E-39
  -15.7700005      -6.05167137E-39
  -15.7600002      -1.34287861E-38
  -15.7500000      -2.43349884E-38
  -15.7399998      -3.37858749E-38
  -15.7299995      -2.79021814E-38
  -15.7200003       1.60729284E-38
  -15.7100000       1.22393814E-37
  -15.6999998       3.19012097E-37
  -15.6899996       7.25115276E-37
  -15.6800003       1.89255505E-36
  -15.6700001       5.60705568E-36
  -15.6599998       1.61000941E-35
  -15.6499996       4.07296854E-35
  -15.6400003       8.75153019E-35
  -15.6300001       1.55217715E-34
  -15.6199999       2.12420875E-34
  -15.6099997       1.69546796E-34
  -15.6000004      -1.34480537E-34
  -15.5900002      -8.84294462E-34
  -15.5799999      -2.11872792E-33
  -15.5699997      -3.41619707E-33
  -15.5600004      -3.54260790E-33
  -15.5500002      -4.06250618E-34
  -15.5400000       8.09225005E-33
  -15.5299997       2.17456772E-32
  -15.5200005       3.43844822E-32
  -15.5100002       3.06845256E-32
  -15.5000000      -1.23503990E-32
  -15.4899998      -1.13335217E-31
  -15.4799995      -2.59877186E-31
  -15.4700003      -3.72233005E-31
  -15.4600000      -2.79184751E-31
  -15.4499998       2.51691161E-31
  -15.4399996       1.37897675E-30
  -15.4300003       2.92541743E-30
  -15.4200001       4.05458997E-30
  -15.4099998       3.09806144E-30
  -15.3999996      -2.10541495E-30
  -15.3900003      -1.29720063E-29
  -15.3800001      -2.79279944E-29
  -15.3699999      -3.97714825E-29
  -15.3599997      -3.43542719E-29
  -15.3500004       6.67778216E-30
  -15.3400002       9.63189042E-29
  -15.3299999       2.25190418E-28
  -15.3199997       3.41577181E-28
  -15.3100004       3.40476946E-28
  -15.3000002       8.03473417E-29
  -15.2900000      -5.53638703E-28
  -15.2799997      -1.53464328E-27
  -15.2700005      -2.55429117E-27
  -15.2600002      -2.93099247E-27
  -15.2500000      -1.68222181E-27
  -15.2399998       2.11797097E-27
  -15.2299995       8.64728062E-27
  -15.2200003       1.64373560E-26
  -15.2100000       2.16617430E-26
  -15.1999998       1.82601501E-26
  -15.1899996      -3.70648227E-28
  -15.1800003      -3.77038751E-26
  -15.1700001      -8.88800769E-26
  -15.1599998      -1.35797795E-25
  -15.1499996      -1.45785772E-25
  -15.1400003      -7.78934200E-26
  -15.1300001       1.00205648E-25
  -15.1199999       3.85418875E-25
  -15.1099997       7.09700833E-25
  -15.1000004       9.22541274E-25
  -15.0900002       8.05594765E-25
  -15.0799999       1.37812681E-25
  -15.0699997      -1.18407391E-24
  -15.0600004      -2.99170469E-24
  -15.0500002      -4.71546773E-24
  -15.0400000      -5.36820004E-24
  -15.0299997      -3.73863705E-24
  -15.0200005       1.14759323E-24
  -15.0100002       9.33924853E-24
  -15.0000000       1.92306050E-23
  -14.9899998       2.71368183E-23
  -14.9799995       2.76094028E-23
  -14.9700003       1.48621489E-23
  -14.9600000      -1.46185566E-23
  -14.9499998      -5.87406088E-23
  -14.9399996      -1.06879495E-22
  -14.9300003      -1.39047943E-22
  -14.9200001      -1.28963486E-22
  -14.9099998      -5.21364452E-23
  -14.8999996       1.01542352E-22
  -14.8900003       3.13671897E-22
  -14.8800001       5.27202079E-22
  -14.8699999       6.47423471E-22
  -14.8599997       5.60542799E-22
  -14.8500004       1.72277452E-22
  -14.8400002      -5.38585960E-22
  -14.8299999      -1.46633990E-21
  -14.8199997      -2.34757735E-21
  -14.8100004      -2.78023926E-21
  -14.8000002      -2.31296522E-21
  -14.7900000      -6.06610055E-22
  -14.7799997       2.35980957E-21
  -14.7700005       6.10036816E-21
  -14.7600002       9.53842805E-21
  -14.7500000       1.11189456E-20
  -14.7399998       9.17554133E-21
  -14.7299995       2.53774589E-21
  -14.7200003      -8.74065678E-21
  -14.7100000      -2.27602494E-20
  -14.6999998      -3.55613443E-20
  -14.6899996      -4.16036693E-20
  -14.6800003      -3.50966401E-20
  -14.6700001      -1.20818671E-20
  -14.6599998       2.71672156E-20
  -14.6499996       7.61891958E-20
  -14.6400003       1.21767190E-19
  -14.6300001       1.45604881E-19
  -14.6199999       1.28650573E-19
  -14.6099997       5.76720275E-20
  -14.6000004      -6.73169405E-20
  -14.5900002      -2.27094889E-19
  -14.5799999      -3.81517076E-19
  -14.5699997      -4.74474677E-19
  -14.5600004      -4.46592745E-19
  -14.5500002      -2.54428504E-19
  -14.5400000       1.07854742E-19
  -14.5299997       5.90839240E-19
  -14.5200005       1.08390584E-18
  -14.5100002       1.42764312E-18
  -14.5000000       1.44755191E-18
  -14.4899998       1.00591232E-18
  -14.4799995       6.13791279E-20
  -14.4700003      -1.28053349E-18
  -14.4600000      -2.74603470E-18
  -14.4499998      -3.91825820E-18
  -14.4399996      -4.31761190E-18
  -14.4300003      -3.53090937E-18
  -14.4200001      -1.36503040E-18
  -14.4099998       2.01518134E-18
  -14.3999996       6.01352943E-18
  -14.3900003       9.63796770E-18
  -14.3800001       1.16697499E-17
  -14.3699999       1.09572993E-17
  -14.3599997       6.78460983E-18
  -14.3500004      -7.74337833E-19
  -14.3400002      -1.06263824E-17
  -14.3299999      -2.06619311E-17
  -14.3199997      -2.80581980E-17
  -14.3100004      -2.98818831E-17
  -14.3000002      -2.39011241E-17
  -14.2900000      -9.42974235E-18
  -14.2799997       1.20315885E-17
  -14.2700005       3.65976004E-17
  -14.2600002       5.84208484E-17
  -14.2500000       7.07793966E-17
  -14.2399998       6.76972687E-17
  -14.2299995       4.57803706E-17
  -14.2200003       5.81121595E-18
  -14.2100000      -4.63984995E-17
  -14.1999998      -1.00312173E-16
  -14.1899996      -1.42321877E-16
  -14.1800003      -1.58616938E-16
  -14.1700001      -1.38770850E-16
  -14.1599998      -7.92445578E-17
  -14.1499996       1.41470897E-17
  -14.1400003       1.25682100E-16
  -14.1300001       2.31637809E-16
  -14.1199999       3.04658402E-16
  -14.1099997       3.19933609E-16
  -14.1000004       2.61935410E-16
  -14.0900002       1.30077566E-16
  -14.0799999      -5.83549254E-17
  -14.0699997      -2.69240778E-16
  -14.0600004      -4.57042302E-16
  -14.0500002      -5.73966677E-16
  -14.0400000      -5.81157034E-16
  -14.0299997      -4.59413465E-16
  -14.0200005      -2.16687558E-16
  -14.0100002       1.09982278E-16
  -14.0000000       4.59333156E-16
  -13.9899998       7.57212568E-16
  -13.9799995       9.32369399E-16
  -13.9700003       9.33310664E-16
  -13.9600000       7.42167992E-16
  -13.9499998       3.81844438E-16
  -13.9399996      -8.59614298E-17
  -13.9300003      -5.72147039E-16
  -13.9200001      -9.78911107E-16
  -13.9099998      -1.22160542E-15
  -13.8999996      -1.24842047E-15
  -13.8900003      -1.05278170E-15
  -13.8800001      -6.74925911E-16
  -13.8699999      -1.91825977E-16
  -13.8599997       3.02230329E-16
  -13.8500004       7.19367930E-16
  -13.8400002       9.99614392E-16
  -13.8299999       1.12387582E-15
  -13.8199997       1.11428063E-15
  -13.8100004       1.02133454E-15
  -13.8000002       9.01410133E-16
  -13.7900000       7.91499191E-16
  -13.7799997       6.89778210E-16
  -13.7700005       5.49680814E-16
  -13.7600002       2.91763304E-16
  -13.7500000      -1.67580519E-16
  -13.7399998      -8.77199602E-16
  -13.7299995      -1.81325508E-15
  -13.7200003      -2.85525404E-15
  -13.7100000      -3.78718553E-15
  -13.6999998      -4.32938191E-15
  -13.6899996      -4.19865762E-15
  -13.6800003      -3.18557275E-15
  -13.6700001      -1.23076322E-15
  -13.6599998       1.52067539E-15
  -13.6499996       4.70534087E-15
  -13.6400003       7.77906419E-15
  -13.6300001       1.01049633E-14
  -13.6199999       1.10780788E-14
  -13.6099997       1.02617423E-14
  -13.6000004       7.50489826E-15
  -13.5900002       3.01088195E-15
  -13.5799999      -2.66299048E-15
  -13.5699997      -8.68101198E-15
  -13.5600004      -1.40685049E-14
  -13.5500002      -1.78879196E-14
  -13.5400000      -1.94144797E-14
  -13.5299997      -1.82728215E-14
  -13.5200005      -1.45041365E-14
  -13.5100002      -8.54952705E-15
  -13.5000000      -1.15522483E-15
  -13.4899998       6.77505105E-15
  -13.4799995       1.43424193E-14
  -13.4700003       2.07883349E-14
  -13.4600000       2.55700578E-14
  -13.4499998       2.83611720E-14
  -13.4399996       2.89855318E-14
  -13.4300003       2.73159316E-14
  -13.4200001       2.31834527E-14
  -13.4099998       1.63455471E-14
  -13.3999996       6.54742069E-15
  -13.3900003      -6.31563774E-15
  -13.3800001      -2.19620617E-14
  -13.3699999      -3.94747982E-14
  -13.3599997      -5.71227229E-14
  -13.3500004      -7.23396359E-14
  -13.3400002      -8.19272154E-14
  -13.3299999      -8.25040381E-14
  -13.3199997      -7.11632630E-14
  -13.3100004      -4.62378108E-14
  -13.3000002      -8.02036355E-15
  -13.2900000       4.07385375E-14
  -13.2799997       9.47187885E-14
  -13.2700005       1.46414808E-13
  -13.2600002       1.87037113E-13
  -13.2500000       2.07844524E-13
  -13.2399998       2.01714147E-13
  -13.2299995       1.64678018E-13
  -13.2200003       9.71235489E-14
  -13.2100000       4.38281910E-15
  -13.1999998      -1.03473802E-13
  -13.1899996      -2.12690136E-13
  -13.1800003      -3.07613987E-13
  -13.1700001      -3.72967716E-13
  -13.1599998      -3.96237161E-13
  -13.1499996      -3.69773927E-13
  -13.1400003      -2.92245882E-13
  -13.1300001      -1.69177240E-13
  -13.1199999      -1.24797709E-14
  -13.1099997       1.60944676E-13
  -13.1000004       3.31293180E-13
  -13.0900002       4.78298987E-13
  -13.0799999       5.83640612E-13
  -13.0699997       6.32988995E-13
  -13.0600004       6.17464359E-13
  -13.0500002       5.34410136E-13
  -13.0400000       3.87525813E-13
  -13.0299997       1.86492694E-13
  -13.0200005      -5.37340117E-14
  -13.0100002      -3.13825599E-13
  -13.0000000      -5.71107777E-13
  -12.9899998      -8.00747435E-13
  -12.9799995      -9.77211151E-13
  -12.9700003      -1.07612346E-12
  -12.9600000      -1.07660614E-12
  -12.9499998      -9.64041889E-13
  -12.9399996      -7.33024752E-13
  -12.9300003      -3.90070788E-13
  -12.9200001       4.44870953E-14
  -12.9099998       5.36027982E-13
  -12.8999996       1.03711495E-12
  -12.8900003       1.49117589E-12
  -12.8800001       1.83830230E-12
  -12.8699999       2.02265244E-12
  -12.8599997       2.00054730E-12
  -12.8500004       1.74806317E-12
  -12.8400002       1.26684752E-12
  -12.8299999       5.86995947E-13
  -12.8199997      -2.33768246E-13
  -12.8100004      -1.11484899E-12
  -12.8000002      -1.96106174E-12
  -12.7900000      -2.67344957E-12
  -12.7799997      -3.16118117E-12
  -12.7700005      -3.35288481E-12
  -12.7600002      -3.20584206E-12
  -12.7500000      -2.71181363E-12
  -12.7399998      -1.89883157E-12
  -12.7299995      -8.28884650E-13
  -12.7200003       4.07942180E-13
  -12.7100000       1.70193558E-12
  -12.6999998       2.93365159E-12
  -12.6899996       3.98413984E-12
  -12.6800003       4.74460879E-12
  -12.6700001       5.12500762E-12
  -12.6599998       5.06130467E-12
  -12.6499996       4.52144615E-12
  -12.6400003       3.51001715E-12
  -12.6300001       2.07143027E-12
  -12.6199999       2.91194965E-13
  -12.6099997      -1.70543354E-12
  -12.6000004      -3.75832872E-12
  -12.5900002      -5.68161533E-12
  -12.5799999      -7.27739570E-12
  -12.5699997      -8.35366672E-12
  -12.5600004      -8.74516085E-12
  -12.5500002      -8.33491089E-12
  -12.5400000      -7.07369103E-12
  -12.5299997      -4.99420037E-12
  -12.5200005      -2.21717133E-12
  -12.5100002       1.05256743E-12
  -12.5000000       4.54069508E-12
  -12.4899998       7.92772011E-12
  -12.4799995       1.08804441E-11
  -12.4700003       1.30867990E-11
  -12.4600000       1.42895513E-11
  -12.4499998       1.43144576E-11
  -12.4399996       1.30892025E-11
  -12.4300003       1.06508379E-11
  -12.4200001       7.14116526E-12
  -12.4099998       2.79119935E-12
  -12.3999996      -2.10259631E-12
  -12.3900003      -7.20683973E-12
  -12.3800001      -1.21807573E-11
  -12.3699999      -1.67033488E-11
  -12.3599997      -2.04958602E-11
  -12.3500004      -2.33383278E-11
  -12.3400002      -2.50802053E-11
  -12.3299999      -2.56457650E-11
  -12.3199997      -2.50356333E-11
  -12.3100004      -2.33253659E-11
  -12.3000002      -2.06616512E-11
  -12.2900000      -1.72559952E-11
  -12.2799997      -1.33749600E-11
  -12.2700005      -9.32587601E-12
  -12.2600002      -5.43708741E-12
  -12.2500000      -2.03255490E-12
  -12.2399998       5.98081697E-13
  -12.2299995       2.23160487E-12
  -12.2200003       2.74164675E-12
  -12.2100000       2.12300728E-12
  -12.1999998       5.05381923E-13
  -12.1899996      -1.84717736E-12
  -12.1800003      -4.55285766E-12
  -12.1700001      -7.14429167E-12
  -12.1599998      -9.11349381E-12
  -12.1499996      -9.96433231E-12
  -12.1400003      -9.26593698E-12
  -12.1300001      -6.70001381E-12
  -12.1199999      -2.09596858E-12
  -12.1099997       4.55059861E-12
  -12.1000004       1.30778001E-11
  -12.0900002       2.31746254E-11
  -12.0799999       3.44118553E-11
  -12.0699997       4.62812566E-11
  -12.0600004       5.82373177E-11
  -12.0500002       6.97357241E-11
  -12.0400000       8.02647324E-11
  -12.0299997       8.93677840E-11
  -12.0200005       9.66573835E-11
  -12.0100002       1.01822592E-10
  -12.0000000       1.04633115E-10
  -11.9899998       1.04943242E-10
  -11.9799995       1.02697191E-10
  -11.9700003       9.79366310E-11
  -11.9600000       9.08085690E-11
  -11.9499998       8.15706322E-11
  -11.9399996       7.05898742E-11
  -11.9300003       5.83318879E-11
  -11.9200001       4.53379834E-11
  -11.9099998       3.21907292E-11
  -11.8999996       1.94702900E-11
  -11.8900003       7.70663394E-12
  -11.8800001      -2.66659091E-12
  -11.8699999      -1.13500919E-11
  -11.8599997      -1.82035602E-11
  -11.8500004      -2.32539248E-11
  -11.8400002      -2.66867778E-11
  -11.8299999      -2.88233465E-11
  -11.8199997      -3.00870301E-11
  -11.8100004      -3.09654732E-11
  -11.8000002      -3.19727370E-11
  -11.7900000      -3.36161689E-11
  -11.7799997      -3.63696157E-11
  -11.7700005      -4.06529879E-11
  -11.7600002      -4.68167449E-11
  -11.7500000      -5.51281208E-11
  -11.7399998      -6.57574620E-11
  -11.7299995      -7.87629545E-11
  -11.7200003      -9.40746994E-11
  -11.7100000      -1.11480443E-10
  -11.6999998      -1.30616629E-10
  -11.6899996      -1.50969556E-10
  -11.6800003      -1.71889517E-10
  -11.6700001      -1.92620100E-10
  -11.6599998      -2.12341492E-10
  -11.6499996      -2.30225436E-10
  -11.6400003      -2.45493958E-10
  -11.6300001      -2.57477983E-10
  -11.6199999      -2.65665767E-10
  -11.6099997      -2.69737149E-10
  -11.6000004      -2.69579470E-10
  -11.5900002      -2.65283739E-10
  -11.5799999      -2.57124322E-10
  -11.5699997      -2.45524712E-10
  -11.5600004      -2.31016026E-10
  -11.5500002      -2.14193524E-10
  -11.5400000      -1.95675531E-10
  -11.5299997      -1.76069007E-10
  -11.5200005      -1.55941565E-10
  -11.5100002      -1.35801204E-10
  -11.5000000      -1.16079750E-10
  -11.4899998      -9.71204714E-11
  -11.4799995      -7.91651467E-11
  -11.4700003      -6.23421315E-11
  -11.4600000      -4.66541770E-11
  -11.4499998      -3.19685702E-11
  -11.4399996      -1.80120484E-11
  -11.4300003      -4.37310431E-12
  -11.4200001       9.48553475E-12
  -11.4099998       2.42030736E-11
  -11.3999996       4.04862498E-11
  -11.3900003       5.90660160E-11
  -11.3800001       8.06504169E-11
  -11.3699999       1.05876606E-10
  -11.3599997       1.35268602E-10
  -11.3500004       1.69205525E-10
  -11.3400002       2.07901099E-10
  -11.3299999       2.51399151E-10
  -11.3199997       2.99581054E-10
  -11.3100004       3.52183671E-10
  -11.3000002       4.08825473E-10
  -11.2900000       4.69032924E-10
  -11.2799997       5.32266453E-10
  -11.2700005       5.97942307E-10
  -11.2600002       6.65448641E-10
  -11.2500000       7.34157457E-10
  -11.2399998       8.03434097E-10
  -11.2299995       8.72648565E-10
  -11.2200003       9.41189127E-10
  -11.2100000       1.00848330E-09
  -11.1999998       1.07402465E-09
  -11.1899996       1.13740040E-09
  -11.1800003       1.19832577E-09
  -11.1700001       1.25666633E-09
  -11.1599998       1.31245848E-09
  -11.1499996       1.36590728E-09
  -11.1400003       1.41737977E-09
  -11.1300001       1.46736878E-09
  -11.1199999       1.51645707E-09
  -11.1099997       1.56526292E-09
  -11.1000004       1.61438685E-09
  -11.0900002       1.66436287E-09
  -11.0799999       1.71561765E-09
  -11.0699997       1.76843762E-09
  -11.0600004       1.82295556E-09
  -11.0500002       1.87914329E-09
  -11.0400000       1.93681826E-09
  -11.0299997       1.99565209E-09
  -11.0200005       2.05518780E-09
  -11.0100002       2.11485851E-09
  -11.0000000       2.17400475E-09
  -10.9899998       2.23189667E-09
  -10.9799995       2.28775554E-09
  -10.9700003       2.34078135E-09
  -10.9600000       2.39017806E-09
  -10.9499998       2.43518894E-09
  -10.9399996       2.47511789E-09
  -10.9300003       2.50936005E-09
  -10.9200001       2.53742050E-09
  -10.9099998       2.55892707E-09
  -10.8999996       2.57363375E-09
  -10.8900003       2.58141841E-09
  -10.8800001       2.58227484E-09
  -10.8699999       2.57629829E-09
  -10.8599997       2.56367283E-09
  -10.8500004       2.54466204E-09
  -10.8400002       2.51959764E-09
  -10.8299999       2.48887022E-09
  -10.8199997       2.45292142E-09
  -10.8100004       2.41223708E-09
  -10.8000002       2.36733100E-09
  -10.7900000       2.31873543E-09
  -10.7799997       2.26697505E-09
  -10.7700005       2.21254681E-09
  -10.7600002       2.15590257E-09
  -10.7500000       2.09742579E-09
  -10.7399998       2.03742290E-09
  -10.7299995       1.97611283E-09
  -10.7200003       1.91362748E-09
  -10.7100000       1.85001958E-09
  -10.6999998       1.78526927E-09
  -10.6899996       1.71930203E-09
  -10.6800003       1.65199276E-09
  -10.6700001       1.58317992E-09
  -10.6599998       1.51266955E-09
  -10.6499996       1.44023937E-09
  -10.6400003       1.36564016E-09
  -10.6300001       1.28860034E-09
  -10.6199999       1.20883004E-09
  -10.6099997       1.12602949E-09
  -10.6000004       1.03990216E-09
  -10.5900002       9.50167389E-10
  -10.5799999       8.56575089E-10
  -10.5699997       7.58921037E-10
  -10.5600004       6.57058408E-10
  -10.5500002       5.50904489E-10
  -10.5400000       4.40444486E-10
  -10.5299997       3.25736910E-10
  -10.5200005       2.06907089E-10
  -10.5100002       8.41497566E-11
  -10.5000000      -4.22718249E-11
  -10.4899998      -1.72024894E-10
  -10.4799995      -3.04708536E-10
  -10.4700003      -4.39849379E-10
  -10.4600000      -5.76905634E-10
  -10.4499998      -7.15270287E-10
  -10.4399996      -8.54278537E-10
  -10.4300003      -9.93220728E-10
  -10.4200001      -1.13135434E-09
  -10.4099998      -1.26792188E-09
  -10.3999996      -1.40216516E-09
  -10.3900003      -1.53334179E-09
  -10.3800001      -1.66074055E-09
  -10.3699999      -1.78369475E-09
  -10.3599997      -1.90159732E-09
  -10.3500004      -2.01391481E-09
  -10.3400002      -2.12020246E-09
  -10.3299999      -2.22011942E-09
  -10.3199997      -2.31343966E-09
  -10.3100004      -2.40006326E-09
  -10.3000002      -2.48001752E-09
  -10.2900000      -2.55345678E-09
  -10.2799997      -2.62065081E-09
  -10.2700005      -2.68197109E-09
  -10.2600002      -2.73787437E-09
  -10.2500000      -2.78888312E-09
  -10.2399998      -2.83557000E-09
  -10.2299995      -2.87854363E-09
  -10.2200003      -2.91844215E-09
  -10.2100000      -2.95592795E-09
  -10.1999998      -2.99168135E-09
  -10.1899996      -3.02639558E-09
  -10.1800003      -3.06076275E-09
  -10.1700001      -3.09546411E-09
  -10.1599998      -3.13114135E-09
  -10.1499996      -3.16837001E-09
  -10.1400003      -3.20763793E-09
  -10.1300001      -3.24930771E-09
  -10.1199999      -3.29360139E-09
  -10.1099997      -3.34058048E-09
  -10.1000004      -3.39014727E-09
  -10.0900002      -3.44204221E-09
  -10.0799999      -3.49586426E-09
  -10.0699997      -3.55108942E-09
  -10.0600004      -3.60709995E-09
  -10.0500002      -3.66321240E-09
  -10.0400000      -3.71871267E-09
  -10.0299997      -3.77287579E-09
  -10.0200005      -3.82500076E-09
  -10.0100002      -3.87442567E-09
  -10.0000000      -3.92054433E-09
  -9.98999977      -3.96282296E-09
  -9.97999954      -4.00080991E-09
  -9.97000027      -4.03413969E-09
  -9.96000004      -4.06255207E-09
  -9.94999981      -4.08588896E-09
  -9.93999958      -4.10411261E-09
  -9.93000031      -4.11731893E-09
  -9.92000008      -4.12574375E-09
  -9.90999985      -4.12978318E-09
  -9.89999962      -4.13000212E-09
  -9.89000034      -4.12713508E-09
  -9.88000011      -4.12209511E-09
  -9.86999989      -4.11595780E-09
  -9.85999966      -4.10994394E-09
  -9.85000038      -4.10540579E-09
  -9.84000015      -4.10378442E-09
  -9.82999992      -4.10658485E-09
  -9.81999969      -4.11533474E-09
  -9.81000042      -4.13155554E-09
  -9.80000019      -4.15671852E-09
  -9.78999996      -4.19222523E-09
  -9.77999973      -4.23936042E-09
  -9.77000046      -4.29927427E-09
  -9.76000023      -4.37293712E-09
  -9.75000000      -4.46112081E-09
  -9.73999977      -4.56435112E-09
  -9.72999954      -4.68289274E-09
  -9.72000027      -4.81672435E-09
  -9.71000004      -4.96551911E-09
  -9.69999981      -5.12865483E-09
  -9.68999958      -5.30522914E-09
  -9.68000031      -5.49408208E-09
  -9.67000008      -5.69385250E-09
  -9.65999985      -5.90301052E-09
  -9.64999962      -6.11992990E-09
  -9.64000034      -6.34292130E-09
  -9.63000011      -6.57029187E-09
  -9.61999989      -6.80036738E-09
  -9.60999966      -7.03152070E-09
  -9.60000038      -7.26217531E-09
  -9.59000015      -7.49081863E-09
  -9.57999992      -7.71598607E-09
  -9.56999969      -7.93626853E-09
  -9.56000042      -8.15029910E-09
  -9.55000019      -8.35675174E-09
  -9.53999996      -8.55437854E-09
  -9.52999973      -8.74200978E-09
  -9.52000046      -8.91856811E-09
  -9.51000023      -9.08312980E-09
  -9.50000000      -9.23493282E-09
  -9.48999977      -9.37342293E-09
  -9.47999954      -9.49827239E-09
  -9.47000027      -9.60939506E-09
  -9.46000004      -9.70696590E-09
  -9.44999981      -9.79140236E-09
  -9.43999958      -9.86335102E-09
  -9.43000031      -9.92366278E-09
  -9.42000008      -9.97337235E-09
  -9.40999985      -1.00136672E-08
  -9.39999962      -1.00458522E-08
  -9.39000034      -1.00713491E-08
  -9.38000011      -1.00916733E-08
  -9.36999989      -1.01084288E-08
  -9.35999966      -1.01233200E-08
  -9.35000038      -1.01381312E-08
  -9.34000015      -1.01547597E-08
  -9.32999992      -1.01751514E-08
  -9.31999969      -1.02013162E-08
  -9.31000042      -1.02352899E-08
  -9.30000019      -1.02791065E-08
  -9.28999996      -1.03347420E-08
  -9.27999973      -1.04040980E-08
  -9.27000046      -1.04889608E-08
  -9.26000023      -1.05909495E-08
  -9.25000000      -1.07115357E-08
  -9.23999977      -1.08519815E-08
  -9.22999954      -1.10133547E-08
  -9.22000027      -1.11964997E-08
  -9.21000004      -1.14020189E-08
  -9.19999981      -1.16302825E-08
  -9.18999958      -1.18814016E-08
  -9.18000031      -1.21552750E-08
  -9.17000008      -1.24515322E-08
  -9.15999985      -1.27696245E-08
  -9.14999962      -1.31088047E-08
  -9.14000034      -1.34681848E-08
  -9.13000011      -1.38467575E-08
  -9.11999989      -1.42434233E-08
  -9.10999966      -1.46570311E-08
  -9.10000038      -1.50863695E-08
  -9.09000015      -1.55301763E-08
  -9.07999992      -1.59871174E-08
  -9.06999969      -1.64557878E-08
  -9.06000042      -1.69346492E-08
  -9.05000019      -1.74220425E-08
  -9.03999996      -1.79161326E-08
  -9.02999973      -1.84149584E-08
  -9.02000046      -1.89164080E-08
  -9.01000023      -1.94182448E-08
  -9.00000000      -1.99181454E-08
  -8.98999977      -2.04137525E-08
  -8.97999954      -2.09026769E-08
  -8.97000027      -2.13825491E-08
  -8.96000004      -2.18510561E-08
  -8.94999981      -2.23059722E-08
  -8.93999958      -2.27451356E-08
  -8.93000031      -2.31664572E-08
  -8.92000008      -2.35679405E-08
  -8.90999985      -2.39476812E-08
  -8.89999962      -2.43038354E-08
  -8.89000034      -2.46346588E-08
  -8.88000011      -2.49384939E-08
  -8.86999989      -2.52137689E-08
  -8.85999966      -2.54590216E-08
  -8.85000038      -2.56729038E-08
  -8.84000015      -2.58542237E-08
  -8.82999992      -2.60019206E-08
  -8.81999969      -2.61151527E-08
  -8.81000042      -2.61932680E-08
  -8.80000019      -2.62358579E-08
  -8.78999996      -2.62427573E-08
  -8.77999973      -2.62140372E-08
  -8.77000046      -2.61500421E-08
  -8.76000023      -2.60512873E-08
  -8.75000000      -2.59185207E-08
  -8.73999977      -2.57525965E-08
  -8.72999954      -2.55545523E-08
  -8.72000027      -2.53254768E-08
  -8.71000004      -2.50666261E-08
  -8.69999981      -2.47793537E-08
  -8.68999958      -2.44651837E-08
  -8.68000031      -2.41257592E-08
  -8.67000008      -2.37628939E-08
  -8.65999985      -2.33784743E-08
  -8.64999962      -2.29744987E-08
  -8.64000034      -2.25529089E-08
  -8.63000011      -2.21156355E-08
  -8.61999989      -2.16644462E-08
  -8.60999966      -2.12009450E-08
  -8.60000038      -2.07265725E-08
  -8.59000015      -2.02425863E-08
  -8.57999992      -1.97501180E-08
  -8.56999969      -1.92501819E-08
  -8.56000042      -1.87437674E-08
  -8.55000019      -1.82317876E-08
  -8.53999996      -1.77150401E-08
  -8.52999973      -1.71942638E-08
  -8.52000046      -1.66700538E-08
  -8.51000023      -1.61427760E-08
  -8.50000000      -1.56126756E-08
  -8.48999977      -1.50798005E-08
  -8.47999954      -1.45440184E-08
  -8.47000027      -1.40051313E-08
  -8.46000004      -1.34629028E-08
  -8.44999981      -1.29171323E-08
  -8.43999958      -1.23677042E-08
  -8.43000031      -1.18145298E-08
  -8.42000008      -1.12575771E-08
  -8.40999985      -1.06968665E-08
  -8.39999962      -1.01324433E-08
  -8.39000034      -9.56433599E-09
  -8.38000011      -8.99263597E-09
  -8.36999989      -8.41752001E-09
  -8.35999966      -7.83926613E-09
  -8.35000038      -7.25831839E-09
  -8.34000015      -6.67534650E-09
  -8.32999992      -6.09121242E-09
  -8.31999969      -5.50694157E-09
  -8.31000042      -4.92373875E-09
  -8.30000019      -4.34293668E-09
  -8.28999996      -3.76590270E-09
  -8.27999973      -3.19409876E-09
  -8.27000046      -2.62904476E-09
  -8.26000023      -2.07233386E-09
  -8.25000000      -1.52567992E-09
  -8.23999977      -9.90941995E-10
  -8.22999954      -4.70131156E-10
  -8.22000027       3.46023314E-11
  -8.21000004       5.21023780E-10
  -8.19999981       9.86875137E-10
  -8.18999958       1.42988088E-09
  -8.18000031       1.84784144E-09
  -8.17000008       2.23865260E-09
  -8.15999985       2.60031552E-09
  -8.14999962       2.93091240E-09
  -8.14000034       3.22862515E-09
  -8.13000011       3.49171869E-09
  -8.11999989       3.71851705E-09
  -8.10999966       3.90747656E-09
  -8.10000038       4.05711775E-09
  -8.09000015       4.16617629E-09
  -8.07999992       4.23355528E-09
  -8.06999969       4.25839630E-09
  -8.06000042       4.24003810E-09
  -8.05000019       4.17805612E-09
  -8.03999996       4.07219103E-09
  -8.02999973       3.92236288E-09
  -8.02000046       3.72855746E-09
  -8.01000023       3.49092000E-09
  -8.00000000       3.20964100E-09
  -7.98999977       2.88504487E-09
  -7.98000002       2.51758925E-09
  -7.96999979       2.10780748E-09
  -7.96000004       1.65640568E-09
  -7.94999981       1.16415588E-09
  -7.94000006       6.31923014E-10
  -7.92999983       6.06316386E-11
  -7.92000008      -5.48811718E-10
  -7.90999985      -1.19539956E-09
  -7.90000010      -1.87816296E-09
  -7.88999987      -2.59604094E-09
  -7.88000011      -3.34787909E-09
  -7.86999989      -4.13242063E-09
  -7.86000013      -4.94823471E-09
  -7.84999990      -5.79376280E-09
  -7.84000015      -6.66730537E-09
  -7.82999992      -7.56706786E-09
  -7.82000017      -8.49118198E-09
  -7.80999994      -9.43780254E-09
  -7.80000019      -1.04050830E-08
  -7.78999996      -1.13912089E-08
  -7.78000021      -1.23944197E-08
  -7.76999998      -1.34129667E-08
  -7.76000023      -1.44451064E-08
  -7.75000000      -1.54890891E-08
  -7.73999977      -1.65432112E-08
  -7.73000002      -1.76057302E-08
  -7.71999979      -1.86750704E-08
  -7.71000004      -1.97497112E-08
  -7.69999981      -2.08283009E-08
  -7.69000006      -2.19095888E-08
  -7.67999983      -2.29924950E-08
  -7.67000008      -2.40760816E-08
  -7.65999985      -2.51594816E-08
  -7.65000010      -2.62418745E-08
  -7.63999987      -2.73225673E-08
  -7.63000011      -2.84009385E-08
  -7.61999989      -2.94764568E-08
  -7.61000013      -3.05487546E-08
  -7.59999990      -3.16176276E-08
  -7.59000015      -3.26830190E-08
  -7.57999992      -3.37450210E-08
  -7.57000017      -3.48038220E-08
  -7.55999994      -3.58596246E-08
  -7.55000019      -3.69126241E-08
  -7.53999996      -3.79629732E-08
  -7.53000021      -3.90108283E-08
  -7.51999998      -4.00562854E-08
  -7.51000023      -4.10995789E-08
  -7.50000000      -4.21409965E-08
  -7.48999977      -4.31809823E-08
  -7.48000002      -4.42201191E-08
  -7.46999979      -4.52590641E-08
  -7.46000004      -4.62984495E-08
  -7.44999981      -4.73388724E-08
  -7.44000006      -4.83808300E-08