  -16.0000000       0.00000000    
  -15.9899998       0.00000000    
  -15.9799995       0.00000000    
  -15.9700003       0.00000000    
  -15.9600000       0.00000000    
  -15.9499998       0.00000000    
  -15.9399996       0.00000000    
  -15.9300003       0.00000000    
  -15.9200001       0.00000000    
  -15.9099998       0.00000000    
  -15.8999996       0.00000000    
  -15.8900003       9.38869971E-43
  -15.8800001       1.03789133E-39
  -15.8699999      -9.91221641E-39
  -15.8599997      -3.95838970E-37
  -15.8500004      -4.22792078E-36
  -15.8400002      -2.42021143E-35
  -15.8299999      -7.05789136E-35
  -15.8199997       7.24726706E-35
  -15.8100004       2.05268864E-33
  -15.8000002       1.30192994E-32
  -15.7900000       5.45863665E-32
  -15.7799997       1.71488768E-31
  -15.7700005       4.06146182E-31
  -15.7600002       6.42375642E-31
  -15.7500000       1.50429905E-31
  -15.7399998      -3.27156629E-30
  -15.7299995      -1.41492491E-29
  -15.7200003      -3.84335811E-29
  -15.7100000      -7.71404035E-29
  -15.6999998      -1.10075394E-28
  -15.6899996      -7.02188039E-29
  -15.6800003       1.73860280E-28
  -15.6700001       7.80547292E-28
  -15.6599998       1.76969909E-27
  -15.6499996       2.68068456E-27
  -15.6400003       2.15192088E-27
  -15.6300001      -2.16768192E-27
  -15.6199999      -1.25822436E-26
  -15.6099997      -2.83106001E-26
  -15.6000004      -4.04464948E-26
  -15.5900002      -2.73958635E-26
  -15.5799999       4.28480370E-26
  -15.5699997       1.94134256E-25
  -15.5600004       4.00395178E-25
  -15.5500002       5.28331998E-25
  -15.5400000       3.01662801E-25
  -15.5299997      -6.39991759E-25
  -15.5200005      -2.50000158E-24
  -15.5100002      -4.86732582E-24
  -15.5000000      -6.17495428E-24
  -15.4899998      -3.48151454E-24
  -15.4799995       6.74614046E-24
  -15.4700003       2.61669974E-23
  -15.4600000       5.03538783E-23
  -15.4499998       6.42695771E-23
  -15.4399996       4.10324895E-23
  -15.4300003      -5.06383289E-23
  -15.4200001      -2.25495852E-22
  -15.4099998      -4.47898814E-22
  -15.3999996      -5.96894469E-22
  -15.3900003      -4.57276085E-22
  -15.3800001       2.25153575E-22
  -15.3699999       1.59184941E-21
  -15.3599997       3.42862688E-21
  -15.3500004       4.91202022E-21
  -15.3400002       4.52206151E-21
  -15.3299999       3.68627103E-22
  -15.3199997      -8.85685223E-21
  -15.3100004      -2.23157222E-20
  -15.3000002      -3.52969470E-20
  -15.2900000      -3.83601810E-20
  -15.2799997      -1.88136075E-20
  -15.2700005       3.41291716E-20
  -15.2600002       1.20301465E-19
  -15.2500000       2.17777578E-19
  -15.2399998       2.75592747E-19
  -15.2299995       2.17946944E-19
  -15.2200003      -3.20685193E-20
  -15.2100000      -5.06037718E-19
  -15.1999998      -1.12899038E-18
  -15.1899996      -1.66722275E-18
  -15.1800003      -1.72430379E-18
  -15.1700001      -8.29411725E-19
  -15.1599998       1.35456171E-18
  -15.1499996       4.72209494E-18
  -15.1400003       8.40751834E-18
  -15.1300001       1.06308797E-17
  -15.1199999       8.92573789E-18
  -15.1099997       9.29044596E-19
  -15.1000004      -1.42536355E-17
  -15.0900002      -3.43958408E-17
  -15.0799999      -5.28727495E-17
  -15.0699997      -5.87196525E-17
  -15.0600004      -3.89997957E-17
  -15.0500002       1.60319547E-17
  -15.0400000       1.05570964E-16
  -15.0299997       2.10862076E-16
  -15.0200005       2.91452920E-16
  -15.0100002       2.89552496E-16
  -15.0000000       1.46000912E-16
  -14.9899998      -1.71960169E-16
  -14.9799995      -6.36547113E-16
  -14.9700003      -1.13105040E-15
  -14.9600000      -1.44456461E-15
  -14.9499998      -1.30752855E-15
  -14.9399996      -4.77943634E-16
  -14.9300003       1.12920143E-15
  -14.9200001       3.30146973E-15
  -14.9099998       5.43467732E-15
  -14.8999996       6.55607313E-15
  -14.8900003       5.52655964E-15
  -14.8800001       1.44034173E-15
  -14.8699999      -5.83644325E-15
  -14.8599997      -1.51419404E-14
  -14.8500004      -2.37461181E-14
  -14.8400002      -2.75924134E-14
  -14.8299999      -2.22436612E-14
  -14.8199997      -4.52794252E-15
  -14.8100004       2.54190725E-14
  -14.8000002       6.23514031E-14
  -14.7900000       9.52289395E-14
  -14.7799997       1.08537094E-13
  -14.7700005       8.61359459E-14
  -14.7600002       1.74054666E-14
  -14.7500000      -9.55989302E-14
  -14.7399998      -2.32327395E-13
  -14.7299995      -3.52245089E-13
  -14.7200003      -4.00429717E-13
  -14.7100000      -3.21572684E-13
  -14.6999998      -8.10452034E-14
  -14.6899996       3.11700671E-13
  -14.6800003       7.85270286E-13
  -14.6700001       1.20342939E-12
  -14.6599998       1.38524543E-12
  -14.6499996       1.15129098E-12
  -14.6400003       3.90476930E-13
  -14.6300001      -8.68038334E-13
  -14.6199999      -2.40215638E-12
  -14.6099997      -3.79108463E-12
  -14.6000004      -4.47890076E-12
  -14.5900002      -3.91399370E-12
  -14.5799999      -1.74620908E-12
  -14.5699997       1.96479226E-12
  -14.5600004       6.59930704E-12
  -14.5500002       1.09620464E-11
  -14.5400000       1.34604871E-11
  -14.5299997       1.24913500E-11
  -14.5200005       6.98223293E-12
  -14.5100002      -3.03858176E-12
  -14.5000000      -1.60284321E-11
  -14.4899998      -2.88715180E-11
  -14.4799995      -3.73253546E-11
  -14.4700003      -3.70053016E-11
  -14.4600000      -2.47704530E-11
  -14.4499998      -1.91720188E-13
  -14.4399996       3.33538787E-11
  -14.4300003       6.84495030E-11
  -14.4200001       9.46307199E-11
  -14.4099998       1.00687493E-10
  -14.3999996       7.79601037E-11
  -14.3900003       2.38905371E-11
  -14.3800001      -5.52228124E-11
  -14.3699999      -1.43387899E-10
  -14.3599997      -2.16848942E-10
  -14.3500004      -2.49008730E-10
  -14.3400002      -2.17690643E-10
  -14.3299999      -1.13166129E-10
  -14.3199997       5.53124768E-11
  -14.3100004       2.56897503E-10
  -14.3000002       4.42325704E-10
  -14.2900000       5.53490254E-10
  -14.2799997       5.38203537E-10
  -14.2700005       3.67061354E-10
  -14.2600002       4.78950386E-11
  -14.2500000      -3.67093467E-10
  -14.2399998      -7.85420728E-10
  -14.2299995      -1.09112230E-09
  -14.2200003      -1.17231902E-09
  -14.2100000      -9.53968460E-10
  -14.1999998      -4.27443636E-10
  -14.1899996       3.32330913E-10
  -14.1800003       1.16980470E-09
  -14.1700001       1.87517313E-09
  -14.1599998       2.23146746E-09
  -14.1499996       2.07311635E-09
  -14.1400003       1.34159073E-09
  -14.1300001       1.21850488E-10
  -14.1199999      -1.35427347E-09
  -14.1099997      -2.74472067E-09
  -14.1000004      -3.67070485E-09
  -14.0900002      -3.81292908E-09
  -14.0799999      -3.00754421E-09
  -14.0699997      -1.31515920E-09
  -14.0600004       9.60515223E-10
  -14.0500002       3.31737415E-09
  -14.0400000       5.16021714E-09
  -14.0299997       5.94655702E-09
  -14.0200005       5.33863043E-09
  -14.0100002       3.32070527E-09
  -14.0000000       2.44755938E-10
  -13.9899998      -3.21753979E-09
  -13.9799995      -6.21544904E-09
  -13.9700003      -7.92564681E-09
  -13.9600000      -7.77601805E-09
  -13.9499998      -5.62750913E-09
  -13.9399996      -1.85912152E-09
  -13.9300003       2.67865841E-09
  -13.9200001       6.84438417E-09
  -13.9099998       9.48578371E-09
  -13.8999996       9.75363790E-09
  -13.8900003       7.36671035E-09
  -13.8800001       2.74921375E-09
  -13.8699999      -3.01137226E-09
  -13.8599997      -8.39452863E-09
  -13.8500004      -1.18225136E-08
  -13.8400002      -1.20944090E-08
  -13.8299999      -8.76532269E-09
  -13.8199997      -2.35998243E-09
  -13.8100004       5.65697800E-09
  -13.8000002       1.31740494E-08
  -13.7900000       1.79395609E-08
  -13.7799997       1.81687643E-08
  -13.7700005       1.30978508E-08
  -13.7600002       3.32825545E-09
  -13.7500000      -9.15664611E-09
  -13.7399998      -2.13461124E-08
  -13.7299995      -2.98770999E-08
  -13.7200003      -3.18878826E-08
  -13.7100000      -2.58446171E-08
  -13.6999998      -1.21188233E-08
  -13.6899996       6.86582835E-09
  -13.6800003       2.70065499E-08
  -13.6700001       4.33769856E-08
  -13.6599998       5.13975920E-08
  -13.6499996       4.80518700E-08
  -13.6400003       3.28373169E-08
  -13.6300001       8.17429502E-09
  -13.6199999      -2.08936015E-08
  -13.6099997      -4.77078039E-08
  -13.6000004      -6.55272530E-08
  -13.5900002      -6.92431357E-08
  -13.5799999      -5.68487124E-08
  -13.5699997      -3.02538616E-08
  -13.5600004       4.83936669E-09
  -13.5500002       4.00684499E-08
  -13.5400000       6.63594264E-08
  -13.5299997       7.62657280E-08
  -13.5200005       6.61179982E-08
  -13.5100002       3.73897535E-08
  -13.5000000      -3.17492987E-09
  -13.4899998      -4.48482105E-08
  -13.4799995      -7.54378817E-08
  -13.4700003      -8.45060768E-08
  -13.4600000      -6.65019257E-08
  -13.4499998      -2.29508945E-08
  -13.4399996       3.70086504E-08
  -13.4300003       9.80966988E-08
  -13.4200001       1.42232963E-07
  -13.4099998       1.53095456E-07
  -13.3999996       1.20839118E-07
  -13.3900003       4.57427021E-08
  -13.3800001      -6.03176247E-08
  -13.3699999      -1.75235854E-07
  -13.3599997      -2.70892969E-07
  -13.3500004      -3.19493381E-07
  -13.3400002      -3.00657973E-07
  -13.3299999      -2.07557761E-07
  -13.3199997      -5.04224111E-08
  -13.3100004       1.43762307E-07
  -13.3000002       3.35720159E-07
  -13.2900000       4.81856603E-07
  -13.2799997       5.44136810E-07
  -13.2700005       4.99634439E-07
  -13.2600002       3.47385424E-07
  -13.2500000       1.10623489E-07
  -13.2399998      -1.66555793E-07
  -13.2299995      -4.27768441E-07
  -13.2200003      -6.16503257E-07
  -13.2100000      -6.89204569E-07
  -13.1999998      -6.26175961E-07
  -13.1899996      -4.37498244E-07
  -13.1800003      -1.62177358E-07
  -13.1700001       1.39729863E-07
  -13.1599998       4.00545247E-07
  -13.1499996       5.61011063E-07
  -13.1400003       5.85145074E-07
  -13.1300001       4.70139526E-07
  -13.1199999       2.48507433E-07
  -13.1099997      -1.85818703E-08
  -13.1000004      -2.55696506E-07
  -13.0900002      -3.92164736E-07
  -13.0799999      -3.81226613E-07
  -13.0699997      -2.14440917E-07
  -13.0600004       7.27077492E-08
  -13.0500002       4.06158932E-07
  -13.0400000       6.89152159E-07
  -13.0299997       8.25514803E-07
  -13.0200005       7.45129000E-07
  -13.0100002       4.25359303E-07
  -13.0000000      -9.72940342E-08
  -12.9899998      -7.29114959E-07
  -12.9799995      -1.33543222E-06
  -12.9700003      -1.76853814E-06
  -12.9600000      -1.90151979E-06
  -12.9499998      -1.66036682E-06
  -12.9399996      -1.04654305E-06
  -12.9300003      -1.43912843E-07
  -12.9200001       8.92800358E-07
  -12.9099998       1.86665488E-06
  -12.8999996       2.57873035E-06
  -12.8900003       2.87139278E-06
  -12.8800001       2.66480174E-06
  -12.8699999       1.97790951E-06
  -12.8599997       9.28389625E-07
  -12.8500004      -2.89430233E-07
  -12.8400002      -1.44443936E-06
  -12.8299999      -2.31791478E-06
  -12.8199997      -2.75096363E-06
  -12.8100004      -2.67924247E-06
  -12.8000002      -2.14657121E-06
  -12.7900000      -1.29381272E-06
  -12.7799997      -3.25139865E-07
  -12.7700005       5.40702388E-07
  -12.7600002       1.12272392E-06
  -12.7500000       1.32099092E-06
  -12.7399998       1.14011175E-06
  -12.7299995       6.86658609E-07
  -12.7200003       1.40480580E-07
  -12.7100000      -2.93645542E-07
  -12.6999998      -4.42453484E-07
  -12.6899996      -2.14629580E-07
  -12.6800003       3.67948473E-07
  -12.6700001       1.16720537E-06
  -12.6599998       1.95650819E-06
  -12.6499996       2.47382968E-06
  -12.6400003       2.48865194E-06
  -12.6300001       1.86671991E-06
  -12.6199999       6.16337729E-07
  -12.6099997      -1.09655605E-06
  -12.6000004      -2.97043948E-06
  -12.5900002      -4.62463686E-06
  -12.5799999      -5.67892721E-06
  -12.5699997      -5.83895735E-06
  -12.5600004      -4.96776784E-06
  -12.5500002      -3.12603379E-06
  -12.5400000      -5.70197017E-07
  -12.5299997       2.29288344E-06
  -12.5200005       4.98597637E-06
  -12.5100002       7.05890943E-06
  -12.5000000       8.18140688E-06
  -12.4899998       8.20973401E-06
  -12.4799995       7.21108972E-06
  -12.4700003       5.43935766E-06
  -12.4600000       3.26721829E-06
  -12.4499998       1.09032715E-06
  -12.4399996      -7.73602039E-07
  -12.4300003      -2.16605736E-06
  -12.4200001      -3.12865996E-06
  -12.4099998      -3.89234492E-06
  -12.3999996      -4.81568213E-06
  -12.3900003      -6.28581620E-06
  -12.3800001      -8.60518048E-06
  -12.3699999      -1.18916450E-05
  -12.3599997      -1.60175750E-05
  -12.3500004      -2.06049590E-05
  -12.3400002      -2.50809408E-05
  -12.3299999      -2.87837483E-05
  -12.3199997      -3.10966134E-05
  -12.3100004      -3.15796860E-05
  -12.3000002      -3.00693828E-05
  -12.2900000      -2.67211144E-05
  -12.2799997      -2.19837857E-05
  -12.2700005      -1.65099482E-05
  -12.2600002      -1.10204364E-05
  -12.2500000      -6.15317185E-06
  -12.2399998      -2.33009700E-06
  -12.2299995       3.27524873E-07
  -12.2200003       2.01587090E-06
  -12.2100000       3.19324295E-06
  -12.1999998       4.46504100E-06
  -12.1899996       6.43525073E-06
  -12.1800003       9.55847918E-06
  -12.1700001       1.40265756E-05
  -12.1599998       1.97159443E-05
  -12.1499996       2.62076337E-05
  -12.1400003       3.28754504E-05
  -12.1300001       3.90214955E-05
  -12.1199999       4.40276817E-05
  -12.1099997       4.74878943E-05
  -12.1000004       4.92904146E-05
  -12.0900002       4.96314788E-05
  -12.0799999       4.89572776E-05
  -12.0699997       4.78482980E-05
  -12.0600004       4.68731414E-05
  -12.0500002       4.64462464E-05
  -12.0400000       4.67226891E-05
  -12.0299997       4.75545457E-05
  -12.0200005       4.85189266E-05
  -12.0100002       4.90110142E-05
  -12.0000000       4.83806252E-05
  -11.9899998       4.60806477E-05
  -11.9799995       4.17933115E-05
  -11.9700003       3.55057055E-05
  -11.9600000       2.75178136E-05
  -11.9499998       1.83818993E-05
  -11.9399996       8.78820902E-06
  -11.9300003      -5.76347986E-07
  -11.9200001      -9.16379122E-06
  -11.9099998      -1.66641275E-05
  -11.8999996      -2.30460919E-05
  -11.8900003      -2.85315364E-05
  -11.8800001      -3.35111545E-05
  -11.8699999      -3.84225386E-05
  -11.8599997      -4.36202899E-05
  -11.8500004      -4.92690742E-05
  -11.8400002      -5.52847814E-05
  -11.8299999      -6.13375378E-05
  -11.8199997      -6.69152796E-05
  -11.8100004      -7.14328999E-05
  -11.8000002      -7.43614000E-05
  -11.7900000      -7.53469649E-05
  -11.7799997      -7.42931225E-05
  -11.7700005      -7.13874761E-05
  -11.7600002      -6.70683512E-05
  -11.7500000      -6.19394268E-05
  -11.7399998      -5.66532326E-05
  -11.7299995      -5.17895351E-05
  -11.7200003      -4.77555441E-05
  -11.7100000      -4.47282728E-05
  -11.6999998      -4.26485167E-05
  -11.6899996      -4.12637200E-05
  -11.6800003      -4.02054866E-05
  -11.6700001      -3.90805289E-05
  -11.6599998      -3.75520140E-05
  -11.6499996      -3.53929172E-05
  -11.6400003      -3.25012079E-05
  -11.6300001      -2.88778574E-05
  -11.6199999      -2.45785486E-05
  -11.6099997      -1.96565943E-05
  -11.6000004      -1.41163473E-05
  -11.5900002      -7.89252590E-06
  -11.5799999      -8.63152422E-07
  -11.5699997       7.10634640E-06
  -11.5600004       1.60995423E-05
  -11.5500002       2.60838424E-05
  -11.5400000       3.68630572E-05
  -11.5299997       4.80631315E-05
  -11.5200005       5.91584248E-05
  -11.5100002       6.95357157E-05
  -11.5000000       7.85834636E-05
  -11.4899998       8.57869600E-05
  -11.4799995       9.08079819E-05
  -11.4700003       9.35316784E-05
  -11.4600000       9.40698301E-05
  -11.4499998       9.27214423E-05
  -11.4399996       8.99006409E-05
  -11.4300003       8.60502041E-05
  -11.4200001       8.15610911E-05
  -11.4099998       7.67169840E-05
  -11.3999996       7.16746508E-05
  -11.3900003       6.64823310E-05
  -11.3800001       6.11275027E-05
  -11.3699999       5.55982770E-05
  -11.3599997       4.99395901E-05
  -11.3500004       4.42868295E-05
  -11.3400002       3.88668668E-05
  -11.3299999       3.39649559E-05
  -11.3199997       2.98663035E-05
  -11.3100004       2.67879732E-05
  -11.3000002       2.48197430E-05
  -11.2900000       2.38907360E-05
  -11.2799997       2.37716795E-05
  -11.2700005       2.41137477E-05
  -11.2600002       2.45151969E-05
  -11.2500000       2.46000745E-05
  -11.2399998       2.40902009E-05
  -11.2299995       2.28535318E-05
  -11.2200003       2.09182690E-05
  -11.2100000       1.84505516E-05
  -11.1999998       1.57026498E-05
  -11.1899996       1.29452274E-05
  -11.1800003       1.04003157E-05
  -11.1700001       8.19063553E-06
  -11.1599998       6.31587091E-06
  -11.1499996       4.65974608E-06
  -11.1400003       3.02430362E-06
  -11.1300001       1.18218952E-06
  -11.1199999      -1.06542734E-06
  -11.1099997      -3.83764973E-06
  -11.1000004      -7.13914915E-06
  -11.0900002      -1.08475288E-05
  -11.0799999      -1.47237970E-05
  -11.0699997      -1.84428282E-05
  -11.0600004      -2.16378430E-05
  -11.0500002      -2.39514229E-05
  -11.0400000      -2.50850790E-05
  -11.0299997      -2.48400356E-05
  -11.0200005      -2.31431368E-05
  -11.0100002      -2.00536251E-05
  -11.0000000      -1.57493923E-05
  -10.9899998      -1.04942310E-05
  -10.9799995      -4.59143394E-06
  -10.9700003       1.66777193E-06
  -10.9600000       8.05059790E-06
  -10.9499998       1.44132118E-05
  -10.9399996       2.07074663E-05
  -10.9300003       2.69608936E-05
  -10.9200001       3.32332238E-05
  -10.9099998       3.95594070E-05
  -10.8999996       4.58935247E-05
  -10.8900003       5.20692302E-05
  -10.8800001       5.77895989E-05
  -10.8699999       6.26524634E-05
  -10.8599997       6.62086240E-05
  -10.8500004       6.80413359E-05
  -10.8400002       6.78492070E-05
  -10.8299999       6.55126423E-05
  -10.8199997       6.11271316E-05
  -10.8100004       5.49941506E-05
  -10.8000002       4.75707384E-05
  -10.7900000       3.93888731E-05
  -10.7799997       3.09627139E-05
  -10.7700005       2.27046312E-05
  -10.7600002       1.48682338E-05
  -10.7500000       7.52945652E-06
  -10.7399998       6.07579295E-07
  -10.7299995      -6.08138271E-06
  -10.7200003      -1.27532630E-05
  -10.7100000      -1.95832454E-05
  -10.6999998      -2.66479055E-05
  -10.6899996      -3.38924510E-05
  -10.6800003      -4.11269393E-05
  -10.6700001      -4.80487943E-05
  -10.6599998      -5.42840389E-05
  -10.6499996      -5.94375160E-05
  -10.6400003      -6.31428265E-05
  -10.6300001      -6.51049049E-05
  -10.6199999      -6.51316514E-05
  -10.6099997      -6.31535586E-05
  -10.6000004      -5.92322031E-05
  -10.5900002      -5.35590952E-05
  -10.5799999      -4.64454715E-05
  -10.5699997      -3.83032893E-05
  -10.5600004      -2.96166545E-05
  -10.5500002      -2.09036043E-05
  -10.5400000      -1.26691739E-05
  -10.5299997      -5.35306026E-06
  -10.5200005       7.22689094E-07
  -10.5100002       5.39831535E-06
  -10.5000000       8.70517033E-06
  -10.4899998       1.08710774E-05
  -10.4799995       1.22974643E-05
  -10.4700003       1.35075816E-05
  -10.4600000       1.50704709E-05
  -10.4499998       1.75105870E-05
  -10.4399996       2.12173472E-05
  -10.4300003       2.63706497E-05
  -10.4200001       3.28975657E-05
  -10.4099998       4.04705279E-05
  -10.3999996       4.85503479E-05
  -10.3900003       5.64683141E-05
  -10.3800001       6.35329416E-05
  -10.3699999       6.91411624E-05
  -10.3599997       7.28716259E-05
  -10.3500004       7.45414873E-05
  -10.3400002       7.42153425E-05
  -10.3299999       7.21664182E-05
  -10.3199997       6.88011351E-05
  -10.3100004       6.45659384E-05
  -10.3000002       5.98595070E-05
  -10.2900000       5.49700744E-05
  -10.2799997       5.00498536E-05
  -10.2700005       4.51277447E-05
  -10.2600002       4.01507023E-05
  -10.2500000       3.50368246E-05
  -10.2399998       2.97221959E-05
  -10.2299995       2.41872931E-05
  -10.2200003       1.84579749E-05
  -10.2100000       1.25862225E-05
  -10.1999998       6.62322373E-06
  -10.1899996       6.00751207E-07
  -10.1800003      -5.46700267E-06
  -10.1700001      -1.15570328E-05
  -10.1599998      -1.75934492E-05
  -10.1499996      -2.34014879E-05
  -10.1400003      -2.86795748E-05
  -10.1300001      -3.30063194E-05
  -10.1199999      -3.58902216E-05
  -10.1099997      -3.68566289E-05
  -10.1000004      -3.55537886E-05
  -10.0900002      -3.18516286E-05
  -10.0799999      -2.59063945E-05
  -10.0699997      -1.81715441E-05
  -10.0600004      -9.34843865E-06
  -10.0500002      -2.86829533E-07
  -10.0400000       8.14332452E-06
  -10.0299997       1.51793383E-05
  -10.0200005       2.02660394E-05
  -10.0100002       2.31106569E-05
  -10.0000000       2.36879605E-05
  -9.98999977       2.22041981E-05
  -9.97999954       1.90373867E-05
  -9.97000027       1.46734783E-05
  -9.96000004       9.65370509E-06
  -9.94999981       4.53907205E-06
  -9.93999958      -1.11628829E-07
  -9.93000031      -3.76034995E-06
  -9.92000008      -5.91622802E-06
  -9.90999985      -6.17619116E-06
  -9.89999962      -4.27762825E-06
  -9.89000034      -1.51427017E-07
  -9.88000011       6.04144998E-06
  -9.86999989       1.39070135E-05
  -9.85999966       2.28586759E-05
  -9.85000038       3.22002161E-05
  -9.84000015       4.12373884E-05
  -9.82999992       4.93950793E-05
  -9.81999969       5.63134636E-05
  -9.81000042       6.19005805E-05
  -9.80000019       6.63293322E-05
  -9.78999996       6.99795419E-05
  -9.77999973       7.33398338E-05
  -9.77000046       7.68915415E-05
  -9.76000023       8.09999328E-05
  -9.75000000       8.58341300E-05
  -9.73999977       9.13285476E-05
  -9.72999954       9.71886839E-05
  -9.72000027       1.02935504E-04
  -9.71000004       1.07976506E-04
  -9.69999981       1.11689755E-04
  -9.68999958       1.13507776E-04
  -9.68000031       1.12991285E-04
  -9.67000008       1.09885121E-04
  -9.65999985       1.04150778E-04
  -9.64999962       9.59731406E-05
  -9.64000034       8.57395644E-05
  -9.63000011       7.39935349E-05
  -9.61999989       6.13686861E-05
  -9.60999966       4.85133678E-05
  -9.60000038       3.60190097E-05
  -9.59000015       2.43659033E-05
  -9.57999992       1.38967953E-05
  -9.56999969       4.82212135E-06
  -9.56000042      -2.74795389E-06
  -9.55000019      -8.75693968E-06
  -9.53999996      -1.31574097E-05
  -9.52999973      -1.58838156E-05
  -9.52000046      -1.68520764E-05
  -9.51000023      -1.59853389E-05
  -9.50000000      -1.32557780E-05
  -9.48999977      -8.72597593E-06
  -9.47999954      -2.57258444E-06
  -9.47000027       4.91906803E-06
  -9.46000004       1.33912135E-05
  -9.44999981       2.24709220E-05
  -9.43999958       3.18316597E-05
  -9.43000031       4.12402078E-05
  -9.42000008       5.05746611E-05
  -9.40999985       5.98098195E-05
  -9.39999962       6.89770532E-05
  -9.39000034       7.81138151E-05
  -9.38000011       8.72209348E-05
  -9.36999989       9.62403792E-05
  -9.35999966       1.05057668E-04
  -9.35000038       1.13522372E-04
  -9.34000015       1.21473073E-04
  -9.32999992       1.28752770E-04
  -9.31999969       1.35206181E-04
  -9.31000042       1.40661126E-04
  -9.30000019       1.44905993E-04
  -9.28999996       1.47679806E-04
  -9.27999973       1.48690451E-04
  -9.27000046       1.47664847E-04
  -9.26000023       1.44421312E-04
  -9.25000000       1.38942196E-04
  -9.23999977       1.31418084E-04
  -9.22999954       1.22241152E-04
  -9.22000027       1.11939073E-04
  -9.21000004       1.01061756E-04
  -9.19999981       9.00522064E-05
  -9.18999958       7.91412094E-05
  -9.18000031       6.83032267E-05
  -9.17000008       5.72916433E-05
  -9.15999985       4.57473761E-05
  -9.14999962       3.33479256E-05
  -9.14000034       1.99492879E-05
  -9.13000011       5.67155530E-06
  -9.11999989      -9.10240760E-06
  -9.10999966      -2.38191569E-05
  -9.10000038      -3.79083576E-05
  -9.09000015      -5.09470919E-05
  -9.07999992      -6.27773043E-05
  -9.06999969      -7.35327776E-05
  -9.06000042      -8.35605169E-05
  -9.05000019      -9.32581461E-05
  -9.03999996      -1.02876955E-04
  -9.02999973      -1.12355105E-04
  -9.02000046      -1.21237128E-04
  -9.01000023      -1.28710773E-04
  -9.00000000      -1.33754802E-04
  -8.98999977      -1.35358583E-04
  -8.97999954      -1.32751331E-04
  -8.97000027      -1.25579099E-04
  -8.96000004      -1.13983857E-04
  -8.94999981      -9.85709048E-05
  -8.93999958      -8.02831419E-05
  -8.93000031      -6.02247310E-05
  -8.92000008      -3.94850977E-05
  -8.90999985      -1.90050669E-05
  -8.89999962       4.93433674E-07
  -8.89000034       1.85175177E-05
  -8.88000011       3.47746172E-05
  -8.86999989       4.91329047E-05
  -8.85999966       6.15928875E-05
  -8.85000038       7.22770565E-05
  -8.84000015       8.14293380E-05
  -8.82999992       8.94065815E-05
  -8.81999969       9.66453299E-05
  -8.81000042       1.03597820E-04
  -8.80000019       1.10647547E-04
  -8.78999996       1.18027834E-04
  -8.77999973       1.25771039E-04
  -8.77000046       1.33708745E-04
  -8.76000023       1.41527795E-04
  -8.75000000       1.48865060E-04
  -8.73999977       1.55410191E-04
  -8.72999954       1.60983647E-04
  -8.72000027       1.65561898E-04
  -8.71000004       1.69247214E-04
  -8.69999981       1.72196582E-04
  -8.68999958       1.74543660E-04
  -8.68000031       1.76347530E-04
  -8.67000008       1.77593305E-04
  -8.65999985       1.78246366E-04
  -8.64999962       1.78338654E-04
  -8.64000034       1.78050206E-04
  -8.63000011       1.77746275E-04
  -8.61999989       1.77946698E-04
  -8.60999966       1.79225914E-04
  -8.60000038       1.82073229E-04
  -8.59000015       1.86755613E-04
  -8.57999992       1.93233092E-04
  -8.56999969       2.01157498E-04
  -8.56000042       2.09960024E-04
  -8.55000019       2.19003821E-04
  -8.53999996       2.27753364E-04
  -8.52999973       2.35911008E-04
  -8.52000046       2.43477829E-04
  -8.51000023       2.50726618E-04
  -8.50000000       2.58098182E-04
  -8.48999977       2.66060291E-04
  -8.47999954       2.74972524E-04
  -8.47000027       2.84995971E-04
  -8.46000004       2.96067126E-04
  -8.44999981       3.07930080E-04
  -8.43999958       3.20206862E-04
  -8.43000031       3.32476484E-04
  -8.42000008       3.44337837E-04
  -8.40999985       3.55446886E-04
  -8.39999962       3.65530839E-04
  -8.39000034       3.74389259E-04
  -8.38000011       3.81895021E-04
  -8.36999989       3.87995970E-04
  -8.35999966       3.92711983E-04
  -8.35000038       3.96114745E-04
  -8.34000015       3.98282631E-04
  -8.32999992       3.99235112E-04
  -8.31999969       3.98867443E-04
  -8.31000042       3.96916497E-04
  -8.30000019       3.92987509E-04
  -8.28999996       3.86654079E-04
  -8.27999973       3.77615681E-04
  -8.27000046       3.65866086E-04
  -8.26000023       3.51810682E-04
  -8.25000000       3.36272293E-04
  -8.23999977       3.20356980E-04
  -8.22999954       3.05195455E-04
  -8.22000027       2.91627861E-04
  -8.21000004       2.79928412E-04
  -8.19999981       2.69672950E-04
  -8.18999958       2.59810186E-04
  -8.18000031       2.48941738E-04
  -8.17000008       2.35737461E-04
  -8.15999985       2.19365378E-04
  -8.14999962       1.99792834E-04
  -8.14000034       1.77853202E-04
  -8.13000011       1.55040092E-04
  -8.11999989       1.33081965E-04
  -8.10999966       1.13426860E-04
  -8.10000038       9.68037348E-05
  -8.09000015       8.30066201E-05
  -8.07999992       7.09792876E-05
  -8.06999969       5.91788157E-05
  -8.06000042       4.61006239E-05
  -8.05000019       3.07934060E-05
  -8.03999996       1.31914358E-05
  -8.02999973      -5.84534882E-06
  -8.02000046      -2.47955759E-05
  -8.01000023      -4.19529169E-05
  -8.00000000      -5.59513210E-05
  -7.98999977      -6.61592931E-05
  -7.98000002      -7.28164086E-05
  -7.96999979      -7.68719256E-05
  -7.96000004      -7.95942033E-05
  -7.94999981      -8.20965288E-05
  -7.94000006      -8.49501957E-05
  -7.92999983      -8.80195948E-05
  -7.92000008      -9.05676643E-05
  -7.90999985      -9.15808778E-05
  -7.90000010      -9.01814346E-05
  -7.88999987      -8.59670181E-05
  -7.88000011      -7.91490311E-05
  -7.86999989      -7.04379636E-05
  -7.86000013      -6.07243419E-05
  -7.84999990      -5.06807264E-05
  -7.84000015      -4.04400380E-05
  -7.82999992      -2.94790643E-05
  -7.82000017      -1.67545331E-05
  -7.80999994      -1.04777678E-06
  -7.80000019       1.86061643E-05
  -7.78999996       4.25626095E-05
  -7.78000021       7.04110644E-05
  -7.76999998       1.01074213E-04
  -7.76000023       1.33120717E-04
  -7.75000000       1.65174133E-04
  -7.73999977       1.96266163E-04
  -7.73000002       2.26009273E-04
  -7.71999979       2.54532904E-04
  -7.71000004       2.82223453E-04
  -7.69999981       3.09376890E-04
  -7.69000006       3.35910474E-04
  -7.67999983       3.61252722E-04
  -7.67000008       3.84455809E-04
  -7.65999985       4.04491177E-04
  -7.65000010       4.20613476E-04
  -7.63999987       4.32647823E-04
  -7.63000011       4.41086129E-04
  -7.61999989       4.46948456E-04
  -7.61000013       4.51456319E-04
  -7.59999990       4.55637812E-04
  -7.59000015       4.60009265E-04
  -7.57999992       4.64454410E-04
  -7.57000017       4.68342274E-04
  -7.55999994       4.70838946E-04
  -7.55000019       4.71292879E-04
  -7.53999996       4.69544990E-04
  -7.53000021       4.66044847E-04
  -7.51999998       4.61728981E-04
  -7.51000023       4.57705319E-04
  -7.50000000       4.54865483E-04
  -7.48999977       4.53573506E-04
  -7.48000002       4.53550107E-04
  -7.46999979       4.54000634E-04
  -7.46000004       4.53940680E-04
  -7.44999981       4.52600420E-04
  -7.44000006       4.49756393E-04