  -16.0000000       0.00000000    
  -15.9899998       0.00000000    
  -15.9799995       0.00000000    
  -15.9700003       0.00000000    
  -15.9600000       0.00000000    
  -15.9499998       0.00000000    
  -15.9399996       0.00000000    
  -15.9300003       0.00000000    
  -15.9200001       0.00000000    
  -15.9099998       0.00000000    
  -15.8999996       0.00000000    
  -15.8900003       0.00000000    
  -15.8800001       0.00000000    
  -15.8699999       0.00000000    
  -15.8599997       5.60519386E-45
  -15.8500004       6.30584309E-44
  -15.8400002       5.24085626E-43
  -15.8299999       3.35610982E-42
  -15.8199997       1.72541880E-41
  -15.8100004       7.31449772E-41
  -15.8000002       2.59150533E-40
  -15.7900000       7.66180955E-40
  -15.7799997       1.83912156E-39
  -15.7700005       3.22763177E-39
  -15.7600002       2.02735518E-39
  -15.7500000      -1.34824460E-38
  -15.7399998      -7.81584364E-38
  -15.7299995      -2.77969276E-37
  -15.7200003      -7.95724351E-37
  -15.7100000      -1.97010941E-36
  -15.6999998      -4.34130820E-36
  -15.6899996      -8.61290895E-36
  -15.6800003      -1.53909705E-35
  -15.6700001      -2.44784674E-35
  -15.6599998      -3.34584148E-35
  -15.6499996      -3.54184340E-35
  -15.6400003      -1.61816799E-35
  -15.6300001       4.74023636E-35
  -15.6199999       1.84568191E-34
  -15.6099997       4.17339984E-34
  -15.6000004       7.30288125E-34
  -15.5900002       1.02106902E-33
  -15.5799999       1.04318006E-33
  -15.5699997       3.77806387E-34
  -15.5600004      -1.49656677E-33
  -15.5500002      -4.94939656E-33
  -15.5400000      -9.70083766E-33
  -15.5299997      -1.41449807E-32
  -15.5200005      -1.47858117E-32
  -15.5100002      -6.36666401E-33
  -15.5000000       1.65375672E-32
  -15.4899998       5.58758368E-32
  -15.4799995       1.04668062E-31
  -15.4700003       1.41577903E-31
  -15.4600000       1.29338856E-31
  -15.4499998       2.22536333E-32
  -15.4399996      -2.12797156E-31
  -15.4300003      -5.61948601E-31
  -15.4200001      -9.25505447E-31
  -15.4099998      -1.09499424E-30
  -15.3999996      -7.75488387E-31
  -15.3900003       3.18234768E-31
  -15.3800001       2.28161573E-30
  -15.3699999       4.78629890E-30
  -15.3599997       6.87913814E-30
  -15.3500004       6.95801851E-30
  -15.3400002       3.09527524E-30
  -15.3299999      -6.16126919E-30
  -15.3199997      -2.05234784E-29
  -15.3100004      -3.65115572E-29
  -15.3000002      -4.64496115E-29
  -15.2900000      -3.88928041E-29
  -15.2799997      -1.62110564E-30
  -15.2700005       7.20088354E-29
  -15.2600002       1.73725971E-28
  -15.2500000       2.70566989E-28
  -15.2399998       3.00129821E-28
  -15.2299995       1.78950333E-28
  -15.2200003      -1.67662156E-28
  -15.2100000      -7.50922445E-28
  -15.1999998      -1.44802690E-27
  -15.1899996      -1.94443023E-27
  -15.1800003      -1.73882681E-27
  -15.1700001      -2.70917773E-28
  -15.1599998       2.78698953E-27
  -15.1499996       7.09848243E-27
  -15.1400003       1.12291569E-26
  -15.1300001       1.24825236E-26
  -15.1199999       7.36623214E-27
  -15.1099997      -7.00985652E-27
  -15.1000004      -3.06071437E-26
  -15.0900002      -5.77884124E-26
  -15.0799999      -7.56302952E-26
  -15.0699997      -6.51218359E-26
  -15.0600004      -7.06940242E-27
  -15.0500002       1.06732338E-25
  -15.0400000       2.59172189E-25
  -15.0299997       3.96093766E-25
  -15.0200005       4.26178850E-25
  -15.0100002       2.42091181E-25
  -15.0000000      -2.31925328E-25
  -14.9899998      -9.71766984E-25
  -14.9799995      -1.78654670E-24
  -14.9700003      -2.29143267E-24
  -14.9600000      -1.96602163E-24
  -14.9499998      -3.31560999E-25
  -14.9399996       2.75968394E-24
  -14.9300003       6.79528491E-24
  -14.9200001       1.03802223E-23
  -14.9099998       1.13163856E-23
  -14.8999996       7.15882752E-24
  -14.8900003      -3.70286142E-24
  -14.8800001      -2.06283214E-23
  -14.8699999      -3.94680364E-23
  -14.8599997      -5.22085881E-23
  -14.8500004      -4.83093780E-23
  -14.8400002      -1.81920286E-23
  -14.8299999       4.14255316E-23
  -14.8199997       1.21765161E-22
  -14.8100004       1.98321487E-22
  -14.8000002       2.32393298E-22
  -14.7900000       1.80343233E-22
  -14.7799997       1.09869478E-23
  -14.7700005      -2.72092338E-22
  -14.7600002      -6.10741717E-22
  -14.7500000      -8.85630637E-22
  -14.7399998      -9.33685468E-22
  -14.7299995      -5.95675458E-22
  -14.7200003       2.10158036E-22
  -14.7100000       1.40662164E-21
  -14.6999998       2.70013219E-21
  -14.6899996       3.58614744E-21
  -14.6800003       3.44978300E-21
  -14.6700001       1.76968123E-21
  -14.6599998      -1.60739459E-21
  -14.6499996      -6.20139971E-21
  -14.6400003      -1.07612813E-20
  -14.6300001      -1.33792651E-20
  -14.6199999      -1.19388383E-20
  -14.6099997      -4.87943786E-21
  -14.6000004       7.87943413E-21
  -14.5900002       2.41550342E-20
  -14.5799999       3.92477878E-20
  -14.5699997       4.65770023E-20
  -14.5600004       3.93768151E-20
  -14.5500002       1.32780357E-20
  -14.5400000      -3.08324949E-20
  -14.5299997      -8.46717262E-20
  -14.5200005      -1.32304631E-19
  -14.5100002      -1.52723752E-19
  -14.5000000      -1.25537169E-19
  -14.4899998      -3.89598870E-20
  -14.4799995       1.01922326E-19
  -14.4700003       2.69617608E-19
  -14.4600000       4.14655612E-19
  -14.4499998       4.74326922E-19
  -14.4399996       3.89956696E-19
  -14.4300003       1.29877269E-19
  -14.4200001      -2.87963853E-19
  -14.4099998      -7.82086706E-19
  -14.3999996      -1.21069256E-18
  -14.3900003      -1.39754770E-18
  -14.3800001      -1.18010291E-18
  -14.3699999      -4.71370423E-19
  -14.3599997       6.80905974E-19
  -14.3500004       2.05934699E-18
  -14.3400002       3.28723313E-18
  -14.3299999       3.89682305E-18
  -14.3199997       3.45317031E-18
  -14.3100004       1.71115782E-18
  -14.3000002      -1.23542382E-18
  -14.2900000      -4.86519429E-18
  -14.2799997      -8.25073618E-18
  -14.2700005      -1.02201862E-17
  -14.2600002      -9.65228620E-18
  -14.2500000      -5.85257415E-18
  -14.2399998       1.08449479E-18
  -14.2299995       1.00479796E-17
  -14.2200003       1.89319176E-17
  -14.2100000       2.49759361E-17
  -14.1999998       2.54152699E-17
  -14.1899996       1.83303455E-17
  -14.1800003       3.49173699E-18
  -14.1700001      -1.70610203E-17
  -14.1599998      -3.89605113E-17
  -14.1499996      -5.61383262E-17
  -14.1400003      -6.21407458E-17
  -14.1300001      -5.19288901E-17
  -14.1199999      -2.37588374E-17
  -14.1099997       1.93941213E-17
  -14.1000004       6.94076466E-17
  -14.0900002       1.13966801E-16
  -14.0799999       1.38980292E-16
  -14.0699997       1.32131515E-16
  -14.0600004       8.68287386E-17
  -14.0500002       5.52334262E-18
  -14.0400000      -9.87009642E-17
  -14.0299997      -2.03133774E-16
  -14.0200005      -2.79372245E-16
  -14.0100002      -2.99770254E-16
  -14.0000000      -2.45188774E-16
  -13.9899998      -1.12200221E-16
  -13.9799995       8.23597729E-17
  -13.9700003       3.01327895E-16
  -13.9600000       4.92633039E-16
  -13.9499998       5.99909867E-16
  -13.9399996       5.76539487E-16
  -13.9300003       4.00056546E-16
  -13.9200001       8.31351059E-17
  -13.9099998      -3.22470949E-16
  -13.8999996      -7.31492889E-16
  -13.8900003      -1.04061439E-15
  -13.8800001      -1.15167713E-15
  -13.8699999      -9.97993700E-16
  -13.8599997      -5.67447806E-16
  -13.8500004       8.42615273E-17
  -13.8400002       8.35478412E-16
  -13.8299999       1.51777049E-15
  -13.8199997       1.95049432E-15
  -13.8100004       1.98443832E-15
  -13.8000002       1.54479338E-15
  -13.7900000       6.62225658E-16
  -13.7799997      -5.17903578E-16
  -13.7700005      -1.75406007E-15
  -13.7600002      -2.75439762E-15
  -13.7500000      -3.24237076E-15
  -13.7399998      -3.02820822E-15
  -13.7299995      -2.06873610E-15
  -13.7200003      -4.98451679E-16
  -13.7100000       1.38022145E-15
  -13.6999998       3.15070824E-15
  -13.6899996       4.37223161E-15
  -13.6800003       4.68758113E-15
  -13.6700001       3.92319064E-15
  -13.6599998       2.15461063E-15
  -13.6499996      -2.83993233E-16
  -13.6400003      -2.85579191E-15
  -13.6300001      -4.93614040E-15
  -13.6199999      -5.96344653E-15
  -13.6099997      -5.59081852E-15
  -13.6000004      -3.79870136E-15
  -13.5900002      -9.34163415E-16
  -13.5799999       2.34214584E-15
  -13.5699997       5.19810948E-15
  -13.5600004       6.83385970E-15
  -13.5500002       6.69992346E-15
  -13.5400000       4.67304096E-15
  -13.5299997       1.13746477E-15
  -13.5200005      -3.06142525E-15
  -13.5100002      -6.79409150E-15
  -13.5000000      -8.92259170E-15
  -13.4899998      -8.61295712E-15
  -13.4799995      -5.60462601E-15
  -13.4700003      -3.59054116E-16
  -13.4600000       5.96763680E-15
  -13.4499998       1.17431174E-14
  -13.4399996       1.52345618E-14
  -13.4300003       1.50620110E-14
  -13.4200001       1.06194181E-14
  -13.4099998       2.34837873E-15
  -13.3999996      -8.22606296E-15
  -13.3900003      -1.87371565E-14
  -13.3800001      -2.64681906E-14
  -13.3699999      -2.89989014E-14
  -13.3599997      -2.48600884E-14
  -13.3500004      -1.40307891E-14
  -13.3400002       1.86684050E-15
  -13.3299999       1.97594813E-14
  -13.3199997       3.56979223E-14
  -13.3100004       4.57150187E-14
  -13.3000002       4.67841606E-14
  -13.2900000       3.76511261E-14
  -13.2799997       1.93205030E-14
  -13.2700005      -4.95891246E-15
  -13.2600002      -3.02559389E-14
  -13.2500000      -5.09808768E-14
  -13.2399998      -6.21628535E-14
  -13.2299995      -6.06890094E-14
  -13.2200003      -4.61958251E-14
  -13.2100000      -2.13605887E-14
  -13.1999998       8.53241699E-15
  -13.1899996       3.67059492E-14
  -13.1800003       5.64643581E-14
  -13.1700001       6.28722199E-14
  -13.1599998       5.41213667E-14
  -13.1499996       3.22108741E-14
  -13.1400003       2.70417767E-15
  -13.1300001      -2.64600624E-14
  -13.1199999      -4.68864754E-14
  -13.1099997      -5.19456609E-14
  -13.1000004      -3.87546101E-14
  -13.0900002      -9.37440839E-15
  -13.0799999       2.91709880E-14
  -13.0699997       6.61915049E-14
  -13.0600004       8.97572964E-14
  -13.0500002       8.97598375E-14
  -13.0400000       6.08964105E-14
  -13.0299997       4.80627797E-15
  -13.0200005      -6.92871799E-14
  -13.0100002      -1.45771741E-13
  -13.0000000      -2.05604522E-13
  -12.9899998      -2.30513904E-13
  -12.9799995      -2.07564814E-13
  -12.9700003      -1.33022635E-13
  -12.9600000      -1.45083784E-14
  -12.9499998       1.29255588E-13
  -12.9399996       2.71307065E-13
  -12.9300003       3.81511608E-13
  -12.9200001       4.32880186E-13
  -12.9099998       4.07802562E-13
  -12.8999996       3.02767658E-13
  -12.8900003       1.30374281E-13
  -12.8800001      -8.20320239E-14
  -12.8699999      -2.97037921E-13
  -12.8599997      -4.74333626E-13
  -12.8500004      -5.78934253E-13
  -12.8400002      -5.88679008E-13
  -12.8299999      -4.99301555E-13
  -12.8199997      -3.25829018E-13
  -12.8100004      -9.98416980E-14
  -12.8000002       1.36941538E-13
  -12.7900000       3.41427299E-13
  -12.7799997       4.78334386E-13
  -12.7700005       5.27707164E-13
  -12.7600002       4.88973608E-13
  -12.7500000       3.80517449E-13
  -12.7399998       2.34767501E-13
  -12.7299995       8.98853000E-14
  -12.7200003      -2.00041738E-14
  -12.7100000      -7.36561894E-14
  -12.6999998      -6.83707783E-14
  -12.6899996      -2.09094657E-14
  -12.6800003       3.67950367E-14
  -12.6700001       6.63096016E-14
  -12.6599998       3.37706988E-14
  -12.6499996      -7.93606717E-14
  -12.6400003      -2.68682754E-13
  -12.6300001      -5.04607207E-13
  -12.6199999      -7.36538326E-13
  -12.6099997      -9.03005914E-13
  -12.6000004      -9.45765710E-13
  -12.5900002      -8.24745383E-13
  -12.5799999      -5.30254009E-13
  -12.5699997      -8.92607860E-14
  -12.5600004       4.36282033E-13
  -12.5500002       9.59344258E-13
  -12.5400000       1.38430066E-12
  -12.5299997       1.62668099E-12
  -12.5200005       1.63190327E-12
  -12.5100002       1.38866869E-12
  -12.5000000       9.33687372E-13
  -12.4899998       3.46210663E-13
  -12.4799995      -2.66898672E-13
  -12.4700003      -7.92637006E-13
  -12.4600000      -1.13535483E-12
  -12.4499998      -1.23713496E-12
  -12.4399996      -1.09046810E-12
  -12.4300003      -7.40279420E-13
  -12.4200001      -2.74717315E-13
  -12.4099998       1.93314088E-13
  -12.3999996       5.49743465E-13
  -12.3900003       7.02669043E-13
  -12.3800001       6.00086766E-13
  -12.3699999       2.37931718E-13
  -12.3599997      -3.43349942E-13
  -12.3500004      -1.07273077E-12
  -12.3400002      -1.86948764E-12
  -12.3299999      -2.66572680E-12
  -12.3199997      -3.42469889E-12
  -12.3100004      -4.15000022E-12
  -12.3000002      -4.88289444E-12
  -12.2900000      -5.68786294E-12
  -12.2799997      -6.62955931E-12
  -12.2700005      -7.74661845E-12
  -12.2600002      -9.02889655E-12
  -12.2500000      -1.04043007E-11
  -12.2399998      -1.17394254E-11
  -12.2299995      -1.28550955E-11
  -12.2200003      -1.35545507E-11
  -12.2100000      -1.36588414E-11
  -12.1999998      -1.30420570E-11
  -12.1899996      -1.16586541E-11
  -12.1800003      -9.55653178E-12
  -12.1700001      -6.87234384E-12
  -12.1599998      -3.80937816E-12
  -12.1499996      -6.02143498E-13
  -12.1400003       2.52536056E-12
  -12.1300001       5.39902584E-12
  -12.1199999       7.92341540E-12
  -12.1099997       1.00939613E-11
  -12.1000004       1.19900704E-11
  -12.0900002       1.37507809E-11
  -12.0799999       1.55383744E-11
  -12.0699997       1.74980898E-11
  -12.0600004       1.97226523E-11
  -12.0500002       2.22295047E-11
  -12.0400000       2.49554717E-11
  -12.0299997       2.77698194E-11
  -12.0200005       3.05023576E-11
  -12.0100002       3.29800319E-11
  -12.0000000       3.50632266E-11
  -11.9899998       3.66734837E-11
  -11.9799995       3.78060673E-11
  -11.9700003       3.85244926E-11
  -11.9600000       3.89381929E-11
  -11.9499998       3.91686683E-11
  -11.9399996       3.93120224E-11
  -11.9300003       3.94067799E-11
  -11.9200001       3.94146764E-11
  -11.9099998       3.92195686E-11
  -11.8999996       3.86447818E-11
  -11.8900003       3.74856431E-11
  -11.8800001       3.55501843E-11
  -11.8699999       3.26989165E-11
  -11.8599997       2.88748608E-11
  -11.8500004       2.41173730E-11
  -11.8400002       1.85562173E-11
  -11.8299999       1.23876439E-11
  -11.8199997       5.83716582E-12
  -11.8100004      -8.81973422E-13
  -11.8000002      -7.60666617E-12
  -11.7900000      -1.42488252E-11
  -11.7799997      -2.08031960E-11
  -11.7700005      -2.73362478E-11
  -11.7600002      -3.39591411E-11
  -11.7500000      -4.07909991E-11
  -11.7399998      -4.79213093E-11
  -11.7299995      -5.53789480E-11
  -11.7200003      -6.31148259E-11
  -11.7100000      -7.10014963E-11
  -11.6999998      -7.88493090E-11
  -11.6899996      -8.64347552E-11
  -11.6800003      -9.35348743E-11
  -11.6700001      -9.99601582E-11
  -11.6599998      -1.05579011E-10
  -11.6499996      -1.10329378E-10
  -11.6400003      -1.14215658E-10
  -11.6300001      -1.17293106E-10
  -11.6199999      -1.19643365E-10
  -11.6099997      -1.21347529E-10
  -11.6000004      -1.22462249E-10
  -11.5900002      -1.23003871E-10
  -11.5799999      -1.22943364E-10
  -11.5699997      -1.22211880E-10
  -11.5600004      -1.20714425E-10
  -11.5500002      -1.18348845E-10
  -11.5400000      -1.15023997E-10
  -11.5299997      -1.10674137E-10
  -11.5200005      -1.05267246E-10
  -11.5100002      -9.88041524E-11
  -11.5000000      -9.13122147E-11
  -11.4899998      -8.28334415E-11
  -11.4799995      -7.34116309E-11
  -11.4700003      -6.30801036E-11
  -11.4600000      -5.18540037E-11
  -11.4499998      -3.97268676E-11
  -11.4399996      -2.66721541E-11
  -11.4300003      -1.26493312E-11
  -11.4200001       2.38815499E-12
  -11.4099998       1.84830623E-11
  -11.3999996       3.56663934E-11
  -11.3900003       5.39493068E-11
  -11.3800001       7.33173383E-11
  -11.3699999       9.37273592E-11
  -11.3599997       1.15105564E-10
  -11.3500004       1.37347675E-10
  -11.3400002       1.60322103E-10
  -11.3299999       1.83874957E-10
  -11.3199997       2.07837789E-10
  -11.3100004       2.32037764E-10
  -11.3000002       2.56308752E-10
  -11.2900000       2.80502427E-10
  -11.2799997       3.04497677E-10
  -11.2700005       3.28205407E-10
  -11.2600002       3.51569579E-10
  -11.2500000       3.74561299E-10
  -11.2399998       3.97169686E-10
  -11.2299995       4.19389495E-10
  -11.2200003       4.41208126E-10
  -11.2100000       4.62597460E-10
  -11.1999998       4.83509344E-10
  -11.1899996       5.03879716E-10
  -11.1800003       5.23638022E-10
  -11.1700001       5.42722478E-10
  -11.1599998       5.61095559E-10
  -11.1499996       5.78758375E-10
  -11.1400003       5.95756666E-10
  -11.1300001       6.12180029E-10
  -11.1199999       6.28149199E-10
  -11.1099997       6.43796294E-10
  -11.1000004       6.59240607E-10
  -11.0900002       6.74562517E-10
  -11.0799999       6.89784951E-10
  -11.0699997       7.04863945E-10
  -11.0600004       7.19692306E-10
  -11.0500002       7.34113381E-10
  -11.0400000       7.47952700E-10
  -11.0299997       7.61043450E-10
  -11.0200005       7.73264064E-10
  -11.0100002       7.84560472E-10
  -11.0000000       7.94957933E-10
  -10.9899998       8.04562306E-10
  -10.9799995       8.13539458E-10
  -10.9700003       8.22092228E-10
  -10.9600000       8.30428726E-10
  -10.9499998       8.38735470E-10
  -10.9399996       8.47149684E-10
  -10.9300003       8.55758686E-10
  -10.9200001       8.64601113E-10
  -10.9099998       8.73685513E-10
  -10.8999996       8.83013052E-10
  -10.8900003       8.92607321E-10
  -10.8800001       9.02523389E-10
  -10.8699999       9.12862064E-10
  -10.8599997       9.23758792E-10
  -10.8500004       9.35362565E-10
  -10.8400002       9.47811052E-10
  -10.8299999       9.61199342E-10
  -10.8199997       9.75556302E-10
  -10.8100004       9.90832860E-10
  -10.8000002       1.00689679E-09
  -10.7900000       1.02356112E-09
  -10.7799997       1.04059705E-09
  -10.7700005       1.05776998E-09
  -10.7600002       1.07486975E-09
  -10.7500000       1.09173048E-09
  -10.7399998       1.10823750E-09
  -10.7299995       1.12433196E-09
  -10.7200003       1.14000021E-09
  -10.7100000       1.15524146E-09
  -10.6999998       1.17006838E-09
  -10.6899996       1.18447219E-09
  -10.6800003       1.19842325E-09
  -10.6700001       1.21186194E-09
  -10.6599998       1.22470067E-09
  -10.6499996       1.23684352E-09
  -10.6400003       1.24819433E-09
  -10.6300001       1.25867750E-09
  -10.6199999       1.26825261E-09
  -10.6099997       1.27692901E-09
  -10.6000004       1.28476552E-09
  -10.5900002       1.29188826E-09
  -10.5799999       1.29846400E-09
  -10.5699997       1.30471001E-09
  -10.5600004       1.31085798E-09
  -10.5500002       1.31713995E-09
  -10.5400000       1.32376843E-09
  -10.5299997       1.33092259E-09
  -10.5200005       1.33872535E-09
  -10.5100002       1.34726108E-09
  -10.5000000       1.35656042E-09
  -10.4899998       1.36662281E-09
  -10.4799995       1.37742240E-09
  -10.4700003       1.38893164E-09
  -10.4600000       1.40111955E-09
  -10.4499998       1.41395817E-09
  -10.4399996       1.42742507E-09
  -10.4300003       1.44148060E-09
  -10.4200001       1.45607348E-09
  -10.4099998       1.47112411E-09
  -10.3999996       1.48652901E-09
  -10.3900003       1.50215418E-09
  -10.3800001       1.51785362E-09
  -10.3699999       1.53349100E-09
  -10.3599997       1.54894109E-09
  -10.3500004       1.56411606E-09
  -10.3400002       1.57896363E-09
  -10.3299999       1.59347791E-09
  -10.3199997       1.60767855E-09
  -10.3100004       1.62162983E-09
  -10.3000002       1.63541003E-09
  -10.2900000       1.64909275E-09
  -10.2799997       1.66274916E-09
  -10.2700005       1.67645176E-09
  -10.2600002       1.69026482E-09
  -10.2500000       1.70425396E-09
  -10.2399998       1.71849612E-09
  -10.2299995       1.73309878E-09
  -10.2200003       1.74820258E-09
  -10.2100000       1.76399451E-09
  -10.1999998       1.78070980E-09
  -10.1899996       1.79861837E-09
  -10.1800003       1.81801030E-09
  -10.1700001       1.83917670E-09
  -10.1599998       1.86236915E-09
  -10.1499996       1.88777705E-09
  -10.1400003       1.91550842E-09
  -10.1300001       1.94558569E-09
  -10.1199999       1.97793448E-09
  -10.1099997       2.01240291E-09
  -10.1000004       2.04881312E-09
  -10.0900002       2.08696660E-09
  -10.0799999       2.12669815E-09
  -10.0699997       2.16788831E-09
  -10.0600004       2.21047536E-09
  -10.0500002       2.25446173E-09
  -10.0400000       2.29991715E-09
  -10.0299997       2.34690756E-09
  -10.0200005       2.39553066E-09
  -10.0100002       2.44586840E-09
  -10.0000000       2.49799248E-09
  -9.98999977       2.55194887E-09
  -9.97999954       2.60774669E-09
  -9.97000027       2.66537925E-09
  -9.96000004       2.72480971E-09
  -9.94999981       2.78598167E-09
  -9.93999958       2.84882651E-09
  -9.93000031       2.91327007E-09
  -9.92000008       2.97922997E-09
  -9.90999985       3.04663583E-09
  -9.89999962       3.11547343E-09
  -9.89000034       3.18575788E-09
  -9.88000011       3.25755378E-09
  -9.86999989       3.33097283E-09
  -9.85999966       3.40617845E-09
  -9.85000038       3.48333096E-09
  -9.84000015       3.56259089E-09
  -9.82999992       3.64408215E-09
  -9.81999969       3.72791309E-09
  -9.81000042       3.81416676E-09
  -9.80000019       3.90294153E-09
  -9.78999996       3.99436839E-09
  -9.77999973       4.08862899E-09
  -9.77000046       4.18598756E-09
  -9.76000023       4.28677716E-09
  -9.75000000       4.39140280E-09
  -9.73999977       4.50028281E-09
  -9.72999954       4.61379202E-09
  -9.72000027       4.73225858E-09
  -9.71000004       4.85591967E-09
  -9.69999981       4.98488895E-09
  -9.68999958       5.11921661E-09
  -9.68000031       5.25885246E-09
  -9.67000008       5.40370548E-09
  -9.65999985       5.55363489E-09
  -9.64999962       5.70845815E-09
  -9.64000034       5.86793636E-09
  -9.63000011       6.03177375E-09
  -9.61999989       6.19960572E-09
  -9.60999966       6.37095932E-09
  -9.60000038       6.54530341E-09
  -9.59000015       6.72200473E-09
  -9.57999992       6.90035007E-09
  -9.56999969       7.07957470E-09
  -9.56000042       7.25891125E-09
  -9.55000019       7.43750883E-09
  -9.53999996       7.61450725E-09
  -9.52999973       7.78903431E-09
  -9.52000046       7.96015254E-09
  -9.51000023       8.12695511E-09
  -9.50000000       8.28853253E-09
  -9.48999977       8.44404457E-09
  -9.47999954       8.59272475E-09
  -9.47000027       8.73395134E-09
  -9.46000004       8.86723583E-09
  -9.44999981       8.99229846E-09
  -9.43999958       9.10897224E-09
  -9.43000031       9.21721099E-09
  -9.42000008       9.31709376E-09
  -9.40999985       9.40879463E-09
  -9.39999962       9.49249301E-09
  -9.39000034       9.56846691E-09
  -9.38000011       9.63700852E-09
  -9.36999989       9.69850955E-09
  -9.35999966       9.75339010E-09
  -9.35000038       9.80223813E-09
  -9.34000015       9.84576420E-09
  -9.32999992       9.88476856E-09
  -9.31999969       9.92026816E-09
  -9.31000042       9.95337324E-09
  -9.30000019       9.98534944E-09
  -9.28999996       1.00176312E-08
  -9.27999973       1.00517621E-08
  -9.27000046       1.00893818E-08
  -9.26000023       1.01321920E-08
  -9.25000000       1.01819859E-08
  -9.23999977       1.02404858E-08
  -9.22999954       1.03094351E-08
  -9.22000027       1.03904823E-08
  -9.21000004       1.04851763E-08
  -9.19999981       1.05949836E-08
  -9.18999958       1.07212328E-08
  -9.18000031       1.08651079E-08
  -9.17000008       1.10276570E-08
  -9.15999985       1.12097327E-08
  -9.14999962       1.14120535E-08
  -9.14000034       1.16350822E-08
  -9.13000011       1.18791119E-08
  -9.11999989       1.21442243E-08
  -9.10999966       1.24303510E-08
  -9.10000038       1.27372051E-08
  -9.09000015       1.30643558E-08
  -9.07999992       1.34112232E-08
  -9.06999969       1.37770781E-08
  -9.06000042       1.41610963E-08
  -9.05000019       1.45621568E-08
  -9.03999996       1.49789674E-08
  -9.02999973       1.54100555E-08
  -9.02000046       1.58536739E-08
  -9.01000023       1.63078884E-08
  -9.00000000       1.67705281E-08
  -8.98999977       1.72393584E-08
  -8.97999954       1.77120363E-08
  -8.97000027       1.81861530E-08
  -8.96000004       1.86593550E-08
  -8.94999981       1.91292671E-08
  -8.93999958       1.95935161E-08
  -8.93000031       2.00498160E-08
  -8.92000008       2.04959090E-08
  -8.90999985       2.09295230E-08
  -8.89999962       2.13485158E-08
  -8.89000034       2.17508660E-08
  -8.88000011       2.21345804E-08
  -8.86999989       2.24978542E-08
  -8.85999966       2.28389716E-08
  -8.85000038       2.31564083E-08
  -8.84000015       2.34487310E-08
  -8.82999992       2.37147404E-08
  -8.81999969       2.39533424E-08
  -8.81000042       2.41634979E-08
  -8.80000019       2.43444500E-08
  -8.78999996       2.44954972E-08
  -8.77999973       2.46160123E-08
  -8.77000046       2.47055887E-08
  -8.76000023       2.47639171E-08
  -8.75000000       2.47906762E-08
  -8.73999977       2.47858765E-08
  -8.72999954       2.47496299E-08
  -8.72000027       2.46820715E-08
  -8.71000004       2.45837057E-08
  -8.69999981       2.44551472E-08
  -8.68999958       2.42972789E-08
  -8.68000031       2.41111611E-08
  -8.67000008       2.38980817E-08
  -8.65999985       2.36594353E-08
  -8.64999962       2.33967388E-08
  -8.64000034       2.31116282E-08
  -8.63000011       2.28058052E-08
  -8.61999989       2.24810321E-08
  -8.60999966       2.21392913E-08
  -8.60000038       2.17824656E-08
  -8.59000015       2.14127134E-08
  -8.57999992       2.10321947E-08
  -8.56999969       2.06431192E-08
  -8.56000042       2.02476489E-08
  -8.55000019       1.98479473E-08
  -8.53999996       1.94460554E-08
  -8.52999973       1.90438811E-08
  -8.52000046       1.86431048E-08
  -8.51000023       1.82454549E-08
  -8.50000000       1.78524306E-08
  -8.48999977       1.74655153E-08
  -8.47999954       1.70860393E-08
  -8.47000027       1.67152532E-08
  -8.46000004       1.63542850E-08
  -8.44999981       1.60040941E-08
  -8.43999958       1.56653037E-08
  -8.43000031       1.53385162E-08
  -8.42000008       1.50238897E-08
  -8.40999985       1.47215591E-08
  -8.39999962       1.44314383E-08
  -8.39000034       1.41535414E-08
  -8.38000011       1.38877398E-08
  -8.36999989       1.36338612E-08
  -8.35999966       1.33916718E-08
  -8.35000038       1.31607596E-08
  -8.34000015       1.29407685E-08
  -8.32999992       1.27310722E-08
  -8.31999969       1.25310331E-08
  -8.31000042       1.23401431E-08
  -8.30000019       1.21578410E-08
  -8.28999996       1.19837624E-08
  -8.27999973       1.18177796E-08
  -8.27000046       1.16599725E-08
  -8.26000023       1.15106218E-08
  -8.25000000       1.13699867E-08
  -8.23999977       1.12384742E-08
  -8.22999954       1.11164065E-08
  -8.22000027       1.10040537E-08
  -8.21000004       1.09016467E-08
  -8.19999981       1.08095541E-08
  -8.18999958       1.07282130E-08
  -8.18000031       1.06582165E-08
  -8.17000008       1.06002780E-08
  -8.15999985       1.05552491E-08
  -8.14999962       1.05240057E-08
  -8.14000034       1.05074554E-08
  -8.13000011       1.05065414E-08
  -8.11999989       1.05220490E-08
  -8.10999966       1.05548610E-08
  -8.10000038       1.06058771E-08
  -8.09000015       1.06761533E-08
  -8.07999992       1.07670255E-08
  -8.06999969       1.08799263E-08
  -8.06000042       1.10162874E-08
  -8.05000019       1.11774625E-08
  -8.03999996       1.13647438E-08
  -8.02999973       1.15791590E-08
  -8.02000046       1.18213794E-08
  -8.01000023       1.20917445E-08
  -8.00000000       1.23906041E-08
  -7.98999977       1.27179405E-08
  -7.98000002       1.30740920E-08
  -7.96999979       1.34590623E-08
  -7.96000004       1.38731506E-08
  -7.94999981       1.43165648E-08
  -7.94000006       1.47892267E-08
  -7.92999983       1.52912065E-08
  -7.92000008       1.58220583E-08
  -7.90999985       1.63813407E-08
  -7.90000010       1.69685794E-08
  -7.88999987       1.75829680E-08
  -7.88000011       1.82239184E-08
  -7.86999989       1.88908231E-08
  -7.86000013       1.95829433E-08
  -7.84999990       2.02997033E-08
  -7.84000015       2.10400355E-08
  -7.82999992       2.18031602E-08
  -7.82000017       2.25874661E-08
  -7.80999994       2.33916566E-08
  -7.80000019       2.42141311E-08
  -7.78999996       2.50534686E-08
  -7.78000021       2.59082125E-08
  -7.76999998       2.67769966E-08
  -7.76000023       2.76586913E-08
  -7.75000000       2.85520159E-08
  -7.73999977       2.94556735E-08
  -7.73000002       3.03681489E-08
  -7.71999979       3.12878221E-08
  -7.71000004       3.22129381E-08
  -7.69999981       3.31418697E-08
  -7.69000006       3.40731461E-08
  -7.67999983       3.50054137E-08
  -7.67000008       3.59376919E-08
  -7.65999985       3.68689861E-08
  -7.65000010       3.77986566E-08
  -7.63999987       3.87258581E-08
  -7.63000011       3.96498194E-08
  -7.61999989       4.05696738E-08
  -7.61000013       4.14845296E-08
  -7.59999990       4.23937578E-08
  -7.59000015       4.32967759E-08
  -7.57999992       4.41932784E-08
  -7.57000017       4.50834285E-08
  -7.55999994       4.59674254E-08
  -7.55000019       4.68454111E-08
  -7.53999996       4.77175170E-08
  -7.53000021       4.85840062E-08
  -7.51999998       4.94447328E-08
  -7.51000023       5.02992776E-08
  -7.50000000       5.11476692E-08
  -7.48999977       5.19899643E-08
  -7.48000002       5.28265289E-08
  -7.46999979       5.36579314E-08
  -7.46000004       5.44853904E-08
  -7.44999981       5.53100605E-08
  -7.44000006       5.61330751E-08