  -16.0000000       0.00000000    
  -15.9899998       0.00000000    
  -15.9799995       0.00000000    
  -15.9700003       0.00000000    
  -15.9600000       0.00000000    
  -15.9499998       0.00000000    
  -15.9399996       0.00000000    
  -15.9300003       0.00000000    
  -15.9200001       0.00000000    
  -15.9099998       0.00000000    
  -15.8999996       0.00000000    
  -15.8900003       1.40583166E-39
  -15.8800001       2.20465124E-38
  -15.8699999       1.74755505E-37
  -15.8599997       9.45405627E-37
  -15.8500004       3.91905756E-36
  -15.8400002       1.24637342E-35
  -15.8299999       2.29793577E-35
  -15.8199997      -5.49167944E-35
  -15.8100004      -8.22549876E-34
  -15.8000002      -5.08322879E-33
  -15.7900000      -2.32803717E-32
  -15.7799997      -8.80478418E-32
  -15.7700005      -2.86907256E-31
  -15.7600002      -8.23120359E-31
  -15.7500000      -2.10366337E-30
  -15.7399998      -4.81311522E-30
  -15.7299995      -9.84263124E-30
  -15.7200003      -1.78015149E-29
  -15.7100000      -2.77081886E-29
  -15.6999998      -3.45319269E-29
  -15.6899996      -2.58939114E-29
  -15.6800003       2.01776972E-29
  -15.6700001       1.32045320E-28
  -15.6599998       3.29257802E-28
  -15.6499996       5.90151446E-28
  -15.6400003       8.06579653E-28
  -15.6300001       7.50744489E-28
  -15.6199999       1.05795906E-28
  -15.6099997      -1.37570428E-27
  -15.6000004      -3.55899412E-27
  -15.5900002      -5.55547781E-27
  -15.5799999      -5.58541023E-27
  -15.5699997      -1.53741200E-27
  -15.5600004       7.39369744E-27
  -15.5500002       1.82047989E-26
  -15.5400000       2.21260816E-26
  -15.5299997       5.97932954E-27
  -15.5200005      -4.00081285E-26
  -15.5100002      -1.07113247E-25
  -15.5000000      -1.51108550E-25
  -15.4899998      -8.76132464E-26
  -15.4799995       1.79379895E-25
  -15.4700003       6.79918770E-25
  -15.4600000       1.26121849E-24
  -15.4499998       1.48887132E-24
  -15.4399996       6.76100634E-25
  -15.4300003      -1.83159973E-24
  -15.4200001      -6.06089722E-24
  -15.4099998      -1.06461946E-23
  -15.3999996      -1.23326593E-23
  -15.3900003      -6.43619582E-24
  -15.3800001       1.10815843E-23
  -15.3699999       3.98421584E-23
  -15.3599997       7.07132139E-23
  -15.3500004       8.35770046E-23
  -15.3400002       5.09025563E-23
  -15.3299999      -4.98923315E-23
  -15.3199997      -2.15820479E-22
  -15.3100004      -3.96290650E-22
  -15.3000002      -4.83614396E-22
  -15.2900000      -3.33692278E-22
  -15.2799997       1.70651579E-22
  -15.2700005       1.01904895E-21
  -15.2600002       1.97003302E-21
  -15.2500000       2.50896118E-21
  -15.2399998       1.94444494E-21
  -15.2299995      -3.05987331E-22
  -15.2200003      -4.26827579E-21
  -15.2100000      -8.94961359E-21
  -15.1999998      -1.21286908E-20
  -15.1899996      -1.07126085E-20
  -15.1800003      -1.87164517E-21
  -15.1700001       1.51344794E-20
  -15.1599998       3.69772481E-20
  -15.1499996       5.51201947E-20
  -15.1400003       5.67241819E-20
  -15.1300001       2.84977971E-20
  -15.1199999      -3.65722592E-20
  -15.1099997      -1.31206600E-19
  -15.1000004      -2.27773074E-19
  -15.0900002      -2.78422015E-19
  -15.0799999      -2.25201214E-19
  -15.0699997      -2.14278230E-20
  -15.0600004       3.38852056E-19
  -15.0500002       7.91886729E-19
  -15.0400000       1.18884858E-18
  -15.0299997       1.30857119E-18
  -15.0200005       9.09178406E-19
  -15.0100002      -1.80364096E-19
  -15.0000000      -1.94274844E-18
  -14.9899998      -4.06038065E-18
  -14.9799995      -5.85600571E-18
  -14.9700003      -6.34076787E-18
  -14.9600000      -4.41761266E-18
  -14.9499998       7.39510273E-19
  -14.9399996       9.16343817E-18
  -14.9300003       1.95399731E-17
  -14.9200001       2.88248753E-17
  -14.9099998       3.23134764E-17
  -14.8999996       2.44628641E-17
  -14.8900003       6.66180246E-19
  -14.8800001      -4.00924914E-17
  -14.8699999      -9.22305589E-17
  -14.8599997      -1.41296610E-16
  -14.8500004      -1.64009534E-16
  -14.8400002      -1.32276424E-16
  -14.8299999      -2.22244356E-17
  -14.8199997       1.72307241E-16
  -14.8100004       4.24856930E-16
  -14.8000002       6.65826289E-16
  -14.7900000       7.84156897E-16
  -14.7799997       6.48607062E-16
  -14.7700005       1.51977801E-16
  -14.7600002      -7.26685130E-16
  -14.7500000      -1.85818657E-15
  -14.7399998      -2.92487295E-15
  -14.7299995      -3.44058388E-15
  -14.7200003      -2.85552658E-15
  -14.7100000      -7.51102019E-16
  -14.6999998       2.90654231E-15
  -14.6899996       7.52906580E-15
  -14.6800003       1.17947136E-14
  -14.6700001       1.37807729E-14
  -14.6599998       1.14181490E-14
  -14.6499996       3.25294533E-15
  -14.6400003      -1.06359928E-14
  -14.6300001      -2.78577396E-14
  -14.6199999      -4.34565273E-14
  -14.6099997      -5.05538333E-14
  -14.6000004      -4.20747015E-14
  -14.5900002      -1.34038297E-14
  -14.5799999       3.46266357E-14
  -14.5699997       9.34299499E-14
  -14.5600004       1.46251961E-13
  -14.5500002       1.70683780E-13
  -14.5400000       1.44462933E-13
  -14.5299997       5.38272531E-14
  -14.5200005      -9.76095425E-14
  -14.5100002      -2.82551299E-13
  -14.5000000      -4.49715596E-13
  -14.4899998      -5.32152664E-13
  -14.4799995      -4.64688292E-13
  -14.4700003      -2.07852263E-13
  -14.4600000       2.27746099E-13
  -14.4499998       7.65134158E-13
  -14.4399996       1.26167945E-12
  -14.4300003       1.53296256E-12
  -14.4200001       1.40010508E-12
  -14.4099998       7.52720586E-13
  -14.3999996      -3.88562311E-13
  -14.3900003      -1.83153145E-12
  -14.3800001      -3.21518918E-12
  -14.3699999      -4.06980656E-12
  -14.3599997      -3.93344645E-12
  -14.3500004      -2.50493896E-12
  -14.3400002       2.05181792E-13
  -14.3299999       3.77580909E-12
  -14.3199997       7.37685607E-12
  -14.3100004       9.90182155E-12
  -14.3000002       1.02286235E-11
  -14.2900000       7.56421835E-12
  -14.2799997       1.78890746E-12
  -14.2700005      -6.30724119E-12
  -14.2600002      -1.49998937E-11
  -14.2500000      -2.18841386E-11
  -14.2399998      -2.44048427E-11
  -14.2299995      -2.05769898E-11
  -14.2200003      -9.72898932E-12
  -14.2100000       6.94721190E-12
  -14.1999998       2.62522868E-11
  -14.1899996       4.33859511E-11
  -14.1800003       5.29211432E-11
  -14.1700001       5.02005729E-11
  -14.1599998       3.28534699E-11
  -14.1499996       2.02595211E-12
  -14.1400003      -3.70931758E-11
  -14.1300001      -7.57620147E-11
  -14.1199999      -1.03283694E-10
  -14.1099997      -1.09514002E-10
  -14.1000004      -8.77823855E-11
  -14.0900002      -3.75067512E-11
  -14.0799999       3.42861121E-11
  -14.0699997       1.13188903E-10
  -14.0600004       1.79703391E-10
  -14.0500002       2.13405835E-10
  -14.0400000       1.98252401E-10
  -14.0299997       1.27824848E-10
  -14.0200005       9.08445021E-12
  -14.0100002      -1.36691547E-10
  -14.0000000      -2.76630524E-10
  -13.9899998      -3.72662040E-10
  -13.9799995      -3.90629196E-10
  -13.9700003      -3.10211551E-10
  -13.9600000      -1.33150962E-10
  -13.9499998       1.12788251E-10
  -13.9399996       3.76063514E-10
  -13.9300003       5.90451243E-10
  -13.9200001       6.89918400E-10
  -13.9099998       6.26391272E-10
  -13.8999996       3.86172816E-10
  -13.8900003       2.70054920E-13
  -13.8800001      -4.55390448E-10
  -13.8699999      -8.71903549E-10
  -13.8599997      -1.13059218E-09
  -13.8500004      -1.13330767E-09
  -13.8400002      -8.32877767E-10
  -13.8299999      -2.55384242E-10
  -13.8199997       4.93400210E-10
  -13.8100004       1.24213351E-09
  -13.8000002       1.78851767E-09
  -13.7900000       1.94864658E-09
  -13.7799997       1.61021319E-09
  -13.7700005       7.75678688E-10
  -13.7600002      -4.18190288E-10
  -13.7500000      -1.71383896E-09
  -13.7399998      -2.78149859E-09
  -13.7299995      -3.29548433E-09
  -13.7200003      -3.02211789E-09
  -13.7100000      -1.89738980E-09
  -13.6999998      -7.17946536E-11
  -13.6899996       2.09484630E-09
  -13.6800003       4.09486756E-09
  -13.6700001       5.38261968E-09
  -13.6599998       5.51072610E-09
  -13.6499996       4.26056879E-09
  -13.6400003       1.73202186E-09
  -13.6300001      -1.63656000E-09
  -13.6199999      -5.13246556E-09
  -13.6099997      -7.91116239E-09
  -13.6000004      -9.19047149E-09
  -13.5900002      -8.45310577E-09
  -13.5799999      -5.60727376E-09
  -13.5699997      -1.06007259E-09
  -13.5600004       4.32420055E-09
  -13.5500002       9.38263778E-09
  -13.5400000       1.29018209E-08
  -13.5299997       1.39031222E-08
  -13.5200005       1.18987131E-08
  -13.5100002       7.05314740E-09
  -13.5000000       2.02789868E-10
  -13.4899998      -7.28365146E-09
  -13.4799995      -1.37829543E-08
  -13.4700003      -1.77776105E-08
  -13.4600000      -1.82180120E-08
  -13.4499998      -1.47996255E-08
  -13.4399996      -8.08200618E-09
  -13.4300003       5.90439420E-10
  -13.4200001       9.36087918E-09
  -13.4099998       1.62731819E-08
  -13.3999996       1.97347614E-08
  -13.3900003       1.89189890E-08
  -13.3800001       1.40031942E-08
  -13.3699999       6.17097795E-09
  -13.3599997      -2.63964184E-09
  -13.3500004      -1.01978328E-08
  -13.3400002      -1.45497703E-08
  -13.3299999      -1.45578483E-08
  -13.3199997      -1.02648681E-08
  -13.3100004      -2.96986191E-09
  -13.3000002       5.03395148E-09
  -13.2900000       1.10246434E-08
  -13.2799997       1.26011273E-08
  -13.2700005       8.43409698E-09
  -13.2600002      -1.18747867E-09
  -13.2500000      -1.41907730E-08
  -13.2399998      -2.70315414E-08
  -13.2299995      -3.54653871E-08
  -13.2200003      -3.56330290E-08
  -13.2100000      -2.52107473E-08
  -13.1999998      -4.32675851E-09
  -13.1899996       2.40335947E-08
  -13.1800003       5.43129453E-08
  -13.1700001       7.93777843E-08
  -13.1599998       9.20636367E-08
  -13.1499996       8.69456258E-08
  -13.1400003       6.19148111E-08
  -13.1300001       1.91415541E-08
  -13.1199999      -3.48816336E-08
  -13.1099997      -9.03270134E-08
  -13.1000004      -1.35908962E-07
  -13.0900002      -1.61279488E-07
  -13.0799999      -1.59408927E-07
  -13.0699997      -1.28380663E-07
  -13.0600004      -7.21310300E-08
  -13.0500002       1.06242293E-10
  -13.0400000       7.55893552E-08
  -13.0299997       1.40722733E-07
  -13.0200005       1.83976539E-07
  -13.0100002       1.98378146E-07
  -13.0000000       1.82959653E-07
  -12.9899998       1.42781616E-07
  -12.9799995       8.74981509E-08
  -12.9700003       2.87974107E-08
  -12.9600000      -2.26454446E-08
  -12.9499998      -5.99147043E-08
  -12.9399996      -8.15532957E-08
  -12.9300003      -9.17092891E-08
  -12.9200001      -9.86091067E-08
  -12.9099998      -1.11679761E-07
  -12.8999996      -1.38031126E-07
  -12.8900003      -1.79242662E-07
  -12.8800001      -2.29405131E-07
  -12.8699999      -2.75128798E-07
  -12.8599997      -2.97784965E-07
  -12.8500004      -2.77693090E-07
  -12.8400002      -1.99428186E-07
  -12.8299999      -5.70384273E-08
  -12.8199997       1.42160502E-07
  -12.8100004       3.76361328E-07
  -12.8000002       6.11264568E-07
  -12.7900000       8.05264563E-07
  -12.7799997       9.17023385E-07
  -12.7700005       9.13995223E-07
  -12.7600002       7.80089920E-07
  -12.7500000       5.20690890E-07
  -12.7399998       1.63673278E-07
  -12.7299995      -2.44145980E-07
  -12.7200003      -6.44710610E-07
  -12.7100000      -9.79209403E-07
  -12.6999998      -1.19924948E-06
  -12.6899996      -1.27633848E-06
  -12.6800003      -1.20753339E-06
  -12.6700001      -1.01585579E-06
  -12.6599998      -7.45177715E-07
  -12.6499996      -4.50521441E-07
  -12.6400003      -1.85786206E-07
  -12.6300001       8.40928394E-09
  -12.6199999       1.14019684E-07
  -12.6099997       1.39805096E-07
  -12.6000004       1.19409421E-07
  -12.5900002       1.03568837E-07
  -12.5799999       1.48103652E-07
  -12.5699997       3.00353634E-07
  -12.5600004       5.87123907E-07
  -12.5500002       1.00690090E-06
  -12.5400000       1.52811822E-06
  -12.5299997       2.09383029E-06
  -12.5200005       2.63161905E-06
  -12.5100002       3.06627680E-06
  -12.5000000       3.33212938E-06
  -12.4899998       3.38193013E-06
  -12.4799995       3.19011770E-06
  -12.4700003       2.74968647E-06
  -12.4600000       2.06359255E-06
  -12.4499998       1.13318174E-06
  -12.4399996      -5.29328972E-08
  -12.4300003      -1.52595680E-06
  -12.4200001      -3.33713683E-06
  -12.4099998      -5.54987128E-06
  -12.3999996      -8.22438687E-06
  -12.3900003      -1.13976939E-05
  -12.3800001      -1.50629212E-05
  -12.3699999      -1.91528161E-05
  -12.3599997      -2.35316165E-05
  -12.3500004      -2.79981741E-05
  -12.3400002      -3.23008062E-05
  -12.3299999      -3.61621096E-05
  -12.3199997      -3.93096379E-05
  -12.3100004      -4.15070572E-05
  -12.3000002      -4.25802791E-05
  -12.2900000      -4.24336722E-05
  -12.2799997      -4.10539360E-05
  -12.2700005      -3.85013045E-05
  -12.2600002      -3.48905232E-05
  -12.2500000      -3.03661582E-05
  -12.2399998      -2.50774519E-05
  -12.2299995      -1.91580857E-05
  -12.2200003      -1.27145631E-05
  -12.2100000      -5.82489838E-06
  -12.1999998       1.45328272E-06
  -12.1899996       9.06820515E-06
  -12.1800003       1.69574687E-05
  -12.1700001       2.50342509E-05
  -12.1599998       3.31800220E-05
  -12.1499996       4.12458685E-05
  -12.1400003       4.90620660E-05
  -12.1300001       5.64536713E-05
  -12.1199999       6.32582014E-05
  -12.1099997       6.93410911E-05
  -12.1000004       7.46050573E-05
  -12.0900002       7.89914266E-05
  -12.0799999       8.24731105E-05
  -12.0699997       8.50417055E-05
  -12.0600004       8.66922346E-05
  -12.0500002       8.74101243E-05
  -12.0400000       8.71645825E-05
  -12.0299997       8.59105057E-05
  -12.0200005       8.35995015E-05
  -12.0100002       8.01976348E-05
  -12.0000000       7.57058879E-05
  -11.9899998       7.01778190E-05
  -11.9799995       6.37295961E-05
  -11.9700003       5.65387527E-05
  -11.9600000       4.88301957E-05
  -11.9499998       4.08512569E-05
  -11.9399996       3.28400274E-05
  -11.9300003       2.49927089E-05
  -11.9200001       1.74367378E-05
  -11.9099998       1.02149097E-05
  -11.8999996       3.28424198E-06
  -11.8900003      -3.47036416E-06
  -11.8800001      -1.02099684E-05
  -11.8699999      -1.71081410E-05
  -11.8599997      -2.43164941E-05
  -11.8500004      -3.19356986E-05
  -11.8400002      -3.99966775E-05
  -11.8299999      -4.84547163E-05
  -11.8199997      -5.71962664E-05
  -11.8100004      -6.60555597E-05
  -11.8000002      -7.48369057E-05
  -11.7900000      -8.33374070E-05
  -11.7799997      -9.13659023E-05
  -11.7700005      -9.87551321E-05
  -11.7600002      -1.05366431E-04
  -11.7500000      -1.11087909E-04
  -11.7399998      -1.15828727E-04
  -11.7299995      -1.19512712E-04
  -11.7200003      -1.22073761E-04
  -11.7100000      -1.23455480E-04
  -11.6999998      -1.23614809E-04
  -11.6899996      -1.22529105E-04
  -11.6800003      -1.20204000E-04
  -11.6700001      -1.16680079E-04
  -11.6599998      -1.12035406E-04
  -11.6499996      -1.06382606E-04
  -11.6400003      -9.98602773E-05
  -11.6300001      -9.26194625E-05
  -11.6199999      -8.48076452E-05
  -11.6099997      -7.65527948E-05
  -11.6000004      -6.79508375E-05
  -11.5900002      -5.90583950E-05
  -11.5799999      -4.98927620E-05
  -11.5699997      -4.04388629E-05
  -11.5600004      -3.06619440E-05
  -11.5500002      -2.05236429E-05
  -11.5400000      -9.99820168E-06
  -11.5299997       9.14214866E-07
  -11.5200005       1.21795601E-05
  -11.5100002       2.37288095E-05
  -11.5000000       3.54633266E-05
  -11.4899998       4.72653846E-05
  -11.4799995       5.90110903E-05
  -11.4700003       7.05827042E-05
  -11.4600000       8.18777116E-05
  -11.4499998       9.28127411E-05
  -11.4399996       1.03322163E-04
  -11.4300003       1.13352136E-04
  -11.4200001       1.22852318E-04
  -11.4099998       1.31767796E-04
  -11.3999996       1.40033706E-04
  -11.3900003       1.47574072E-04
  -11.3800001       1.54304449E-04
  -11.3699999       1.60138792E-04
  -11.3599997       1.64997298E-04
  -11.3500004       1.68814207E-04
  -11.3400002       1.71543361E-04
  -11.3299999       1.73161272E-04
  -11.3199997       1.73667562E-04
  -11.3100004       1.73083987E-04
  -11.3000002       1.71453823E-04
  -11.2900000       1.68842307E-04
  -11.2799997       1.65338584E-04
  -11.2700005       1.61058153E-04
  -11.2600002       1.56144248E-04
  -11.2500000       1.50764885E-04
  -11.2399998       1.45104961E-04
  -11.2299995       1.39351279E-04
  -11.2200003       1.33672118E-04
  -11.2100000       1.28194326E-04
  -11.1999998       1.22981844E-04
  -11.1899996       1.18021700E-04
  -11.1800003       1.13220551E-04
  -11.1700001       1.08415661E-04
  -11.1599998       1.03399158E-04
  -11.1499996       9.79525139E-05
  -11.1400003       9.18851729E-05
  -11.1300001       8.50700380E-05
  -11.1199999       7.74681757E-05
  -11.1099997       6.91377354E-05
  -11.1000004       6.02250766E-05
  -11.0900002       5.09400743E-05
  -11.0799999       4.15216309E-05
  -11.0699997       3.22018277E-05
  -11.0600004       2.31771264E-05
  -11.0500002       1.45940185E-05
  -11.0400000       6.55222220E-06
  -11.0299997      -8.75812873E-07
  -11.0200005      -7.61551519E-06
  -11.0100002      -1.35597165E-05
  -11.0000000      -1.85478202E-05
  -10.9899998      -2.23626448E-05
  -10.9799995      -2.47493190E-05
  -10.9700003      -2.54548268E-05
  -10.9600000      -2.42811420E-05
  -10.9499998      -2.11407423E-05
  -10.9399996      -1.61013650E-05
  -10.9300003      -9.40903828E-06
  -10.9200001      -1.48177264E-06
  -10.9099998       7.12696601E-06
  -10.8999996       1.57895156E-05
  -10.8900003       2.38795474E-05
  -10.8800001       3.08480958E-05
  -10.8699999       3.62868232E-05
  -10.8599997       3.99677738E-05
  -10.8500004       4.18542477E-05
  -10.8400002       4.20826836E-05
  -10.8299999       4.09211643E-05
  -10.8199997       3.87132313E-05
  -10.8100004       3.58176185E-05
  -10.8000002       3.25538531E-05
  -10.7900000       2.91613869E-05
  -10.7799997       2.57766405E-05
  -10.7700005       2.24293144E-05
  -10.7600002       1.90560331E-05
  -10.7500000       1.55277066E-05
  -10.7399998       1.16850024E-05
  -10.7299995       7.37642586E-06
  -10.7200003       2.49326513E-06
  -10.7100000      -3.00379565E-06
  -10.6999998      -9.06980949E-06
  -10.6899996      -1.55747293E-05
  -10.6800003      -2.23163697E-05
  -10.6700001      -2.90447078E-05
  -10.6599998      -3.54931508E-05
  -10.6499996      -4.14110982E-05
  -10.6400003      -4.65914527E-05
  -10.6300001      -5.08884950E-05
  -10.6199999      -5.42230555E-05
  -10.6099997      -5.65749833E-05
  -10.6000004      -5.79659136E-05
  -10.5900002      -5.84372865E-05
  -10.5799999      -5.80297565E-05
  -10.5699997      -5.67694005E-05
  -10.5600004      -5.46641604E-05
  -10.5500002      -5.17112749E-05
  -10.5400000      -4.79135051E-05
  -10.5299997      -4.32989618E-05
  -10.5200005      -3.79394260E-05
  -10.5100002      -3.19606588E-05
  -10.5000000      -2.55414980E-05
  -10.4899998      -1.88999438E-05
  -10.4799995      -1.22682677E-05
  -10.4700003      -5.86179976E-06
  -10.4600000       1.52286162E-07
  -10.4499998       5.67924053E-06
  -10.4399996       1.07083088E-05
  -10.4300003       1.53080364E-05
  -10.4200001       1.96057081E-05
  -10.4099998       2.37543354E-05
  -10.3999996       2.78943062E-05
  -10.3900003       3.21184962E-05
  -10.3800001       3.64491752E-05
  -10.3699999       4.08333581E-05
  -10.3599997       4.51592605E-05
  -10.3500004       4.92910331E-05
  -10.3400002       5.31147962E-05
  -10.3299999       5.65848386E-05
  -10.3199997       5.97584185E-05
  -10.3100004       6.28088455E-05
  -10.3000002       6.60109872E-05
  -10.2900000       6.97002397E-05
  -10.2799997       7.42110788E-05
  -10.2700005       7.98077162E-05
  -10.2600002       8.66209230E-05
  -10.2500000       9.46042564E-05
  -10.2399998       1.03519167E-04
  -10.2299995       1.12952315E-04
  -10.2200003       1.22362428E-04
  -10.2100000       1.31147113E-04
  -10.1999998       1.38718635E-04
  -10.1899996       1.44575868E-04
  -10.1800003       1.48361985E-04
  -10.1700001       1.49901054E-04
  -10.1599998       1.49210333E-04
  -10.1499996       1.46489081E-04
  -10.1400003       1.42087709E-04
  -10.1300001       1.36460891E-04
  -10.1199999       1.30111468E-04
  -10.1099997       1.23530714E-04
  -10.1000004       1.17141411E-04
  -10.0900002       1.11250614E-04
  -10.0799999       1.06018975E-04
  -10.0699997       1.01451296E-04
  -10.0600004       9.74118448E-05
  -10.0500002       9.36634460E-05
  -10.0400000       8.99242077E-05
  -10.0299997       8.59337742E-05
  -10.0200005       8.15164240E-05
  -10.0100002       7.66292287E-05
  -10.0000000       7.13861882E-05
  -9.98999977       6.60527003E-05
  -9.97999954       6.10122443E-05
  -9.97000027       5.67104944E-05
  -9.96000004       5.35877844E-05
  -9.94999981       5.20109134E-05
  -9.93999958       5.22157352E-05
  -9.93000031       5.42680827E-05
  -9.92000008       5.80480628E-05
  -9.90999985       6.32587689E-05
  -9.89999962       6.94577102E-05
  -9.89000034       7.61066112E-05
  -9.88000011       8.26340693E-05
  -9.86999989       8.85044865E-05
  -9.85999966       9.32845942E-05
  -9.85000038       9.66994339E-05
  -9.84000015       9.86692467E-05
  -9.82999992       9.93208887E-05
  -9.81999969       9.89709224E-05
  -9.81000042       9.80823897E-05
  -9.80000019       9.72021371E-05
  -9.78999996       9.68895401E-05
  -9.77999973       9.76496085E-05
  -9.77000046       9.98813703E-05
  -9.76000023       1.03848157E-04
  -9.75000000       1.09670087E-04
  -9.73999977       1.17334559E-04
  -9.72999954       1.26715240E-04
  -9.72000027       1.37592288E-04
  -9.71000004       1.49666783E-04
  -9.69999981       1.62570592E-04
  -9.68999958       1.75875015E-04
  -9.68000031       1.89106446E-04
  -9.67000008       2.01774485E-04
  -9.65999985       2.13415260E-04
  -9.64999962       2.23643277E-04
  -9.64000034       2.32202903E-04
  -9.63000011       2.39004017E-04
  -9.61999989       2.44130963E-04
  -9.60999966       2.47818854E-04
  -9.60000038       2.50400859E-04
  -9.59000015       2.52238737E-04
  -9.57999992       2.53653678E-04
  -9.56999969       2.54874496E-04
  -9.56000042       2.56014115E-04
  -9.55000019       2.57075473E-04
  -9.53999996       2.57980457E-04
  -9.52999973       2.58605607E-04
  -9.52000046       2.58812826E-04
  -9.51000023       2.58464919E-04
  -9.50000000       2.57426000E-04
  -9.48999977       2.55554594E-04
  -9.47999954       2.52703583E-04
  -9.47000027       2.48734606E-04
  -9.46000004       2.43554547E-04
  -9.44999981       2.37161788E-04
  -9.43999958       2.29688332E-04
  -9.43000031       2.21416922E-04
  -9.42000008       2.12757732E-04
  -9.40999985       2.04180367E-04
  -9.39999962       1.96115870E-04
  -9.39000034       1.88853126E-04
  -9.38000011       1.82462900E-04
  -9.36999989       1.76777408E-04
  -9.35999966       1.71437263E-04
  -9.35000038       1.65996345E-04
  -9.34000015       1.60058116E-04
  -9.32999992       1.53400193E-04
  -9.31999969       1.46051490E-04
  -9.31000042       1.38294359E-04
  -9.30000019       1.30594242E-04
  -9.28999996       1.23477759E-04
  -9.27999973       1.17401287E-04
  -9.27000046       1.12652422E-04
  -9.26000023       1.09317254E-04
  -9.25000000       1.07320273E-04
  -9.23999977       1.06520019E-04
  -9.22999954       1.06821193E-04
  -9.22000027       1.08258784E-04
  -9.21000004       1.11018344E-04
  -9.19999981       1.15381925E-04
  -9.18999958       1.21613353E-04
  -9.18000031       1.29824766E-04
  -9.17000008       1.39870943E-04
  -9.15999985       1.51314613E-04
  -9.14999962       1.63479999E-04
  -9.14000034       1.75584442E-04
  -9.13000011       1.86909252E-04
  -9.11999989       1.96957029E-04
  -9.10999966       2.05548757E-04
  -9.10000038       2.12830055E-04
  -9.09000015       2.19190100E-04
  -9.07999992       2.25122043E-04
  -9.06999969       2.31072700E-04
  -9.06000042       2.37333021E-04
  -9.05000019       2.43997623E-04
  -9.03999996       2.51003716E-04
  -9.02999973       2.58223474E-04
  -9.02000046       2.65570357E-04
  -9.01000023       2.73075450E-04
  -9.00000000       2.80903216E-04
  -8.98999977       2.89298390E-04
  -8.97999954       2.98487023E-04
  -8.97000027       3.08565563E-04
  -8.96000004       3.19424231E-04
  -8.94999981       3.30730400E-04
  -8.93999958       3.41983134E-04
  -8.93000031       3.52618081E-04
  -8.92000008       3.62127728E-04
  -8.90999985       3.70159134E-04
  -8.89999962       3.76556360E-04
  -8.89000034       3.81339778E-04
  -8.88000011       3.84636893E-04
  -8.86999989       3.86594300E-04
  -8.85999966       3.87305889E-04
  -8.85000038       3.86783417E-04
  -8.84000015       3.84976011E-04
  -8.82999992       3.81824677E-04
  -8.81999969       3.77324614E-04
  -8.81000042       3.71565402E-04
  -8.80000019       3.64728941E-04
  -8.78999996       3.57044686E-04
  -8.77999973       3.48717876E-04
  -8.77000046       3.39864753E-04
  -8.76000023       3.30478302E-04
  -8.75000000       3.20450548E-04
  -8.73999977       3.09641619E-04
  -8.72999954       2.97979801E-04
  -8.72000027       2.85555900E-04
  -8.71000004       2.72679783E-04
  -8.69999981       2.59876659E-04
  -8.68999958       2.47826247E-04
  -8.68000031       2.37257176E-04
  -8.67000008       2.28835634E-04
  -8.65999985       2.23073934E-04
  -8.64999962       2.20286864E-04
  -8.64000034       2.20595175E-04
  -8.63000011       2.23967130E-04
  -8.61999989       2.30275589E-04
  -8.60999966       2.39344648E-04
  -8.60000038       2.50975660E-04
  -8.59000015       2.64954666E-04
  -8.57999992       2.81049055E-04
  -8.56999969       2.99015868E-04
  -8.56000042       3.18626669E-04
  -8.55000019       3.39712016E-04
  -8.53999996       3.62207647E-04
  -8.52999973       3.86178493E-04
  -8.52000046       4.11801448E-04
  -8.51000023       4.39299794E-04
  -8.50000000       4.68839891E-04
  -8.48999977       5.00425464E-04
  -8.47999954       5.33824554E-04
  -8.47000027       5.68565156E-04
  -8.46000004       6.04009081E-04
  -8.44999981       6.39488455E-04
  -8.43999958       6.74462237E-04
  -8.43000031       7.08636944E-04
  -8.42000008       7.42006989E-04
  -8.40999985       7.74790358E-04
  -8.39999962       8.07275064E-04
  -8.39000034       8.39625194E-04
  -8.38000011       8.71712691E-04
  -8.36999989       9.03040171E-04
  -8.35999966       9.32785799E-04
  -8.35000038       9.59968718E-04
  -8.34000015       9.83678270E-04
  -8.32999992       1.00329856E-03
  -8.31999969       1.01864559E-03
  -8.31000042       1.02996954E-03
  -8.30000019       1.03781570E-03
  -8.28999996       1.04279199E-03
  -8.27999973       1.04532100E-03
  -8.27000046       1.04546233E-03
  -8.26000023       1.04287500E-03
  -8.25000000       1.03693549E-03
  -8.23999977       1.02697161E-03
  -8.22999954       1.01253844E-03
  -8.22000027       9.93632711E-04
  -8.21000004       9.70777066E-04
  -8.19999981       9.44928441E-04
  -8.18999958       9.17244295E-04
  -8.18000031       8.88782088E-04
  -8.17000008       8.60228203E-04
  -8.15999985       8.31751910E-04
  -8.14999962       8.03035509E-04
  -8.14000034       7.73469394E-04
  -8.13000011       7.42449658E-04
  -8.11999989       7.09679618E-04
  -8.10999966       6.75367832E-04
  -8.10000038       6.40264829E-04
  -8.09000015       6.05516252E-04
  -8.07999992       5.72386780E-04
  -8.06999969       5.41947025E-04
  -8.06000042       5.14821499E-04
  -8.05000019       4.91084298E-04
  -8.03999996       4.70331783E-04
  -8.02999973       4.51906380E-04
  -8.02000046       4.35194292E-04
  -8.01000023       4.19896533E-04
  -8.00000000       4.06185864E-04
  -7.98999977       3.94696748E-04
  -7.98000002       3.86354310E-04
  -7.96999979       3.82098573E-04
  -7.96000004       3.82588682E-04
  -7.94999981       3.87988461E-04
  -7.94000006       3.97890428E-04
  -7.92999983       4.11405461E-04
  -7.92000008       4.27389896E-04
  -7.90999985       4.44732199E-04
  -7.90000010       4.62624244E-04
  -7.88999987       4.80729621E-04
  -7.88000011       4.99212125E-04
  -7.86999989       5.18615241E-04
  -7.86000013       5.39642177E-04
  -7.84999990       5.62896894E-04
  -7.84000015       5.88671304E-04
  -7.82999992       6.16833160E-04
  -7.82000017       6.46846252E-04
  -7.80999994       6.77911390E-04
  -7.80000019       7.09187647E-04
  -7.78999996       7.40022399E-04
  -7.78000021       7.70122977E-04
  -7.76999998       7.99620524E-04
  -7.76000023       8.29003460E-04
  -7.75000000       8.58938205E-04
  -7.73999977       8.90027033E-04
  -7.73000002       9.22579493E-04
  -7.71999979       9.56455537E-04
  -7.71000004       9.91045963E-04
  -7.69999981       1.02539163E-03
  -7.69000006       1.05842191E-03
  -7.67999983       1.08924159E-03
  -7.67000008       1.11738429E-03
  -7.65999985       1.14295073E-03
  -7.65000010       1.16658024E-03
  -7.63999987       1.18925527E-03
  -7.63000011       1.21198629E-03
  -7.61999989       1.23547530E-03
  -7.61000013       1.25984813E-03
  -7.59999990       1.28456799E-03
  -7.59000015       1.30854489E-03
  -7.57999992       1.33043958E-03
  -7.57000017       1.34906534E-03
  -7.55999994       1.36376917E-03
  -7.55000019       1.37467100E-03
  -7.53999996       1.38267933E-03
  -7.53000021       1.38926704E-03
  -7.51999998       1.39606942E-03
  -7.51000023       1.40442781E-03
  -7.50000000       1.41502067E-03
  -7.48999977       1.42770540E-03
  -7.48000002       1.44162262E-03
  -7.46999979       1.45553239E-03
  -7.46000004       1.46827521E-03
  -7.44999981       1.47920579E-03
  -7.44000006       1.48845243E-03