  -16.0000000       0.00000000    
  -15.9899998       0.00000000    
  -15.9799995       0.00000000    
  -15.9700003       0.00000000    
  -15.9600000       0.00000000    
  -15.9499998       0.00000000    
  -15.9399996       0.00000000    
  -15.9300003       0.00000000    
  -15.9200001       0.00000000    
  -15.9099998       0.00000000    
  -15.8999996       0.00000000    
  -15.8900003       0.00000000    
  -15.8800001       0.00000000    
  -15.8699999       1.40129846E-45
  -15.8599997       5.04467447E-44
  -15.8500004       7.44089485E-43
  -15.8400002       7.31758058E-42
  -15.8299999       5.39093532E-41
  -15.8199997       3.16326313E-40
  -15.8100004       1.53530183E-39
  -15.8000002       6.31203403E-39
  -15.7900000       2.22984197E-38
  -15.7799997       6.81085648E-38
  -15.7700005       1.79289749E-37
  -15.7600002       3.99099040E-37
  -15.7500000       7.08743760E-37
  -15.7399998       8.00191108E-37
  -15.7299995      -4.59106811E-37
  -15.7200003      -6.00373910E-36
  -15.7100000      -2.18898673E-35
  -15.6999998      -5.82158469E-35
  -15.6899996      -1.27786326E-34
  -15.6800003      -2.39432358E-34
  -15.6700001      -3.82707555E-34
  -15.6599998      -5.03497383E-34
  -15.6499996      -4.77830326E-34
  -15.6400003      -1.03579729E-34
  -15.6300001       8.58745000E-34
  -15.6199999       2.56686365E-33
  -15.6099997       4.90174679E-33
  -15.6000004       7.26930409E-33
  -15.5900002       8.56064120E-33
  -15.5799999       7.47810053E-33
  -15.5699997       3.33319725E-33
  -15.5600004      -2.91543482E-33
  -15.5500002      -8.16480229E-33
  -15.5400000      -8.48796553E-33
  -15.5299997      -3.44452318E-33
  -15.5200005      -3.16893367E-33
  -15.5100002      -3.49933619E-32
  -15.5000000      -1.42296953E-31
  -15.4899998      -3.65360148E-31
  -15.4799995      -6.95970520E-31
  -15.4700003      -1.00846591E-30
  -15.4600000      -9.91722642E-31
  -15.4499998      -1.35628715E-31
  -15.4399996       2.15021916E-30
  -15.4300003       6.20922522E-30
  -15.4200001       1.15777527E-29
  -15.4099998       1.62915843E-29
  -15.3999996       1.63534413E-29
  -15.3900003       5.88568705E-30
  -15.3800001      -2.13388930E-29
  -15.3699999      -6.83535468E-29
  -15.3599997      -1.29318011E-28
  -15.3500004      -1.82770403E-28
  -15.3400002      -1.86819093E-28
  -15.3299999      -8.16325870E-29
  -15.3199997       1.93738044E-28
  -15.3100004       6.64165415E-28
  -15.3000002       1.26117751E-27
  -15.2900000       1.75971776E-27
  -15.2799997       1.74364433E-27
  -15.2700005       6.55693057E-28
  -15.2600002      -2.00532949E-27
  -15.2500000      -6.30528587E-27
  -15.2399998      -1.13614868E-26
  -15.2299995      -1.48849933E-26
  -15.2200003      -1.31346142E-26
  -15.2100000      -1.74399331E-27
  -15.1999998       2.22062927E-26
  -15.1899996       5.69241783E-26
  -15.1800003       9.23156093E-26
  -15.1700001       1.07992260E-25
  -15.1599998       7.56570610E-26
  -15.1499996      -3.14353490E-26
  -15.1400003      -2.21082040E-25
  -15.1300001      -4.59988294E-25
  -15.1199999      -6.55813351E-25
  -15.1099997      -6.57789644E-25
  -15.1000004      -2.91886522E-25
  -15.0900002       5.60012702E-25
  -15.0799999       1.84499735E-24
  -15.0699997       3.22360574E-24
  -15.0600004       4.01893787E-24
  -15.0500002       3.31170592E-24
  -15.0400000       2.45895340E-25
  -15.0299997      -5.45614107E-24
  -15.0200005      -1.28863561E-23
  -15.0100002      -1.95086801E-23
  -15.0000000      -2.12442167E-23
  -14.9899998      -1.34343675E-23
  -14.9799995       7.17578093E-24
  -14.9700003       3.97244319E-23
  -14.9600000       7.66692210E-23
  -14.9499998       1.02793498E-22
  -14.9399996       9.73881036E-23
  -14.9300003       4.07028435E-23
  -14.9200001      -7.56476587E-23
  -14.9099998      -2.36825990E-22
  -14.8999996      -3.96332756E-22
  -14.8900003      -4.77348493E-22
  -14.8800001      -3.89534163E-22
  -14.8699999      -6.30878635E-23
  -14.8599997       5.05303098E-22
  -14.8500004       1.20896071E-21
  -14.8400002       1.81210291E-21
  -14.8299999       1.97882141E-21
  -14.8199997       1.36555483E-21
  -14.8100004      -2.27876268E-22
  -14.8000002      -2.68334887E-21
  -14.7900000      -5.43106272E-21
  -14.7799997      -7.44134910E-21
  -14.7700005      -7.41575497E-21
  -14.7600002      -4.20337927E-21
  -14.7500000       2.61727478E-21
  -14.7399998       1.21557253E-20
  -14.7299995       2.18789304E-20
  -14.7200003       2.78086845E-20
  -14.7100000       2.54381755E-20
  -14.6999998       1.13482976E-20
  -14.6899996      -1.48035490E-20
  -14.6800003      -4.85708662E-20
  -14.6700001      -8.01348085E-20
  -14.6599998      -9.56470816E-20
  -14.6499996      -8.08799948E-20
  -14.6400003      -2.67933235E-20
  -14.6300001       6.43432391E-20
  -14.6199999       1.74490958E-19
  -14.6099997       2.69609801E-19
  -14.6000004       3.05676246E-19
  -14.5900002       2.41374405E-19
  -14.5799999       5.54147744E-20
  -14.5699997      -2.36288304E-19
  -14.5600004      -5.70355146E-19
  -14.5500002      -8.39544119E-19
  -14.5400000      -9.14700664E-19
  -14.5299997      -6.84300206E-19
  -14.5200005      -1.03759048E-19
  -14.5100002       7.60219722E-19
  -14.5000000       1.70898916E-18
  -14.4899998       2.43215750E-18
  -14.4799995       2.57712669E-18
  -14.4700003       1.86127735E-18
  -14.4600000       2.01705924E-19
  -14.4499998      -2.17845025E-18
  -14.4399996      -4.71461930E-18
  -14.4300003      -6.57518217E-18
  -14.4200001      -6.85856639E-18
  -14.4099998      -4.88615340E-18
  -14.3999996      -5.20154640E-19
  -14.3900003       5.59766397E-18
  -14.3800001       1.19978486E-17
  -14.3699999       1.66070256E-17
  -14.3599997       1.72559273E-17
  -14.3500004       1.23883085E-17
  -14.3400002       1.79078481E-18
  -14.3299999      -1.29009289E-17
  -14.3199997      -2.81628330E-17
  -14.3100004      -3.91682891E-17
  -14.3000002      -4.09906474E-17
  -14.2900000      -3.02027034E-17
  -14.2799997      -6.45377315E-18
  -14.2700005       2.65081078E-17
  -14.2600002       6.08674302E-17
  -14.2500000       8.61123076E-17
  -14.2399998       9.16662298E-17
  -14.2299995       7.02635667E-17
  -14.2200003       2.11687993E-17
  -14.2100000      -4.78442987E-17
  -14.1999998      -1.20713974E-16
  -14.1899996      -1.76002634E-16
  -14.1800003      -1.92243087E-16
  -14.1700001      -1.54619274E-16
  -14.1599998      -6.11885815E-17
  -14.1499996       7.34225695E-17
  -14.1400003       2.18599206E-16
  -14.1300001       3.33392697E-16
  -14.1199999       3.76631321E-16
  -14.1099997       3.19343015E-16
  -14.1000004       1.56162991E-16
  -14.0900002      -8.79885252E-17
  -14.0799999      -3.58980080E-16
  -14.0699997      -5.83548579E-16
  -14.0600004      -6.87134567E-16
  -14.0500002      -6.15617405E-16
  -14.0400000      -3.55176611E-16
  -14.0299997       5.60055869E-17
  -14.0200005       5.29179916E-16
  -14.0100002       9.41546048E-16
  -14.0000000       1.16563200E-15
  -13.9899998       1.10512516E-15
  -13.9799995       7.27773991E-16
  -13.9700003       8.52940804E-17
  -13.9600000      -6.87579101E-16
  -13.9499998      -1.39789998E-15
  -13.9399996      -1.83972824E-15
  -13.9300003      -1.84988502E-15
  -13.9200001      -1.35992569E-15
  -13.9099998      -4.29044475E-16
  -13.8999996       7.54027089E-16
  -13.8900003       1.90490955E-15
  -13.8800001       2.70855196E-15
  -13.8699999       2.90126593E-15
  -13.8599997       2.34926303E-15
  -13.8500004       1.10162077E-15
  -13.8400002      -5.99957831E-16
  -13.8299999      -2.36237807E-15
  -13.8199997      -3.72808253E-15
  -13.8100004      -4.28935409E-15
  -13.8000002      -3.80228982E-15
  -13.7900000      -2.26990282E-15
  -13.7799997       3.10384470E-17
  -13.7700005       2.59241337E-15
  -13.7600002       4.78229169E-15
  -13.7500000       5.99592812E-15
  -13.7399998       5.81511200E-15
  -13.7299995       4.13527583E-15
  -13.7200003       1.22439714E-15
  -13.7100000      -2.30796298E-15
  -13.6999998      -5.63202964E-15
  -13.6899996      -7.88704819E-15
  -13.6800003      -8.39656730E-15
  -13.6700001      -6.85758933E-15
  -13.6599998      -3.45332135E-15
  -13.6499996       1.14606247E-15
  -13.6400003       5.90530661E-15
  -13.6300001       9.64952385E-15
  -13.6199999       1.13463782E-14
  -13.6099997       1.03795172E-14
  -13.6000004       6.74374090E-15
  -13.5900002       1.10507275E-15
  -13.5799999      -5.30273669E-15
  -13.5699997      -1.09356028E-14
  -13.5600004      -1.43009434E-14
  -13.5500002      -1.43428157E-14
  -13.5400000      -1.07547341E-14
  -13.5299997      -4.13256194E-15
  -13.5200005       4.08897066E-15
  -13.5100002       1.19231915E-14
  -13.5000000       1.72921488E-14
  -13.4899998       1.85604621E-14
  -13.4799995       1.50112280E-14
  -13.4700003       7.13249345E-15
  -13.4600000      -3.38284313E-15
  -13.4499998      -1.39567846E-14
  -13.4399996      -2.17181196E-14
  -13.4300003      -2.42408666E-14
  -13.4200001      -2.02493187E-14
  -13.4099998      -1.00971240E-14
  -13.3999996       4.13544566E-15
  -13.3900003       1.89980935E-14
  -13.3800001       3.04402025E-14
  -13.3699999       3.48366999E-14
  -13.3599997       3.00251564E-14
  -13.3500004       1.60765752E-14
  -13.3400002      -4.43996587E-15
  -13.3299999      -2.68314982E-14
  -13.3199997      -4.52717799E-14
  -13.3100004      -5.42180945E-14
  -13.3000002      -4.99277709E-14
  -13.2900000      -3.16829083E-14
  -13.2799997      -2.36352177E-15
  -13.2700005       3.18594909E-14
  -13.2600002       6.27339841E-14
  -13.2500000       8.18257815E-14
  -13.2399998       8.26895586E-14
  -13.2299995       6.27759224E-14
  -13.2200003       2.45489494E-14
  -13.2100000      -2.45632778E-14
  -13.1999998      -7.35001456E-14
  -13.1899996      -1.09978765E-13
  -13.1800003      -1.23479555E-13
  -13.1700001      -1.08103745E-13
  -13.1599998      -6.45606344E-14
  -13.1499996      -6.88303685E-16
  -13.1400003       6.97746982E-14
  -13.1300001       1.30031050E-13
  -13.1199999       1.64124140E-13
  -13.1099997       1.61016654E-13
  -13.1000004       1.17838600E-13
  -13.0900002       4.14098280E-14
  -13.0799999      -5.25111266E-14
  -13.0699997      -1.42280325E-13
  -13.0600004      -2.05178553E-13
  -13.0500002      -2.22944560E-13
  -13.0400000      -1.86722843E-13
  -13.0299997      -1.00145458E-13
  -13.0200005       2.03838631E-14
  -13.0100002       1.48523839E-13
  -13.0000000       2.53526204E-13
  -12.9899998       3.07339413E-13
  -12.9799995       2.91680552E-13
  -12.9700003       2.03347322E-13
  -12.9600000       5.63288836E-14
  -12.9499998      -1.20056105E-13
  -12.9399996      -2.86860976E-13
  -12.9300003      -4.03975518E-13
  -12.9200001      -4.39530058E-13
  -12.9099998      -3.78054033E-13
  -12.8999996      -2.25354119E-13
  -12.8900003      -8.72080304E-15
  -12.8800001       2.27897535E-13
  -12.8699999       4.32938543E-13
  -12.8599997       5.58620207E-13
  -12.8500004       5.72147147E-13
  -12.8400002       4.64090626E-13
  -12.8299999       2.51824250E-13
  -12.8199997      -2.30483255E-14
  -12.8100004      -3.02984851E-13
  -12.8000002      -5.26867070E-13
  -12.7900000      -6.43758213E-13
  -12.7799997      -6.24930771E-13
  -12.7700005      -4.71302413E-13
  -12.7600002      -2.14364184E-13
  -12.7500000       8.98863706E-14
  -12.7399998       3.72890114E-13
  -12.7299995       5.68831874E-13
  -12.7200003       6.29911162E-13
  -12.7100000       5.38060373E-13
  -12.6999998       3.10278794E-13
  -12.6899996      -3.89102499E-15
  -12.6800003      -3.32463332E-13
  -12.6700001      -5.96664265E-13
  -12.6599998      -7.28768716E-13
  -12.6499996      -6.88124850E-13
  -12.6400003      -4.71641118E-13
  -12.6300001      -1.16143924E-13
  -12.6199999       3.08229625E-13
  -12.6099997       7.12418622E-13
  -12.6000004       1.00760134E-12
  -12.5900002       1.12493923E-12
  -12.5799999       1.03142505E-12
  -12.5699997       7.38099089E-13
  -12.5600004       2.98522410E-13
  -12.5500002      -2.02431821E-13
  -12.5400000      -6.67169065E-13
  -12.5299997      -1.00724941E-12
  -12.5200005      -1.16355341E-12
  -12.5100002      -1.11995049E-12
  -12.5000000      -9.07045055E-13
  -12.4899998      -5.94785343E-13
  -12.4799995      -2.75303516E-13
  -12.4700003      -3.97392826E-14
  -12.4600000       4.56118738E-14
  -12.4499998      -4.18979460E-14
  -12.4399996      -2.72290057E-13
  -12.4300003      -5.66426029E-13
  -12.4200001      -8.11676247E-13
  -12.4099998      -8.86615759E-13
  -12.3999996      -6.89243096E-13
  -12.3900003      -1.62108757E-13
  -12.3800001       6.91775792E-13
  -12.3699999       1.80649679E-12
  -12.3599997       3.06539885E-12
  -12.3500004       4.32552388E-12
  -12.3400002       5.44897504E-12
  -12.3299999       6.33382713E-12
  -12.3199997       6.93710063E-12
  -12.3100004       7.28388790E-12
  -12.3000002       7.45965876E-12
  -12.2900000       7.58699787E-12
  -12.2799997       7.79164754E-12
  -12.2700005       8.16566866E-12
  -12.2600002       8.73658524E-12
  -12.2500000       9.45039446E-12
  -12.2399998       1.01731592E-11
  -12.2299995       1.07122887E-11
  -12.2200003       1.08529219E-11
  -12.2100000       1.04020178E-11
  -12.1999998       9.23037688E-12
  -12.1899996       7.30263679E-12
  -12.1800003       4.68829879E-12
  -12.1700001       1.55046256E-12
  -12.1599998      -1.88542628E-12
  -12.1499996      -5.37608152E-12
  -12.1400003      -8.70832746E-12
  -12.1300001      -1.17397186E-11
  -12.1199999      -1.44223487E-11
  -12.1099997      -1.68049272E-11
  -12.1000004      -1.90122900E-11
  -12.0900002      -2.12077213E-11
  -12.0799999      -2.35463732E-11
  -12.0699997      -2.61309620E-11
  -12.0600004      -2.89798185E-11
  -12.0500002      -3.20144085E-11
  -12.0400000      -3.50692808E-11
  -12.0299997      -3.79218948E-11
  -12.0200005      -4.03349923E-11
  -12.0100002      -4.21022973E-11
  -12.0000000      -4.30870548E-11
  -11.9899998      -4.32451505E-11
  -11.9799995      -4.26277937E-11
  -11.9700003      -4.13642419E-11
  -11.9600000      -3.96284776E-11
  -11.9499998      -3.75977201E-11
  -11.9399996      -3.54119546E-11
  -11.9300003      -3.31433873E-11
  -11.9200001      -3.07810895E-11
  -11.9099998      -2.82342847E-11
  -11.8999996      -2.53527668E-11
  -11.8900003      -2.19588653E-11
  -11.8800001      -1.78844248E-11
  -11.8699999      -1.30057172E-11
  -11.8599997      -7.26894933E-12
  -11.8500004      -7.01449532E-13
  -11.8400002       6.59103891E-12
  -11.8299999       1.44416172E-11
  -11.8199997       2.26479321E-11
  -11.8100004       3.10014341E-11
  -11.8000002       3.93164078E-11
  -11.7900000       4.74497316E-11
  -11.7799997       5.53121229E-11
  -11.7700005       6.28669755E-11
  -11.7600002       7.01195699E-11
  -11.7500000       7.70992437E-11
  -11.7399998       8.38384570E-11
  -11.7299995       9.03532874E-11
  -11.7200003       9.66290589E-11
  -11.7100000       1.02614035E-10
  -11.6999998       1.08221314E-10
  -11.6899996       1.13338172E-10
  -11.6800003       1.17840515E-10
  -11.6700001       1.21608515E-10
  -11.6599998       1.24540447E-10
  -11.6499996       1.26561317E-10
  -11.6400003       1.27625868E-10
  -11.6300001       1.27713534E-10
  -11.6199999       1.26820332E-10
  -11.6099997       1.24947261E-10
  -11.6000004       1.22089852E-10
  -11.5900002       1.18231896E-10
  -11.5799999       1.13343182E-10
  -11.5699997       1.07383234E-10
  -11.5600004       1.00309629E-10
  -11.5500002       9.20860749E-11
  -11.5400000       8.26903476E-11
  -11.5299997       7.21198934E-11
  -11.5200005       6.03890341E-11
  -11.5100002       4.75262052E-11
  -11.5000000       3.35653554E-11
  -11.4899998       1.85397669E-11
  -11.4799995       2.48058735E-12
  -11.4700003      -1.45811679E-11
  -11.4600000      -3.26037565E-11
  -11.4499998      -5.15226889E-11
  -11.4399996      -7.12344975E-11
  -11.4300003      -9.15893264E-11
  -11.4200001      -1.12389077E-10
  -11.4099998      -1.33400707E-10
  -11.3999996      -1.54378454E-10
  -11.3900003      -1.75096090E-10
  -11.3800001      -1.95379296E-10
  -11.3699999      -2.15133814E-10
  -11.3599997      -2.34358283E-10
  -11.3500004      -2.53140231E-10
  -11.3400002      -2.71632078E-10
  -11.3299999      -2.90013208E-10
  -11.3199997      -3.08443798E-10
  -11.3100004      -3.27022465E-10
  -11.3000002      -3.45755674E-10
  -11.2900000      -3.64548725E-10
  -11.2799997      -3.83216459E-10
  -11.2700005      -4.01515932E-10
  -11.2600002      -4.19187712E-10
  -11.2500000      -4.35999681E-10
  -11.2399998      -4.51778115E-10
  -11.2299995      -4.66424510E-10
  -11.2200003      -4.79906448E-10
  -11.2100000      -4.92233920E-10
  -11.1999998      -5.03425357E-10
  -11.1899996      -5.13471543E-10
  -11.1800003      -5.22312305E-10
  -11.1700001      -5.29831456E-10
  -11.1599998      -5.35872569E-10
  -11.1499996      -5.40269662E-10
  -11.1400003      -5.42890843E-10
  -11.1300001      -5.43680934E-10
  -11.1199999      -5.42680345E-10
  -11.1099997      -5.40037293E-10
  -11.1000004      -5.35989364E-10
  -11.0900002      -5.30833599E-10
  -11.0799999      -5.24871147E-10
  -11.0699997      -5.18367238E-10
  -11.0600004      -5.11514553E-10
  -11.0500002      -5.04405573E-10
  -11.0400000      -4.97045349E-10
  -11.0299997      -4.89369656E-10
  -11.0200005      -4.81273077E-10
  -11.0100002      -4.72653527E-10
  -11.0000000      -4.63440675E-10
  -10.9899998      -4.53623500E-10
  -10.9799995      -4.43235976E-10
  -10.9700003      -4.32370806E-10
  -10.9600000      -4.21133850E-10
  -10.9499998      -4.09639961E-10
  -10.9399996      -3.97982619E-10
  -10.9300003      -3.86211507E-10
  -10.9200001      -3.74338699E-10
  -10.9099998      -3.62344404E-10
  -10.8999996      -3.50194290E-10
  -10.8900003      -3.37862405E-10
  -10.8800001      -3.25327515E-10
  -10.8699999      -3.12618598E-10
  -10.8599997      -2.99797964E-10
  -10.8500004      -2.86962759E-10
  -10.8400002      -2.74224449E-10
  -10.8299999      -2.61703131E-10
  -10.8199997      -2.49496201E-10
  -10.8100004      -2.37678738E-10
  -10.8000002      -2.26273084E-10
  -10.7900000      -2.15252205E-10
  -10.7799997      -2.04548739E-10
  -10.7700005      -1.94038716E-10
  -10.7600002      -1.83583523E-10
  -10.7500000      -1.73024123E-10
  -10.7399998      -1.62201627E-10
  -10.7299995      -1.50978050E-10
  -10.7200003      -1.39256204E-10
  -10.7100000      -1.26980385E-10
  -10.6999998      -1.14167065E-10
  -10.6899996      -1.00881421E-10
  -10.6800003      -8.72455511E-11
  -10.6700001      -7.34271116E-11
  -10.6599998      -5.96421870E-11
  -10.6499996      -4.61076698E-11
  -10.6400003      -3.30267133E-11
  -10.6300001      -2.05729270E-11
  -10.6199999      -8.87441249E-12
  -10.6099997       1.98933882E-12
  -10.6000004       1.19901285E-11
  -10.5900002       2.11393802E-11
  -10.5799999       2.94879468E-11
  -10.5699997       3.70843529E-11
  -10.5600004       4.39653106E-11
  -10.5500002       5.01600116E-11
  -10.5400000       5.56704717E-11
  -10.5299997       6.05018119E-11
  -10.5200005       6.46684997E-11
  -10.5100002       6.82108744E-11
  -10.5000000       7.12259418E-11
  -10.4899998       7.38169456E-11
  -10.4799995       7.61447363E-11
  -10.4700003       7.83532267E-11
  -10.4600000       8.05414971E-11
  -10.4499998       8.27506952E-11
  -10.4399996       8.49220694E-11
  -10.4300003       8.68841249E-11
  -10.4200001       8.83607909E-11
  -10.4099998       8.90350987E-11
  -10.3999996       8.85521378E-11
  -10.3900003       8.65868766E-11
  -10.3800001       8.29146335E-11
  -10.3699999       7.74276893E-11
  -10.3599997       7.01664074E-11
  -10.3500004       6.13029003E-11
  -10.3400002       5.10993609E-11
  -10.3299999       3.98927141E-11
  -10.3199997       2.80199891E-11
  -10.3100004       1.57836591E-11
  -10.3000002       3.42235116E-12
  -10.2900000      -8.93538108E-12
  -10.2799997      -2.12848090E-11
  -10.2700005      -3.36911089E-11
  -10.2600002      -4.63065176E-11
  -10.2500000      -5.93002245E-11
  -10.2399998      -7.28392902E-11
  -10.2299995      -8.70387373E-11
  -10.2200003      -1.01959385E-10
  -10.2100000      -1.17561447E-10
  -10.1999998      -1.33697664E-10
  -10.1899996      -1.50159579E-10
  -10.1800003      -1.66637634E-10
  -10.1700001      -1.82845988E-10
  -10.1599998      -1.98517286E-10
  -10.1499996      -2.13449924E-10
  -10.1400003      -2.27575375E-10
  -10.1300001      -2.40938658E-10
  -10.1199999      -2.53756877E-10
  -10.1099997      -2.66341643E-10
  -10.1000004      -2.79076012E-10
  -10.0900002      -2.92407876E-10
  -10.0799999      -3.06713821E-10
  -10.0699997      -3.22275095E-10
  -10.0600004      -3.39298645E-10
  -10.0500002      -3.57846780E-10
  -10.0400000      -3.77887333E-10
  -10.0299997      -3.99257682E-10
  -10.0200005      -4.21810892E-10
  -10.0100002      -4.45317089E-10
  -10.0000000      -4.69599470E-10
  -9.98999977      -4.94523644E-10
  -9.97999954      -5.19968568E-10
  -9.97000027      -5.45865242E-10
  -9.96000004      -5.72170311E-10
  -9.94999981      -5.98888994E-10
  -9.93999958      -6.26012464E-10
  -9.93000031      -6.53587517E-10
  -9.92000008      -6.81681656E-10
  -9.90999985      -7.10414505E-10
  -9.89999962      -7.39972750E-10
  -9.89000034      -7.70573161E-10
  -9.88000011      -8.02450162E-10
  -9.86999989      -8.35921443E-10
  -9.85999966      -8.71284045E-10
  -9.85000038      -9.08751518E-10
  -9.84000015      -9.48479517E-10
  -9.82999992      -9.90583393E-10
  -9.81999969      -1.03502229E-09
  -9.81000042      -1.08166631E-09
  -9.80000019      -1.13035059E-09
  -9.78999996      -1.18082799E-09
  -9.77999973      -1.23285349E-09
  -9.77000046      -1.28623068E-09
  -9.76000023      -1.34088241E-09
  -9.75000000      -1.39676182E-09
  -9.73999977      -1.45398737E-09
  -9.72999954      -1.51269774E-09
  -9.72000027      -1.57314839E-09
  -9.71000004      -1.63554026E-09
  -9.69999981      -1.70004455E-09
  -9.68999958      -1.76675097E-09
  -9.68000031      -1.83555005E-09
  -9.67000008      -1.90627514E-09
  -9.65999985      -1.97849936E-09
  -9.64999962      -2.05174944E-09
  -9.64000034      -2.12545981E-09
  -9.63000011      -2.19903873E-09
  -9.61999989      -2.27191266E-09
  -9.60999966      -2.34365105E-09
  -9.60000038      -2.41395548E-09
  -9.59000015      -2.48269605E-09
  -9.57999992      -2.54983390E-09
  -9.56999969      -2.61550404E-09
  -9.56000042      -2.67993872E-09
  -9.55000019      -2.74331780E-09
  -9.53999996      -2.80578538E-09
  -9.52999973      -2.86729107E-09
  -9.52000046      -2.92770208E-09
  -9.51000023      -2.98657565E-09
  -9.50000000      -3.04337777E-09
  -9.48999977      -3.09744275E-09
  -9.47999954      -3.14810022E-09
  -9.47000027      -3.19469073E-09
  -9.46000004      -3.23664584E-09
  -9.44999981      -3.27358718E-09
  -9.43999958      -3.30526295E-09
  -9.43000031      -3.33159100E-09
  -9.42000008      -3.35259487E-09
  -9.40999985      -3.36833361E-09
  -9.39999962      -3.37908501E-09
  -9.39000034      -3.38505113E-09
  -9.38000011      -3.38660056E-09
  -9.36999989      -3.38418449E-09
  -9.35999966      -3.37836914E-09
  -9.35000038      -3.36978512E-09
  -9.34000015      -3.35920447E-09
  -9.32999992      -3.34740591E-09
  -9.31999969      -3.33515926E-09
  -9.31000042      -3.32312511E-09
  -9.30000019      -3.31188121E-09
  -9.28999996      -3.30192584E-09
  -9.27999973      -3.29374727E-09
  -9.27000046      -3.28788641E-09
  -9.26000023      -3.28493943E-09
  -9.25000000      -3.28562022E-09
  -9.23999977      -3.29077587E-09
  -9.22999954      -3.30128591E-09
  -9.22000027      -3.31808359E-09
  -9.21000004      -3.34188299E-09
  -9.19999981      -3.37334360E-09
  -9.18999958      -3.41273698E-09
  -9.18000031      -3.46026074E-09
  -9.17000008      -3.51586049E-09
  -9.15999985      -3.57942187E-09
  -9.14999962      -3.65072350E-09
  -9.14000034      -3.72956688E-09
  -9.13000011      -3.81581922E-09
  -9.11999989      -3.90931421E-09
  -9.10999966      -4.00989864E-09
  -9.10000038      -4.11744505E-09
  -9.09000015      -4.23160618E-09
  -9.07999992      -4.35220038E-09
  -9.06999969      -4.47896786E-09
  -9.06000042      -4.61159511E-09
  -9.05000019      -4.74987694E-09
  -9.03999996      -4.89359442E-09
  -9.02999973      -5.04262587E-09
  -9.02000046      -5.19646459E-09
  -9.01000023      -5.35457856E-09
  -9.00000000      -5.51612045E-09
  -8.98999977      -5.67993563E-09
  -8.97999954      -5.84466520E-09
  -8.97000027      -6.00883521E-09
  -8.96000004      -6.17101570E-09
  -8.94999981      -6.32984509E-09
  -8.93999958      -6.48413456E-09
  -8.93000031      -6.63275479E-09
  -8.92000008      -6.77479273E-09
  -8.90999985      -6.90949786E-09
  -8.89999962      -7.03609837E-09
  -8.89000034      -7.15384951E-09
  -8.88000011      -7.26198390E-09
  -8.86999989      -7.36001260E-09
  -8.85999966      -7.44731032E-09
  -8.85000038      -7.52382601E-09
  -8.84000015      -7.58944374E-09
  -8.82999992      -7.64425501E-09
  -8.81999969      -7.68847919E-09
  -8.81000042      -7.72205233E-09
  -8.80000019      -7.74507924E-09
  -8.78999996      -7.75713627E-09
  -8.77999973      -7.75792852E-09
  -8.77000046      -7.74704390E-09
  -8.76000023      -7.72406228E-09
  -8.75000000      -7.68880692E-09
  -8.73999977      -7.64147678E-09
  -8.72999954      -7.58252305E-09
  -8.72000027      -7.51247775E-09
  -8.71000004      -7.43228457E-09
  -8.69999981      -7.34288896E-09
  -8.68999958      -7.24530613E-09
  -8.68000031      -7.14032033E-09
  -8.67000008      -7.02874647E-09
  -8.65999985      -6.91147584E-09
  -8.64999962      -6.78943035E-09
  -8.64000034      -6.66341160E-09
  -8.63000011      -6.53429799E-09
  -8.61999989      -6.40284803E-09
  -8.60999966      -6.26970964E-09
  -8.60000038      -6.13545748E-09
  -8.59000015      -6.00035444E-09
  -8.57999992      -5.86468962E-09
  -8.56999969      -5.72874370E-09
  -8.56000042      -5.59302160E-09
  -8.55000019      -5.45810952E-09
  -8.53999996      -5.32518740E-09
  -8.52999973      -5.19531884E-09
  -8.52000046      -5.06964870E-09
  -8.51000023      -4.94936003E-09
  -8.50000000      -4.83530416E-09
  -8.48999977      -4.72802553E-09
  -8.47999954      -4.62760630E-09
  -8.47000027      -4.53405091E-09
  -8.46000004      -4.44709425E-09
  -8.44999981      -4.36652980E-09
  -8.43999958      -4.29206670E-09
  -8.43000031      -4.22387902E-09
  -8.42000008      -4.16187795E-09
  -8.40999985      -4.10636503E-09
  -8.39999962      -4.05747613E-09
  -8.39000034      -4.01523170E-09
  -8.38000011      -3.97925826E-09
  -8.36999989      -3.94933286E-09
  -8.35999966      -3.92491417E-09
  -8.35000038      -3.90534582E-09
  -8.34000015      -3.89018595E-09
  -8.32999992      -3.87882793E-09
  -8.31999969      -3.87057320E-09
  -8.31000042      -3.86493770E-09
  -8.30000019      -3.86109367E-09
  -8.28999996      -3.85848242E-09
  -8.27999973      -3.85631083E-09
  -8.27000046      -3.85369248E-09
  -8.26000023      -3.85007848E-09
  -8.25000000      -3.84507182E-09
  -8.23999977      -3.83857746E-09
  -8.22999954      -3.83062426E-09
  -8.22000027      -3.82165632E-09
  -8.21000004      -3.81197918E-09
  -8.19999981      -3.80209864E-09
  -8.18999958      -3.79254494E-09
  -8.18000031      -3.78345399E-09
  -8.17000008      -3.77494835E-09
  -8.15999985      -3.76737397E-09
  -8.14999962      -3.76071840E-09
  -8.14000034      -3.75499409E-09
  -8.13000011      -3.75050258E-09
  -8.11999989      -3.74747611E-09
  -8.10999966      -3.74619447E-09
  -8.10000038      -3.74688947E-09
  -8.09000015      -3.75011266E-09
  -8.07999992      -3.75621445E-09
  -8.06999969      -3.76585962E-09
  -8.06000042      -3.77973519E-09
  -8.05000019      -3.79864451E-09
  -8.03999996      -3.82365117E-09
  -8.02999973      -3.85574905E-09
  -8.02000046      -3.89540533E-09
  -8.01000023      -3.94343669E-09
  -8.00000000      -3.99997635E-09
  -7.98999977      -4.06517486E-09
  -7.98000002      -4.13879420E-09
  -7.96999979      -4.22053548E-09
  -7.96000004      -4.31015579E-09
  -7.94999981      -4.40759118E-09
  -7.94000006      -4.51275195E-09
  -7.92999983      -4.62628202E-09
  -7.92000008      -4.74831729E-09
  -7.90999985      -4.87914242E-09
  -7.90000010      -5.01901321E-09
  -7.88999987      -5.16793097E-09
  -7.88000011      -5.32598277E-09
  -7.86999989      -5.49289148E-09
  -7.86000013      -5.66821390E-09
  -7.84999990      -5.85132565E-09
  -7.84000015      -6.04184391E-09
  -7.82999992      -6.23912211E-09
  -7.82000017      -6.44284892E-09
  -7.80999994      -6.65217259E-09
  -7.80000019      -6.86632706E-09
  -7.78999996      -7.08450942E-09
  -7.78000021      -7.30593763E-09
  -7.76999998      -7.52965601E-09
  -7.76000023      -7.75497089E-09
  -7.75000000      -7.98172284E-09
  -7.73999977      -8.20977508E-09
  -7.73000002      -8.43933101E-09
  -7.71999979      -8.67075656E-09
  -7.71000004      -8.90418494E-09
  -7.69999981      -9.14018283E-09
  -7.69000006      -9.37833988E-09
  -7.67999983      -9.61864988E-09
  -7.67000008      -9.86045823E-09
  -7.65999985      -1.01027169E-08
  -7.65000010      -1.03450439E-08
  -7.63999987      -1.05861693E-08
  -7.63000011      -1.08260476E-08
  -7.61999989      -1.10643263E-08
  -7.61000013      -1.13004868E-08
  -7.59999990      -1.15345671E-08
  -7.59000015      -1.17665682E-08
  -7.57999992      -1.19963310E-08
  -7.57000017      -1.22239729E-08
  -7.55999994      -1.24492106E-08
  -7.55000019      -1.26721105E-08
  -7.53999996      -1.28927740E-08
  -7.53000021      -1.31114906E-08
  -7.51999998      -1.33289095E-08
  -7.51000023      -1.35459164E-08
  -7.50000000      -1.37634979E-08
  -7.48999977      -1.39823326E-08
  -7.48000002      -1.42030459E-08
  -7.46999979      -1.44260088E-08
  -7.46000004      -1.46511709E-08
  -7.44999981      -1.48785935E-08
  -7.44000006      -1.51078332E-08