  -16.0000000       0.00000000    
  -15.9899998       0.00000000    
  -15.9799995       0.00000000    
  -15.9700003       0.00000000    
  -15.9600000       0.00000000    
  -15.9499998       0.00000000    
  -15.9399996       0.00000000    
  -15.9300003       0.00000000    
  -15.9200001       0.00000000    
  -15.9099998       0.00000000    
  -15.8999996       0.00000000    
  -15.8900003      -0.00000000    
  -15.8800001      -0.00000000    
  -15.8699999      -0.00000000    
  -15.8599997      -0.00000000    
  -15.8500004      -1.40129846E-45
  -15.8400002      -4.20389539E-45
  -15.8299999      -1.82168800E-44
  -15.8199997      -3.50324616E-44
  -15.8100004       3.25101244E-43
  -15.8000002       4.10720580E-42
  -15.7900000       2.81380732E-41
  -15.7799997       1.46672509E-40
  -15.7700005       6.36221733E-40
  -15.7600002       2.39129761E-39
  -15.7500000       7.96612113E-39
  -15.7399998       2.38519636E-38
  -15.7299995       6.47594559E-38
  -15.7200003       1.60246517E-37
  -15.7100000       3.62040973E-37
  -15.6999998       7.45408409E-37
  -15.6899996       1.38884875E-36
  -15.6800003       2.30449483E-36
  -15.6700001       3.28385690E-36
  -15.6599998       3.63647830E-36
  -15.6499996       1.85837359E-36
  -15.6400003      -4.60194344E-36
  -15.6300001      -1.91118550E-35
  -15.6199999      -4.45952337E-35
  -15.6099997      -8.06824597E-35
  -15.6000004      -1.19195690E-34
  -15.5900002      -1.39159039E-34
  -15.5799999      -1.04548571E-34
  -15.5699997       2.99340641E-35
  -15.5600004       2.99356350E-34
  -15.5500002       6.93311665E-34
  -15.5400000       1.11271230E-33
  -15.5299997       1.34142723E-33
  -15.5200005       1.06946485E-33
  -15.5100002       4.41370183E-36
  -15.5000000      -1.92150953E-33
  -15.4899998      -4.30797300E-33
  -15.4799995      -6.15414933E-33
  -15.4700003      -6.04450179E-33
  -15.4600000      -2.81011126E-33
  -15.4499998       3.40969512E-33
  -15.4399996       1.01902687E-32
  -15.4300003       1.28382247E-32
  -15.4200001       6.40094584E-33
  -15.4099998      -1.00057793E-32
  -15.3999996      -2.78978899E-32
  -15.3900003      -2.68008539E-32
  -15.3800001       2.03867220E-32
  -15.3699999       1.29777856E-31
  -15.3599997       2.78066221E-31
  -15.3500004       3.75225743E-31
  -15.3400002       2.62090830E-31
  -15.3299999      -2.38352215E-31
  -15.3199997      -1.19935943E-30
  -15.3100004      -2.41889466E-30
  -15.3000002      -3.27620545E-30
  -15.2900000      -2.74958341E-30
  -15.2799997       2.61461235E-31
  -15.2700005       6.24882603E-30
  -15.2600002       1.41807982E-29
  -15.2500000       2.07740042E-29
  -15.2399998       2.05993765E-29
  -15.2299995       7.66449400E-30
  -15.2200003      -2.13162152E-29
  -15.2100000      -6.26616655E-29
  -15.1999998      -1.02342906E-28
  -15.1899996      -1.16225755E-28
  -15.1800003      -7.64972392E-29
  -15.1700001       3.50602817E-29
  -15.1599998       2.09911992E-28
  -15.1499996       3.99019053E-28
  -15.1400003       5.12624725E-28
  -15.1300001       4.42398579E-28
  -15.1199999       1.07437930E-28
  -15.1099997      -4.87034220E-28
  -15.1000004      -1.20309541E-27
  -15.0900002      -1.76762833E-27
  -15.0799999      -1.83842532E-27
  -15.0699997      -1.13780128E-27
  -15.0600004       3.85750816E-28
  -15.0500002       2.44176640E-27
  -15.0400000       4.40897480E-27
  -15.0299997       5.51522626E-27
  -15.0200005       5.14309808E-27
  -15.0100002       3.11946629E-27
  -15.0000000      -2.03902200E-28
  -14.9899998      -4.20974389E-27
  -14.9799995      -8.54340751E-27
  -14.9700003      -1.35536596E-26
  -14.9600000      -2.00848085E-26
  -14.9499998      -2.81579278E-26
  -14.9399996      -3.46556426E-26
  -14.9300003      -3.11351751E-26
  -14.9200001      -3.94073963E-27
  -14.9099998       6.08814374E-26
  -14.8999996       1.66601667E-25
  -14.8900003       2.90785174E-25
  -14.8800001       3.73048181E-25
  -14.8699999       3.16758863E-25
  -14.8599997       1.64945839E-26
  -14.8500004      -5.83363724E-25
  -14.8400002      -1.40864032E-24
  -14.8299999      -2.18499088E-24
  -14.8199997      -2.42738851E-24
  -14.8100004      -1.54403567E-24
  -14.8000002       9.15024120E-25
  -14.7900000       4.89397749E-24
  -14.7799997       9.46804900E-24
  -14.7700005       1.26813627E-23
  -14.7600002       1.18200465E-23
  -14.7500000       4.28545413E-24
  -14.7399998      -1.09723918E-23
  -14.7299995      -3.18218853E-23
  -14.7200003      -5.18236681E-23
  -14.7100000      -6.05227529E-23
  -14.6999998      -4.59438807E-23
  -14.6899996       5.28386726E-25
  -14.6800003       7.77724335E-23
  -14.6700001       1.69229849E-22
  -14.6599998       2.41059661E-22
  -14.6499996       2.47381782E-22
  -14.6400003       1.44385477E-22
  -14.6300001      -8.80749064E-23
  -14.6199999      -4.23085869E-22
  -14.6099997      -7.71258932E-22
  -14.6000004      -9.84910384E-22
  -14.5900002      -8.90955915E-22
  -14.5799999      -3.53627941E-22
  -14.5699997       6.44688131E-22
  -14.5600004       1.93058098E-21
  -14.5500002       3.11103598E-21
  -14.5400000       3.62503341E-21
  -14.5299997       2.89473350E-21
  -14.5200005       5.62420919E-22
  -14.5100002      -3.24439199E-21
  -14.5000000      -7.71799336E-21
  -14.4899998      -1.13625237E-20
  -14.4799995      -1.22680304E-20
  -14.4700003      -8.68938209E-21
  -14.4600000       1.62685712E-22
  -14.4499998       1.33416470E-20
  -14.4399996       2.77184960E-20
  -14.4300003       3.82020635E-20
  -14.4200001       3.88421656E-20
  -14.4099998       2.47741304E-20
  -14.3999996      -5.38918913E-21
  -14.3900003      -4.74595652E-20
  -14.3800001      -9.08148088E-20
  -14.3699999      -1.19642861E-19
  -14.3599997      -1.16700631E-19
  -14.3500004      -6.92047864E-20
  -14.3400002       2.44979151E-20
  -14.3299999       1.49674002E-19
  -14.3199997       2.73895424E-19
  -14.3100004       3.51736506E-19
  -14.3000002       3.36100724E-19
  -14.2900000       1.94597574E-19
  -14.2799997      -7.30574447E-20
  -14.2700005      -4.22522203E-19
  -14.2600002      -7.63500061E-19
  -14.2500000      -9.74197387E-19
  -14.2399998      -9.32175785E-19
  -14.2299995      -5.56616503E-19
  -14.2200003       1.48732347E-19
  -14.2100000       1.06659677E-18
  -14.1999998       1.96599552E-18
  -14.1899996       2.54065361E-18
  -14.1800003       2.48585910E-18
  -14.1700001       1.60046917E-18
  -14.1599998      -1.11974690E-19
  -14.1499996      -2.37700027E-18
  -14.1400003      -4.65076757E-18
  -14.1300001      -6.21001461E-18
  -14.1199999      -6.32812897E-18
  -14.1099997      -4.50624340E-18
  -14.1000004      -7.01319344E-19
  -14.0900002       4.52265343E-18
  -14.0799999       9.99057081E-18
  -14.0699997       1.41023508E-17
  -14.0600004       1.52041636E-17
  -14.0500002       1.20801606E-17
  -14.0400000       4.44529053E-18
  -14.0299997      -6.71192175E-18
  -14.0200005      -1.90806596E-17
  -14.0100002      -2.93639985E-17
  -14.0000000      -3.39967195E-17
  -13.9899998      -3.01254348E-17
  -13.9799995      -1.66245138E-17
  -13.9700003       5.14369815E-18
  -13.9600000       3.11084066E-17
  -13.9499998       5.50006584E-17
  -13.9399996       6.96152689E-17
  -13.9300003       6.86320754E-17
  -13.9200001       4.86000671E-17
  -13.9099998       1.05558156E-17
  -13.8999996      -3.92607712E-17
  -13.8900003      -8.99875759E-17
  -13.8800001      -1.28128014E-16
  -13.8699999      -1.40683411E-16
  -13.8599997      -1.18796186E-16
  -13.8500004      -6.10030151E-17
  -13.8400002       2.48711455E-17
  -13.8299999       1.21960079E-16
  -13.8199997       2.07089074E-16
  -13.8100004       2.55724964E-16
  -13.8000002       2.48223508E-16
  -13.7900000       1.75933772E-16
  -13.7799997       4.54982259E-17
  -13.7700005      -1.20126266E-16
  -13.7600002      -2.84781265E-16
  -13.7500000      -4.06251401E-16
  -13.7399998      -4.46242632E-16
  -13.7299995      -3.81031022E-16
  -13.7200003      -2.10073541E-16
  -13.7100000       4.00458946E-17
  -13.6999998       3.18154892E-16
  -13.6899996       5.57912544E-16
  -13.6800003       6.92731232E-16
  -13.6700001       6.73125489E-16
  -13.6599998       4.82262179E-16
  -13.6499996       1.45279902E-16
  -13.6400003      -2.71094959E-16
  -13.6300001      -6.70052189E-16
  -13.6199999      -9.45966395E-16
  -13.6099997      -1.01121737E-15
  -13.6000004      -8.22174701E-16
  -13.5900002      -3.97175284E-16
  -13.5799999       1.79617228E-16
  -13.5699997       7.71690531E-16
  -13.5600004       1.21996430E-15
  -13.5500002       1.38319358E-15
  -13.5400000       1.17950100E-15
  -13.5299997       6.17737158E-16
  -13.5200005      -1.91576803E-16
  -13.5100002      -1.05192852E-15
  -13.5000000      -1.72289572E-15
  -13.4899998      -1.98104214E-15
  -13.4799995      -1.68562140E-15
  -13.4700003      -8.31541615E-16
  -13.4600000       4.27168191E-16
  -13.4499998       1.79459791E-15
  -13.4399996       2.89259083E-15
  -13.4300003       3.35299559E-15
  -13.4200001       2.92224207E-15
  -13.4099998       1.55140638E-15
  -13.3999996      -5.55230997E-16
  -13.3900003      -2.95295591E-15
  -13.3800001      -5.03687337E-15
  -13.3699999      -6.17847304E-15
  -13.3599997      -5.89050047E-15
  -13.3500004      -3.98039459E-15
  -13.3400002      -6.49811649E-16
  -13.3299999       3.49411170E-15
  -13.3199997       7.53169669E-15
  -13.3100004       1.04187356E-14
  -13.3000002       1.12344335E-14
  -13.2900000       9.43386672E-15
  -13.2799997       5.04097217E-15
  -13.2700005      -1.27503732E-15
  -13.2600002      -8.27457508E-15
  -13.2500000      -1.43747099E-14
  -13.2399998      -1.79909595E-14
  -13.2299995      -1.79232104E-14
  -13.2200003      -1.36957570E-14
  -13.2100000      -5.76238462E-15
  -13.1999998       4.48944233E-15
  -13.1899996       1.49592405E-14
  -13.1800003       2.32506139E-14
  -13.1700001       2.72055226E-14
  -13.1599998       2.54396469E-14
  -13.1499996       1.77505376E-14
  -13.1400003       5.28787295E-15
  -13.1300001      -9.57868055E-15
  -13.1199999      -2.36924348E-14
  -13.1099997      -3.37697840E-14
  -13.1000004      -3.71525659E-14
  -13.0900002      -3.24833883E-14
  -13.0799999      -2.01372444E-14
  -13.0699997      -2.28576965E-15
  -13.0600004       1.74535340E-14
  -13.0500002       3.47364214E-14
  -13.0400000       4.54414067E-14
  -13.0299997       4.66452946E-14
  -13.0200005       3.73970535E-14
  -13.0100002       1.90909469E-14
  -13.0000000      -4.68118222E-15
  -12.9899998      -2.88052561E-14
  -12.9799995      -4.77298153E-14
  -12.9700003      -5.67358355E-14
  -12.9600000      -5.31054828E-14
  -12.9499998      -3.69054864E-14
  -12.9399996      -1.11707281E-14
  -12.9300003       1.86000829E-14
  -12.9200001       4.55679196E-14
  -12.9099998       6.30752774E-14
  -12.8999996       6.62347442E-14
  -12.8900003       5.32137980E-14
  -12.8800001       2.58908241E-14
  -12.8699999      -1.03148098E-14
  -12.8599997      -4.74542721E-14
  -12.8500004      -7.67193858E-14
  -12.8400002      -9.04219191E-14
  -12.8299999      -8.38382979E-14
  -12.8199997      -5.64827217E-14
  -12.8100004      -1.24818868E-14
  -12.8000002       4.00809079E-14
  -12.7900000       9.07483317E-14
  -12.7799997       1.28870777E-13
  -12.7700005       1.45904813E-13
  -12.7600002       1.37298579E-13
  -12.7500000       1.03513010E-13
  -12.7399998       4.99194226E-14
  -12.7299995      -1.44234769E-14
  -12.7200003      -7.88356739E-14
  -12.7100000      -1.33431203E-13
  -12.6999998      -1.71283371E-13
  -12.6899996      -1.89781567E-13
  -12.6800003      -1.90805257E-13
  -12.6700001      -1.79629993E-13
  -12.6599998      -1.62812065E-13
  -12.6499996      -1.45587589E-13
  -12.6400003      -1.29497826E-13
  -12.6300001      -1.10959053E-13
  -12.6199999      -8.13207262E-14
  -12.6099997      -2.86220429E-14
  -12.6000004       5.91566523E-14
  -12.5900002       1.89962832E-13
  -12.5799999       3.63576736E-13
  -12.5699997       5.68580502E-13
  -12.5600004       7.81300643E-13
  -12.5500002       9.67287556E-13
  -12.5400000       1.08539848E-12
  -12.5299997       1.09398807E-12
  -12.5200005       9.58219181E-13
  -12.5100002       6.57207958E-13
  -12.5000000       1.89667807E-13
  -12.4899998      -4.23035332E-13
  -12.4799995      -1.13701203E-12
  -12.4700003      -1.88913100E-12
  -12.4600000      -2.60279862E-12
  -12.4499998      -3.19509306E-12
  -12.4399996      -3.58388514E-12
  -12.4300003      -3.69370290E-12
  -12.4200001      -3.45946145E-12
  -12.4099998      -2.82784213E-12
  -12.3999996      -1.75671869E-12
  -12.3900003      -2.13624027E-13
  -12.3800001       1.82548638E-12
  -12.3699999       4.37595576E-12
  -12.3599997       7.44185789E-12
  -12.3500004       1.10110350E-11
  -12.3400002       1.50484330E-11
  -12.3299999       1.94891187E-11
  -12.3199997       2.42327755E-11
  -12.3100004       2.91414740E-11
  -12.3000002       3.40420574E-11
  -12.2900000       3.87336552E-11
  -12.2799997       4.29998398E-11
  -12.2700005       4.66238853E-11
  -12.2600002       4.94048830E-11
  -12.2500000       5.11721845E-11
  -12.2399998       5.17957587E-11
  -12.2299995       5.11909959E-11
  -12.2200003       4.93172378E-11
  -12.2100000       4.61709386E-11
  -12.1999998       4.17750556E-11
  -12.1899996       3.61669757E-11
  -12.1800003       2.93880094E-11
  -12.1700001       2.14764005E-11
  -12.1599998       1.24652875E-11
  -12.1499996       2.38610455E-12
  -12.1400003      -8.72361818E-12
  -12.1300001      -2.08096734E-11
  -12.1199999      -3.37904218E-11
  -12.1099997      -4.75481356E-11
  -12.1000004      -6.19244586E-11
  -12.0900002      -7.67212058E-11
  -12.0799999      -9.17064202E-11
  -12.0699997      -1.06625223E-10
  -12.0600004      -1.21213137E-10
  -12.0500002      -1.35209927E-10
  -12.0400000      -1.48371870E-10
  -12.0299997      -1.60480379E-10
  -12.0200005      -1.71346187E-10
  -12.0100002      -1.80808868E-10
  -12.0000000      -1.88732543E-10
  -11.9899998      -1.94999447E-10
  -11.9799995      -1.99503011E-10
  -11.9700003      -2.02142816E-10
  -11.9600000      -2.02821690E-10
  -11.9499998      -2.01447234E-10
  -11.9399996      -1.97935543E-10
  -11.9300003      -1.92217964E-10
  -11.9200001      -1.84247353E-10
  -11.9099998      -1.74003215E-10
  -11.8999996      -1.61493749E-10
  -11.8900003      -1.46753901E-10
  -11.8800001      -1.29839750E-10
  -11.8699999      -1.10820499E-10
  -11.8599997      -8.97696917E-11
  -11.8500004      -6.67578909E-11
  -11.8400002      -4.18498500E-11
  -11.8299999      -1.51059391E-11
  -11.8199997       1.34103778E-11
  -11.8100004       4.36206869E-11
  -11.8000002       7.54180052E-11
  -11.7900000       1.08653316E-10
  -11.7799997       1.43125400E-10
  -11.7700005       1.78576501E-10
  -11.7600002       2.14694693E-10
  -11.7500000       2.51123233E-10
  -11.7399998       2.87474849E-10
  -11.7299995       3.23349181E-10
  -11.7200003       3.58349905E-10
  -11.7100000       3.92099547E-10
  -11.6999998       4.24249746E-10
  -11.6899996       4.54485699E-10
  -11.6800003       4.82526130E-10
  -11.6700001       5.08118103E-10
  -11.6599998       5.31030719E-10
  -11.6499996       5.51047152E-10
  -11.6400003       5.67958014E-10
  -11.6300001       5.81556359E-10
  -11.6199999       5.91635130E-10
  -11.6099997       5.97986050E-10
  -11.6000004       6.00401062E-10
  -11.5900002       5.98675109E-10
  -11.5799999       5.92609684E-10
  -11.5699997       5.82018378E-10
  -11.5600004       5.66732383E-10
  -11.5500002       5.46608592E-10
  -11.5400000       5.21536314E-10
  -11.5299997       4.91444330E-10
  -11.5200005       4.56306354E-10
  -11.5100002       4.16143925E-10
  -11.5000000       3.71025433E-10
  -11.4899998       3.21061150E-10
  -11.4799995       2.66394767E-10
  -11.4700003       2.07193776E-10
  -11.4600000       1.43637630E-10
  -11.4499998       7.59070654E-11
  -11.4399996       4.17764087E-12
  -11.4300003      -7.13842804E-11
  -11.4200001      -1.50619545E-10
  -11.4099998      -2.33372849E-10
  -11.3999996      -3.19484494E-10
  -11.3900003      -4.08784645E-10
  -11.3800001      -5.01087005E-10
  -11.3699999      -5.96185212E-10
  -11.3599997      -6.93855695E-10
  -11.3500004      -7.93860477E-10
  -11.3400002      -8.95954588E-10
  -11.3299999      -9.99894278E-10
  -11.3199997      -1.10544385E-09
  -11.3100004      -1.21237942E-09
  -11.3000002      -1.32048905E-09
  -11.2900000      -1.42956935E-09
  -11.2799997      -1.53941715E-09
  -11.2700005      -1.64981784E-09
  -11.2600002      -1.76053649E-09
  -11.2500000      -1.87130644E-09
  -11.2399998      -1.98182337E-09
  -11.2299995      -2.09174966E-09
  -11.2200003      -2.20071650E-09
  -11.2100000      -2.30834307E-09
  -11.1999998      -2.41425679E-09
  -11.1899996      -2.51811239E-09
  -11.1800003      -2.61961852E-09
  -11.1700001      -2.71855538E-09
  -11.1599998      -2.81478751E-09
  -11.1499996      -2.90826163E-09
  -11.1400003      -2.99900482E-09
  -11.1300001      -3.08710169E-09
  -11.1199999      -3.17267324E-09
  -11.1099997      -3.25585159E-09
  -11.1000004      -3.33675820E-09
  -11.0900002      -3.41548811E-09
  -11.0799999      -3.49210261E-09
  -11.0699997      -3.56664298E-09
  -11.0600004      -3.63913055E-09
  -11.0500002      -3.70959263E-09
  -11.0400000      -3.77807874E-09
  -11.0299997      -3.84466414E-09
  -11.0200005      -3.90945853E-09
  -11.0100002      -3.97259381E-09
  -11.0000000      -4.03421030E-09
  -10.9899998      -4.09443013E-09
  -10.9799995      -4.15333901E-09
  -10.9700003      -4.21098090E-09
  -10.9600000      -4.26735003E-09
  -10.9499998      -4.32239178E-09
  -10.9399996      -4.37603997E-09
  -10.9300003      -4.42822445E-09
  -10.9200001      -4.47890125E-09
  -10.9099998      -4.52806681E-09
  -10.8999996      -4.57576110E-09
  -10.8900003      -4.62205696E-09
  -10.8800001      -4.66704320E-09
  -10.8699999      -4.71079087E-09
  -10.8599997      -4.75333772E-09
  -10.8500004      -4.79466067E-09
  -10.8400002      -4.83466822E-09
  -10.8299999      -4.87320007E-09
  -10.8199997      -4.91004171E-09
  -10.8100004      -4.94495511E-09
  -10.8000002      -4.97769159E-09
  -10.7900000      -5.00801711E-09
  -10.7799997      -5.03572872E-09
  -10.7700005      -5.06067055E-09
  -10.7600002      -5.08274223E-09
  -10.7500000      -5.10188158E-09
  -10.7399998      -5.11805753E-09
  -10.7299995      -5.13128162E-09
  -10.7200003      -5.14156229E-09
  -10.7100000      -5.14892573E-09
  -10.6999998      -5.15336485E-09
  -10.6899996      -5.15486942E-09
  -10.6800003      -5.15339416E-09
  -10.6700001      -5.14886001E-09
  -10.6599998      -5.14117859E-09
  -10.6499996      -5.13025888E-09
  -10.6400003      -5.11603915E-09
  -10.6300001      -5.09850118E-09
  -10.6199999      -5.07772935E-09
  -10.6099997      -5.05387421E-09
  -10.6000004      -5.02722486E-09
  -10.5900002      -4.99813391E-09
  -10.5799999      -4.96703256E-09
  -10.5699997      -4.93434937E-09
  -10.5600004      -4.90051066E-09
  -10.5500002      -4.86588370E-09
  -10.5400000      -4.83075357E-09
  -10.5299997      -4.79530993E-09
  -10.5200005      -4.75970374E-09
  -10.5100002      -4.72402295E-09
  -10.5000000      -4.68836703E-09
  -10.4899998      -4.65286343E-09
  -10.4799995      -4.61767158E-09
  -10.4700003      -4.58300553E-09
  -10.4600000      -4.54910731E-09
  -10.4499998      -4.51624071E-09
  -10.4399996      -4.48464510E-09
  -10.4300003      -4.45453718E-09
  -10.4200001      -4.42609016E-09
  -10.4099998      -4.39942616E-09
  -10.3999996      -4.37463932E-09
  -10.3900003      -4.35180114E-09
  -10.3800001      -4.33095870E-09
  -10.3699999      -4.31215241E-09
  -10.3599997      -4.29540270E-09
  -10.3500004      -4.28072688E-09
  -10.3400002      -4.26811386E-09
  -10.3299999      -4.25753788E-09
  -10.3199997      -4.24896562E-09
  -10.3100004      -4.24237534E-09
  -10.3000002      -4.23777324E-09
  -10.2900000      -4.23523439E-09
  -10.2799997      -4.23488711E-09
  -10.2700005      -4.23694280E-09
  -10.2600002      -4.24168256E-09
  -10.2500000      -4.24940572E-09
  -10.2399998      -4.26043112E-09
  -10.2299995      -4.27501146E-09
  -10.2200003      -4.29335012E-09
  -10.2100000      -4.31555636E-09
  -10.1999998      -4.34164882E-09
  -10.1899996      -4.37156622E-09
  -10.1800003      -4.40518422E-09
  -10.1700001      -4.44237092E-09
  -10.1599998      -4.48297977E-09
  -10.1499996      -4.52688775E-09
  -10.1400003      -4.57401494E-09
  -10.1300001      -4.62436267E-09
  -10.1199999      -4.67798911E-09
  -10.1099997      -4.73503947E-09
  -10.1000004      -4.79571494E-09
  -10.0900002      -4.86032370E-09
  -10.0799999      -4.92922636E-09
  -10.0699997      -5.00283104E-09
  -10.0600004      -5.08155207E-09
  -10.0500002      -5.16581888E-09
  -10.0400000      -5.25598942E-09
  -10.0299997      -5.35236921E-09
  -10.0200005      -5.45514256E-09
  -10.0100002      -5.56445290E-09
  -10.0000000      -5.68030689E-09
  -9.98999977      -5.80266857E-09
  -9.97999954      -5.93145666E-09
  -9.97000027      -6.06657480E-09
  -9.96000004      -6.20793594E-09
  -9.94999981      -6.35546460E-09
  -9.93999958      -6.50909104E-09
  -9.93000031      -6.66877620E-09
  -9.92000008      -6.83445789E-09
  -9.90999985      -7.00610547E-09
  -9.89999962      -7.18367987E-09
  -9.89000034      -7.36714068E-09
  -9.88000011      -7.55643637E-09
  -9.86999989      -7.75156295E-09
  -9.85999966      -7.95251065E-09
  -9.85000038      -8.15928303E-09
  -9.84000015      -8.37188807E-09
  -9.82999992      -8.59032490E-09
  -9.81999969      -8.81453754E-09
  -9.81000042      -9.04443009E-09
  -9.80000019      -9.27986132E-09
  -9.78999996      -9.52066959E-09
  -9.77999973      -9.76665238E-09
  -9.77000046      -1.00176649E-08
  -9.76000023      -1.02735909E-08
  -9.75000000      -1.05343663E-08
  -9.73999977      -1.08000329E-08
  -9.72999954      -1.10706795E-08
  -9.72000027      -1.13464660E-08
  -9.71000004      -1.16275940E-08
  -9.69999981      -1.19142420E-08
  -9.68999958      -1.22065931E-08
  -9.68000031      -1.25047617E-08
  -9.67000008      -1.28088047E-08
  -9.65999985      -1.31187186E-08
  -9.64999962      -1.34343416E-08
  -9.64000034      -1.37554732E-08
  -9.63000011      -1.40817091E-08
  -9.61999989      -1.44125902E-08
  -9.60999966      -1.47474646E-08
  -9.60000038      -1.50856110E-08
  -9.59000015      -1.54261421E-08
  -9.57999992      -1.57681246E-08
  -9.56999969      -1.61106168E-08
  -9.56000042      -1.64526597E-08
  -9.55000019      -1.67933223E-08
  -9.53999996      -1.71317200E-08
  -9.52999973      -1.74670465E-08
  -9.52000046      -1.77985413E-08
  -9.51000023      -1.81254673E-08
  -9.50000000      -1.84470998E-08
  -9.48999977      -1.87627283E-08
  -9.47999954      -1.90716634E-08
  -9.47000027      -1.93732443E-08
  -9.46000004      -1.96668761E-08
  -9.44999981      -1.99520080E-08
  -9.43999958      -2.02282031E-08
  -9.43000031      -2.04952180E-08
  -9.42000008      -2.07528732E-08
  -9.40999985      -2.10011226E-08
  -9.39999962      -2.12400817E-08
  -9.39000034      -2.14699298E-08
  -9.38000011      -2.16910401E-08
  -9.36999989      -2.19038672E-08
  -9.35999966      -2.21090808E-08
  -9.35000038      -2.23075229E-08
  -9.34000015      -2.25002310E-08
  -9.32999992      -2.26884698E-08
  -9.31999969      -2.28736585E-08
  -9.31000042      -2.30574049E-08
  -9.30000019      -2.32414177E-08
  -9.28999996      -2.34274644E-08
  -9.27999973      -2.36173765E-08
  -9.27000046      -2.38129623E-08
  -9.26000023      -2.40160620E-08
  -9.25000000      -2.42284379E-08
  -9.23999977      -2.44518699E-08
  -9.22999954      -2.46880951E-08
  -9.22000027      -2.49387195E-08
  -9.21000004      -2.52052121E-08
  -9.19999981      -2.54888963E-08
  -9.18999958      -2.57907899E-08
  -9.18000031      -2.61117634E-08
  -9.17000008      -2.64523106E-08
  -9.15999985      -2.68127884E-08
  -9.14999962      -2.71931686E-08
  -9.14000034      -2.75932823E-08
  -9.13000011      -2.80128098E-08
  -9.11999989      -2.84512254E-08
  -9.10999966      -2.89077988E-08
  -9.10000038      -2.93816989E-08
  -9.09000015      -2.98718881E-08
  -9.07999992      -3.03771479E-08
  -9.06999969      -3.08960786E-08
  -9.06000042      -3.14272093E-08
  -9.05000019      -3.19689697E-08
  -9.03999996      -3.25196545E-08
  -9.02999973      -3.30775975E-08
  -9.02000046      -3.36410935E-08
  -9.01000023      -3.42084938E-08
  -9.00000000      -3.47780826E-08
  -8.98999977      -3.53480871E-08
  -8.97999954      -3.59168268E-08
  -8.97000027      -3.64825468E-08
  -8.96000004      -3.70435416E-08
  -8.94999981      -3.75982054E-08
  -8.93999958      -3.81450427E-08
  -8.93000031      -3.86826748E-08
  -8.92000008      -3.92100503E-08
  -8.90999985      -3.97262561E-08
  -8.89999962      -4.02305034E-08
  -8.89000034      -4.07222416E-08
  -8.88000011      -4.12009236E-08
  -8.86999989      -4.16660555E-08
  -8.85999966      -4.21172075E-08
  -8.85000038      -4.25539461E-08
  -8.84000015      -4.29758309E-08
  -8.82999992      -4.33823999E-08
  -8.81999969      -4.37732552E-08
  -8.81000042      -4.41480630E-08
  -8.80000019      -4.45064572E-08
  -8.78999996      -4.48482567E-08
  -8.77999973      -4.51731736E-08
  -8.77000046      -4.54812046E-08
  -8.76000023      -4.57722642E-08
  -8.75000000      -4.60466580E-08
  -8.73999977      -4.63046383E-08
  -8.72999954      -4.65467664E-08
  -8.72000027      -4.67737955E-08
  -8.71000004      -4.69867096E-08
  -8.69999981      -4.71866493E-08
  -8.68999958      -4.73749751E-08
  -8.68000031      -4.75532573E-08
  -8.67000008      -4.77231374E-08
  -8.65999985      -4.78864344E-08
  -8.64999962      -4.80449742E-08
  -8.64000034      -4.82008389E-08
  -8.63000011      -4.83560321E-08
  -8.61999989      -4.85124403E-08
  -8.60999966      -4.86720673E-08
  -8.60000038      -4.88368315E-08
  -8.59000015      -4.90084489E-08
  -8.57999992      -4.91886993E-08
  -8.56999969      -4.93791283E-08
  -8.56000042      -4.95814305E-08
  -8.55000019      -4.97970625E-08
  -8.53999996      -5.00274702E-08
  -8.52999973      -5.02740534E-08
  -8.52000046      -5.05379631E-08
  -8.51000023      -5.08202902E-08
  -8.50000000      -5.11218303E-08
  -8.48999977      -5.14431733E-08
  -8.47999954      -5.17846530E-08
  -8.47000027      -5.21464365E-08
  -8.46000004      -5.25284065E-08
  -8.44999981      -5.29302930E-08
  -8.43999958      -5.33518048E-08
  -8.43000031      -5.37922276E-08
  -8.42000008      -5.42508793E-08
  -8.40999985      -5.47268719E-08
  -8.39999962      -5.52191395E-08
  -8.39000034      -5.57263817E-08
  -8.38000011      -5.62472451E-08
  -8.36999989      -5.67803866E-08
  -8.35999966      -5.73243604E-08
  -8.35000038      -5.78779371E-08
  -8.34000015      -5.84399551E-08
  -8.32999992      -5.90094587E-08
  -8.31999969      -5.95853535E-08
  -8.31000042      -6.01670251E-08
  -8.30000019      -6.07533792E-08
  -8.28999996      -6.13437692E-08
  -8.27999973      -6.19372429E-08
  -8.27000046      -6.25332959E-08
  -8.26000023      -6.31311678E-08
  -8.25000000      -6.37304467E-08
  -8.23999977      -6.43310472E-08
  -8.22999954      -6.49328555E-08
  -8.22000027      -6.55360637E-08
  -8.21000004      -6.61410198E-08
  -8.19999981      -6.67479298E-08
  -8.18999958      -6.73571492E-08
  -8.18000031      -6.79689691E-08
  -8.17000008      -6.85833612E-08
  -8.15999985      -6.92007305E-08
  -8.14999962      -6.98211764E-08
  -8.14000034      -7.04452177E-08
  -8.13000011      -7.10734582E-08
  -8.11999989      -7.17066726E-08
  -8.10999966      -7.23456779E-08
  -8.10000038      -7.29913552E-08
  -8.09000015      -7.36446140E-08
  -8.07999992      -7.43061364E-08
  -8.06999969      -7.49764766E-08
  -8.06000042      -7.56561676E-08
  -8.05000019      -7.63454793E-08
  -8.03999996      -7.70448594E-08
  -8.02999973      -7.77546632E-08
  -8.02000046      -7.84752814E-08
  -8.01000023      -7.92074175E-08
  -8.00000000      -7.99513913E-08
  -7.98999977      -8.07078919E-08
  -7.98000002      -8.14771468E-08
  -7.96999979      -8.22592128E-08
  -7.96000004      -8.30545019E-08
  -7.94999981      -8.38631067E-08
  -7.94000006      -8.46849346E-08
  -7.92999983      -8.55205187E-08
  -7.92000008      -8.63703349E-08
  -7.90999985      -8.72353283E-08
  -7.90000010      -8.81164794E-08
  -7.88999987      -8.90150105E-08
  -7.88000011      -8.99321435E-08
  -7.86999989      -9.08689657E-08
  -7.86000013      -9.18263012E-08
  -7.84999990      -9.28050312E-08
  -7.84000015      -9.38053546E-08
  -7.82999992      -9.48277616E-08
  -7.82000017      -9.58723945E-08
  -7.80999994      -9.69395302E-08
  -7.80000019      -9.80294601E-08
  -7.78999996      -9.91423263E-08
  -7.78000021      -1.00278335E-07
  -7.76999998      -1.01437365E-07
  -7.76000023      -1.02619467E-07
  -7.75000000      -1.03824000E-07
  -7.73999977      -1.05050276E-07
  -7.73000002      -1.06297470E-07
  -7.71999979      -1.07564652E-07
  -7.71000004      -1.08850664E-07
  -7.69999981      -1.10154751E-07
  -7.69000006      -1.11476261E-07
  -7.67999983      -1.12814448E-07
  -7.67000008      -1.14168714E-07
  -7.65999985      -1.15538256E-07
  -7.65000010      -1.16922592E-07
  -7.63999987      -1.18320955E-07
  -7.63000011      -1.19732363E-07
  -7.61999989      -1.21156006E-07
  -7.61000013      -1.22591430E-07
  -7.59999990      -1.24038152E-07
  -7.59000015      -1.25495873E-07
  -7.57999992      -1.26964963E-07
  -7.57000017      -1.28445961E-07
  -7.55999994      -1.29939565E-07
  -7.55000019      -1.31446200E-07
  -7.53999996      -1.32966790E-07
  -7.53000021      -1.34501647E-07
  -7.51999998      -1.36051383E-07
  -7.51000023      -1.37616695E-07
  -7.50000000      -1.39197908E-07
  -7.48999977      -1.40795962E-07
  -7.48000002      -1.42411906E-07
  -7.46999979      -1.44046837E-07
  -7.46000004      -1.45701691E-07
  -7.44999981      -1.47377875E-07
  -7.44000006      -1.49075987E-07