  -16.0000000       0.00000000    
  -15.9899998       0.00000000    
  -15.9799995       0.00000000    
  -15.9700003       0.00000000    
  -15.9600000       0.00000000    
  -15.9499998       0.00000000    
  -15.9399996       0.00000000    
  -15.9300003       0.00000000    
  -15.9200001       0.00000000    
  -15.9099998       0.00000000    
  -15.8999996       0.00000000    
  -15.8900003       0.00000000    
  -15.8800001       0.00000000    
  -15.8699999       8.79679124E-41
  -15.8599997       3.24487055E-39
  -15.8500004       5.64459445E-38
  -15.8400002       6.36679307E-37
  -15.8299999       5.32278069E-36
  -15.8199997       3.54698590E-35
  -15.8100004       1.96967808E-34
  -15.8000002       9.38945582E-34
  -15.7900000       3.92326125E-33
  -15.7799997       1.45882596E-32
  -15.7700005       4.88209987E-32
  -15.7600002       1.48298087E-31
  -15.7500000       4.11461579E-31
  -15.7399998       1.04750370E-30
  -15.7299995       2.45406188E-30
  -15.7200003       5.29766039E-30
  -15.7100000       1.05319637E-29
  -15.6999998       1.92237976E-29
  -15.6899996       3.19948723E-29
  -15.6800003       4.78860152E-29
  -15.6700001       6.26019797E-29
  -15.6599998       6.64862915E-29
  -15.6499996       4.32262668E-29
  -15.6400003      -2.89464111E-29
  -15.6300001      -1.71312901E-28
  -15.6199999      -3.92075137E-28
  -15.6099997      -6.67038133E-28
  -15.6000004      -9.17113106E-28
  -15.5900002      -9.91536143E-28
  -15.5799999      -6.71749342E-28
  -15.5699997       2.84105530E-28
  -15.5600004       2.03582871E-27
  -15.5500002       4.48472779E-27
  -15.5400000       7.04546697E-27
  -15.5299997       8.44341708E-27
  -15.5200005       6.70105985E-27
  -15.5100002      -4.34729670E-28
  -15.5000000      -1.43556753E-26
  -15.4899998      -3.36551636E-26
  -15.4799995      -5.18042861E-26
  -15.4700003      -5.57060661E-26
  -15.4600000      -2.73325513E-26
  -15.4499998       4.90102918E-26
  -15.4399996       1.72550048E-25
  -15.4300003       3.07727638E-25
  -15.4200001       3.70799311E-25
  -15.4099998       2.37211731E-25
  -15.3999996      -2.12470317E-25
  -15.3900003      -9.99923303E-25
  -15.3800001      -1.92781828E-24
  -15.3699999      -2.48857138E-24
  -15.3599997      -1.90031800E-24
  -15.3500004       6.25775943E-25
  -15.3400002       5.34496335E-24
  -15.3299999       1.12748576E-23
  -15.3199997       1.56564261E-23
  -15.3100004       1.41017438E-23
  -15.3000002       1.96197970E-24
  -15.2900000      -2.28891100E-23
  -15.2799997      -5.64253462E-23
  -15.2700005      -8.56010260E-23
  -15.2600002      -8.87235331E-23
  -15.2500000      -4.15248429E-23
  -15.2399998       7.01916632E-23
  -15.2299995       2.33843818E-22
  -15.2200003       3.96259625E-22
  -15.2100000       4.63290108E-22
  -15.1999998       3.23176269E-22
  -15.1899996      -1.02439496E-22
  -15.1800003      -7.89447767E-22
  -15.1700001      -1.55096264E-21
  -15.1599998      -2.02627585E-21
  -15.1499996      -1.75909005E-21
  -15.1400003      -3.81842504E-22
  -15.1300001       2.12545371E-21
  -15.1199999       5.19497576E-21
  -15.1099997       7.59195252E-21
  -15.1000004       7.64134344E-21
  -15.0900002       3.83017178E-21
  -15.0799999      -4.30252058E-21
  -15.0699997      -1.52805333E-20
  -15.0600004      -2.52735036E-20
  -15.0500002      -2.86402498E-20
  -15.0400000      -1.97131486E-20
  -15.0299997       4.36499978E-21
  -15.0200005       4.05777036E-20
  -15.0100002       7.81379622E-20
  -15.0000000       9.93429311E-20
  -14.9899998       8.42709054E-20
  -14.9799995       1.91456300E-20
  -14.9700003      -9.36419700E-20
  -14.9600000      -2.27691338E-19
  -14.9499998      -3.31727421E-19
  -14.9399996      -3.39718218E-19
  -14.9300003      -1.93057919E-19
  -14.9200001       1.28970873E-19
  -14.9099998       5.79711851E-19
  -14.8999996       1.02992579E-18
  -14.8900003       1.28043568E-18
  -14.8800001       1.11092559E-18
  -14.8699999       3.62072671E-19
  -14.8599997      -9.66591979E-19
  -14.8500004      -2.63532278E-18
  -14.8400002      -4.13957285E-18
  -14.8299999      -4.77878577E-18
  -14.8199997      -3.83565925E-18
  -14.8100004      -8.48469863E-19
  -14.8000002       4.08394123E-18
  -14.7900000       1.00646208E-17
  -14.7799997       1.53485877E-17
  -14.7700005       1.75858731E-17
  -14.7600002       1.44025743E-17
  -14.7500000       4.26213000E-18
  -14.7399998      -1.25795328E-17
  -14.7299995      -3.33276131E-17
  -14.7200003      -5.24721889E-17
  -14.7100000      -6.24970621E-17
  -14.6999998      -5.56069255E-17
  -14.6899996      -2.63023798E-17
  -14.6800003       2.57401319E-17
  -14.6700001       9.33456447E-17
  -14.6599998       1.61084941E-16
  -14.6499996       2.06944390E-16
  -14.6400003       2.06759710E-16
  -14.6300001       1.40984968E-16
  -14.6199999       2.46587773E-18
  -14.6099997      -1.96819646E-16
  -14.6000004      -4.22306566E-16
  -14.5900002      -6.18581438E-16
  -14.5799999      -7.17211648E-16
  -14.5699997      -6.50237971E-16
  -14.5600004      -3.67657060E-16
  -14.5500002       1.43718462E-16
  -14.5400000       8.43118120E-16
  -14.5299997       1.62354797E-15
  -14.5200005       2.30846018E-15
  -14.5100002       2.66192004E-15
  -14.5000000       2.41877733E-15
  -14.4899998       1.34106216E-15
  -14.4799995      -6.96314816E-16
  -14.4700003      -3.59700080E-15
  -14.4600000      -6.93386507E-15
  -14.4499998      -9.88153210E-15
  -14.4399996      -1.12496453E-14
  -14.4300003      -9.67781136E-15
  -14.4200001      -4.02598021E-15
  -14.4099998       6.06646310E-15
  -14.3999996       1.95718584E-14
  -14.3900003       3.36337742E-14
  -14.3800001       4.35795876E-14
  -14.3699999       4.36496169E-14
  -14.3599997       2.85679276E-14
  -14.3500004      -4.20330147E-15
  -14.3400002      -5.20480265E-14
  -14.3299999      -1.05486143E-13
  -14.3199997      -1.48216549E-13
  -14.3100004      -1.59776855E-13
  -14.3000002      -1.21101358E-13
  -14.2900000      -2.22348283E-14
  -14.2799997       1.29721253E-13
  -14.2700005       3.05344996E-13
  -14.2600002       4.53510845E-13
  -14.2500000       5.10285390E-13
  -14.2399998       4.16398063E-13
  -14.2299995       1.40464395E-13
  -14.2200003      -2.98129739E-13
  -14.2100000      -8.15220504E-13
  -14.1999998      -1.26536206E-12
  -14.1899996      -1.46850696E-12
  -14.1800003      -1.25928792E-12
  -14.1700001      -5.49982640E-13
  -14.1599998       6.10078448E-13
  -14.1499996       2.00075546E-12
  -14.1400003       3.24403763E-12
  -14.1300001       3.87575996E-12
  -14.1199999       3.47158717E-12
  -14.1099997       1.80278470E-12
  -14.1000004      -1.02153258E-12
  -14.0900002      -4.47785775E-12
  -14.0799999      -7.66467792E-12
  -14.0699997      -9.47515851E-12
  -14.0600004      -8.89096869E-12
  -14.0500002      -5.33809498E-12
  -14.0400000       9.93803781E-13
  -14.0299997       8.98238341E-12
  -14.0200005       1.66518657E-11
  -14.0100002       2.15452170E-11
  -14.0000000       2.13521856E-11
  -13.9899998       1.46652517E-11
  -13.9799995       1.65992220E-12
  -13.9700003      -1.55299645E-11
  -13.9600000      -3.29374722E-11
  -13.9499998      -4.54748322E-11
  -13.9399996      -4.81619640E-11
  -13.9300003      -3.76276024E-11
  -13.9200001      -1.34976605E-11
  -13.9099998       2.07636807E-11
  -13.8999996       5.79338418E-11
  -13.8900003       8.82142900E-11
  -13.8800001       1.01420379E-10
  -13.8699999       8.97655075E-11
  -13.8599997       5.05804114E-11
  -13.8500004      -1.18099272E-11
  -13.8400002      -8.57511007E-11
  -13.8299999      -1.53866239E-10
  -13.8199997      -1.96553968E-10
  -13.8100004      -1.96797717E-10
  -13.8000002      -1.45246828E-10
  -13.7900000      -4.42649910E-11
  -13.7799997       9.03263714E-11
  -13.7700005       2.30697822E-10
  -13.7600002       3.41876250E-10
  -13.7500000       3.89382832E-10
  -13.7399998       3.48195500E-10
  -13.7299995       2.10959292E-10
  -13.7200003      -6.78078730E-12
  -13.7100000      -2.66210332E-10
  -13.6999998      -5.10715303E-10
  -13.6899996      -6.76837253E-10
  -13.6800003      -7.08964554E-10
  -13.6700001      -5.74649106E-10
  -13.6599998      -2.76837664E-10
  -13.6499996       1.40688849E-10
  -13.6400003       5.97185523E-10
  -13.6300001       9.88811921E-10
  -13.6199999       1.21062660E-09
  -13.6099997       1.18249910E-09
  -13.6000004       8.72912742E-10
  -13.5900002       3.14209075E-10
  -13.5799999      -3.96048666E-10
  -13.5699997      -1.11011300E-09
  -13.5600004      -1.66003744E-09
  -13.5500002      -1.89700211E-09
  -13.5400000      -1.73090386E-09
  -13.5299997      -1.15980370E-09
  -13.5200005      -2.80005935E-10
  -13.5100002       7.28428595E-10
  -13.5000000       1.63981984E-09
  -13.4899998       2.23705721E-09
  -13.4799995       2.36867992E-09
  -13.4700003       1.99323891E-09
  -13.4600000       1.19698818E-09
  -13.4499998       1.76948872E-10
  -13.4399996      -8.09241563E-10
  -13.4300003      -1.51539559E-09
  -13.4200001      -1.78127202E-09
  -13.4099998      -1.58680169E-09
  -13.3999996      -1.06654074E-09
  -13.3900003      -4.74635942E-10
  -13.3800001      -1.04680438E-10
  -13.3699999      -1.83971227E-10
  -13.3599997      -7.72917119E-10
  -13.3500004      -1.70407721E-09
  -13.3400002      -2.58874389E-09
  -13.3299999      -2.90295477E-09
  -13.3199997      -2.14189733E-09
  -13.3100004      -8.32871706E-12
  -13.3000002       3.41694406E-09
  -13.2900000       7.57976792E-09
  -13.2799997       1.14793828E-08
  -13.2700005       1.38381075E-08
  -13.2600002       1.33980809E-08
  -13.2500000       9.29002475E-09
  -13.2399998       1.38722067E-09
  -13.2299995      -9.45586365E-09
  -13.2200003      -2.13703810E-08
  -13.2100000      -3.17004805E-08
  -13.1999998      -3.74872293E-08
  -13.1899996      -3.61416248E-08
  -13.1800003      -2.61743338E-08
  -13.1700001      -7.81213316E-09
  -13.1599998       1.66753455E-08
  -13.1499996       4.30773675E-08
  -13.1400003       6.58324950E-08
  -13.1300001       7.90606265E-08
  -13.1199999       7.78734375E-08
  -13.1099997       5.97027068E-08
  -13.1000004       2.53326977E-08
  -13.0900002      -2.06627977E-08
  -13.0799999      -7.02916054E-08
  -13.0699997      -1.13375791E-07
  -13.0600004      -1.39506724E-07
  -13.0500002      -1.40379754E-07
  -13.0400000      -1.12020281E-07
  -13.0299997      -5.63558125E-08
  -13.0200005       1.83453590E-08
  -13.0100002       9.84474724E-08
  -13.0000000       1.67313814E-07
  -12.9899998       2.08711484E-07
  -12.9799995       2.10577724E-07
  -12.9700003       1.68310009E-07
  -12.9600000       8.67122836E-08
  -12.9499998      -2.00337205E-08
  -12.9399996      -1.30620222E-07
  -12.9300003      -2.20808090E-07
  -12.9200001      -2.68777995E-07
  -12.9099998      -2.60468170E-07
  -12.8999996      -1.93600698E-07
  -12.8900003      -7.92796584E-08
  -12.8800001       5.94708318E-08
  -12.8699999       1.92163824E-07
  -12.8599997       2.87480844E-07
  -12.8500004       3.20651793E-07
  -12.8400002       2.79818664E-07
  -12.8299999       1.69754927E-07
  -12.8199997       1.18139365E-08
  -12.8100004      -1.60141312E-07
  -12.8000002      -3.07094552E-07
  -12.7900000      -3.93910227E-07
  -12.7799997      -3.97898106E-07
  -12.7700005      -3.14757045E-07
  -12.7600002      -1.60276244E-07
  -12.7500000       3.28535066E-08
  -12.7399998       2.22540052E-07
  -12.7299995       3.67422842E-07
  -12.7200003       4.37175629E-07
  -12.7100000       4.20369787E-07
  -12.6999998       3.27763189E-07
  -12.6899996       1.89959948E-07
  -12.6800003       4.97337851E-08
  -12.6700001      -4.92716055E-08
  -12.6599998      -7.48175353E-08
  -12.6499996      -1.62346385E-08
  -12.6400003       1.10191401E-07
  -12.6300001       2.62270817E-07
  -12.6199999       3.79566018E-07
  -12.6099997       3.96296514E-07
  -12.6000004       2.56856339E-07
  -12.5900002      -6.93157816E-08
  -12.5799999      -5.76696891E-07
  -12.5699997      -1.21884898E-06
  -12.5600004      -1.91083927E-06
  -12.5500002      -2.53853545E-06
  -12.5400000      -2.97302017E-06
  -12.5299997      -3.08765857E-06
  -12.5200005      -2.77503727E-06
  -12.5100002      -1.96161591E-06
  -12.5000000      -6.18595550E-07
  -12.4899998       1.23127688E-06
  -12.4799995       3.51041081E-06
  -12.4700003       6.08559139E-06
  -12.4600000       8.76856484E-06
  -12.4499998       1.13173583E-05
  -12.4399996       1.34385173E-05
  -12.4300003       1.47909668E-05
  -12.4200001       1.49928765E-05
  -12.4099998       1.36330091E-05
  -12.3999996       1.02875774E-05
  -12.3900003       4.54280644E-06
  -12.3800001      -3.97736585E-06
  -12.3699999      -1.55802609E-05
  -12.3599997      -3.04723289E-05
  -12.3500004      -4.87289508E-05
  -12.3400002      -7.02682955E-05
  -12.3299999      -9.48322995E-05
  -12.3199997      -1.21975223E-04
  -12.3100004      -1.51062253E-04
  -12.3000002      -1.81276919E-04
  -12.2900000      -2.11639766E-04
  -12.2799997      -2.41035494E-04
  -12.2700005      -2.68250180E-04
  -12.2600002      -2.92014738E-04
  -12.2500000      -3.11058335E-04
  -12.2399998      -3.24160326E-04
  -12.2299995      -3.30206676E-04
  -12.2200003      -3.28240421E-04
  -12.2100000      -3.17506812E-04
  -12.1999998      -2.97485705E-04
  -12.1899996      -2.67910655E-04
  -12.1800003      -2.28781253E-04
  -12.1700001      -1.80354502E-04
  -12.1599998      -1.23134319E-04
  -12.1499996      -5.78515974E-05
  -12.1400003       1.45606691E-05
  -12.1300001       9.29918533E-05
  -12.1199999       1.76186848E-04
  -12.1099997       2.62772141E-04
  -12.1000004       3.51302762E-04
  -12.0900002       4.40303120E-04
  -12.0799999       5.28322707E-04
  -12.0699997       6.13992685E-04
  -12.0600004       6.96083822E-04
  -12.0500002       7.73555599E-04
  -12.0400000       8.45586357E-04
  -12.0299997       9.11584299E-04
  -12.0200005       9.71169095E-04
  -12.0100002       1.02412747E-03
  -12.0000000       1.07034761E-03
  -11.9899998       1.10973732E-03
  -11.9799995       1.14214898E-03
  -11.9700003       1.16730435E-03
  -11.9600000       1.18475396E-03
  -11.9499998       1.19384390E-03
  -11.9399996       1.19372969E-03
  -11.9300003       1.18340435E-03
  -11.9200001       1.16175087E-03
  -11.9099998       1.12760754E-03
  -11.8999996       1.07983907E-03
  -11.8900003       1.01742044E-03
  -11.8800001       9.39506048E-04
  -11.8699999       8.45499686E-04
  -11.8599997       7.35126319E-04
  -11.8500004       6.08469418E-04
  -11.8400002       4.66008671E-04
  -11.8299999       3.08609480E-04
  -11.8199997       1.37494775E-04
  -11.8100004      -4.58300929E-05
  -11.8000002      -2.39675486E-04
  -11.7900000      -4.42269462E-04
  -11.7799997      -6.51878596E-04
  -11.7700005      -8.66882037E-04
  -11.7600002      -1.08580559E-03
  -11.7500000      -1.30730181E-03
  -11.7399998      -1.53007440E-03
  -11.7299995      -1.75276748E-03
  -11.7200003      -1.97383971E-03
  -11.7100000      -2.19147000E-03
  -11.6999998      -2.40350259E-03
  -11.6899996      -2.60748249E-03
  -11.6800003      -2.80075427E-03
  -11.6700001      -2.98062875E-03
  -11.6599998      -3.14457668E-03
  -11.6499996      -3.29041341E-03
  -11.6400003      -3.41641833E-03
  -11.6300001      -3.52138677E-03
  -11.6199999      -3.60456901E-03
  -11.6099997      -3.66553967E-03
  -11.6000004      -3.70401260E-03
  -11.5900002      -3.71965813E-03
  -11.5799999      -3.71193653E-03
  -11.5699997      -3.68003664E-03
  -11.5600004      -3.62287275E-03
  -11.5500002      -3.53918620E-03
  -11.5400000      -3.42769292E-03
  -11.5299997      -3.28724040E-03
  -11.5200005      -3.11695365E-03
  -11.5100002      -2.91630602E-03
  -11.5000000      -2.68513872E-03
  -11.4899998      -2.42360053E-03
  -11.4799995      -2.13205488E-03
  -11.4700003      -1.81095966E-03
  -11.4600000      -1.46077201E-03
  -11.4499998      -1.08189625E-03
  -11.4399996      -6.74672076E-04
  -11.4300003      -2.39408633E-04
  -11.4200001       2.23546464E-04
  -11.4099998       7.13748799E-04
  -11.3999996       1.23058830E-03
  -11.3900003       1.77325110E-03
  -11.3800001       2.34072120E-03
  -11.3699999       2.93176784E-03
  -11.3599997       3.54498159E-03
  -11.3500004       4.17878805E-03
  -11.3400002       4.83147660E-03
  -11.3299999       5.50121721E-03
  -11.3199997       6.18607085E-03
  -11.3100004       6.88401004E-03
  -11.3000002       7.59292766E-03
  -11.2900000       8.31066351E-03
  -11.2799997       9.03498940E-03
  -11.2700005       9.76361055E-03
  -11.2600002       1.04941372E-02
  -11.2500000       1.12240948E-02
  -11.2399998       1.19509026E-02
  -11.2299995       1.26719326E-02
  -11.2200003       1.33845918E-02
  -11.2100000       1.40864430E-02
  -11.1999998       1.47753786E-02
  -11.1899996       1.54497772E-02
  -11.1800003       1.61086116E-02
  -11.1700001       1.67514663E-02
  -11.1599998       1.73785090E-02
  -11.1499996       1.79902595E-02
  -11.1400003       1.85873713E-02
  -11.1300001       1.91703588E-02
  -11.1199999       1.97393503E-02
  -11.1099997       2.02939752E-02
  -11.1000004       2.08333414E-02
  -11.0900002       2.13561896E-02
  -11.0799999       2.18610875E-02
  -11.0699997       2.23467480E-02
  -11.0600004       2.28122752E-02
  -11.0500002       2.32573524E-02
  -11.0400000       2.36823149E-02
  -11.0299997       2.40881760E-02
  -11.0200005       2.44765244E-02
  -11.0100002       2.48494446E-02
  -11.0000000       2.52094064E-02
  -10.9899998       2.55591758E-02
  -10.9799995       2.59017367E-02
  -10.9700003       2.62402035E-02
  -10.9600000       2.65775677E-02
  -10.9499998       2.69164760E-02
  -10.9399996       2.72588376E-02
  -10.9300003       2.76054945E-02
  -10.9200001       2.79559102E-02
  -10.9099998       2.83081178E-02
  -10.8999996       2.86588371E-02
  -10.8900003       2.90040262E-02
  -10.8800001       2.93394532E-02
  -10.8699999       2.96615381E-02
  -10.8599997       2.99680438E-02
  -10.8500004       3.02584469E-02
  -10.8400002       3.05340253E-02
  -10.8299999       3.07974499E-02
  -10.8199997       3.10520735E-02
  -10.8100004       3.13010141E-02
  -10.8000002       3.15463357E-02
  -10.7900000       3.17884237E-02
  -10.7799997       3.20258625E-02
  -10.7700005       3.22557278E-02
  -10.7600002       3.24742198E-02
  -10.7500000       3.26775275E-02
  -10.7399998       3.28626893E-02
  -10.7299995       3.30281071E-02
  -10.7200003       3.31738256E-02
  -10.7100000       3.33011635E-02
  -10.6999998       3.34122665E-02
  -10.6899996       3.35093252E-02
  -10.6800003       3.35939229E-02
  -10.6700001       3.36665511E-02
  -10.6599998       3.37265246E-02
  -10.6499996       3.37721519E-02
  -10.6400003       3.38011533E-02
  -10.6300001       3.38112563E-02
  -10.6199999       3.38006914E-02
  -10.6099997       3.37685347E-02
  -10.6000004       3.37148942E-02
  -10.5900002       3.36409211E-02
  -10.5799999       3.35485488E-02
  -10.5699997       3.34403776E-02
  -10.5600004       3.33193541E-02
  -10.5500002       3.31885703E-02
  -10.5400000       3.30510996E-02
  -10.5299997       3.29097472E-02
  -10.5200005       3.27669531E-02
  -10.5100002       3.26245055E-02
  -10.5000000       3.24834958E-02
  -10.4899998       3.23442258E-02
  -10.4799995       3.22063491E-02
  -10.4700003       3.20690870E-02
  -10.4600000       3.19315754E-02
  -10.4499998       3.17931846E-02
  -10.4399996       3.16538587E-02
  -10.4300003       3.15142162E-02
  -10.4200001       3.13753337E-02
  -10.4099998       3.12386341E-02
  -10.3999996       3.11054625E-02
  -10.3900003       3.09767593E-02
  -10.3800001       3.08529772E-02
  -10.3699999       3.07341907E-02
  -10.3599997       3.06203961E-02
  -10.3500004       3.05119846E-02
  -10.3400002       3.04100588E-02
  -10.3299999       3.03166453E-02
  -10.3199997       3.02344710E-02
  -10.3100004       3.01665198E-02
  -10.3000002       3.01152971E-02
  -10.2900000       3.00821196E-02
  -10.2799997       3.00666690E-02
  -10.2700005       3.00669149E-02
  -10.2600002       3.00794449E-02
  -10.2500000       3.01004015E-02
  -10.2399998       3.01263742E-02
  -10.2299995       3.01553421E-02
  -10.2200003       3.01873386E-02
  -10.2100000       3.02245710E-02
  -10.1999998       3.02709360E-02
  -10.1899996       3.03313266E-02
  -10.1800003       3.04105487E-02
  -10.1700001       3.05125695E-02
  -10.1599998       3.06398906E-02
  -10.1499996       3.07934303E-02
  -10.1400003       3.09727993E-02
  -10.1300001       3.11768260E-02
  -10.1199999       3.14041860E-02
  -10.1099997       3.16538289E-02
  -10.1000004       3.19252312E-02
  -10.0900002       3.22185233E-02
  -10.0799999       3.25341709E-02
  -10.0699997       3.28731425E-02
  -10.0600004       3.32364738E-02
  -10.0500002       3.36257368E-02
  -10.0400000       3.40428166E-02
  -10.0299997       3.44901271E-02
  -10.0200005       3.49706411E-02
  -10.0100002       3.54873724E-02
  -10.0000000       3.60428691E-02
  -9.98999977       3.66385952E-02
  -9.97999954       3.72745655E-02
  -9.97000027       3.79491560E-02
  -9.96000004       3.86593826E-02
  -9.94999981       3.94020081E-02
  -9.93999958       4.01744545E-02
  -9.93000031       4.09759432E-02
  -9.92000008       4.18080837E-02
  -9.90999985       4.26750854E-02
  -9.89999962       4.35824282E-02
  -9.89000034       4.45359834E-02
  -9.88000011       4.55400199E-02
  -9.86999989       4.65957150E-02
  -9.85999966       4.77008186E-02
  -9.85000038       4.88494225E-02
  -9.84000015       5.00337072E-02
  -9.82999992       5.12455404E-02
  -9.81999969       5.24788462E-02
  -9.81000042       5.37312366E-02
  -9.80000019       5.50046787E-02
  -9.78999996       5.63052371E-02
  -9.77999973       5.76416403E-02
  -9.77000046       5.90229481E-02
  -9.76000023       6.04565926E-02
  -9.75000000       6.19468540E-02
  -9.73999977       6.34942725E-02
  -9.72999954       6.50963783E-02
  -9.72000027       6.67491481E-02
  -9.71000004       6.84489608E-02
  -9.69999981       7.01943338E-02
  -9.68999958       7.19866380E-02
  -9.68000031       7.38300234E-02
  -9.67000008       7.57302716E-02
  -9.65999985       7.76928812E-02
  -9.64999962       7.97212496E-02
  -9.64000034       8.18156525E-02
  -9.63000011       8.39726403E-02
  -9.61999989       8.61859843E-02
  -9.60999966       8.84475634E-02
  -9.60000038       9.07492638E-02
  -9.59000015       9.30837020E-02
  -9.57999992       9.54447985E-02
  -9.56999969       9.78270769E-02
  -9.56000042      0.100224659    
  -9.55000019      0.102629676    
  -9.53999996      0.105031654    
  -9.52999973      0.107417151    
  -9.52000046      0.109770969    
  -9.51000023      0.112077788    
  -9.50000000      0.114323631    
  -9.48999977      0.116497777    
  -9.47999954      0.118592925    
  -9.47000027      0.120604560    
  -9.46000004      0.122529499    
  -9.44999981      0.124363929    
  -9.43999958      0.126102164    
  -9.43000031      0.127735749    
  -9.42000008      0.129254684    
  -9.40999985      0.130649447    
  -9.39999962      0.131913558    
  -9.39000034      0.133046016    
  -9.38000011      0.134052441    
  -9.36999989      0.134945244    
  -9.35999966      0.135741994    
  -9.35000038      0.136462048    
  -9.34000015      0.137124479    
  -9.32999992      0.137745872    
  -9.31999969      0.138339624    
  -9.31000042      0.138917357    
  -9.30000019      0.139490649    
  -9.28999996      0.140074059    
  -9.27999973      0.140686497    
  -9.27000046      0.141351894    
  -9.26000023      0.142097279    
  -9.25000000      0.142950743    
  -9.23999977      0.143937558    
  -9.22999954      0.145077676    
  -9.22000027      0.146384746    
  -9.21000004      0.147865981    
  -9.19999981      0.149525464    
  -9.18999958      0.151365936    
  -9.18000031      0.153392553    
  -9.17000008      0.155613258    
  -9.15999985      0.158038452    
  -9.14999962      0.160678774    
  -9.14000034      0.163541153    
  -9.13000011      0.166626647    
  -9.11999989      0.169928595    
  -9.10999966      0.173432812    
  -9.10000038      0.177120879    
  -9.09000015      0.180972904    
  -9.07999992      0.184972733    
  -9.06999969      0.189109027    
  -9.06000042      0.193375826    
  -9.05000019      0.197770417    
  -9.03999996      0.202288866    
  -9.02999973      0.206922561    
  -9.02000046      0.211654633    
  -9.01000023      0.216459647    
  -9.00000000      0.221305594    
  -8.98999977      0.226157770    
  -8.97999954      0.230983078    
  -8.97000027      0.235755041    
  -8.96000004      0.240454599    
  -8.94999981      0.245069861    
  -8.93999958      0.249593168    
  -8.93000031      0.254016757    
  -8.92000008      0.258329391    
  -8.90999985      0.262514412    
  -8.89999962      0.266550153    
  -8.89000034      0.270412624    
  -8.88000011      0.274079680    
  -8.86999989      0.277534068    
  -8.85999966      0.280765563    
  -8.85000038      0.283770710    
  -8.84000015      0.286549479    
  -8.82999992      0.289101630    
  -8.81999969      0.291423291    
  -8.81000042      0.293505013    
  -8.80000019      0.295332223    
  -8.78999996      0.296888739    
  -8.77999973      0.298160911    
  -8.77000046      0.299141973    
  -8.76000023      0.299835175    
  -8.75000000      0.300252944    
  -8.73999977      0.300414860    
  -8.72999954      0.300342441    
  -8.72000027      0.300054699    
  -8.71000004      0.299563915    
  -8.69999981      0.298876196    
  -8.68999958      0.297992766    
  -8.68000031      0.296913922    
  -8.67000008      0.295645207    
  -8.65999985      0.294199437    
  -8.64999962      0.292599320    
  -8.64000034      0.290874898    
  -8.63000011      0.289059311    
  -8.61999989      0.287183642    
  -8.60999966      0.285272539    
  -8.60000038      0.283341289    
  -8.59000015      0.281396687    
  -8.57999992      0.279441148    
  -8.56999969      0.277476370    
  -8.56000042      0.275508374    
  -8.55000019      0.273550808    
  -8.53999996      0.271622777    
  -8.52999973      0.269749641    
  -8.52000046      0.267956197    
  -8.51000023      0.266262650    
  -8.50000000      0.264682859    
  -8.48999977      0.263222367    
  -8.47999954      0.261880726    
  -8.47000027      0.260654062    
  -8.46000004      0.259541005    
  -8.44999981      0.258543283    
  -8.43999958      0.257667750    
  -8.43000031      0.256925315    
  -8.42000008      0.256326973    
  -8.40999985      0.255880117    
  -8.39999962      0.255587429    
  -8.39000034      0.255443096    
  -8.38000011      0.255436420    
  -8.36999989      0.255552500    
  -8.35999966      0.255778253    
  -8.35000038      0.256104082    
  -8.34000015      0.256526232    
  -8.32999992      0.257047266    
  -8.31999969      0.257673442    
  -8.31000042      0.258412540    
  -8.30000019      0.259270638    
  -8.28999996      0.260249704    
  -8.27999973      0.261348546    
  -8.27000046      0.262562186    
  -8.26000023      0.263884813    
  -8.25000000      0.265313208    
  -8.23999977      0.266845763    
  -8.22999954      0.268486142    
  -8.22000027      0.270239830    
  -8.21000004      0.272114515    
  -8.19999981      0.274116606    
  -8.18999958      0.276250273    
  -8.18000031      0.278517067    
  -8.17000008      0.280916005    
  -8.15999985      0.283446223    
  -8.14999962      0.286106646    
  -8.14000034      0.288899481    
  -8.13000011      0.291830659    
  -8.11999989      0.294909418    
  -8.10999966      0.298146874    
  -8.10000038      0.301556736    
  -8.09000015      0.305150896    
  -8.07999992      0.308941007    
  -8.06999969      0.312934548    
  -8.06000042      0.317138135    
  -8.05000019      0.321554899    
  -8.03999996      0.326188624    
  -8.02999973      0.331043482    
  -8.02000046      0.336122334    
  -8.01000023      0.341431111    
  -8.00000000      0.346976370    
  -7.98999977      0.352765292    
  -7.98000002      0.358803093    
  -7.96999979      0.365095168    
  -7.96000004      0.371644288    
  -7.94999981      0.378450036    
  -7.94000006      0.385510713    
  -7.92999983      0.392821521    
  -7.92000008      0.400378525    
  -7.90999985      0.408177495    
  -7.90000010      0.416214705    
  -7.88999987      0.424488783    
  -7.88000011      0.432997942    
  -7.86999989      0.441741467    
  -7.86000013      0.450716764    
  -7.84999990      0.459915549    
  -7.84000015      0.469327271    
  -7.82999992      0.478935450    
  -7.82000017      0.488720357    
  -7.80999994      0.498659670    
  -7.80000019      0.508731365    
  -7.78999996      0.518915772    
  -7.78000021      0.529197156    
  -7.76999998      0.539561570    
  -7.76000023      0.549999714    
  -7.75000000      0.560502052    
  -7.73999977      0.571058512    
  -7.73000002      0.581654906    
  -7.71999979      0.592275560    
  -7.71000004      0.602902234    
  -7.69999981      0.613515556    
  -7.69000006      0.624100149    
  -7.67999983      0.634640455    
  -7.67000008      0.645129979    
  -7.65999985      0.655563474    
  -7.65000010      0.665940583    
  -7.63999987      0.676261425    
  -7.63000011      0.686525583    
  -7.61999989      0.696729362    
  -7.61000013      0.706869960    
  -7.59999990      0.716941893    
  -7.59000015      0.726943433    
  -7.57999992      0.736875057    
  -7.57000017      0.746743202    
  -7.55999994      0.756559908    
  -7.55000019      0.766339421    
  -7.53999996      0.776098788    
  -7.53000021      0.785851479    
  -7.51999998      0.795606613    
  -7.51000023      0.805370152    
  -7.50000000      0.815141857    
  -7.48999977      0.824920118    
  -7.48000002      0.834704101    
  -7.46999979      0.844496012    
  -7.46000004      0.854301274    
  -7.44999981      0.864131391    
  -7.44000006      0.873998225    