  -16.0000000       0.00000000    
  -15.9899998       0.00000000    
  -15.9799995       0.00000000    
  -15.9700003       0.00000000    
  -15.9600000       0.00000000    
  -15.9499998       0.00000000    
  -15.9399996       0.00000000    
  -15.9300003       0.00000000    
  -15.9200001       0.00000000    
  -15.9099998       0.00000000    
  -15.8999996       0.00000000    
  -15.8900003       0.00000000    
  -15.8800001      -1.69635587E-39
  -15.8699999      -4.59805571E-38
  -15.8599997      -6.38236340E-37
  -15.8500004      -5.96402994E-36
  -15.8400002      -4.17538836E-35
  -15.8299999      -2.31567198E-34
  -15.8199997      -1.05107029E-33
  -15.8100004      -3.97813553E-33
  -15.8000002      -1.26479945E-32
  -15.7900000      -3.35675754E-32
  -15.7799997      -7.20144750E-32
  -15.7700005      -1.11633348E-31
  -15.7600002      -5.73643535E-32
  -15.7500000       3.78393700E-31
  -15.7399998       1.83254679E-30
  -15.7299995       5.37884887E-30
  -15.7200003       1.22686635E-29
  -15.7100000       2.29034734E-29
  -15.6999998       3.47289134E-29
  -15.6899996       3.94320494E-29
  -15.6800003       2.12337297E-29
  -15.6700001      -4.03640340E-29
  -15.6599998      -1.59974253E-28
  -15.6499996      -3.28393396E-28
  -15.6400003      -4.96992048E-28
  -15.6300001      -5.84855091E-28
  -15.6199999      -5.30204325E-28
  -15.6099997      -3.82128479E-28
  -15.6000004      -3.66370568E-28
  -15.5900002      -7.79543978E-28
  -15.5799999      -1.54078411E-27
  -15.5699997      -1.37511177E-27
  -15.5600004       2.98457184E-27
  -15.5500002       1.65661869E-26
  -15.5400000       4.34124146E-26
  -15.5299997       8.02085480E-26
  -15.5200005       1.07187462E-25
  -15.5100002       8.11134639E-26
  -15.5000000      -6.02462195E-26
  -15.4899998      -3.70629434E-25
  -15.4799995      -8.38304340E-25
  -15.4700003      -1.30938910E-24
  -15.4600000      -1.42799976E-24
  -15.4499998      -6.57735755E-25
  -15.4399996       1.54088191E-24
  -15.4300003       5.33435159E-24
  -15.4200001       9.99006745E-24
  -15.4099998       1.33931164E-23
  -15.3999996       1.19537347E-23
  -15.3900003       1.33768080E-24
  -15.3800001      -2.16349616E-23
  -15.3699999      -5.59205320E-23
  -15.3599997      -9.26396595E-23
  -15.3500004      -1.12398290E-22
  -15.3400002      -8.58894588E-23
  -15.3299999       1.93444503E-23
  -15.3199997       2.23496588E-22
  -15.3100004       5.10049946E-22
  -15.3000002       7.96641775E-22
  -15.2900000       9.13286762E-22
  -15.2799997       6.09507459E-22
  -15.2700005      -3.81053795E-22
  -15.2600002      -2.19366865E-21
  -15.2500000      -4.60383082E-21
  -15.2399998      -6.77346215E-21
  -15.2299995      -7.11147206E-21
  -15.2200003      -3.46952426E-21
  -15.2100000       6.08647653E-21
  -15.1999998       2.18144378E-20
  -15.1899996       4.03711540E-20
  -15.1800003       5.32036237E-20
  -15.1700001       4.66357030E-20
  -15.1599998       5.31686131E-21
  -15.1499996      -7.98311621E-20
  -15.1400003      -1.99833343E-19
  -15.1300001      -3.15810372E-19
  -15.1199999      -3.54433089E-19
  -15.1099997      -2.20325114E-19
  -15.1000004       1.66683201E-19
  -15.0900002       8.09768667E-19
  -15.0799999       1.56439179E-18
  -15.0699997       2.09321611E-18
  -15.0600004       1.89552801E-18
  -15.0500002       4.57055907E-19
  -15.0400000      -2.46653782E-18
  -15.0299997      -6.48613122E-18
  -15.0200005      -1.02786662E-17
  -15.0100002      -1.15705412E-17
  -15.0000000      -7.63811795E-18
  -14.9899998       3.55109919E-18
  -14.9799995       2.16949837E-17
  -14.9700003       4.25298915E-17
  -14.9600000       5.71149155E-17
  -14.9499998       5.30832901E-17
  -14.9399996       1.86241022E-17
  -14.9300003      -5.09505869E-17
  -14.9200001      -1.45663210E-16
  -14.9099998      -2.35589006E-16
  -14.8999996      -2.72117513E-16
  -14.8900003      -1.99571127E-16
  -14.8800001       2.17384901E-17
  -14.8699999       3.85008529E-16
  -14.8599997       8.09322829E-16
  -14.8500004       1.13044541E-15
  -14.8400002       1.12633687E-15
  -14.8299999       5.86922893E-16
  -14.8199997      -5.77963985E-16
  -14.8100004      -2.22068703E-15
  -14.8000002      -3.87800144E-15
  -14.7900000      -4.79425222E-15
  -14.7799997      -4.09479740E-15
  -14.7700005      -1.11727066E-15
  -14.7600002       4.16068725E-15
  -14.7500000       1.07379959E-14
  -14.7399998       1.64507774E-14
  -14.7299995       1.82768263E-14
  -14.7200003       1.31930650E-14
  -14.7100000      -4.93562022E-16
  -14.6999998      -2.16747295E-14
  -14.6899996      -4.54005018E-14
  -14.6800003      -6.29519155E-14
  -14.6700001      -6.35755825E-14
  -14.6599998      -3.79904882E-14
  -14.6499996       1.69294442E-14
  -14.6400003       9.36938989E-14
  -14.6300001       1.71947837E-13
  -14.6199999       2.20466589E-13
  -14.6099997       2.04624403E-13
  -14.6000004       9.88744880E-14
  -14.5900002      -9.85109753E-14
  -14.5799999      -3.53399927E-13
  -14.5699997      -5.92590050E-13
  -14.5600004      -7.14760336E-13
  -14.5500002      -6.17595059E-13
  -14.5400000      -2.37501967E-13
  -14.5299997       4.08227136E-13
  -14.5200005       1.19231513E-12
  -14.5100002       1.87843231E-12
  -14.5000000       2.16454849E-12
  -14.4899998       1.76977172E-12
  -14.4799995       5.49394948E-13
  -14.4700003      -1.39414565E-12
  -14.4600000      -3.64803803E-12
  -14.4499998      -5.51640591E-12
  -14.4399996      -6.16353366E-12
  -14.4300003      -4.86476874E-12
  -14.4200001      -1.31360764E-12
  -14.4099998       4.10654497E-12
  -14.3999996       1.01983899E-11
  -14.3900003       1.50738467E-11
  -14.3800001       1.65695756E-11
  -14.3699999       1.29105511E-11
  -14.3599997       3.47268850E-12
  -14.3500004      -1.05913507E-11
  -14.3400002      -2.61306862E-11
  -14.3299999      -3.83936008E-11
  -14.3199997      -4.21118244E-11
  -14.3100004      -3.31220711E-11
  -14.3000002      -1.01406218E-11
  -14.2900000       2.38679441E-11
  -14.2799997       6.13214132E-11
  -14.2700005       9.10847786E-11
  -14.2600002       1.01048427E-10
  -14.2500000       8.18114118E-11
  -14.2399998       3.05707994E-11
  -14.2299995      -4.60101506E-11
  -14.2200003      -1.31191474E-10
  -14.2100000      -2.00639505E-10
  -14.1999998      -2.28052924E-10
  -14.1899996      -1.92967947E-10
  -14.1800003      -8.88139978E-11
  -14.1700001       7.12917295E-11
  -14.1599998       2.53441351E-10
  -14.1499996       4.08067025E-10
  -14.1400003       4.81247209E-10
  -14.1300001       4.30163044E-10
  -14.1199999       2.38891323E-10
  -14.1099997      -7.02787273E-11
  -14.1000004      -4.34527608E-10
  -14.0900002      -7.59944718E-10
  -14.0799999      -9.42469769E-10
  -14.0699997      -8.96504315E-10
  -14.0600004      -5.84211013E-10
  -14.0500002      -3.68587071E-11
  -14.0400000       6.39787612E-10
  -14.0299997       1.28084587E-09
  -14.0200005       1.69801961E-09
  -14.0100002       1.72906001E-09
  -14.0000000       1.28914401E-09
  -13.9899998       4.09591860E-10
  -13.9799995      -7.49548812E-10
  -13.9700003      -1.92128047E-09
  -13.9600000      -2.78749179E-09
  -13.9499998      -3.05870307E-09
  -13.9399996      -2.55907850E-09
  -13.9300003      -1.29360511E-09
  -13.9200001       5.24185140E-10
  -13.9099998       2.49773890E-09
  -13.8999996       4.12713996E-09
  -13.8900003       4.92882002E-09
  -13.8800001       4.56816185E-09
  -13.8699999       2.97051894E-09
  -13.8599997       3.77493758E-10
  -13.8500004      -2.67405720E-09
  -13.8400002      -5.45470735E-09
  -13.8299999      -7.20967241E-09
  -13.8199997      -7.35390460E-09
  -13.8100004      -5.64654989E-09
  -13.8000002      -2.29606800E-09
  -13.7900000       2.03990624E-09
  -13.7799997       6.37205355E-09
  -13.7700005       9.59674917E-09
  -13.7600002       1.07677494E-08
  -13.7500000       9.35745437E-09
  -13.7399998       5.43882805E-09
  -13.7299995      -2.67604383E-10
  -13.7200003      -6.50819665E-09
  -13.7100000      -1.17596262E-08
  -13.6999998      -1.45892782E-08
  -13.6899996      -1.40302907E-08
  -13.6800003      -9.87667281E-09
  -13.6700001      -2.81482015E-09
  -13.6599998       5.65918024E-09
  -13.6499996       1.35373837E-08
  -13.6400003       1.87591809E-08
  -13.6300001       1.97312069E-08
  -13.6199999       1.57815574E-08
  -13.6099997       7.42532658E-09
  -13.6000004      -3.64591446E-09
  -13.5900002      -1.48767061E-08
  -13.5799999      -2.34136905E-08
  -13.5699997      -2.68061147E-08
  -13.5600004      -2.36749393E-08
  -13.5500002      -1.41751277E-08
  -13.5400000      -1.10579025E-10
  -13.5299997       1.53640087E-08
  -13.5200005       2.84199384E-08
  -13.5100002       3.54738141E-08
  -13.5000000       3.41359367E-08
  -13.4899998       2.39445175E-08
  -13.4799995       6.67318423E-09
  -13.4700003      -1.39111958E-08
  -13.4600000      -3.28321867E-08
  -13.4499998      -4.50780959E-08
  -13.4399996      -4.68985419E-08
  -13.4300003      -3.68960613E-08
  -13.4200001      -1.66073253E-08
  -13.4099998       9.62735580E-09
  -13.3999996       3.55395002E-08
  -13.3900003       5.43935421E-08
  -13.3800001       6.07047070E-08
  -13.3699999       5.17863974E-08
  -13.3599997       2.87045658E-08
  -13.3500004      -3.66627217E-09
  -13.3400002      -3.75830425E-08
  -13.3299999      -6.42143050E-08
  -13.3199997      -7.58702825E-08
  -13.3100004      -6.81379575E-08
  -13.3000002      -4.13518109E-08
  -13.2900000      -9.52506851E-10
  -13.2799997       4.34647589E-08
  -13.2700005       8.02867106E-08
  -13.2600002       9.87567432E-08
  -13.2500000       9.19087171E-08
  -13.2399998       5.88002074E-08
  -13.2299995       5.39587042E-09
  -13.2200003      -5.62626923E-08
  -13.2100000      -1.10557295E-07
  -13.1999998      -1.41987172E-07
  -13.1899996      -1.39227680E-07
  -13.1800003      -9.85486182E-08
  -13.1700001      -2.56508912E-08
  -13.1599998       6.47131984E-08
  -13.1499996       1.51472094E-07
  -13.1400003       2.11874990E-07
  -13.1300001       2.27067432E-07
  -13.1199999       1.87295910E-07
  -13.1099997       9.53930410E-08
  -13.1000004      -3.25102469E-08
  -13.0900002      -1.69513797E-07
  -13.0799999      -2.83421997E-07
  -13.0699997      -3.44101863E-07
  -13.0600004      -3.31086227E-07
  -13.0500002      -2.39560649E-07
  -13.0400000      -8.30907751E-08
  -13.0299997       1.07900419E-07
  -13.0200005       2.91931997E-07
  -13.0100002       4.25506755E-07
  -13.0000000       4.73455458E-07
  -12.9899998       4.18143998E-07
  -12.9799995       2.65168353E-07
  -12.9700003       4.38273915E-08
  -12.9600000      -1.98179748E-07
  -12.9499998      -4.04992818E-07
  -12.9399996      -5.25625865E-07
  -12.9300003      -5.26786494E-07
  -12.9200001      -4.02282922E-07
  -12.9099998      -1.76423555E-07
  -12.8999996       9.98814969E-08
  -12.8900003       3.59885661E-07
  -12.8800001       5.36462153E-07
  -12.8699999       5.78751553E-07
  -12.8599997       4.65962017E-07
  -12.8500004       2.14714063E-07
  -12.8400002      -1.22315512E-07
  -12.8299999      -4.66691006E-07
  -12.8199997      -7.31505281E-07
  -12.8100004      -8.41868996E-07
  -12.8000002      -7.53810355E-07
  -12.7900000      -4.66910933E-07
  -12.7799997      -2.72881149E-08
  -12.7700005       4.80297786E-07
  -12.7600002       9.49848925E-07
  -12.7500000       1.27732744E-06
  -12.7399998       1.38436860E-06
  -12.7299995       1.23689620E-06
  -12.7200003       8.54055202E-07
  -12.7100000       3.05039265E-07
  -12.6999998      -3.05762853E-07
  -12.6899996      -8.62058926E-07
  -12.6800003      -1.26200791E-06
  -12.6700001      -1.44138414E-06
  -12.6599998      -1.38789972E-06
  -12.6499996      -1.14304839E-06
  -12.6400003      -7.90769661E-07
  -12.6300001      -4.35437613E-07
  -12.6199999      -1.74347733E-07
  -12.6099997      -7.13743518E-08
  -12.6000004      -1.38378752E-07
  -12.5900002      -3.29264083E-07
  -12.5799999      -5.48653475E-07
  -12.5699997      -6.73692341E-07
  -12.5600004      -5.84264342E-07
  -12.5500002      -1.94747415E-07
  -12.5400000       5.20157585E-07
  -12.5299997       1.51180438E-06
  -12.5200005       2.65979747E-06
  -12.5100002       3.79002245E-06
  -12.5000000       4.70488158E-06
  -12.4899998       5.21925176E-06
  -12.4799995       5.19429295E-06
  -12.4700003       4.56167936E-06
  -12.4600000       3.33299499E-06
  -12.4499998       1.59243405E-06
  -12.4399996      -5.25180496E-07
  -12.4300003      -2.86565160E-06
  -12.4200001      -5.28837791E-06
  -12.4099998      -7.69307462E-06
  -12.3999996      -1.00337975E-05
  -12.3900003      -1.23168902E-05
  -12.3800001      -1.45833437E-05
  -12.3699999      -1.68799506E-05
  -12.3599997      -1.92265634E-05
  -12.3500004      -2.15879991E-05
  -12.3400002      -2.38584071E-05
  -12.3299999      -2.58632226E-05
  -12.3199997      -2.73799178E-05
  -12.3100004      -2.81741559E-05
  -12.3000002      -2.80440909E-05
  -12.2900000      -2.68631538E-05
  -12.2799997      -2.46111995E-05
  -12.2700005      -2.13860512E-05
  -12.2600002      -1.73914523E-05
  -12.2500000      -1.29025466E-05
  -12.2399998      -8.21541198E-06
  -12.2299995      -3.59110891E-06
  -12.2200003       7.93350011E-07
  -12.2100000       4.87562465E-06
  -12.1999998       8.71242628E-06
  -12.1899996       1.24555736E-05
  -12.1800003       1.63040640E-05
  -12.1700001       2.04425469E-05
  -12.1599998       2.49801287E-05
  -12.1499996       2.99043058E-05
  -12.1400003       3.50617120E-05
  -12.1300001       4.01717225E-05
  -12.1199999       4.48714527E-05
  -12.1099997       4.87829529E-05
  -12.1000004       5.15880129E-05
  -12.0900002       5.30935031E-05
  -12.0799999       5.32716876E-05
  -12.0699997       5.22657101E-05
  -12.0600004       5.03581359E-05
  -12.0500002       4.79092232E-05
  -12.0400000       4.52789027E-05
  -12.0299997       4.27504747E-05
  -12.0200005       4.04737912E-05
  -12.0100002       3.84410341E-05
  -12.0000000       3.65006708E-05
  -11.9899998       3.44057335E-05
  -11.9799995       3.18844104E-05
  -11.9700003       2.87156163E-05
  -11.9600000       2.47910211E-05
  -11.9499998       2.01485072E-05
  -11.9399996       1.49689813E-05
  -11.9300003       9.53768085E-06
  -11.9200001       4.17954834E-06
  -11.9099998      -8.15416513E-07
  -11.8999996      -5.25870882E-06
  -11.8900003      -9.10577819E-06
  -11.8800001      -1.24645376E-05
  -11.8699999      -1.55681355E-05
  -11.8599997      -1.87188998E-05
  -11.8500004      -2.22167982E-05
  -11.8400002      -2.62891062E-05
  -11.8299999      -3.10369214E-05
  -11.8199997      -3.64099360E-05
  -11.8100004      -4.22135854E-05
  -11.8000002      -4.81454153E-05
  -11.7900000      -5.38509739E-05
  -11.7799997      -5.89859919E-05
  -11.7700005      -6.32713200E-05
  -11.7600002      -6.65297848E-05
  -11.7500000      -6.86995118E-05
  -11.7399998      -6.98238946E-05
  -11.7299995      -7.00234596E-05
  -11.7200003      -6.94585542E-05
  -11.7100000      -6.82918326E-05
  -11.6999998      -6.66586348E-05
  -11.6899996      -6.46498665E-05
  -11.6800003      -6.23082960E-05
  -11.6700001      -5.96358441E-05
  -11.6599998      -5.66078379E-05
  -11.6499996      -5.31892183E-05
  -11.6400003      -4.93490079E-05
  -11.6300001      -4.50706684E-05
  -11.6199999      -4.03579834E-05
  -11.6099997      -3.52368406E-05
  -11.6000004      -2.97543847E-05
  -11.5900002      -2.39760411E-05
  -11.5799999      -1.79810067E-05
  -11.5699997      -1.18560129E-05
  -11.5600004      -5.68726364E-06
  -11.5500002       4.48861556E-07
  -11.5400000       6.49486310E-06
  -11.5299997       1.24189201E-05
  -11.5200005       1.82167641E-05
  -11.5100002       2.39071069E-05
  -11.5000000       2.95204627E-05
  -11.4899998       3.50832670E-05
  -11.4799995       4.06010950E-05
  -11.4700003       4.60457632E-05
  -11.4600000       5.13506420E-05
  -11.4499998       5.64168149E-05
  -11.4399996       6.11295181E-05
  -11.4300003       6.53816969E-05
  -11.4200001       6.90984889E-05
  -11.4099998       7.22560289E-05
  -11.3999996       7.48890889E-05
  -11.3900003       7.70845072E-05
  -11.3800001       7.89617843E-05
  -11.3699999       8.06452517E-05
  -11.3599997       8.22354195E-05
  -11.3500004       8.37868065E-05
  -11.3400002       8.52985031E-05
  -11.3299999       8.67197814E-05
  -11.3199997       8.79690851E-05
  -11.3100004       8.89605944E-05
  -11.3000002       8.96311540E-05
  -11.2900000       8.99593797E-05
  -11.2799997       8.99718434E-05
  -11.2700005       8.97341961E-05
  -11.2600002       8.93299293E-05
  -11.2500000       8.88320938E-05
  -11.2399998       8.82758104E-05
  -11.2299995       8.76387130E-05
  -11.2200003       8.68344214E-05
  -11.2100000       8.57208870E-05
  -11.1999998       8.41219007E-05
  -11.1899996       8.18568224E-05
  -11.1800003       7.87727986E-05
  -11.1700001       7.47727972E-05
  -11.1599998       6.98348085E-05
  -11.1499996       6.40197177E-05
  -11.1400003       5.74672376E-05
  -11.1300001       5.03821138E-05
  -11.1199999       4.30132968E-05
  -11.1099997       3.56300625E-05
  -11.1000004       2.84982871E-05
  -11.0900002       2.18598543E-05
  -11.0799999       1.59175452E-05
  -11.0699997       1.08263439E-05
  -11.0600004       6.69197152E-06
  -11.0500002       3.57610111E-06
  -11.0400000       1.50676362E-06
  -11.0299997       4.91600531E-07
  -11.0200005       5.30720797E-07
  -11.0100002       1.62547224E-06
  -11.0000000       3.77991228E-06
  -10.9899998       6.99305338E-06
  -10.9799995       1.12419139E-05
  -10.9700003       1.64583271E-05
  -10.9600000       2.25044932E-05
  -10.9499998       2.91543256E-05
  -10.9399996       3.60874801E-05
  -10.9300003       4.29015126E-05
  -10.9200001       4.91440514E-05
  -10.9099998       5.43625138E-05
  -10.8999996       5.81640961E-05
  -10.8900003       6.02752807E-05
  -10.8800001       6.05886125E-05
  -10.8699999       5.91854259E-05
  -10.8599997       5.63280191E-05
  -10.8500004       5.24199677E-05
  -10.8400002       4.79406663E-05
  -10.8299999       4.33663190E-05
  -10.8199997       3.90923233E-05
  -10.8100004       3.53732357E-05
  -10.8000002       3.22924207E-05
  -10.7900000       2.97670158E-05
  -10.7799997       2.75866369E-05
  -10.7700005       2.54761017E-05
  -10.7600002       2.31677514E-05
  -10.7500000       2.04667522E-05
  -10.7399998       1.72951586E-05
  -10.7299995       1.37057605E-05
  -10.7200003       9.86391024E-06
  -10.7100000       6.00353133E-06
  -10.6999998       2.36861456E-06
  -10.6899996      -8.45059958E-07
  -10.6800003      -3.53388396E-06
  -10.6700001      -5.70598922E-06
  -10.6599998      -7.47185913E-06
  -10.6499996      -9.00886607E-06
  -10.6400003      -1.05074560E-05
  -10.6300001      -1.21118892E-05
  -10.6199999      -1.38692021E-05
  -10.6099997      -1.56985607E-05
  -10.6000004      -1.73897297E-05
  -10.5900002      -1.86327197E-05
  -10.5799999      -1.90751016E-05
  -10.5699997      -1.83965785E-05
  -10.5600004      -1.63863024E-05
  -10.5500002      -1.30060325E-05
  -10.5400000      -8.42400914E-06
  -10.5299997      -3.00856345E-06
  -10.5200005       2.72118791E-06
  -10.5100002       8.18157787E-06
  -10.5000000       1.28320116E-05
  -10.4899998       1.62822653E-05
  -10.4799995       1.83753891E-05
  -10.4700003       1.92255793E-05
  -10.4600000       1.91991767E-05
  -10.4499998       1.88395352E-05
  -10.4399996       1.87495625E-05
  -10.4300003       1.94573549E-05
  -10.4200001       2.12957093E-05
  -10.4099998       2.43243212E-05
  -10.3999996       2.83148511E-05
  -10.3900003       3.28043025E-05
  -10.3800001       3.72053619E-05
  -10.3699999       4.09487075E-05
  -10.3599997       4.36235823E-05
  -10.3500004       4.50828520E-05
  -10.3400002       4.54878391E-05
  -10.3299999       4.52815948E-05
  -10.3199997       4.50968837E-05
  -10.3100004       4.56202106E-05
  -10.3000002       4.74430090E-05
  -10.2900000       5.09326019E-05
  -10.2799997       5.61505585E-05
  -10.2700005       6.28337875E-05
  -10.2600002       7.04391350E-05
  -10.2500000       7.82397838E-05
  -10.2399998       8.54501268E-05
  -10.2299995       9.13540207E-05
  -10.2200003       9.54110146E-05
  -10.2100000       9.73237693E-05
  -10.1999998       9.70583133E-05
  -10.1899996       9.48187298E-05
  -10.1800003       9.09868540E-05
  -10.1700001       8.60418440E-05
  -10.1599998       8.04772280E-05
  -10.1499996       7.47304803E-05
  -10.1400003       6.91361056E-05
  -10.1300001       6.39078280E-05
  -10.1199999       5.91486751E-05
  -10.1099997       5.48827411E-05
  -10.1000004       5.10986793E-05
  -10.0900002       4.77932008E-05
  -10.0799999       4.50049338E-05
  -10.0699997       4.28307867E-05
  -10.0600004       4.14222886E-05
  -10.0500002       4.09632412E-05
  -10.0400000       4.16355724E-05
  -10.0299997       4.35799448E-05
  -10.0200005       4.68605394E-05
  -10.0100002       5.14397434E-05
  -10.0000000       5.71678611E-05
  -9.98999977       6.37881603E-05
  -9.97999954       7.09568703E-05
  -9.97000027       7.82747520E-05
  -9.96000004       8.53281672E-05
  -9.94999981       9.17338402E-05
  -9.93999958       9.71846530E-05
  -9.93000031       1.01489910E-04
  -9.92000008       1.04603809E-04
  -9.90999985       1.06635162E-04
  -9.89999962       1.07833424E-04
  -9.89000034       1.08548942E-04
  -9.88000011       1.09171393E-04
  -9.86999989       1.10057226E-04
  -9.85999966       1.11461108E-04
  -9.85000038       1.13488917E-04
  -9.84000015       1.16088100E-04
  -9.82999992       1.19080483E-04
  -9.81999969       1.22234458E-04
  -9.81000042       1.25359729E-04
  -9.80000019       1.28399901E-04
  -9.78999996       1.31495690E-04
  -9.77999973       1.34996415E-04
  -9.77000046       1.39410782E-04
  -9.76000023       1.45303144E-04
  -9.75000000       1.53157554E-04
  -9.73999977       1.63243283E-04
  -9.72999954       1.75516252E-04
  -9.72000027       1.89584549E-04
  -9.71000004       2.04749813E-04
  -9.69999981       2.20119648E-04
  -9.68999958       2.34765408E-04
  -9.68000031       2.47891177E-04
  -9.67000008       2.58975313E-04
  -9.65999985       2.67853320E-04
  -9.64999962       2.74724240E-04
  -9.64000034       2.80080829E-04
  -9.63000011       2.84579670E-04
  -9.61999989       2.88880663E-04
  -9.60999966       2.93489516E-04
  -9.60000038       2.98635219E-04
  -9.59000015       3.04206274E-04
  -9.57999992       3.09756346E-04
  -9.56999969       3.14577686E-04
  -9.56000042       3.17824335E-04
  -9.55000019       3.18662234E-04
  -9.53999996       3.16414866E-04
  -9.52999973       3.10676027E-04
  -9.52000046       3.01368622E-04
  -9.51000023       2.88738112E-04
  -9.50000000       2.73286132E-04
  -9.48999977       2.55661638E-04
  -9.47999954       2.36536376E-04
  -9.47000027       2.16495668E-04
  -9.46000004       1.95970890E-04
  -9.44999981       1.75225461E-04
  -9.43999958       1.54393070E-04
  -9.43000031       1.33549460E-04
  -9.42000008       1.12790702E-04
  -9.40999985       9.22887921E-05
  -9.39999962       7.23069024E-05
  -9.39000034       5.31690021E-05
  -9.38000011       3.51990493E-05
  -9.36999989       1.86551861E-05
  -9.35999966       3.68923179E-06
  -9.35000038      -9.64945320E-06
  -9.34000015      -2.13601070E-05
  -9.32999992      -3.14047720E-05
  -9.31999969      -3.96212345E-05
  -9.31000042      -4.56705347E-05
  -9.30000019      -4.90456914E-05
  -9.28999996      -4.91493411E-05
  -9.27999973      -4.54189139E-05
  -9.27000046      -3.74647643E-05
  -9.26000023      -2.51743568E-05
  -9.25000000      -8.74714442E-06
  -9.23999977       1.13546093E-05
  -9.22999954       3.45225271E-05
  -9.22000027       6.01476968E-05
  -9.21000004       8.77439306E-05
  -9.19999981       1.17005380E-04
  -9.18999958       1.47778745E-04
  -9.18000031       1.79962764E-04
  -9.17000008       2.13375635E-04
  -9.15999985       2.47645105E-04
  -9.14999962       2.82169698E-04
  -9.14000034       3.16175137E-04
  -9.13000011       3.48852773E-04
  -9.11999989       3.79536126E-04
  -9.10999966       4.07851097E-04
  -9.10000038       4.33784211E-04
  -9.09000015       4.57635178E-04
  -9.07999992       4.79864713E-04
  -9.06999969       5.00882568E-04
  -9.06000042       5.20847912E-04
  -9.05000019       5.39549568E-04
  -9.03999996       5.56410349E-04
  -9.02999973       5.70616161E-04
  -9.02000046       5.81328932E-04
  -9.01000023       5.87912975E-04
  -9.00000000       5.90099895E-04
  -8.98999977       5.88041614E-04
  -8.97999954       5.82237146E-04
  -8.97000027       5.73370140E-04
  -8.96000004       5.62116329E-04
  -8.94999981       5.48995216E-04
  -8.93999958       5.34317398E-04
  -8.93000031       5.18236542E-04
  -8.92000008       5.00879309E-04
  -8.90999985       4.82489995E-04
  -8.89999962       4.63520468E-04
  -8.89000034       4.44617297E-04
  -8.88000011       4.26499697E-04
  -8.86999989       4.09761880E-04
  -8.85999966       3.94672301E-04
  -8.85000038       3.81046382E-04
  -8.84000015       3.68247740E-04
  -8.82999992       3.55332886E-04
  -8.81999969       3.41301173E-04
  -8.81000042       3.25374858E-04
  -8.80000019       3.07220878E-04
  -8.78999996       2.87044357E-04
  -8.77999973       2.65522889E-04
  -8.77000046       2.43608505E-04
  -8.76000023       2.22261588E-04
  -8.75000000       2.02207593E-04
  -8.73999977       1.83793280E-04
  -8.72999954       1.66982281E-04
  -8.72000027       1.51483982E-04
  -8.71000004       1.36962335E-04
  -8.69999981       1.23243954E-04
  -8.68999958       1.10453911E-04
  -8.68000031       9.90322442E-05
  -8.67000008       8.96307029E-05
  -8.65999985       8.29305427E-05
  -8.64999962       7.94508742E-05
  -8.64000034       7.94136140E-05
  -8.63000011       8.27139229E-05
  -8.61999989       8.90004449E-05
  -8.60999966       9.78354510E-05
  -8.60000038       1.08874126E-04
  -8.59000015       1.22001795E-04
  -8.57999992       1.37383337E-04
  -8.56999969       1.55408285E-04
  -8.56000042       1.76555986E-04
  -8.55000019       2.01224262E-04
  -8.53999996       2.29575075E-04
  -8.52999973       2.61442619E-04
  -8.52000046       2.96319718E-04
  -8.51000023       3.33418808E-04
  -8.50000000       3.71777889E-04
  -8.48999977       4.10378561E-04
  -8.47999954       4.48247447E-04
  -8.47000027       4.84526478E-04
  -8.46000004       5.18512737E-04
  -8.44999981       5.49685152E-04
  -8.43999958       5.77723316E-04
  -8.43000031       6.02525892E-04
  -8.42000008       6.24219188E-04
  -8.40999985       6.43142033E-04
  -8.39999962       6.59786747E-04
  -8.39000034       6.74696697E-04
  -8.38000011       6.88330620E-04
  -8.36999989       7.00927398E-04
  -8.35999966       7.12411013E-04
  -8.35000038       7.22373137E-04
  -8.34000015       7.30149914E-04
  -8.32999992       7.34984351E-04
  -8.31999969       7.36231799E-04
  -8.31000042       7.33554421E-04
  -8.30000019       7.27042789E-04
  -8.28999996       7.17225368E-04
  -8.27999973       7.04957696E-04
  -8.27000046       6.91224355E-04
  -8.26000023       6.76905911E-04
  -8.25000000       6.62589096E-04
  -8.23999977       6.48477057E-04
  -8.22999954       6.34421536E-04
  -8.22000027       6.20073581E-04
  -8.21000004       6.05097855E-04
  -8.19999981       5.89382311E-04
  -8.18999958       5.73174329E-04
  -8.18000031       5.57099236E-04
  -8.17000008       5.42056048E-04
  -8.15999985       5.29026845E-04
  -8.14999962       5.18861692E-04
  -8.14000034       5.12110302E-04
  -8.13000011       5.08949452E-04
  -8.11999989       5.09227568E-04
  -8.10999966       5.12599247E-04
  -8.10000038       5.18694287E-04
  -8.09000015       5.27256401E-04
  -8.07999992       5.38195716E-04
  -8.06999969       5.51541336E-04
  -8.06000042       5.67307521E-04
  -8.05000019       5.85342292E-04
  -8.03999996       6.05220208E-04
  -8.02999973       6.26241148E-04
  -8.02000046       6.47551671E-04
  -8.01000023       6.68364868E-04
  -8.00000000       6.88201573E-04
  -7.98999977       7.07068655E-04
  -7.98000002       7.25494174E-04
  -7.96999979       7.44384655E-04
  -7.96000004       7.64733937E-04
  -7.94999981       7.87265657E-04
  -7.94000006       8.12127080E-04
  -7.92999983       8.38743523E-04
  -7.92000008       8.65899434E-04
  -7.90999985       8.92045209E-04
  -7.90000010       9.15729557E-04
  -7.88999987       9.36044671E-04
  -7.88000011       9.52916511E-04
  -7.86999989       9.67144966E-04
  -7.86000013       9.80164856E-04
  -7.84999990       9.93584981E-04
  -7.84000015       1.00865797E-03
  -7.82999992       1.02584262E-03
  -7.82000017       1.04461785E-03
  -7.80999994       1.06361147E-03
  -7.80000019       1.08101533E-03
  -7.78999996       1.09516061E-03
  -7.78000021       1.10506185E-03
  -7.76999998       1.11074955E-03
  -7.76000023       1.11328519E-03
  -7.75000000       1.11444143E-03
  -7.73999977       1.11615402E-03
  -7.73000002       1.11992960E-03
  -7.71999979       1.12640613E-03
  -7.71000004       1.13521109E-03
  -7.69999981       1.14516320E-03
  -7.69000006       1.15474407E-03
  -7.67999983       1.16267032E-03
  -7.67000008       1.16836792E-03
  -7.65999985       1.17217295E-03
  -7.65000010       1.17519544E-03
  -7.63999987       1.17888814E-03
  -7.63000011       1.18447724E-03
  -7.61999989       1.19245937E-03
  -7.61000013       1.20235176E-03
  -7.59999990       1.21278467E-03
  -7.59000015       1.22192688E-03
  -7.57999992       1.22809387E-03
  -7.57000017       1.23033451E-03
  -7.55999994       1.22879539E-03
  -7.55000019       1.22472993E-03
  -7.53999996       1.22014468E-03
  -7.53000021       1.21719483E-03
  -7.51999998       1.21753011E-03
  -7.51000023       1.22180441E-03
  -7.50000000       1.22951204E-03
  -7.48999977       1.23920012E-03
  -7.48000002       1.24899193E-03
  -7.46999979       1.25723856E-03
  -7.46000004       1.26309996E-03
  -7.44999981       1.26686180E-03
  -7.44000006       1.26990268E-03