  -16.0000000       0.00000000    
  -15.9899998       0.00000000    
  -15.9799995       0.00000000    
  -15.9700003       0.00000000    
  -15.9600000       0.00000000    
  -15.9499998       0.00000000    
  -15.9399996       0.00000000    
  -15.9300003       0.00000000    
  -15.9200001       0.00000000    
  -15.9099998       0.00000000    
  -15.8999996       0.00000000    
  -15.8900003       0.00000000    
  -15.8800001       0.00000000    
  -15.8699999       0.00000000    
  -15.8599997       1.40129846E-45
  -15.8500004       2.10194770E-44
  -15.8400002       2.34016844E-43
  -15.8299999       2.00385680E-42
  -15.8199997       1.38518353E-41
  -15.8100004       8.01991137E-41
  -15.8000002       3.99000120E-40
  -15.7900000       1.73742512E-39
  -15.7799997       6.71327062E-39
  -15.7700005       2.32563767E-38
  -15.7600002       7.27871248E-38
  -15.7500000       2.06924767E-37
  -15.7399998       5.36090202E-37
  -15.7299995       1.26700475E-36
  -15.7200003       2.72698511E-36
  -15.7100000       5.31444339E-36
  -15.6999998       9.25949255E-36
  -15.6899996       1.40329302E-35
  -15.6800003       1.72742253E-35
  -15.6700001       1.33277512E-35
  -15.6599998      -8.01557932E-36
  -15.6499996      -6.11951913E-35
  -15.6400003      -1.60853132E-34
  -15.6300001      -3.11970736E-34
  -15.6199999      -4.93760571E-34
  -15.6099997      -6.41088538E-34
  -15.6000004      -6.33325545E-34
  -15.5900002      -3.05822603E-34
  -15.5799999       5.01398850E-34
  -15.5699997       1.85500833E-33
  -15.5600004       3.62123561E-33
  -15.5500002       5.38969266E-33
  -15.5400000       6.48924016E-33
  -15.5299997       6.12778887E-33
  -15.5200005       3.60841501E-33
  -15.5100002      -1.52449247E-33
  -15.5000000      -9.58767796E-33
  -15.4899998      -2.11402329E-32
  -15.4799995      -3.72842475E-32
  -15.4700003      -5.90126552E-32
  -15.4600000      -8.44850830E-32
  -15.4499998      -1.03737294E-31
  -15.4399996      -9.23324717E-32
  -15.4300003      -8.69489882E-33
  -15.4200001       1.97059944E-31
  -15.4099998       5.54827221E-31
  -15.3999996       1.02484074E-30
  -15.3900003       1.43885812E-30
  -15.3800001       1.46432460E-30
  -15.3699999       6.40847735E-31
  -15.3599997      -1.46118048E-30
  -15.3500004      -4.94086983E-30
  -15.3400002      -9.17632569E-30
  -15.3299999      -1.24910625E-29
  -15.3199997      -1.21178083E-29
  -15.3100004      -4.73648014E-30
  -15.3000002       1.22127581E-29
  -15.2900000       3.84695599E-29
  -15.2799997       6.85597296E-29
  -15.2700005       8.99749451E-29
  -15.2600002       8.33243720E-29
  -15.2500000       2.61517363E-29
  -15.2399998      -9.80997093E-29
  -15.2299995      -2.85646827E-28
  -15.2200003      -4.94701010E-28
  -15.2100000      -6.31054972E-28
  -15.1999998      -5.48636389E-28
  -15.1899996      -8.07555847E-29
  -15.1800003       8.83744925E-28
  -15.1700001       2.27795816E-27
  -15.1599998       3.71484076E-27
  -15.1499996       4.39454458E-27
  -15.1400003       3.17209887E-27
  -15.1300001      -1.09085308E-27
  -15.1199999      -8.82288152E-27
  -15.1099997      -1.87799324E-26
  -15.1000004      -2.71736759E-26
  -15.0900002      -2.75284507E-26
  -15.0799999      -1.20561111E-26
  -15.0699997       2.48702899E-26
  -15.0600004       8.13334760E-26
  -15.0500002       1.42124459E-25
  -15.0400000       1.75787570E-25
  -15.0299997       1.38707866E-25
  -15.0200005      -1.00549659E-26
  -15.0100002      -2.82722991E-25
  -15.0000000      -6.31316902E-25
  -14.9899998      -9.24473195E-25
  -14.9799995      -9.52699032E-25
  -14.9700003      -4.82060277E-25
  -14.9600000       6.35431305E-25
  -14.9499998       2.31198822E-24
  -14.9399996       4.08733526E-24
  -14.9300003       5.09032457E-24
  -14.9200001       4.19379323E-24
  -14.9099998       4.22521099E-25
  -14.8999996      -6.41874149E-24
  -14.8900003      -1.50716751E-23
  -14.8800001      -2.24272761E-23
  -14.8699999      -2.38071958E-23
  -14.8599997      -1.42492624E-23
  -14.8500004       9.17419595E-24
  -14.8400002       4.44865896E-23
  -14.8299999       8.24668185E-23
  -14.8199997       1.06361169E-22
  -14.8100004       9.51280234E-23
  -14.8000002       3.08898714E-23
  -14.7900000      -9.03786012E-23
  -14.7799997      -2.48083653E-22
  -14.7700005      -3.91306664E-22
  -14.7600002      -4.43991264E-22
  -14.7500000      -3.25159377E-22
  -14.7399998       1.63716595E-23
  -14.7299995       5.60427436E-22
  -14.7200003       1.18236169E-21
  -14.7100000       1.64852128E-21
  -14.6999998       1.65867555E-21
  -14.6899996       9.42631782E-22
  -14.6800003      -6.02313451E-22
  -14.6700001      -2.77211427E-21
  -14.6599998      -4.97579108E-21
  -14.6499996      -6.28149890E-21
  -14.6400003      -5.63579558E-21
  -14.6300001      -2.25174032E-21
  -14.6199999       3.91412697E-21
  -14.6099997       1.17549344E-20
  -14.6000004       1.88856207E-20
  -14.5900002       2.19880391E-20
  -14.5799999       1.77183994E-20
  -14.5699997       4.07373123E-21
  -14.5600004      -1.81267939E-20
  -14.5500002      -4.42004219E-20
  -14.5400000      -6.56328331E-20
  -14.5299997      -7.16716587E-20
  -14.5200005      -5.25592015E-20
  -14.5100002      -3.85666821E-21
  -14.5000000       6.93692790E-20
  -14.4899998       1.50212846E-19
  -14.4799995       2.11178848E-19
  -14.4700003       2.20082905E-19
  -14.4600000       1.50311448E-19
  -14.4499998      -6.66020747E-21
  -14.4399996      -2.30331001E-19
  -14.4300003      -4.66621683E-19
  -14.4200001      -6.34025978E-19
  -14.4099998      -6.42468597E-19
  -14.3999996      -4.22902344E-19
  -14.3900003       3.90791496E-20
  -14.3800001       6.76401097E-19
  -14.3699999       1.33280717E-18
  -14.3599997       1.78430634E-18
  -14.3500004       1.79288709E-18
  -14.3400002       1.18514788E-18
  -14.3299999      -6.30558424E-20
  -14.3199997      -1.76363882E-18
  -14.3100004      -3.50467078E-18
  -14.3000002      -4.71199714E-18
  -14.2900000      -4.78784381E-18
  -14.2799997      -3.30484173E-18
  -14.2700005      -2.07725227E-19
  -14.2600002       4.04303963E-18
  -14.2500000       8.45273700E-18
  -14.2399998       1.16450098E-17
  -14.2299995       1.21885510E-17
  -14.2200003       9.04400156E-18
  -14.2100000       2.02135769E-18
  -14.1999998      -7.89757059E-18
  -14.1899996      -1.85154967E-17
  -14.1800003      -2.67495023E-17
  -14.1700001      -2.93360663E-17
  -14.1599998      -2.37937229E-17
  -14.1499996      -9.41239058E-18
  -14.1400003       1.20316729E-17
  -14.1300001       3.61299290E-17
  -14.1199999       5.64588554E-17
  -14.1099997       6.59693612E-17
  -14.1000004       5.89233507E-17
  -14.0900002       3.29314664E-17
  -14.0799999      -9.49221848E-18
  -14.0699997      -6.04362045E-17
  -14.0600004      -1.07555238E-16
  -14.0500002      -1.36549374E-16
  -14.0400000      -1.34785732E-16
  -14.0299997      -9.52745769E-17
  -14.0200005      -1.99392317E-17
  -14.0100002       7.89042094E-17
  -14.0000000       1.79658785E-16
  -13.9899998       2.55382498E-16
  -13.9799995       2.80034201E-16
  -13.9700003       2.35768603E-16
  -13.9600000       1.19481594E-16
  -13.9499998      -5.33327579E-17
  -13.9399996      -2.48983614E-16
  -13.9300003      -4.20947132E-16
  -13.9200001      -5.19683830E-16
  -13.9099998      -5.05109516E-16
  -13.8999996      -3.58888124E-16
  -13.8900003      -9.32611730E-17
  -13.8800001       2.46529125E-16
  -13.8699999       5.87979408E-16
  -13.8599997       8.45144434E-16
  -13.8500004       9.38321817E-16
  -13.8400002       8.15489493E-16
  -13.8299999       4.70244952E-16
  -13.8199997      -4.89513575E-17
  -13.8100004      -6.42034457E-16
  -13.8000002      -1.17426443E-15
  -13.7900000      -1.50468172E-15
  -13.7799997      -1.52061769E-15
  -13.7700005      -1.17038174E-15
  -13.7600002      -4.85486833E-16
  -13.7500000       4.14850056E-16
  -13.7399998       1.34075988E-15
  -13.7299995       2.06916745E-15
  -13.7200003       2.39505215E-15
  -13.7100000       2.18541510E-15
  -13.6999998       1.42251412E-15
  -13.6899996       2.23781367E-16
  -13.6800003      -1.16994488E-15
  -13.6700001      -2.43916774E-15
  -13.6599998      -3.25640885E-15
  -13.6499996      -3.36804313E-15
  -13.6400003      -2.66762884E-15
  -13.6300001      -1.24067849E-15
  -13.6199999       6.34341280E-16
  -13.6099997       2.53450893E-15
  -13.6000004       3.98395721E-15
  -13.5900002       4.56982957E-15
  -13.5799999       4.05541926E-15
  -13.5699997       2.46072071E-15
  -13.5600004       8.56072774E-17
  -13.5500002      -2.53698459E-15
  -13.5400000      -4.75356965E-15
  -13.5299997      -5.94634663E-15
  -13.5200005      -5.69726007E-15
  -13.5100002      -3.91807245E-15
  -13.5000000      -9.08936444E-16
  -13.4899998       2.67732440E-15
  -13.4799995       5.96595501E-15
  -13.4700003       8.06216801E-15
  -13.4600000       8.27958189E-15
  -13.4499998       6.33928775E-15
  -13.4399996       2.48563999E-15
  -13.4300003      -2.51903088E-15
  -13.4200001      -7.53156625E-15
  -13.4099998      -1.12753689E-14
  -13.3999996      -1.26467313E-14
  -13.3900003      -1.10093717E-14
  -13.3800001      -6.40288383E-15
  -13.3699999       3.94569837E-16
  -13.3599997       7.97860482E-15
  -13.3500004       1.45950689E-14
  -13.3400002       1.85289440E-14
  -13.3299999       1.85222694E-14
  -13.3199997       1.41234748E-14
  -13.3100004       5.87820113E-15
  -13.3000002      -4.69853199E-15
  -13.2900000      -1.53824944E-14
  -13.2799997      -2.36929058E-14
  -13.2700005      -2.74490513E-14
  -13.2600002      -2.53098950E-14
  -13.2500000      -1.71688598E-14
  -13.2399998      -4.29804423E-15
  -13.2299995       1.08150641E-14
  -13.2200003       2.49289691E-14
  -13.2100000       3.47277816E-14
  -13.1999998       3.75808630E-14
  -13.1899996       3.22127917E-14
  -13.1800003       1.91189634E-14
  -13.1700001       6.06750664E-16
  -13.1599998      -1.95812960E-14
  -13.1499996      -3.70108302E-14
  -13.1400003      -4.75232206E-14
  -13.1300001      -4.82190243E-14
  -13.1199999      -3.82264885E-14
  -13.1099997      -1.90558967E-14
  -13.1000004       5.57782038E-15
  -13.0900002       3.04641735E-14
  -13.0799999       5.00098959E-14
  -13.0699997       5.95201582E-14
  -13.0600004       5.63537525E-14
  -13.0500002       4.06659671E-14
  -13.0400000       1.55315400E-14
  -13.0299997      -1.36239151E-14
  -13.0200005      -4.01924316E-14
  -13.0100002      -5.79076649E-14
  -13.0000000      -6.23762110E-14
  -12.9899998      -5.22430610E-14
  -12.9799995      -2.96829754E-14
  -12.9700003      -5.44098628E-17
  -12.9600000       2.92526047E-14
  -12.9499998       5.05436689E-14
  -12.9399996       5.77361780E-14
  -12.9300003       4.80065477E-14
  -12.9200001       2.27467124E-14
  -12.9099998      -1.24512962E-14
  -12.8999996      -4.88482240E-14
  -12.8900003      -7.64658790E-14
  -12.8800001      -8.64527972E-14
  -12.8699999      -7.33731313E-14
  -12.8599997      -3.68675088E-14
  -12.8500004       1.77538953E-14
  -12.8400002       8.02036321E-14
  -12.8299999       1.37126421E-13
  -12.8199997       1.74869654E-13
  -12.8100004       1.82538134E-13
  -12.8000002       1.54654094E-13
  -12.7900000       9.27912125E-14
  -12.7799997       5.74982948E-15
  -12.7700005      -9.18545228E-14
  -12.7600002      -1.82363469E-13
  -12.7500000      -2.48660467E-13
  -12.7399998      -2.77808728E-13
  -12.7299995      -2.63930452E-13
  -12.7200003      -2.09648650E-13
  -12.7100000      -1.25707645E-13
  -12.6999998      -2.87841921E-14
  -12.6899996       6.20856177E-14
  -12.6800003       1.29706087E-13
  -12.6700001       1.62618386E-13
  -12.6599998       1.57799311E-13
  -12.6499996       1.21508421E-13
  -12.6400003       6.80343707E-14
  -12.6300001       1.65585556E-14
  -12.6199999      -1.32104495E-14
  -12.6099997      -5.68667046E-15
  -12.6000004       4.66858980E-14
  -12.5900002       1.41140233E-13
  -12.5799999       2.64426800E-13
  -12.5699997       3.94837239E-13
  -12.5600004       5.05974440E-13
  -12.5500002       5.71463504E-13
  -12.5400000       5.69613042E-13
  -12.5299997       4.87083410E-13
  -12.5200005       3.20889121E-13
  -12.5100002       7.84722764E-14
  -12.5000000      -2.23954251E-13
  -12.4899998      -5.64205909E-13
  -12.4799995      -9.17242953E-13
  -12.4700003      -1.25776462E-12
  -12.4600000      -1.56163624E-12
  -12.4499998      -1.80586524E-12
  -12.4399996      -1.96727964E-12
  -12.4300003      -2.02047233E-12
  -12.4200001      -1.93586011E-12
  -12.4099998      -1.67878244E-12
  -12.3999996      -1.21042499E-12
  -12.3900003      -4.91003180E-13
  -12.3800001       5.14856061E-13
  -12.3699999       1.83113442E-12
  -12.3599997       3.46291290E-12
  -12.3500004       5.38972469E-12
  -12.3400002       7.56121468E-12
  -12.3299999       9.89632855E-12
  -12.3199997       1.22867558E-11
  -12.3100004       1.46046716E-11
  -12.3000002       1.67140555E-11
  -12.2900000       1.84840979E-11
  -12.2799997       1.98027688E-11
  -12.2700005       2.05883487E-11
  -12.2600002       2.07969458E-11
  -12.2500000       2.04246654E-11
  -12.2399998       1.95039471E-11
  -12.2299995       1.80946352E-11
  -12.2200003       1.62712760E-11
  -12.2100000       1.41089371E-11
  -12.1999998       1.16701327E-11
  -12.1899996       8.99515445E-12
  -12.1800003       6.09763412E-12
  -12.1700001       2.96580967E-12
  -12.1599998      -4.30896475E-13
  -12.1499996      -4.13137536E-12
  -12.1400003      -8.17085982E-12
  -12.1300001      -1.25697872E-11
  -12.1199999      -1.73256895E-11
  -12.1099997      -2.24094441E-11
  -12.1000004      -2.77661817E-11
  -12.0900002      -3.33202563E-11
  -12.0799999      -3.89824457E-11
  -12.0699997      -4.46577428E-11
  -12.0600004      -5.02515494E-11
  -12.0500002      -5.56729697E-11
  -12.0400000      -6.08348164E-11
  -12.0299997      -6.56507834E-11
  -12.0200005      -7.00309324E-11
  -12.0100002      -7.38775222E-11
  -12.0000000      -7.70828401E-11
  -11.9899998      -7.95304100E-11
  -11.9799995      -8.11001891E-11
  -11.9700003      -8.16772414E-11
  -11.9600000      -8.11626669E-11
  -11.9499998      -7.94848215E-11
  -11.9399996      -7.66087679E-11
  -11.9300003      -7.25416879E-11
  -11.9200001      -6.73338399E-11
  -11.9099998      -6.10735351E-11
  -11.8999996      -5.38775032E-11
  -11.8900003      -4.58778363E-11
  -11.8800001      -3.72071748E-11
  -11.8699999      -2.79843006E-11
  -11.8599997      -1.83024568E-11
  -11.8500004      -8.22146084E-12
  -11.8400002       2.23519640E-12
  -11.8299999       1.30776128E-11
  -11.8199997       2.43416433E-11
  -11.8100004       3.60773286E-11
  -11.8000002       4.83339375E-11
  -11.7900000       6.11440482E-11
  -11.7799997       7.45084688E-11
  -11.7700005       8.83837240E-11
  -11.7600002       1.02674501E-10
  -11.7500000       1.17231211E-10
  -11.7399998       1.31854638E-10
  -11.7299995       1.46306273E-10
  -11.7200003       1.60323532E-10
  -11.7100000       1.73638298E-10
  -11.6999998       1.85995525E-10
  -11.6899996       1.97169531E-10
  -11.6800003       2.06976020E-10
  -11.6700001       2.15278143E-10
  -11.6599998       2.21986096E-10
  -11.6499996       2.27051156E-10
  -11.6400003       2.30456154E-10
  -11.6300001       2.32203728E-10
  -11.6199999       2.32305009E-10
  -11.6099997       2.30770958E-10
  -11.6000004       2.27606045E-10
  -11.5900002       2.22805968E-10
  -11.5799999       2.16357571E-10
  -11.5699997       2.08240036E-10
  -11.5600004       1.98426969E-10
  -11.5500002       1.86888324E-10
  -11.5400000       1.73592349E-10
  -11.5299997       1.58505362E-10
  -11.5200005       1.41594736E-10
  -11.5100002       1.22829968E-10
  -11.5000000       1.02187835E-10
  -11.4899998       7.96563510E-11
  -11.4799995       5.52416654E-11
  -11.4700003       2.89739465E-11
  -11.4600000       9.12863535E-13
  -11.4499998      -2.88488140E-11
  -11.4399996      -6.01845310E-11
  -11.4300003      -9.29356037E-11
  -11.4200001      -1.26915770E-10
  -11.4099998      -1.61917688E-10
  -11.3999996      -1.97722366E-10
  -11.3900003      -2.34109149E-10
  -11.3800001      -2.70865691E-10
  -11.3699999      -3.07800313E-10
  -11.3599997      -3.44751311E-10
  -11.3500004      -3.81595811E-10
  -11.3400002      -4.18255930E-10
  -11.3299999      -4.54700722E-10
  -11.3199997      -4.90943897E-10
  -11.3100004      -5.27035804E-10
  -11.3000002      -5.63049773E-10
  -11.2900000      -5.99065242E-10
  -11.2799997      -6.35147712E-10
  -11.2700005      -6.71329381E-10
  -11.2600002      -7.07593817E-10
  -11.2500000      -7.43865247E-10
  -11.2399998      -7.80007336E-10
  -11.2299995      -8.15830126E-10
  -11.2200003      -8.51106852E-10
  -11.2100000      -8.85594931E-10
  -11.1999998      -9.19060439E-10
  -11.1899996      -9.51303702E-10
  -11.1800003      -9.82175452E-10
  -11.1700001      -1.01158859E-09
  -11.1599998      -1.03951869E-09
  -11.1499996      -1.06599296E-09
  -11.1400003      -1.09107579E-09
  -11.1300001      -1.11484577E-09
  -11.1199999      -1.13737353E-09
  -11.1099997      -1.15871091E-09
  -11.1000004      -1.17887322E-09
  -11.0900002      -1.19784804E-09
  -11.0799999      -1.21559640E-09
  -11.0699997      -1.23207011E-09
  -11.0600004      -1.24722865E-09
  -11.0500002      -1.26105726E-09
  -11.0400000      -1.27357691E-09
  -11.0299997      -1.28485134E-09
  -11.0200005      -1.29498934E-09
  -11.0100002      -1.30413313E-09
  -11.0000000      -1.31244826E-09
  -10.9899998      -1.32011568E-09
  -10.9799995      -1.32731381E-09
  -10.9700003      -1.33421119E-09
  -10.9600000      -1.34096123E-09
  -10.9499998      -1.34769984E-09
  -10.9399996      -1.35453837E-09
  -10.9300003      -1.36156753E-09
  -10.9200001      -1.36884704E-09
  -10.9099998      -1.37641121E-09
  -10.8999996      -1.38425527E-09
  -10.8900003      -1.39233591E-09
  -10.8800001      -1.40055967E-09
  -10.8699999      -1.40877610E-09
  -10.8599997      -1.41677736E-09
  -10.8500004      -1.42429724E-09
  -10.8400002      -1.43102330E-09
  -10.8299999      -1.43660206E-09
  -10.8199997      -1.44066137E-09
  -10.8100004      -1.44283907E-09
  -10.8000002      -1.44279766E-09
  -10.7900000      -1.44028001E-09
  -10.7799997      -1.43509626E-09
  -10.7700005      -1.42718370E-09
  -10.7600002      -1.41659395E-09
  -10.7500000      -1.40350398E-09
  -10.7399998      -1.38820833E-09
  -10.7299995      -1.37108769E-09
  -10.7200003      -1.35258238E-09
  -10.7100000      -1.33315348E-09
  -10.6999998      -1.31323630E-09
  -10.6899996      -1.29320465E-09
  -10.6800003      -1.27333633E-09
  -10.6700001      -1.25378885E-09
  -10.6599998      -1.23459842E-09
  -10.6499996      -1.21569266E-09
  -10.6400003      -1.19689103E-09
  -10.6300001      -1.17797161E-09
  -10.6199999      -1.15867083E-09
  -10.6099997      -1.13877141E-09
  -10.6000004      -1.11808407E-09
  -10.5900002      -1.09652110E-09
  -10.5799999      -1.07406606E-09
  -10.5699997      -1.05077302E-09
  -10.5600004      -1.02674680E-09
  -10.5500002      -1.00211917E-09
  -10.5400000      -9.77017578E-10
  -10.5299997      -9.51546508E-10
  -10.5200005      -9.25776844E-10
  -10.5100002      -8.99749830E-10
  -10.5000000      -8.73521977E-10
  -10.4899998      -8.47168002E-10
  -10.4799995      -8.20820856E-10
  -10.4700003      -7.94664556E-10
  -10.4600000      -7.68944630E-10
  -10.4499998      -7.43933637E-10
  -10.4399996      -7.19913240E-10
  -10.4300003      -6.97124414E-10
  -10.4200001      -6.75739242E-10
  -10.4099998      -6.55870025E-10
  -10.3999996      -6.37536357E-10
  -10.3900003      -6.20714646E-10
  -10.3800001      -6.05346717E-10
  -10.3699999      -5.91395655E-10
  -10.3599997      -5.78878168E-10
  -10.3500004      -5.67860314E-10
  -10.3400002      -5.58480484E-10
  -10.3299999      -5.50896828E-10
  -10.3199997      -5.45309187E-10
  -10.3100004      -5.41867218E-10
  -10.3000002      -5.40669232E-10
  -10.2900000      -5.41753753E-10
  -10.2799997      -5.45063883E-10
  -10.2700005      -5.50480383E-10
  -10.2600002      -5.57829227E-10
  -10.2500000      -5.66908465E-10
  -10.2399998      -5.77491444E-10
  -10.2299995      -5.89362281E-10
  -10.2200003      -6.02322914E-10
  -10.2100000      -6.16194595E-10
  -10.1999998      -6.30827668E-10
  -10.1899996      -6.46128762E-10
  -10.1800003      -6.62018496E-10
  -10.1700001      -6.78487544E-10
  -10.1599998      -6.95540459E-10
  -10.1499996      -7.13223314E-10
  -10.1400003      -7.31595340E-10
  -10.1300001      -7.50692675E-10
  -10.1199999      -7.70553676E-10
  -10.1099997      -7.91182786E-10
  -10.1000004      -8.12558243E-10
  -10.0900002      -8.34651626E-10
  -10.0799999      -8.57472537E-10
  -10.0699997      -8.81082374E-10
  -10.0600004      -9.05610809E-10
  -10.0500002      -9.31283384E-10
  -10.0400000      -9.58429558E-10
  -10.0299997      -9.87436133E-10
  -10.0200005      -1.01872044E-09
  -10.0100002      -1.05268261E-09
  -10.0000000      -1.08967302E-09
  -9.98999977      -1.12991572E-09
  -9.97999954      -1.17354637E-09
  -9.97000027      -1.22057531E-09
  -9.96000004      -1.27091859E-09
  -9.94999981      -1.32445976E-09
  -9.93999958      -1.38106149E-09
  -9.93000031      -1.44061441E-09
  -9.92000008      -1.50307256E-09
  -9.90999985      -1.56840285E-09
  -9.89999962      -1.63660341E-09
  -9.89000034      -1.70765080E-09
  -9.88000011      -1.78146065E-09
  -9.86999989      -1.85787341E-09
  -9.85999966      -1.93664218E-09
  -9.85000038      -2.01744044E-09
  -9.84000015      -2.09992046E-09
  -9.82999992      -2.18374407E-09
  -9.81999969      -2.26862640E-09
  -9.81000042      -2.35440600E-09
  -9.80000019      -2.44106113E-09
  -9.78999996      -2.52870702E-09
  -9.77999973      -2.61757727E-09
  -9.77000046      -2.70801093E-09
  -9.76000023      -2.80037171E-09
  -9.75000000      -2.89503288E-09
  -9.73999977      -2.99233482E-09
  -9.72999954      -3.09256665E-09
  -9.72000027      -3.19593507E-09
  -9.71000004      -3.30260419E-09
  -9.69999981      -3.41267437E-09
  -9.68999958      -3.52616070E-09
  -9.68000031      -3.64300923E-09
  -9.67000008      -3.76307163E-09
  -9.65999985      -3.88607413E-09
  -9.64999962      -4.01162525E-09
  -9.64000034      -4.13922763E-09
  -9.63000011      -4.26827418E-09
  -9.61999989      -4.39809966E-09
  -9.60999966      -4.52804949E-09
  -9.60000038      -4.65748640E-09
  -9.59000015      -4.78587969E-09
  -9.57999992      -4.91279595E-09
  -9.56999969      -5.03789188E-09
  -9.56000042      -5.16093346E-09
  -9.55000019      -5.28171951E-09
  -9.53999996      -5.40011014E-09
  -9.52999973      -5.51592150E-09
  -9.52000046      -5.62899283E-09
  -9.51000023      -5.73911407E-09
  -9.50000000      -5.84610138E-09
  -9.48999977      -5.94978466E-09
  -9.47999954      -6.05003425E-09
  -9.47000027      -6.14678219E-09
  -9.46000004      -6.24000185E-09
  -9.44999981      -6.32966568E-09
  -9.43999958      -6.41573950E-09
  -9.43000031      -6.49814691E-09
  -9.42000008      -6.57677734E-09
  -9.40999985      -6.65140032E-09
  -9.39999962      -6.72183109E-09
  -9.39000034      -6.78788314E-09
  -9.38000011      -6.84948542E-09
  -9.36999989      -6.90671387E-09
  -9.35999966      -6.95983360E-09
  -9.35000038      -7.00937886E-09
  -9.34000015      -7.05601444E-09
  -9.32999992      -7.10057702E-09
  -9.31999969      -7.14396986E-09
  -9.31000042      -7.18708781E-09
  -9.30000019      -7.23079108E-09
  -9.28999996      -7.27587723E-09
  -9.27999973      -7.32308703E-09
  -9.27000046      -7.37319583E-09
  -9.26000023      -7.42700390E-09
  -9.25000000      -7.48538742E-09
  -9.23999977      -7.54936735E-09
  -9.22999954      -7.62000152E-09
  -9.22000027      -7.69833974E-09
  -9.21000004      -7.78532083E-09
  -9.19999981      -7.88172727E-09
  -9.18999958      -7.98806532E-09
  -9.18000031      -8.10449396E-09
  -9.17000008      -8.23099811E-09
  -9.15999985      -8.36731040E-09
  -9.14999962      -8.51307203E-09
  -9.14000034      -8.66789751E-09
  -9.13000011      -8.83143869E-09
  -9.11999989      -9.00340158E-09
  -9.10999966      -9.18353305E-09
  -9.10000038      -9.37161904E-09
  -9.09000015      -9.56739843E-09
  -9.07999992      -9.77052572E-09
  -9.06999969      -9.98057459E-09
  -9.06000042      -1.01970743E-08
  -9.05000019      -1.04195053E-08
  -9.03999996      -1.06472298E-08
  -9.02999973      -1.08795888E-08
  -9.02000046      -1.11158753E-08
  -9.01000023      -1.13552074E-08
  -9.00000000      -1.15964998E-08
  -8.98999977      -1.18384831E-08
  -8.97999954      -1.20797470E-08
  -8.97000027      -1.23186803E-08
  -8.96000004      -1.25537358E-08
  -8.94999981      -1.27833930E-08
  -8.93999958      -1.30064741E-08
  -8.93000031      -1.32220581E-08
  -8.92000008      -1.34295988E-08
  -8.90999985      -1.36288856E-08
  -8.89999962      -1.38198226E-08
  -8.89000034      -1.40024046E-08
  -8.88000011      -1.41766545E-08
  -8.86999989      -1.43424161E-08
  -8.85999966      -1.44993884E-08
  -8.85000038      -1.46472070E-08
  -8.84000015      -1.47852894E-08
  -8.82999992      -1.49130805E-08
  -8.81999969      -1.50299950E-08
  -8.81000042      -1.51354556E-08
  -8.80000019      -1.52289470E-08
  -8.78999996      -1.53099151E-08
  -8.77999973      -1.53779194E-08
  -8.77000046      -1.54325441E-08
  -8.76000023      -1.54734163E-08
  -8.75000000      -1.55004933E-08
  -8.73999977      -1.55138888E-08
  -8.72999954      -1.55139528E-08
  -8.72000027      -1.55013034E-08
  -8.71000004      -1.54767150E-08
  -8.69999981      -1.54410298E-08
  -8.68999958      -1.53950950E-08
  -8.68000031      -1.53395305E-08
  -8.67000008      -1.52750506E-08
  -8.65999985      -1.52022022E-08
  -8.64999962      -1.51216000E-08
  -8.64000034      -1.50340949E-08
  -8.63000011      -1.49406549E-08
  -8.61999989      -1.48426222E-08
  -8.60999966      -1.47415582E-08
  -8.60000038      -1.46391370E-08
  -8.59000015      -1.45370391E-08
  -8.57999992      -1.44369210E-08
  -8.56999969      -1.43402552E-08
  -8.56000042      -1.42482079E-08
  -8.55000019      -1.41616914E-08
  -8.53999996      -1.40814365E-08
  -8.52999973      -1.40080463E-08
  -8.52000046      -1.39421195E-08
  -8.51000023      -1.38841925E-08
  -8.50000000      -1.38347742E-08
  -8.48999977      -1.37942155E-08
  -8.47999954      -1.37629383E-08
  -8.47000027      -1.37410021E-08
  -8.46000004      -1.37284664E-08
  -8.44999981      -1.37251757E-08
  -8.43999958      -1.37308831E-08
  -8.43000031      -1.37452192E-08
  -8.42000008      -1.37677993E-08
  -8.40999985      -1.37982230E-08
  -8.39999962      -1.38359617E-08
  -8.39000034      -1.38803342E-08
  -8.38000011      -1.39306282E-08
  -8.36999989      -1.39859546E-08
  -8.35999966      -1.40451029E-08
  -8.35000038      -1.41070657E-08
  -8.34000015      -1.41706744E-08
  -8.32999992      -1.42346375E-08
  -8.31999969      -1.42981227E-08
  -8.31000042      -1.43602996E-08
  -8.30000019      -1.44204453E-08
  -8.28999996      -1.44783137E-08
  -8.27999973      -1.45334935E-08
  -8.27000046      -1.45858161E-08
  -8.26000023      -1.46349155E-08
  -8.25000000      -1.46805830E-08
  -8.23999977      -1.47225609E-08
  -8.22999954      -1.47605776E-08
  -8.22000027      -1.47943986E-08
  -8.21000004      -1.48240185E-08
  -8.19999981      -1.48494106E-08
  -8.18999958      -1.48710795E-08
  -8.18000031      -1.48896300E-08
  -8.17000008      -1.49057229E-08
  -8.15999985      -1.49202730E-08
  -8.14999962      -1.49342512E-08
  -8.14000034      -1.49484656E-08
  -8.13000011      -1.49636854E-08
  -8.11999989      -1.49803068E-08
  -8.10999966      -1.49987525E-08
  -8.10000038      -1.50196318E-08
  -8.09000015      -1.50433763E-08
  -8.07999992      -1.50703681E-08
  -8.06999969      -1.51012536E-08
  -8.06000042      -1.51369015E-08
  -8.05000019      -1.51783635E-08
  -8.03999996      -1.52265525E-08
  -8.02999973      -1.52824651E-08
  -8.02000046      -1.53468775E-08
  -8.01000023      -1.54204809E-08
  -8.00000000      -1.55038844E-08
  -7.98999977      -1.55975126E-08
  -7.98000002      -1.57017972E-08
  -7.96999979      -1.58171147E-08
  -7.96000004      -1.59438915E-08
  -7.94999981      -1.60829092E-08
  -7.94000006      -1.62345941E-08
  -7.92999983      -1.63996265E-08
  -7.92000008      -1.65785430E-08
  -7.90999985      -1.67717680E-08
  -7.90000010      -1.69796177E-08
  -7.88999987      -1.72025381E-08
  -7.88000011      -1.74406072E-08
  -7.86999989      -1.76939778E-08
  -7.86000013      -1.79625044E-08
  -7.84999990      -1.82463822E-08
  -7.84000015      -1.85451654E-08
  -7.82999992      -1.88583567E-08
  -7.82000017      -1.91854816E-08
  -7.80999994      -1.95255421E-08
  -7.80000019      -1.98777688E-08
  -7.78999996      -2.02411314E-08
  -7.78000021      -2.06148094E-08
  -7.76999998      -2.09981081E-08
  -7.76000023      -2.13904876E-08
  -7.75000000      -2.17915641E-08
  -7.73999977      -2.22011050E-08
  -7.73000002      -2.26188579E-08
  -7.71999979      -2.30444481E-08
  -7.71000004      -2.34777602E-08
  -7.69999981      -2.39179929E-08
  -7.69000006      -2.43649243E-08
  -7.67999983      -2.48178598E-08
  -7.67000008      -2.52763996E-08
  -7.65999985      -2.57399595E-08
  -7.65000010      -2.62080437E-08
  -7.63999987      -2.66805138E-08
  -7.63000011      -2.71569203E-08
  -7.61999989      -2.76373733E-08
  -7.61000013      -2.81215513E-08
  -7.59999990      -2.86097013E-08
  -7.59000015      -2.91021323E-08
  -7.57999992      -2.95991853E-08
  -7.57000017      -3.01013081E-08
  -7.55999994      -3.06086569E-08
  -7.55000019      -3.11215800E-08
  -7.53999996      -3.16402122E-08
  -7.53000021      -3.21644258E-08
  -7.51999998      -3.26938938E-08
  -7.51000023      -3.32285879E-08
  -7.50000000      -3.37681989E-08
  -7.48999977      -3.43128796E-08
  -7.48000002      -3.48628078E-08
  -7.46999979      -3.54187186E-08
  -7.46000004      -3.59811239E-08
  -7.44999981      -3.65504285E-08
  -7.44000006      -3.71270588E-08