  -16.0000000       0.00000000    
  -15.9899998       0.00000000    
  -15.9799995       0.00000000    
  -15.9700003       0.00000000    
  -15.9600000       0.00000000    
  -15.9499998       0.00000000    
  -15.9399996       0.00000000    
  -15.9300003       0.00000000    
  -15.9200001       0.00000000    
  -15.9099998       0.00000000    
  -15.8999996       0.00000000    
  -15.8900003      -0.00000000    
  -15.8800001      -1.12201968E-41
  -15.8699999      -3.49549698E-40
  -15.8599997      -4.30262528E-39
  -15.8500004      -2.58984031E-38
  -15.8400002      -1.12297845E-38
  -15.8299999       1.40279877E-36
  -15.8199997       1.67153991E-35
  -15.8100004       1.26323249E-34
  -15.8000002       7.42747080E-34
  -15.7900000       3.64705828E-33
  -15.7799997       1.54984243E-32
  -15.7700005       5.82395385E-32
  -15.7600002       1.96313916E-31
  -15.7500000       5.99594137E-31
  -15.7399998       1.67141454E-30
  -15.7299995       4.27430397E-30
  -15.7200003       1.00617472E-29
  -15.7100000       2.18398063E-29
  -15.6999998       4.37039065E-29
  -15.6899996       8.04203766E-29
  -15.6800003       1.35228136E-28
  -15.6700001       2.05149456E-28
  -15.6599998       2.73404172E-28
  -15.6499996       3.00060343E-28
  -15.6400003       2.14930026E-28
  -15.6300001      -7.94936131E-29
  -15.6199999      -6.83907064E-28
  -15.6099997      -1.64581172E-27
  -15.6000004      -2.86726769E-27
  -15.5900002      -3.99213307E-27
  -15.5799999      -4.31973375E-27
  -15.5699997      -2.83050804E-27
  -15.5600004       1.56256484E-27
  -15.5500002       9.43813602E-27
  -15.5400000       1.99691710E-26
  -15.5299997       2.99304643E-26
  -15.5200005       3.31687045E-26
  -15.5100002       2.14188493E-26
  -15.5000000      -1.25966950E-26
  -15.4899998      -6.94294787E-26
  -15.4799995      -1.35715125E-25
  -15.4700003      -1.79125413E-25
  -15.4600000      -1.51437098E-25
  -15.4499998      -6.08459201E-27
  -15.4399996       2.67530023E-25
  -15.4300003       6.01072517E-25
  -15.4200001       8.18877654E-25
  -15.4099998       6.60359359E-25
  -15.3999996      -1.12201560E-25
  -15.3900003      -1.51609905E-24
  -15.3800001      -3.12067339E-24
  -15.3699999      -3.93168196E-24
  -15.3599997      -2.58357823E-24
  -15.3500004       2.00717986E-24
  -15.3400002       9.57457757E-24
  -15.3299999       1.74216791E-23
  -15.3199997       2.01089007E-23
  -15.3100004       1.08485177E-23
  -15.3000002      -1.48570608E-23
  -15.2900000      -5.39451991E-23
  -15.2799997      -9.12195521E-23
  -15.2700005      -9.93312826E-23
  -15.2600002      -4.72484295E-23
  -15.2500000       8.15039665E-23
  -15.2399998       2.65330374E-22
  -15.2299995       4.27645561E-22
  -15.2200003       4.43534456E-22
  -15.2100000       1.84436790E-22
  -15.1999998      -3.99169348E-22
  -15.1899996      -1.18289736E-21
  -15.1800003      -1.81543991E-21
  -15.1700001      -1.77477013E-21
  -15.1599998      -5.79113115E-22
  -15.1499996       1.87042581E-21
  -15.1400003       4.94273576E-21
  -15.1300001       7.14862006E-21
  -15.1199999       6.47425218E-21
  -15.1099997       1.29205177E-21
  -15.1000004      -8.32838883E-21
  -15.0900002      -1.94718058E-20
  -15.0799999      -2.62450660E-20
  -15.0699997      -2.14566677E-20
  -15.0600004      -2.86334496E-22
  -15.0500002       3.50335288E-20
  -15.0400000       7.18341480E-20
  -15.0299997       8.79946787E-20
  -15.0200005       5.96737270E-20
  -15.0100002      -2.45260102E-20
  -15.0000000      -1.47631021E-19
  -14.9899998      -2.55653636E-19
  -14.9799995      -2.66904352E-19
  -14.9700003      -1.05892683E-19
  -14.9600000       2.42592402E-19
  -14.9499998       6.79589051E-19
  -14.9399996       9.72844120E-19
  -14.9300003       8.09646658E-19
  -14.9200001      -5.99275358E-20
  -14.9099998      -1.61386401E-18
  -14.8999996      -3.36560745E-18
  -14.8900003      -4.31845686E-18
  -14.8800001      -3.20038123E-18
  -14.8699999       9.61062173E-19
  -14.8599997       8.02300757E-18
  -14.8500004       1.59790913E-17
  -14.8400002       2.07585772E-17
  -14.8299999       1.70679604E-17
  -14.8199997       5.17229213E-19
  -14.8100004      -2.92764398E-17
  -14.8000002      -6.56513069E-17
  -14.7900000      -9.36155107E-17
  -14.7799997      -9.21463122E-17
  -14.7700005      -4.11811008E-17
  -14.7600002       6.73392053E-17
  -14.7500000       2.17489487E-16
  -14.7399998       3.61927755E-16
  -14.7299995       4.25507319E-16
  -14.7200003       3.24802936E-16
  -14.7100000       3.46866713E-18
  -14.6999998      -5.24389786E-16
  -14.6899996      -1.13889477E-15
  -14.6800003      -1.60839169E-15
  -14.6700001      -1.63195286E-15
  -14.6599998      -9.37534818E-16
  -14.6499996       5.78843734E-16
  -14.6400003       2.71394777E-15
  -14.6300001       4.88044672E-15
  -14.6199999       6.15892098E-15
  -14.6099997       5.52180440E-15
  -14.6000004       2.21867173E-15
  -14.5900002      -3.76292057E-15
  -14.5799999      -1.13207292E-14
  -14.5699997      -1.81453380E-14
  -14.5600004      -2.10856757E-14
  -14.5500002      -1.70357164E-14
  -14.5400000      -4.21758287E-15
  -14.5299997       1.64821007E-14
  -14.5200005       4.06386079E-14
  -14.5100002       6.04349673E-14
  -14.5000000       6.62109527E-14
  -14.4899998       4.94081840E-14
  -14.4799995       6.34927173E-15
  -14.4700003      -5.82654517E-14
  -14.4600000      -1.29605257E-13
  -14.4499998      -1.84070695E-13
  -14.4399996      -1.94499093E-13
  -14.4300003      -1.38766914E-13
  -14.4200001      -9.91317471E-15
  -14.4099998       1.75372520E-13
  -14.3999996       3.73611894E-13
  -14.3900003       5.19854017E-13
  -14.3800001       5.42629418E-13
  -14.3699999       3.86665960E-13
  -14.3599997       3.80878665E-14
  -14.3500004      -4.55841148E-13
  -14.3400002      -9.81164043E-13
  -14.3299999      -1.37255658E-12
  -14.3199997      -1.45126662E-12
  -14.3100004      -1.08026381E-12
  -14.3000002      -2.23686453E-13
  -14.2900000       1.00773122E-12
  -14.2799997       2.34461734E-12
  -14.2700005       3.39454419E-12
  -14.2600002       3.72821479E-12
  -14.2500000       3.00405339E-12
  -14.2399998       1.10295367E-12
  -14.2299995      -1.76600488E-12
  -14.2200003      -5.03019718E-12
  -14.2100000      -7.81941612E-12
  -14.1999998      -9.14162843E-12
  -14.1899996      -8.14603159E-12
  -14.1800003      -4.41844521E-12
  -14.1700001       1.76952810E-12
  -14.1599998       9.34400734E-12
  -14.1499996       1.65144374E-11
  -14.1400003       2.10901799E-11
  -14.1300001       2.09987774E-11
  -14.1199999       1.49103056E-11
  -14.1099997       2.81901022E-12
  -14.1000004      -1.35931778E-11
  -14.0900002      -3.09690919E-11
  -14.0799999      -4.47588598E-11
  -14.0699997      -5.01598103E-11
  -14.0600004      -4.33710672E-11
  -14.0500002      -2.28998643E-11
  -14.0400000       9.42553847E-12
  -14.0299997       4.80863786E-11
  -14.0200005       8.44106660E-11
  -14.0100002       1.08097122E-10
  -14.0000000       1.09562130E-10
  -13.9899998       8.26766849E-11
  -13.9799995       2.72548824E-11
  -13.9700003      -4.94371245E-11
  -13.9600000      -1.32790154E-10
  -13.9499998      -2.02930645E-10
  -13.9399996      -2.38678771E-10
  -13.9300003      -2.22755939E-10
  -13.9200001      -1.47146961E-10
  -13.9099998      -1.72251050E-11
  -13.8999996       1.46710560E-10
  -13.8900003       3.11434545E-10
  -13.8800001       4.36538194E-10
  -13.8699999       4.83151297E-10
  -13.8599997       4.23966307E-10
  -13.8500004       2.52200899E-10
  -13.8400002      -1.29798672E-11
  -13.8299999      -3.26580679E-10
  -13.8199997      -6.24311325E-10
  -13.8100004      -8.34876779E-10
  -13.8000002      -8.95804320E-10
  -13.7900000      -7.69349473E-10
  -13.7799997      -4.54583038E-10
  -13.7700005       7.73466447E-12
  -13.7600002       5.39438161E-10
  -13.7500000       1.03821696E-09
  -13.7399998       1.39745981E-09
  -13.7299995       1.52847957E-09
  -13.7200003       1.38013156E-09
  -13.7100000       9.51289159E-10
  -13.6999998       2.93337882E-10
  -13.6899996      -4.97790087E-10
  -13.6800003      -1.29797140E-09
  -13.6700001      -1.97566408E-09
  -13.6599998      -2.41247111E-09
  -13.6499996      -2.51959098E-09
  -13.6400003      -2.24795094E-09
  -13.6300001      -1.59232172E-09
  -13.6199999      -5.91375782E-10
  -13.6099997       6.73491041E-10
  -13.6000004       2.07866102E-09
  -13.5900002       3.45837736E-09
  -13.5799999       4.60758276E-09
  -13.5699997       5.29263744E-09
  -13.5600004       5.27569766E-09
  -13.5500002       4.35565362E-09
  -13.5400000       2.42396259E-09
  -13.5299997      -4.73535711E-10
  -13.5200005      -4.08422274E-09
  -13.5100002      -7.92519828E-09
  -13.5000000      -1.13075211E-08
  -13.4899998      -1.34202702E-08
  -13.4799995      -1.34738318E-08
  -13.4700003      -1.08850911E-08
  -13.4600000      -5.47118795E-09
  -13.4499998       2.39461273E-09
  -13.4399996       1.17138867E-08
  -13.4300003       2.09212700E-08
  -13.4200001       2.80889108E-08
  -13.4099998       3.12649036E-08
  -13.3999996       2.88973894E-08
  -13.3900003       2.02650288E-08
  -13.3800001       5.81451109E-09
  -13.3699999      -1.26915616E-08
  -13.3599997      -3.22902416E-08
  -13.3500004      -4.92222370E-08
  -13.3400002      -5.95880607E-08
  -13.3299999      -6.01536314E-08
  -13.3199997      -4.91512360E-08
  -13.3100004      -2.68952576E-08
  -13.3000002       3.95626198E-09
  -13.2900000       3.86057550E-08
  -13.2799997       7.08120851E-08
  -13.2700005       9.39924618E-08
  -13.2600002       1.02542764E-07
  -13.2500000       9.31104935E-08
  -13.2399998       6.55353816E-08
  -13.2299995       2.32117507E-08
  -13.2200003      -2.72683778E-08
  -13.2100000      -7.71820581E-08
  -13.1999998      -1.17280763E-07
  -13.1899996      -1.39622813E-07
  -13.1800003      -1.39243198E-07
  -13.1700001      -1.15282162E-07
  -13.1599998      -7.12887882E-08
  -13.1499996      -1.45975658E-08
  -13.1400003       4.51147564E-08
  -13.1300001       9.77833494E-08
  -13.1199999       1.34977682E-07
  -13.1099997       1.51519259E-07
  -13.1000004       1.46314406E-07
  -13.0900002       1.22205435E-07
  -13.0799999       8.49093951E-08
  -13.0699997       4.13421830E-08
  -13.0600004      -2.19006990E-09
  -13.0500002      -4.14124202E-08
  -13.0400000      -7.46952225E-08
  -13.0299997      -1.02673447E-07
  -13.0200005      -1.26988567E-07
  -13.0100002      -1.48561924E-07
  -13.0000000      -1.66004313E-07
  -12.9899998      -1.74797051E-07
  -12.9799995      -1.67705124E-07
  -12.9700003      -1.36550000E-07
  -12.9600000      -7.50468061E-08
  -12.9499998       1.80017619E-08
  -12.9399996       1.36109207E-07
  -12.9300003       2.64077499E-07
  -12.9200001       3.79229903E-07
  -12.9099998       4.55079771E-07
  -12.8999996       4.66939525E-07
  -12.8900003       3.98337846E-07
  -12.8800001       2.46700381E-07
  -12.8699999       2.66498681E-08
  -12.8599997      -2.30322925E-07
  -12.8500004      -4.80332403E-07
  -12.8400002      -6.75204603E-07
  -12.8299999      -7.72712099E-07
  -12.8199997      -7.46646265E-07
  -12.8100004      -5.94204153E-07
  -12.8000002      -3.38544737E-07
  -12.7900000      -2.53217713E-08
  -12.7799997       2.86516581E-07
  -12.7700005       5.37926212E-07
  -12.7600002       6.83939732E-07
  -12.7500000       7.05259254E-07
  -12.7399998       6.13997997E-07
  -12.7299995       4.51521714E-07
  -12.7200003       2.78222615E-07
  -12.7100000       1.57175720E-07
  -12.6999998       1.35492257E-07
  -12.6899996       2.28159067E-07
  -12.6800003       4.09034953E-07
  -12.6700001       6.12224198E-07
  -12.6599998       7.44687668E-07
  -12.6499996       7.08041114E-07
  -12.6400003       4.24927748E-07
  -12.6300001      -1.36299690E-07
  -12.6199999      -9.45000352E-07
  -12.6099997      -1.90469018E-06
  -12.6000004      -2.86456884E-06
  -12.5900002      -3.64460675E-06
  -12.5799999      -4.06922845E-06
  -12.5699997      -4.00215504E-06
  -12.5600004      -3.37452070E-06
  -12.5500002      -2.19940284E-06
  -12.5400000      -5.69285476E-07
  -12.5299997       1.36315043E-06
  -12.5200005       3.41626014E-06
  -12.5100002       5.41499594E-06
  -12.5000000       7.22170307E-06
  -12.4899998       8.75434034E-06
  -12.4799995       9.98677660E-06
  -12.4700003       1.09307812E-05
  -12.4600000       1.16028914E-05
  -12.4499998       1.19843126E-05
  -12.4399996       1.19825800E-05
  -12.4300003       1.14045079E-05
  -12.4200001       9.94698894E-06
  -12.4099998       7.20854132E-06
  -12.3999996       2.72038528E-06
  -12.3900003      -4.00789577E-06
  -12.3800001      -1.34357470E-05
  -12.3699999      -2.59396238E-05
  -12.3599997      -4.17680822E-05
  -12.3500004      -6.10085699E-05
  -12.3400002      -8.35663886E-05
  -12.3299999      -1.09155248E-04
  -12.3199997      -1.37297335E-04
  -12.3100004      -1.67327642E-04
  -12.3000002      -1.98405105E-04
  -12.2900000      -2.29525453E-04
  -12.2799997      -2.59544206E-04
  -12.2700005      -2.87201285E-04
  -12.2600002      -3.11161653E-04
  -12.2500000      -3.30063980E-04
  -12.2399998      -3.42576095E-04
  -12.2299995      -3.47464840E-04
  -12.2200003      -3.43654858E-04
  -12.2100000      -3.30292067E-04
  -12.1999998      -3.06787668E-04
  -12.1899996      -2.72854464E-04
  -12.1800003      -2.28519508E-04
  -12.1700001      -1.74125656E-04
  -12.1599998      -1.10309571E-04
  -12.1499996      -3.79802623E-05
  -12.1400003       4.17240735E-05
  -12.1300001       1.27477892E-04
  -12.1199999       2.17815192E-04
  -12.1099997       3.11183685E-04
  -12.1000004       4.05996456E-04
  -12.0900002       5.00689959E-04
  -12.0799999       5.93773613E-04
  -12.0699997       6.83875987E-04
  -12.0600004       7.69783976E-04
  -12.0500002       8.50466487E-04
  -12.0400000       9.25076951E-04
  -12.0299997       9.92946792E-04
  -12.0200005       1.05356250E-03
  -12.0100002       1.10653148E-03
  -12.0000000       1.15153915E-03
  -11.9899998       1.18831452E-03
  -11.9799995       1.21659553E-03
  -11.9700003       1.23609963E-03
  -11.9600000       1.24649995E-03
  -11.9499998       1.24741241E-03
  -11.9399996       1.23837544E-03
  -11.9300003       1.21884898E-03
  -11.9200001       1.18819473E-03
  -11.9099998       1.14568602E-03
  -11.8999996       1.09052565E-03
  -11.8900003       1.02186459E-03
  -11.8800001       9.38865065E-04
  -11.8699999       8.40753841E-04
  -11.8599997       7.26905186E-04
  -11.8500004       5.96917584E-04
  -11.8400002       4.50675609E-04
  -11.8299999       2.88396754E-04
  -11.8199997       1.10642148E-04
  -11.8100004      -8.16850370E-05
  -11.8000002      -2.87380273E-04
  -11.7900000      -5.04980038E-04
  -11.7799997      -7.32792541E-04
  -11.7700005      -9.68948298E-04
  -11.7600002      -1.21139362E-03
  -11.7500000      -1.45790109E-03
  -11.7399998      -1.70605420E-03
  -11.7299995      -1.95326307E-03
  -11.7200003      -2.19676434E-03
  -11.7100000      -2.43369932E-03
  -11.6999998      -2.66118743E-03
  -11.6899996      -2.87643983E-03
  -11.6800003      -3.07688070E-03
  -11.6700001      -3.26024857E-03
  -11.6599998      -3.42466100E-03
  -11.6499996      -3.56863230E-03
  -11.6400003      -3.69103532E-03
  -11.6300001      -3.79101862E-03
  -11.6199999      -3.86789371E-03
  -11.6099997      -3.92101705E-03
  -11.6000004      -3.94971110E-03
  -11.5900002      -3.95320496E-03
  -11.5799999      -3.93064460E-03
  -11.5699997      -3.88112059E-03
  -11.5600004      -3.80374608E-03
  -11.5500002      -3.69772641E-03
  -11.5400000      -3.56239337E-03
  -11.5299997      -3.39724799E-03
  -11.5200005      -3.20192426E-03
  -11.5100002      -2.97615607E-03
  -11.5000000      -2.71970313E-03
  -11.4899998      -2.43232073E-03
  -11.4799995      -2.11371668E-03
  -11.4700003      -1.76357769E-03
  -11.4600000      -1.38161588E-03
  -11.4499998      -9.67645552E-04
  -11.4399996      -5.21675800E-04
  -11.4300003      -4.39977375E-05
  -11.4200001       4.64743469E-04
  -11.4099998       1.00352580E-03
  -11.3999996       1.57093315E-03
  -11.3900003       2.16518855E-03
  -11.3800001       2.78420281E-03
  -11.3699999       3.42562562E-03
  -11.3599997       4.08692937E-03
  -11.3500004       4.76547237E-03
  -11.3400002       5.45860920E-03
  -11.3299999       6.16375264E-03
  -11.3199997       6.87847845E-03
  -11.3100004       7.60061760E-03
  -11.3000002       8.32830183E-03
  -11.2900000       9.05999728E-03
  -11.2799997       9.79450438E-03
  -11.2700005       1.05308658E-02
  -11.2600002       1.12682767E-02
  -11.2500000       1.20059578E-02
  -11.2399998       1.27429990E-02
  -11.2299995       1.34782894E-02
  -11.2200003       1.42104160E-02
  -11.2100000       1.49376551E-02
  -11.1999998       1.56580415E-02
  -11.1899996       1.63693987E-02
  -11.1800003       1.70694962E-02
  -11.1700001       1.77560616E-02
  -11.1599998       1.84269510E-02
  -11.1499996       1.90801434E-02
  -11.1400003       1.97138377E-02
  -11.1300001       2.03264300E-02
  -11.1199999       2.09166389E-02
  -11.1099997       2.14834847E-02
  -11.1000004       2.20263600E-02
  -11.0900002       2.25451197E-02
  -11.0799999       2.30400451E-02
  -11.0699997       2.35118885E-02
  -11.0600004       2.39618048E-02
  -11.0500002       2.43912917E-02
  -11.0400000       2.48020794E-02
  -11.0299997       2.51960475E-02
  -11.0200005       2.55751256E-02
  -11.0100002       2.59412788E-02
  -11.0000000       2.62964312E-02
  -10.9899998       2.66424492E-02
  -10.9799995       2.69811060E-02
  -10.9700003       2.73140017E-02
  -10.9600000       2.76424158E-02
  -10.9499998       2.79672649E-02
  -10.9399996       2.82888729E-02
  -10.9300003       2.86070555E-02
  -10.9200001       2.89210528E-02
  -10.9099998       2.92297248E-02
  -10.8999996       2.95317546E-02
  -10.8900003       2.98258960E-02
  -10.8800001       3.01111601E-02
  -10.8699999       3.03870216E-02
  -10.8599997       3.06533314E-02
  -10.8500004       3.09101772E-02
  -10.8400002       3.11576724E-02
  -10.8299999       3.13956365E-02
  -10.8199997       3.16234343E-02
  -10.8100004       3.18398364E-02
  -10.8000002       3.20432074E-02
  -10.7900000       3.22317742E-02
  -10.7799997       3.24038975E-02
  -10.7700005       3.25585417E-02
  -10.7600002       3.26954015E-02
  -10.7500000       3.28149945E-02
  -10.7399998       3.29184271E-02
  -10.7299995       3.30070406E-02
  -10.7200003       3.30820307E-02
  -10.7100000       3.31438743E-02
  -10.6999998       3.31922770E-02
  -10.6899996       3.32260318E-02
  -10.6800003       3.32432278E-02
  -10.6700001       3.32416967E-02
  -10.6599998       3.32193784E-02
  -10.6499996       3.31747979E-02
  -10.6400003       3.31072025E-02
  -10.6300001       3.30166332E-02
  -10.6199999       3.29038687E-02
  -10.6099997       3.27701308E-02
  -10.6000004       3.26168947E-02
  -10.5900002       3.24457698E-02
  -10.5799999       3.22585069E-02
  -10.5699997       3.20570581E-02
  -10.5600004       3.18438374E-02
  -10.5500002       3.16217318E-02
  -10.5400000       3.13941427E-02
  -10.5299997       3.11647877E-02
  -10.5200005       3.09373848E-02
  -10.5100002       3.07151359E-02
  -10.5000000       3.05004660E-02
  -10.4899998       3.02945785E-02
  -10.4799995       3.00975125E-02
  -10.4700003       2.99081914E-02
  -10.4600000       2.97248960E-02
  -10.4499998       2.95455884E-02
  -10.4399996       2.93685198E-02
  -10.4300003       2.91923359E-02
  -10.4200001       2.90164035E-02
  -10.4099998       2.88408175E-02
  -10.3999996       2.86661293E-02
  -10.3900003       2.84933262E-02
  -10.3800001       2.83235162E-02
  -10.3699999       2.81580519E-02
  -10.3599997       2.79982947E-02
  -10.3500004       2.78457738E-02
  -10.3400002       2.77022589E-02
  -10.3299999       2.75697280E-02
  -10.3199997       2.74502970E-02
  -10.3100004       2.73460653E-02
  -10.3000002       2.72588879E-02
  -10.2900000       2.71901917E-02
  -10.2799997       2.71408148E-02
  -10.2700005       2.71108802E-02
  -10.2600002       2.70997919E-02
  -10.2500000       2.71064080E-02
  -10.2399998       2.71291658E-02
  -10.2299995       2.71662157E-02
  -10.2200003       2.72157621E-02
  -10.2100000       2.72763185E-02
  -10.1999998       2.73469668E-02
  -10.1899996       2.74276286E-02
  -10.1800003       2.75193360E-02
  -10.1700001       2.76244897E-02
  -10.1599998       2.77465899E-02
  -10.1499996       2.78900973E-02
  -10.1400003       2.80599017E-02
  -10.1300001       2.82606799E-02
  -10.1199999       2.84961201E-02
  -10.1099997       2.87682861E-02
  -10.1000004       2.90771984E-02
  -10.0900002       2.94209812E-02
  -10.0799999       2.97961235E-02
  -10.0699997       3.01985350E-02
  -10.0600004       3.06241140E-02
  -10.0500002       3.10699604E-02
  -10.0400000       3.15348506E-02
  -10.0299997       3.20193842E-02
  -10.0200005       3.25258672E-02
  -10.0100002       3.30574252E-02
  -10.0000000       3.36173661E-02
  -9.98999977       3.42082903E-02
  -9.97999954       3.48316357E-02
  -9.97000027       3.54874320E-02
  -9.96000004       3.61749604E-02
  -9.94999981       3.68929543E-02
  -9.93999958       3.76405641E-02
  -9.93000031       3.84179465E-02
  -9.92000008       3.92264053E-02
  -9.90999985       4.00682874E-02
  -9.89999962       4.09466103E-02
  -9.89000034       4.18641679E-02
  -9.88000011       4.28231955E-02
  -9.86999989       4.38245907E-02
  -9.85999966       4.48675416E-02
  -9.85000038       4.59502526E-02
  -9.84000015       4.70696166E-02
  -9.82999992       4.82222214E-02
  -9.81999969       4.94048633E-02
  -9.81000042       5.06146587E-02
  -9.80000019       5.18496931E-02
  -9.78999996       5.31092323E-02
  -9.77999973       5.43934591E-02
  -9.77000046       5.57039343E-02
  -9.76000023       5.70433997E-02
  -9.75000000       5.84158413E-02
  -9.73999977       5.98263368E-02
  -9.72999954       6.12806417E-02
  -9.72000027       6.27847910E-02
  -9.71000004       6.43440485E-02
  -9.69999981       6.59623221E-02
  -9.68999958       6.76414594E-02
  -9.68000031       6.93806633E-02
  -9.67000008       7.11767972E-02
  -9.65999985       7.30246007E-02
  -9.64999962       7.49178603E-02
  -9.64000034       7.68502355E-02
  -9.63000011       7.88158774E-02
  -9.61999989       8.08102489E-02
  -9.60999966       8.28300267E-02
  -9.60000038       8.48721787E-02
  -9.59000015       8.69338512E-02
  -9.57999992       8.90104920E-02
  -9.56999969       9.10963714E-02
  -9.56000042       9.31836963E-02
  -9.55000019       9.52629521E-02
  -9.53999996       9.73240584E-02
  -9.52999973       9.93570387E-02
  -9.52000046      0.101352610    
  -9.51000023      0.103302918    
  -9.50000000      0.105201341    
  -9.48999977      0.107041880    
  -9.47999954      0.108818650    
  -9.47000027      0.110525273    
  -9.46000004      0.112155028    
  -9.44999981      0.113700956    
  -9.43999958      0.115156874    
  -9.43000031      0.116518460    
  -9.42000008      0.117784001    
  -9.40999985      0.118955083    
  -9.39999962      0.120036177    
  -9.39000034      0.121034212    
  -9.38000011      0.121957459    
  -9.36999989      0.122814372    
  -9.35999966      0.123612836    
  -9.35000038      0.124360956    
  -9.34000015      0.125066474    
  -9.32999992      0.125738919    
  -9.31999969      0.126389891    
  -9.31000042      0.127033874    
  -9.30000019      0.127688274    
  -9.28999996      0.128371716    
  -9.27999973      0.129103109    
  -9.27000046      0.129899532    
  -9.26000023      0.130775094    
  -9.25000000      0.131740317    
  -9.23999977      0.132803231    
  -9.22999954      0.133969590    
  -9.22000027      0.135246053    
  -9.21000004      0.136641085    
  -9.19999981      0.138166234    
  -9.18999958      0.139834911    
  -9.18000031      0.141661957    
  -9.17000008      0.143661380    
  -9.15999985      0.145843595    
  -9.14999962      0.148214623    
  -9.14000034      0.150775149    
  -9.13000011      0.153521553    
  -9.11999989      0.156447113    
  -9.10999966      0.159544796    
  -9.10000038      0.162807867    
  -9.09000015      0.166230798    
  -9.07999992      0.169809282    
  -9.06999969      0.173537925    
  -9.06000042      0.177408978    
  -9.05000019      0.181410670    
  -9.03999996      0.185526028    
  -9.02999973      0.189734116    
  -9.02000046      0.194011211    
  -9.01000023      0.198333368    
  -9.00000000      0.202678129    
  -8.98999977      0.207026333    
  -8.97999954      0.211361423    
  -8.97000027      0.215670332    
  -8.96000004      0.219940186    
  -8.94999981      0.224157244    
  -8.93999958      0.228306085    
  -8.93000031      0.232369378    
  -8.92000008      0.236329854    
  -8.90999985      0.240169287    
  -8.89999962      0.243873030    
  -8.89000034      0.247429773    
  -8.88000011      0.250831157    
  -8.86999989      0.254070848    
  -8.85999966      0.257143080    
  -8.85000038      0.260040462    
  -8.84000015      0.262753934    
  -8.82999992      0.265271068    
  -8.81999969      0.267579287    
  -8.81000042      0.269667000    
  -8.80000019      0.271525413    
  -8.78999996      0.273151129    
  -8.77999973      0.274546057    
  -8.77000046      0.275715709    
  -8.76000023      0.276667684    
  -8.75000000      0.277409792    
  -8.73999977      0.277947426    
  -8.72999954      0.278283447    
  -8.72000027      0.278418601    
  -8.71000004      0.278354168    
  -8.69999981      0.278093815    
  -8.68999958      0.277644873    
  -8.68000031      0.277021468    
  -8.67000008      0.276240975    
  -8.65999985      0.275324434    
  -8.64999962      0.274292946    
  -8.64000034      0.273166418    
  -8.63000011      0.271961570    
  -8.61999989      0.270693630    
  -8.60999966      0.269373894    
  -8.60000038      0.268016607    
  -8.59000015      0.266636580    
  -8.57999992      0.265251845    
  -8.56999969      0.263883084    
  -8.56000042      0.262552679    
  -8.55000019      0.261280715    
  -8.53999996      0.260085583    
  -8.52999973      0.258979887    
  -8.52000046      0.257972986    
  -8.51000023      0.257070243    
  -8.50000000      0.256276190    
  -8.48999977      0.255595207    
  -8.47999954      0.255033523    
  -8.47000027      0.254598022    
  -8.46000004      0.254296958    
  -8.44999981      0.254134864    
  -8.43999958      0.254113704    
  -8.43000031      0.254229337    
  -8.42000008      0.254473895    
  -8.40999985      0.254835039    
  -8.39999962      0.255299509    
  -8.39000034      0.255856127    
  -8.38000011      0.256496191    
  -8.36999989      0.257216901    
  -8.35999966      0.258018672    
  -8.35000038      0.258905113    
  -8.34000015      0.259879559    
  -8.32999992      0.260945201    
  -8.31999969      0.262101859    
  -8.31000042      0.263346821    
  -8.30000019      0.264676213    
  -8.28999996      0.266084880    
  -8.27999973      0.267569661    
  -8.27000046      0.269129336    
  -8.26000023      0.270765662    
  -8.25000000      0.272482038    
  -8.23999977      0.274282873    
  -8.22999954      0.276174247    
  -8.22000027      0.278158545    
  -8.21000004      0.280240268    
  -8.19999981      0.282420933    
  -8.18999958      0.284701765    
  -8.18000031      0.287085146    
  -8.17000008      0.289572418    
  -8.15999985      0.292166382    
  -8.14999962      0.294869751    
  -8.14000034      0.297685087    
  -8.13000011      0.300615072    
  -8.11999989      0.303661436    
  -8.10999966      0.306825161    
  -8.10000038      0.310108393    
  -8.09000015      0.313511819    
  -8.07999992      0.317039430    
  -8.06999969      0.320693851    
  -8.06000042      0.324480534    
  -8.05000019      0.328405321    
  -8.03999996      0.332474738    
  -8.02999973      0.336695284    
  -8.02000046      0.341074407    
  -8.01000023      0.345619082    
  -8.00000000      0.350336760    
  -7.98999977      0.355233252    
  -7.98000002      0.360315114    
  -7.96999979      0.365586728    
  -7.96000004      0.371051371    
  -7.94999981      0.376711190    
  -7.94000006      0.382567078    
  -7.92999983      0.388619155    
  -7.92000008      0.394868881    
  -7.90999985      0.401315451    
  -7.90000010      0.407961160    
  -7.88999987      0.414805382    
  -7.88000011      0.421847850    
  -7.86999989      0.429087549    
  -7.86000013      0.436519593    
  -7.84999990      0.444135755    
  -7.84000015      0.451927990    
  -7.82999992      0.459883481    
  -7.82000017      0.467991561    
  -7.80999994      0.476240695    
  -7.80000019      0.484620720    
  -7.78999996      0.493124396    
  -7.78000021      0.501741171    
  -7.76999998      0.510464251    
  -7.76000023      0.519281387    
  -7.75000000      0.528181493    
  -7.73999977      0.537150800    
  -7.73000002      0.546172738    
  -7.71999979      0.555232584    
  -7.71000004      0.564316392    
  -7.69999981      0.573411524    
  -7.69000006      0.582510471    
  -7.67999983      0.591605663    
  -7.67000008      0.600695014    
  -7.65999985      0.609773517    
  -7.65000010      0.618838966    
  -7.63999987      0.627885878    
  -7.63000011      0.636908591    
  -7.61999989      0.645903885    
  -7.61000013      0.654866815    
  -7.59999990      0.663796961    
  -7.59000015      0.672697186    
  -7.57999992      0.681572914    
  -7.57000017      0.690430582    
  -7.55999994      0.699279308    
  -7.55000019      0.708127320    
  -7.53999996      0.716977715    
  -7.53000021      0.725836158    
  -7.51999998      0.734702706    
  -7.51000023      0.743577361    
  -7.50000000      0.752459109    
  -7.48999977      0.761351049    
  -7.48000002      0.770256877    
  -7.46999979      0.779183269    
  -7.46000004      0.788139999    
  -7.44999981      0.797135949    
  -7.44000006      0.806178927    