  -16.0000000       0.00000000    
  -15.9899998       0.00000000    
  -15.9799995       0.00000000    
  -15.9700003       0.00000000    
  -15.9600000       0.00000000    
  -15.9499998       0.00000000    
  -15.9399996       0.00000000    
  -15.9300003       0.00000000    
  -15.9200001       0.00000000    
  -15.9099998       0.00000000    
  -15.8999996       0.00000000    
  -15.8900003      -2.60272132E-39
  -15.8800001      -4.22280059E-38
  -15.8699999      -3.89757917E-37
  -15.8599997      -3.01073706E-36
  -15.8500004      -2.18660790E-35
  -15.8400002      -1.43963126E-34
  -15.8299999      -8.18381096E-34
  -15.8199997      -3.95965052E-33
  -15.8100004      -1.64025514E-32
  -15.8000002      -5.88477628E-32
  -15.7900000      -1.84842243E-31
  -15.7799997      -5.12248183E-31
  -15.7700005      -1.25685878E-30
  -15.7600002      -2.72412051E-30
  -15.7500000      -5.15449909E-30
  -15.7399998      -8.24643179E-30
  -15.7299995      -1.01581399E-29
  -15.7200003      -5.93431114E-30
  -15.7100000       1.42305053E-29
  -15.6999998       6.55846855E-29
  -15.6899996       1.65707024E-28
  -15.6800003       3.23909133E-28
  -15.6700001       5.19056994E-28
  -15.6599998       6.63863670E-28
  -15.6499996       5.60975967E-28
  -15.6400003      -1.27441962E-28
  -15.6300001      -1.84567837E-27
  -15.6199999      -4.95598821E-27
  -15.6099997      -9.28094393E-27
  -15.6000004      -1.33148905E-26
  -15.5900002      -1.32777185E-26
  -15.5799999      -2.69310045E-27
  -15.5699997       2.61110649E-26
  -15.5600004       7.67135614E-26
  -15.5500002       1.38433059E-25
  -15.5400000       1.73537221E-25
  -15.5299997       1.10639739E-25
  -15.5200005      -1.39000632E-25
  -15.5100002      -6.22653878E-25
  -15.5000000      -1.23807193E-24
  -15.4899998      -1.60892313E-24
  -15.4799995      -1.04129393E-24
  -15.4700003       1.27890830E-24
  -15.4600000       5.69313382E-24
  -15.4499998       1.10883488E-23
  -15.4399996       1.39061978E-23
  -15.4300003       8.04154552E-24
  -15.4200001      -1.30971713E-23
  -15.4099998      -5.13854022E-23
  -15.3999996      -9.61856272E-23
  -15.3900003      -1.17442633E-22
  -15.3800001      -6.66675502E-23
  -15.3699999       1.05414707E-22
  -15.3599997       4.09223097E-22
  -15.3500004       7.61122284E-22
  -15.3400002       9.38985705E-22
  -15.3299999       5.95869682E-22
  -15.3199997      -6.13930432E-22
  -15.3100004      -2.76970200E-21
  -15.3000002      -5.33019596E-21
  -15.2900000      -6.85990818E-21
  -15.2799997      -5.12078962E-21
  -15.2700005       2.16145243E-21
  -15.2600002       1.57215660E-20
  -15.2500000       3.26741189E-20
  -15.2399998       4.48799604E-20
  -15.2299995       3.93112739E-20
  -15.2200003       2.06500389E-21
  -15.2100000      -7.32495639E-20
  -15.1999998      -1.74261765E-19
  -15.1899996      -2.60472351E-19
  -15.1800003      -2.63484891E-19
  -15.1700001      -1.05134695E-19
  -15.1599998       2.62376262E-19
  -15.1499996       8.00504038E-19
  -15.1400003       1.33364004E-18
  -15.1300001       1.53886158E-18
  -15.1199999       1.01547349E-18
  -15.1099997      -5.42624123E-19
  -15.1000004      -3.09136482E-18
  -15.0900002      -5.98132977E-18
  -15.0799999      -7.85047341E-18
  -15.0699997      -6.83911855E-18
  -15.0600004      -1.24888587E-18
  -15.0500002       9.39267639E-18
  -15.0400000       2.31536622E-17
  -15.0299997       3.49698876E-17
  -15.0200005       3.70858288E-17
  -15.0100002       2.12533470E-17
  -15.0000000      -1.72581325E-17
  -14.9899998      -7.47113169E-17
  -14.9799995      -1.34963689E-16
  -14.9700003      -1.69267451E-16
  -14.9600000      -1.42389309E-16
  -14.9499998      -2.60724848E-17
  -14.9399996       1.82210141E-16
  -14.9300003       4.41221209E-16
  -14.9200001       6.58051426E-16
  -14.9099998       7.00547599E-16
  -14.8999996       4.36537011E-16
  -14.8900003      -2.02826486E-16
  -14.8800001      -1.15149047E-15
  -14.8699999      -2.15787636E-15
  -14.8599997      -2.79136870E-15
  -14.8500004      -2.53597323E-15
  -14.8400002      -9.77569618E-16
  -14.8299999       1.94851967E-15
  -14.8199997       5.72898992E-15
  -14.8100004       9.17703786E-15
  -14.8000002       1.05852522E-14
  -14.7900000       8.19249843E-15
  -14.7799997       9.25326003E-16
  -14.7700005      -1.07670830E-14
  -14.7600002      -2.42992069E-14
  -14.7500000      -3.49349523E-14
  -14.7399998      -3.66823407E-14
  -14.7299995      -2.41709661E-14
  -14.7200003       4.79436826E-15
  -14.7100000       4.67429270E-14
  -14.6999998       9.11745045E-14
  -14.6899996       1.21420533E-13
  -14.6800003       1.18421210E-13
  -14.6700001       6.72370213E-14
  -14.6599998      -3.50768676E-14
  -14.6499996      -1.72764838E-13
  -14.6400003      -3.09013828E-13
  -14.6300001      -3.90785548E-13
  -14.6199999      -3.62072622E-13
  -14.6099997      -1.84047385E-13
  -14.6000004       1.42734389E-13
  -14.5900002       5.61699071E-13
  -14.5799999       9.57791138E-13
  -14.5699997       1.17586464E-12
  -14.5600004       1.06142330E-12
  -14.5500002       5.17442209E-13
  -14.5400000      -4.37370111E-13
  -14.5299997      -1.62960064E-12
  -14.5200005      -2.73292109E-12
  -14.5100002      -3.32525370E-12
  -14.5000000      -3.00133898E-12
  -14.4899998      -1.52094103E-12
  -14.4799995       1.04672607E-12
  -14.4700003       4.23420977E-12
  -14.4600000       7.19294546E-12
  -14.4499998       8.84689284E-12
  -14.4399996       8.17643956E-12
  -14.4300003       4.57971942E-12
  -14.4200001      -1.78506006E-12
  -14.4099998      -9.79720124E-12
  -14.3999996      -1.74232833E-11
  -14.3900003      -2.20825268E-11
  -14.3800001      -2.13063265E-11
  -14.3699999      -1.35674805E-11
  -14.3599997       9.37804630E-13
  -14.3500004       1.98207735E-11
  -14.3400002       3.85860198E-11
  -14.3299999       5.14066949E-11
  -14.3199997       5.25426577E-11
  -14.3100004       3.81394256E-11
  -14.3000002       7.95455628E-12
  -14.2900000      -3.35424154E-11
  -14.2799997      -7.72050479E-11
  -14.2700005      -1.10674185E-10
  -14.2600002      -1.21205657E-10
  -14.2500000      -9.93646415E-11
  -14.2399998      -4.27017588E-11
  -14.2299995       4.16915773E-11
  -14.2200003       1.36790496E-10
  -14.2100000       2.18062124E-10
  -14.1999998       2.58691707E-10
  -14.1899996       2.36761472E-10
  -14.1800003       1.42763121E-10
  -14.1700001      -1.46574645E-11
  -14.1599998      -2.06799924E-10
  -14.1499996      -3.88298671E-10
  -14.1400003      -5.06053643E-10
  -14.1300001      -5.12416276E-10
  -14.1199999      -3.79839993E-10
  -14.1099997      -1.13156630E-10
  -14.1000004       2.44524345E-10
  -14.0900002       6.15368756E-10
  -14.0799999       9.00878039E-10
  -14.0699997       1.00476716E-09
  -14.0600004       8.60111982E-10
  -14.0500002       4.54049576E-10
  -14.0400000      -1.57403299E-10
  -14.0299997      -8.50614801E-10
  -14.0200005      -1.45463308E-09
  -14.0100002      -1.78870663E-09
  -14.0000000      -1.71002090E-09
  -13.9899998      -1.16035481E-09
  -13.9799995      -1.98438377E-10
  -13.9700003       9.93796712E-10
  -13.9600000       2.13783946E-09
  -13.9499998       2.91693003E-09
  -13.9399996       3.05582315E-09
  -13.9300003       2.40375053E-09
  -13.9200001       9.98097605E-10
  -13.9099998      -9.12433740E-10
  -13.8999996      -2.89886137E-09
  -13.8900003      -4.43812764E-09
  -13.8800001      -5.04016162E-09
  -13.8699999      -4.38756453E-09
  -13.8599997      -2.45132581E-09
  -13.8500004       4.53523302E-10
  -13.8400002       3.69769015E-09
  -13.8299999       6.45855103E-09
  -13.8199997       7.91353916E-09
  -13.8100004       7.46418838E-09
  -13.8000002       4.93396213E-09
  -13.7900000       6.81484036E-10
  -13.7799997      -4.41475523E-09
  -13.7700005      -9.11529074E-09
  -13.7600002      -1.21000392E-08
  -13.7500000      -1.23114514E-08
  -13.7399998      -9.27641874E-09
  -13.7299995      -3.31684880E-09
  -13.7200003       4.42320003E-09
  -13.7100000       1.21660255E-08
  -13.6999998       1.78827584E-08
  -13.6899996       1.97932994E-08
  -13.6800003       1.68660499E-08
  -13.6700001       9.18527565E-09
  -13.6599998      -1.92691973E-09
  -13.6499996      -1.40958587E-08
  -13.6400003      -2.43748133E-08
  -13.6300001      -2.99303018E-08
  -13.6199999      -2.87780075E-08
  -13.6099997      -2.03852846E-08
  -13.6000004      -5.97080385E-09
  -13.5900002       1.16077938E-08
  -13.5799999       2.83929786E-08
  -13.5699997       4.02002662E-08
  -13.5600004       4.36376659E-08
  -13.5500002       3.70287943E-08
  -13.5400000       2.09973514E-08
  -13.5299997      -1.46670809E-09
  -13.5200005      -2.55255799E-08
  -13.5100002      -4.55216416E-08
  -13.5000000      -5.63049234E-08
  -13.4899998      -5.45548460E-08
  -13.4799995      -3.97637017E-08
  -13.4700003      -1.46033985E-08
  -13.4600000       1.54742263E-08
  -13.4499998       4.33738023E-08
  -13.4399996       6.20109972E-08
  -13.4300003       6.61139268E-08
  -13.4200001       5.37263780E-08
  -13.4099998       2.69989879E-08
  -13.3999996      -8.00517697E-09
  -13.3900003      -4.25396429E-08
  -13.3800001      -6.72258693E-08
  -13.3699999      -7.44792743E-08
  -13.3599997      -6.07163031E-08
  -13.3500004      -2.77403274E-08
  -13.3400002       1.71499277E-08
  -13.3299999       6.25028491E-08
  -13.3199997       9.53212336E-08
  -13.3100004       1.04393905E-07
  -13.3000002       8.35573246E-08
  -13.2900000       3.40167539E-08
  -13.2799997      -3.49998146E-08
  -13.2700005      -1.07630228E-07
  -13.2600002      -1.64693134E-07
  -13.2500000      -1.88294081E-07
  -13.2399998      -1.66675790E-07
  -13.2299995      -9.80793402E-08
  -13.2200003       7.49932116E-09
  -13.2100000       1.29354234E-07
  -13.1999998       2.39962532E-07
  -13.1899996       3.11044261E-07
  -13.1800003       3.20479273E-07
  -13.1700001       2.58417288E-07
  -13.1599998       1.30961084E-07
  -13.1499996      -3.97345943E-08
  -13.1400003      -2.19301683E-07
  -13.1300001      -3.68321508E-07
  -13.1199999      -4.51306562E-07
  -13.1099997      -4.45416077E-07
  -13.1000004      -3.46722828E-07
  -13.0900002      -1.72306699E-07
  -13.0799999       4.26263398E-08
  -13.0699997       2.52202227E-07
  -13.0600004       4.10339766E-07
  -13.0500002       4.81785776E-07
  -13.0400000       4.51003189E-07
  -13.0299997       3.26572348E-07
  -13.0200005       1.39767195E-07
  -13.0100002      -6.26331484E-08
  -13.0000000      -2.29768006E-07
  -12.9899998      -3.19660870E-07
  -12.9799995      -3.10488389E-07
  -12.9700003      -2.07162202E-07
  -12.9600000      -4.12562464E-08
  -12.9499998       1.36100809E-07
  -12.9399996       2.66970829E-07
  -12.9300003       3.02059334E-07
  -12.9200001       2.15063451E-07
  -12.9099998       1.21234738E-08
  -12.8999996      -2.66429197E-07
  -12.8900003      -5.53085499E-07
  -12.8800001      -7.67859547E-07
  -12.8699999      -8.37599373E-07
  -12.8599997      -7.15450710E-07
  -12.8500004      -3.95653672E-07
  -12.8400002       8.03579212E-08
  -12.8299999       6.28756482E-07
  -12.8199997       1.13873136E-06
  -12.8100004       1.49564835E-06
  -12.8000002       1.60703337E-06
  -12.7900000       1.42545855E-06
  -12.7799997       9.62741979E-07
  -12.7700005       2.91581983E-07
  -12.7600002      -4.66556571E-07
  -12.7500000      -1.16533045E-06
  -12.7399998      -1.66435257E-06
  -12.7299995      -1.86027683E-06
  -12.7200003      -1.71102454E-06
  -12.7100000      -1.24728990E-06
  -12.6999998      -5.68127405E-07
  -12.6899996       1.79036775E-07
  -12.6800003       8.30014983E-07
  -12.6700001       1.24028304E-06
  -12.6599998       1.31803961E-06
  -12.6499996       1.04619244E-06
  -12.6400003       4.87864725E-07
  -12.6300001      -2.26339722E-07
  -12.6199999      -9.26872303E-07
  -12.6099997      -1.44336639E-06
  -12.6000004      -1.64369328E-06
  -12.5900002      -1.46479840E-06
  -12.5799999      -9.27835401E-07
  -12.5699997      -1.33609092E-07
  -12.5600004       7.61065280E-07
  -12.5500002       1.58086982E-06
  -12.5400000       2.17458364E-06
  -12.5299997       2.45241290E-06
  -12.5200005       2.40851659E-06
  -12.5100002       2.12238137E-06
  -12.5000000       1.73754790E-06
  -12.4899998       1.42168460E-06
  -12.4799995       1.31678985E-06
  -12.4700003       1.49128266E-06
  -12.4600000       1.90603157E-06
  -12.4499998       2.40383429E-06
  -12.4399996       2.72690841E-06
  -12.4300003       2.56063527E-06
  -12.4200001       1.59556396E-06
  -12.4099998      -4.05034967E-07
  -12.3999996      -3.54679037E-06
  -12.3900003      -7.76843626E-06
  -12.3800001      -1.28375887E-05
  -12.3699999      -1.83803659E-05
  -12.3599997      -2.39397614E-05
  -12.3500004      -2.90509870E-05
  -12.3400002      -3.33182070E-05
  -12.3299999      -3.64762091E-05
  -12.3199997      -3.84241175E-05
  -12.3100004      -3.92238617E-05
  -12.3000002      -3.90647547E-05
  -12.2900000      -3.82023827E-05
  -12.2799997      -3.68865149E-05
  -12.2700005      -3.52947136E-05
  -12.2600002      -3.34869765E-05
  -12.2500000      -3.13916316E-05
  -12.2399998      -2.88253468E-05
  -12.2299995      -2.55418363E-05
  -12.2200003      -2.12972482E-05
  -12.2100000      -1.59164920E-05
  -12.1999998      -9.34460968E-06
  -12.1899996      -1.67138023E-06
  -12.1800003       6.87616603E-06
  -12.1700001       1.59707470E-05
  -12.1599998       2.52417503E-05
  -12.1499996       3.43379434E-05
  -12.1400003       4.29808970E-05
  -12.1300001       5.09968631E-05
  -12.1199999       5.83205729E-05
  -12.1099997       6.49716676E-05
  -12.1000004       7.10115419E-05
  -12.0900002       7.64927972E-05
  -12.0799999       8.14152954E-05
  -12.0699997       8.57007253E-05
  -12.0600004       8.91921372E-05
  -12.0500002       9.16788995E-05
  -12.0400000       9.29403250E-05
  -12.0299997       9.27966757E-05
  -12.0200005       9.11547831E-05
  -12.0100002       8.80363368E-05
  -12.0000000       8.35821411E-05
  -11.9899998       7.80310293E-05
  -11.9799995       7.16787617E-05
  -11.9700003       6.48267451E-05
  -11.9600000       5.77324099E-05
  -11.9499998       5.05721218E-05
  -11.9399996       4.34240828E-05
  -11.9300003       3.62731589E-05
  -11.9200001       2.90344669E-05
  -11.9099998       2.15882592E-05
  -11.8999996       1.38168207E-05
  -11.8900003       5.63458707E-06
  -11.8800001      -2.99435760E-06
  -11.8699999      -1.20532486E-05
  -11.8599997      -2.14818210E-05
  -11.8500004      -3.11924232E-05
  -11.8400002      -4.10864886E-05
  -11.8299999      -5.10659374E-05
  -11.8199997      -6.10362622E-05
  -11.8100004      -7.09014275E-05
  -11.8000002      -8.05537566E-05
  -11.7900000      -8.98634971E-05
  -11.7799997      -9.86730593E-05
  -11.7700005      -1.06799540E-04
  -11.7600002      -1.14046292E-04
  -11.7500000      -1.20221841E-04
  -11.7399998      -1.25161838E-04
  -11.7299995      -1.28749176E-04
  -11.7200003      -1.30927350E-04
  -11.7100000      -1.31704495E-04
  -11.6999998      -1.31147448E-04
  -11.6899996      -1.29367516E-04
  -11.6800003      -1.26501691E-04
  -11.6700001      -1.22693295E-04
  -11.6599998      -1.18075142E-04
  -11.6499996      -1.12757705E-04
  -11.6400003      -1.06822692E-04
  -11.6300001      -1.00321085E-04
  -11.6199999      -9.32746261E-05
  -11.6099997      -8.56791812E-05
  -11.6000004      -7.75096341E-05
  -11.5900002      -6.87260545E-05
  -11.5799999      -5.92818906E-05
  -11.5699997      -4.91339779E-05
  -11.5600004      -3.82542712E-05
  -11.5500002      -2.66415209E-05
  -11.5400000      -1.43305979E-05
  -11.5299997      -1.39701251E-06
  -11.5200005       1.20450331E-05
  -11.5100002       2.58514683E-05
  -11.5000000       3.98622396E-05
  -11.4899998       5.39167850E-05
  -11.4799995       6.78671204E-05
  -11.4700003       8.15842941E-05
  -11.4600000       9.49565729E-05
  -11.4499998       1.07879525E-04
  -11.4399996       1.20241581E-04
  -11.4300003       1.31909925E-04
  -11.4200001       1.42722638E-04
  -11.4099998       1.52491368E-04
  -11.3999996       1.61015938E-04
  -11.3900003       1.68108920E-04
  -11.3800001       1.73624721E-04
  -11.3699999       1.77486058E-04
  -11.3599997       1.79700481E-04
  -11.3500004       1.80362724E-04
  -11.3400002       1.79641065E-04
  -11.3299999       1.77752008E-04
  -11.3199997       1.74929126E-04
  -11.3100004       1.71394277E-04
  -11.3000002       1.67338236E-04
  -11.2900000       1.62913871E-04
  -11.2799997       1.58241441E-04
  -11.2700005       1.53420347E-04
  -11.2600002       1.48540785E-04
  -11.2500000       1.43687095E-04
  -11.2399998       1.38929521E-04
  -11.2299995       1.34304966E-04
  -11.2200003       1.29792083E-04
  -11.2100000       1.25291350E-04
  -11.1999998       1.20619450E-04
  -11.1899996       1.15525778E-04
  -11.1800003       1.09731947E-04
  -11.1700001       1.02988495E-04
  -11.1599998       9.51354086E-05
  -11.1499996       8.61508233E-05
  -11.1400003       7.61721676E-05
  -11.1300001       6.54814867E-05
  -11.1199999       5.44547656E-05
  -11.1099997       4.34865215E-05
  -11.1000004       3.29083778E-05
  -11.0900002       2.29243196E-05
  -11.0799999       1.35818354E-05
  -11.0699997       4.78937545E-06
  -11.0600004      -3.62227365E-06
  -11.0500002      -1.18100979E-05
  -11.0400000      -1.98252801E-05
  -11.0299997      -2.75437051E-05
  -11.0200005      -3.46435190E-05
  -11.0100002      -4.06400868E-05
  -11.0000000      -4.49740764E-05
  -10.9899998      -4.71321109E-05
  -10.9799995      -4.67699429E-05
  -10.9700003      -4.38054667E-05
  -10.9600000      -3.84563245E-05
  -10.9499998      -3.12105331E-05
  -10.9399996      -2.27369583E-05
  -10.9300003      -1.37584466E-05
  -10.9200001      -4.92033723E-06
  -10.9099998       3.31164188E-06
  -10.8999996       1.06989182E-05
  -10.8900003       1.72138989E-05
  -10.8800001       2.29687575E-05
  -10.8699999       2.81139037E-05
  -10.8599997       3.27388116E-05
  -10.8500004       3.68064648E-05
  -10.8400002       4.01416328E-05
  -10.8299999       4.24763566E-05
  -10.8199997       4.35378643E-05
  -10.8100004       4.31505068E-05
  -10.8000002       4.13185771E-05
  -10.7900000       3.82615435E-05
  -10.7799997       3.43871288E-05
  -10.7700005       3.02063836E-05
  -10.7600002       2.62122667E-05
  -10.7500000       2.27553410E-05
  -10.7399998       1.99516326E-05
  -10.7299995       1.76500162E-05
  -10.7200003       1.54702902E-05
  -10.7100000       1.29027103E-05
  -10.6999998       9.44408748E-06
  -10.6899996       4.73378077E-06
  -10.6800003      -1.34573588E-06
  -10.6700001      -8.62939214E-06
  -10.6599998      -1.67001745E-05
  -10.6499996      -2.49794775E-05
  -10.6400003      -3.28510032E-05
  -10.6300001      -3.97844815E-05
  -10.6199999      -4.54270848E-05
  -10.6099997      -4.96411703E-05
  -10.6000004      -5.24832976E-05
  -10.5900002      -5.41363443E-05
  -10.5799999      -5.48195603E-05
  -10.5699997      -5.47052114E-05
  -10.5600004      -5.38674030E-05
  -10.5500002      -5.22763003E-05
  -10.5400000      -4.98360314E-05
  -10.5299997      -4.64504083E-05
  -10.5200005      -4.20921278E-05
  -10.5100002      -3.68501787E-05
  -10.5000000      -3.09378411E-05
  -10.4899998      -2.46567342E-05
  -10.4799995      -1.83270895E-05
  -10.4700003      -1.22059628E-05
  -10.4600000      -6.42006626E-06
  -10.4499998      -9.36026026E-07
  -10.4399996       4.42014425E-06
  -10.4300003       9.89766977E-06
  -10.4200001       1.57279919E-05
  -10.4099998       2.20321053E-05
  -10.3999996       2.87573403E-05
  -10.3900003       3.56656492E-05
  -10.3800001       4.23802885E-05
  -10.3699999       4.84808188E-05
  -10.3599997       5.36216176E-05
  -10.3500004       5.76404964E-05
  -10.3400002       6.06260292E-05
  -10.3299999       6.29222268E-05
  -10.3199997       6.50672082E-05
  -10.3100004       6.76798591E-05
  -10.3000002       7.13235568E-05
  -10.2900000       7.63819335E-05
  -10.2799997       8.29777709E-05
  -10.2700005       9.09533337E-05
  -10.2600002       9.99134354E-05
  -10.2500000       1.09314853E-04
  -10.2399998       1.18574411E-04
  -10.2299995       1.27165447E-04
  -10.2200003       1.34679343E-04
  -10.2100000       1.40841454E-04
  -10.1999998       1.45487720E-04
  -10.1899996       1.48519859E-04
  -10.1800003       1.49863641E-04
  -10.1700001       1.49450760E-04
  -10.1599998       1.47233484E-04
  -10.1499996       1.43228419E-04
  -10.1400003       1.37569921E-04
  -10.1300001       1.30549481E-04
  -10.1199999       1.22617843E-04
  -10.1099997       1.14338145E-04
  -10.1000004       1.06294137E-04
  -10.0900002       9.89741166E-05
  -10.0799999       9.26614666E-05
  -10.0699997       8.73651661E-05
  -10.0600004       8.28139237E-05
  -10.0500002       7.85220691E-05
  -10.0400000       7.39140378E-05
  -10.0299997       6.84788756E-05
  -10.0200005       6.19154162E-05
  -10.0100002       5.42315975E-05
  -10.0000000       4.57716560E-05
  -9.98999977       3.71654460E-05
  -9.97999954       2.92125642E-05
  -9.97000027       2.27303281E-05
  -9.96000004       1.84022811E-05
  -9.94999981       1.66610553E-05
  -9.93999958       1.76287031E-05
  -9.93000031       2.11214119E-05
  -9.92000008       2.67097384E-05
  -9.90999985       3.38135542E-05
  -9.89999962       4.18058880E-05
  -9.89000034       5.01027425E-05
  -9.88000011       5.82230605E-05
  -9.86999989       6.58147110E-05
  -9.85999966       7.26519866E-05
  -9.85000038       7.86155215E-05
  -9.84000015       8.36686449E-05
  -9.82999992       8.78411083E-05
  -9.81999969       9.12245523E-05
  -9.81000042       9.39788515E-05
  -9.80000019       9.63427301E-05
  -9.78999996       9.86378946E-05
  -9.77999973       1.01259357E-04
  -9.77000046       1.04644452E-04
  -9.76000023       1.09222099E-04
  -9.75000000       1.15347510E-04
  -9.73999977       1.23234538E-04
  -9.72999954       1.32900677E-04
  -9.72000027       1.44139252E-04
  -9.71000004       1.56529582E-04
  -9.69999981       1.69487947E-04
  -9.68999958       1.82353149E-04
  -9.68000031       1.94491280E-04
  -9.67000008       2.05396558E-04
  -9.65999985       2.14765954E-04
  -9.64999962       2.22527902E-04
  -9.64000034       2.28819248E-04
  -9.63000011       2.33915212E-04
  -9.61999989       2.38132910E-04
  -9.60999966       2.41735484E-04
  -9.60000038       2.44865572E-04
  -9.59000015       2.47526652E-04
  -9.57999992       2.49616132E-04
  -9.56999969       2.50997313E-04
  -9.56000042       2.51582242E-04
  -9.55000019       2.51393300E-04
  -9.53999996       2.50578945E-04
  -9.52999973       2.49371602E-04
  -9.52000046       2.48001597E-04
  -9.51000023       2.46594631E-04
  -9.50000000       2.45092378E-04
  -9.48999977       2.43231276E-04
  -9.47999954       2.40595546E-04
  -9.47000027       2.36736028E-04
  -9.46000004       2.31321392E-04
  -9.44999981       2.24273055E-04
  -9.43999958       2.15834589E-04
  -9.43000031       2.06545694E-04
  -9.42000008       1.97119763E-04
  -9.40999985       1.88255901E-04
  -9.39999962       1.80442890E-04
  -9.39000034       1.73816123E-04
  -9.38000011       1.68117287E-04
  -9.36999989       1.62774304E-04
  -9.35999966       1.57081100E-04
  -9.35000038       1.50423293E-04
  -9.34000015       1.42480349E-04
  -9.32999992       1.33340553E-04
  -9.31999969       1.23492762E-04
  -9.31000042       1.13698297E-04
  -9.30000019       1.04785249E-04
  -9.28999996       9.74328432E-05
  -9.27999973       9.20123348E-05
  -9.27000046       8.85339832E-05
  -9.26000023       8.67119234E-05
  -9.25000000       8.61159497E-05
  -9.23999977       8.63551031E-05
  -9.22999954       8.72271266E-05
  -9.22000027       8.87825008E-05
  -9.21000004       9.12844480E-05
  -9.19999981       9.50843896E-05
  -9.18999958       1.00461024E-04
  -9.18000031       1.07483924E-04
  -9.17000008       1.15951239E-04
  -9.15999985       1.25422317E-04
  -9.14999962       1.35332230E-04
  -9.14000034       1.45145779E-04
  -9.13000011       1.54495210E-04
  -9.11999989       1.63254197E-04
  -9.10999966       1.71526553E-04
  -9.10000038       1.79558672E-04
  -9.09000015       1.87614874E-04
  -9.07999992       1.95862842E-04
  -9.06999969       2.04313401E-04
  -9.06000042       2.12834944E-04
  -9.05000019       2.21231385E-04
  -9.03999996       2.29350495E-04
  -9.02999973       2.37176413E-04
  -9.02000046       2.44869560E-04
  -9.01000023       2.52735452E-04
  -9.00000000       2.61136243E-04
  -8.98999977       2.70376157E-04
  -8.97999954       2.80604610E-04
  -8.97000027       2.91769102E-04
  -8.96000004       3.03633715E-04
  -8.94999981       3.15846410E-04
  -8.93999958       3.28028284E-04
  -8.93000031       3.39843391E-04
  -8.92000008       3.51024966E-04
  -8.90999985       3.61353741E-04
  -8.89999962       3.70604102E-04
  -8.89000034       3.78494500E-04
  -8.88000011       3.84674000E-04
  -8.86999989       3.88764951E-04
  -8.85999966       3.90453817E-04
  -8.85000038       3.89598717E-04
  -8.84000015       3.86310276E-04
  -8.82999992       3.80966027E-04
  -8.81999969       3.74139316E-04
  -8.81000042       3.66459833E-04
  -8.80000019       3.58443533E-04
  -8.78999996       3.50354647E-04
  -8.77999973       3.42145999E-04
  -8.77000046       3.33506847E-04
  -8.76000023       3.24005028E-04
  -8.75000000       3.13277822E-04
  -8.73999977       3.01207823E-04
  -8.72999954       2.88021984E-04
  -8.72000027       2.74280843E-04
  -8.71000004       2.60758563E-04
  -8.69999981       2.48261233E-04
  -8.68999958       2.37442306E-04
  -8.68000031       2.28679040E-04
  -8.67000008       2.22049319E-04
  -8.65999985       2.17407942E-04
  -8.64999962       2.14526837E-04
  -8.64000034       2.13241015E-04
  -8.63000011       2.13543681E-04
  -8.61999989       2.15598528E-04
  -8.60999966       2.19666719E-04
  -8.60000038       2.25992189E-04
  -8.59000015       2.34695486E-04
  -8.57999992       2.45727017E-04
  -8.56999969       2.58905464E-04
  -8.56000042       2.74024176E-04
  -8.55000019       2.90983706E-04
  -8.53999996       3.09888826E-04
  -8.52999973       3.31057119E-04
  -8.52000046       3.54927208E-04
  -8.51000023       3.81887250E-04
  -8.50000000       4.12085617E-04
  -8.48999977       4.45296784E-04
  -8.47999954       4.80897492E-04
  -8.47000027       5.17976296E-04
  -8.46000004       5.55540959E-04
  -8.44999981       5.92756434E-04
  -8.43999958       6.29129529E-04
  -8.43000031       6.64568564E-04
  -8.42000008       6.99295430E-04
  -8.40999985       7.33641675E-04
  -8.39999962       7.67802063E-04
  -8.39000034       8.01642251E-04
  -8.38000011       8.34635634E-04
  -8.36999989       8.65960668E-04
  -8.35999966       8.94724450E-04
  -8.35000038       9.20234539E-04
  -8.34000015       9.42213170E-04
  -8.32999992       9.60867212E-04
  -8.31999969       9.76777053E-04
  -8.31000042       9.90636880E-04
  -8.30000019       1.00293069E-03
  -8.28999996       1.01366511E-03
  -8.27999973       1.02225435E-03
  -8.27000046       1.02761143E-03
  -8.26000023       1.02842296E-03
  -8.25000000       1.02352351E-03
  -8.23999977       1.01224321E-03
  -8.22999954       9.94614558E-04
  -8.22000027       9.71373403E-04
  -8.21000004       9.43757477E-04
  -8.19999981       9.13172320E-04
  -8.18999958       8.80847569E-04
  -8.18000031       8.47596442E-04
  -8.17000008       8.13753577E-04
  -8.15999985       7.79300870E-04
  -8.14999962       7.44116725E-04
  -8.14000034       7.08244101E-04
  -8.13000011       6.72067748E-04
  -8.11999989       6.36326440E-04
  -8.10999966       6.01951557E-04
  -8.10000038       5.69794676E-04
  -8.09000015       5.40343521E-04
  -8.07999992       5.13543433E-04
  -8.06999969       4.88799531E-04
  -8.06000042       4.65168705E-04
  -8.05000019       4.41690820E-04
  -8.03999996       4.17747971E-04
  -8.02999973       3.93330032E-04
  -8.02000046       3.69124318E-04
  -8.01000023       3.46389425E-04
  -8.00000000       3.26657231E-04
  -7.98999977       3.11357901E-04
  -7.98000002       3.01477907E-04
  -7.96999979       2.97358842E-04
  -7.96000004       2.98681902E-04
  -7.94999981       3.04628484E-04
  -7.94000006       3.14156990E-04
  -7.92999983       3.26298294E-04
  -7.92000008       3.40382569E-04
  -7.90999985       3.56140867E-04
  -7.90000010       3.73670890E-04
  -7.88999987       3.93299764E-04
  -7.88000011       4.15401330E-04
  -7.86999989       4.40231408E-04
  -7.86000013       4.67826234E-04
  -7.84999990       4.97980451E-04
  -7.84000015       5.30290010E-04
  -7.82999992       5.64236543E-04
  -7.82000017       5.99272607E-04
  -7.80999994       6.34894823E-04
  -7.80000019       6.70690439E-04
  -7.78999996       7.06360966E-04
  -7.78000021       7.41728873E-04
  -7.76999998       7.76731875E-04
  -7.76000023       8.11405713E-04
  -7.75000000       8.45840143E-04
  -7.73999977       8.80120439E-04
  -7.73000002       9.14252130E-04
  -7.71999979       9.48095985E-04
  -7.71000004       9.81332385E-04
  -7.69999981       1.01348979E-03
  -7.69000006       1.04403170E-03
  -7.67999983       1.07249443E-03
  -7.67000008       1.09863060E-03
  -7.65999985       1.12251122E-03
  -7.65000010       1.14453107E-03
  -7.63999987       1.16531434E-03
  -7.63000011       1.18552963E-03
  -7.61999989       1.20566855E-03
  -7.61000013       1.22585963E-03
  -7.59999990       1.24579296E-03
  -7.59000015       1.26477773E-03
  -7.57999992       1.28194306E-03
  -7.57000017       1.29650196E-03
  -7.55999994       1.30801403E-03
  -7.55000019       1.31654518E-03
  -7.53999996       1.32267794E-03
  -7.53000021       1.32735749E-03
  -7.51999998       1.33162923E-03
  -7.51000023       1.33634964E-03
  -7.50000000       1.34196982E-03
  -7.48999977       1.34846440E-03
  -7.48000002       1.35542452E-03
  -7.46999979       1.36228558E-03
  -7.46000004       1.36860425E-03
  -7.44999981       1.37429195E-03
  -7.44000006       1.37971865E-03