  -16.0000000       0.00000000    
  -15.9899998       0.00000000    
  -15.9799995       0.00000000    
  -15.9700003       0.00000000    
  -15.9600000       0.00000000    
  -15.9499998       0.00000000    
  -15.9399996       0.00000000    
  -15.9300003       0.00000000    
  -15.9200001       0.00000000    
  -15.9099998       0.00000000    
  -15.8999996       0.00000000    
  -15.8900003       0.00000000    
  -15.8800001       7.74918051E-43
  -15.8699999       7.45280588E-41
  -15.8599997       1.73597058E-39
  -15.8500004       2.25394192E-38
  -15.8400002       2.04237099E-37
  -15.8299999       1.42275030E-36
  -15.8199997       8.04707244E-36
  -15.8100004       3.82420340E-35
  -15.8000002       1.56350357E-34
  -15.7900000       5.59233448E-34
  -15.7799997       1.77177653E-33
  -15.7700005       5.01836905E-33
  -15.7600002       1.27964374E-32
  -15.7500000       2.95366612E-32
  -15.7399998       6.20069156E-32
  -15.7299995       1.19023740E-31
  -15.7200003       2.10626912E-31
  -15.7100000       3.48877884E-31
  -15.6999998       5.55972200E-31
  -15.6899996       8.88163283E-31
  -15.6800003       1.47908429E-30
  -15.6700001       2.58190977E-30
  -15.6599998       4.53395281E-30
  -15.6499996       7.48442933E-30
  -15.6400003       1.06613042E-29
  -15.6300001       1.10196039E-29
  -15.6199999       1.49689811E-30
  -15.6099997      -3.00268488E-29
  -15.6000004      -9.86340345E-29
  -15.5900002      -2.13449251E-28
  -15.5799999      -3.58401479E-28
  -15.5699997      -4.63029044E-28
  -15.5600004      -3.73427946E-28
  -15.5500002       1.50681268E-28
  -15.5400000       1.36974959E-27
  -15.5299997       3.38128664E-27
  -15.5200005       5.80126846E-27
  -15.5100002       7.37785936E-27
  -15.5000000       5.75488436E-27
  -15.4899998      -2.22428923E-27
  -15.4799995      -1.91906809E-26
  -15.4700003      -4.45949941E-26
  -15.4600000      -7.10460457E-26
  -15.4499998      -8.11200891E-26
  -15.4399996      -4.75573363E-26
  -15.4300003       5.92499991E-26
  -15.4200001       2.53281740E-25
  -15.4099998       5.04971707E-25
  -15.3999996       7.11412662E-25
  -15.3900003       6.82909539E-25
  -15.3800001       1.72822575E-25
  -15.3699999      -1.02226473E-24
  -15.3599997      -2.88234372E-24
  -15.3500004      -4.93547473E-24
  -15.3400002      -6.07643186E-24
  -15.3299999      -4.59598844E-24
  -15.3199997       1.37833919E-24
  -15.3100004       1.28796949E-23
  -15.3000002       2.85779599E-23
  -15.2900000       4.31382464E-23
  -15.2799997       4.63510939E-23
  -15.2700005       2.43694769E-23
  -15.2600002      -3.55269252E-23
  -15.2500000      -1.35927550E-22
  -15.2399998      -2.57220000E-22
  -15.2299995      -3.46777928E-22
  -15.2200003      -3.17437149E-22
  -15.2100000      -6.58437459E-23
  -15.1999998       4.80347528E-22
  -15.1899996       1.28642277E-21
  -15.1800003       2.12404108E-21
  -15.1700001       2.51787155E-21
  -15.1599998       1.79238265E-21
  -15.1499996      -7.10889035E-22
  -15.1400003      -5.21334257E-21
  -15.1300001      -1.09410372E-20
  -15.1199999      -1.56422213E-20
  -15.1099997      -1.55524027E-20
  -15.1000004      -6.25160044E-21
  -15.0900002       1.52813298E-20
  -15.0799999       4.75707757E-20
  -15.0699997       8.14403839E-20
  -15.0600004       9.85494839E-20
  -15.0500002       7.41032337E-20
  -15.0400000      -1.42198244E-20
  -15.0299997      -1.71041551E-19
  -15.0200005      -3.65373716E-19
  -15.0100002      -5.18302738E-19
  -15.0000000      -5.08172257E-19
  -14.9899998      -2.04764993E-19
  -14.9799995       4.63498197E-19
  -14.9700003       1.42120155E-18
  -14.9600000       2.36989872E-18
  -14.9499998       2.77730936E-18
  -14.9399996       1.98909454E-18
  -14.9300003      -5.04378703E-19
  -14.9200001      -4.67548083E-18
  -14.9099998      -9.56248830E-18
  -14.8999996      -1.30829218E-17
  -14.8900003      -1.23155298E-17
  -14.8800001      -4.44277053E-18
  -14.8699999       1.16706764E-17
  -14.8599997       3.36486287E-17
  -14.8500004       5.43128875E-17
  -14.8400002       6.19938848E-17
  -14.8299999       4.33971077E-17
  -14.8199997      -1.06890463E-17
  -14.8100004      -9.78415301E-17
  -14.8000002      -1.97218877E-16
  -14.7900000      -2.67503990E-16
  -14.7799997      -2.53758710E-16
  -14.7700005      -1.05613713E-16
  -14.7600002       1.94859532E-16
  -14.7500000       6.03102282E-16
  -14.7399998       9.93180753E-16
  -14.7299995       1.16626114E-15
  -14.7200003       8.99461216E-16
  -14.7100000       3.66251256E-17
  -14.6999998      -1.39646807E-15
  -14.6899996      -3.09204592E-15
  -14.6800003      -4.43132867E-15
  -14.6700001      -4.58211621E-15
  -14.6599998      -2.75212884E-15
  -14.6499996       1.42761283E-15
  -14.6400003       7.48917140E-15
  -14.6300001       1.38531053E-14
  -14.6199999       1.78940555E-14
  -14.6099997       1.65057685E-14
  -14.6000004       7.19053299E-15
  -14.5900002      -1.05201246E-14
  -14.5799999      -3.37533549E-14
  -14.5699997      -5.57152218E-14
  -14.5600004      -6.64767042E-14
  -14.5500002      -5.54982120E-14
  -14.5400000      -1.57186852E-14
  -14.5299997       5.17142413E-14
  -14.5200005       1.33720454E-13
  -14.5100002       2.04606148E-13
  -14.5000000       2.30202386E-13
  -14.4899998       1.77456099E-13
  -14.4799995       2.82104238E-14
  -14.4700003      -2.06387668E-13
  -14.4600000      -4.76314951E-13
  -14.4499998      -6.93954930E-13
  -14.4399996      -7.50686676E-13
  -14.4300003      -5.49196593E-13
  -14.4200001      -4.59566060E-14
  -14.4099998       7.08017846E-13
  -14.3999996       1.54450487E-12
  -14.3900003       2.18987133E-12
  -14.3800001       2.32152904E-12
  -14.3699999       1.66654288E-12
  -14.3599997       1.23042960E-13
  -14.3500004      -2.13106486E-12
  -14.3400002      -4.58731837E-12
  -14.3299999      -6.45537530E-12
  -14.3199997      -6.83266464E-12
  -14.3100004      -4.98081914E-12
  -14.3000002      -6.50920940E-13
  -14.2900000       5.63967970E-12
  -14.2799997       1.24946537E-11
  -14.2700005       1.77905086E-11
  -14.2600002       1.91353721E-11
  -14.2500000       1.45874337E-11
  -14.2399998       3.47667424E-12
  -14.2299995      -1.29139416E-11
  -14.2200003      -3.10876359E-11
  -14.2100000      -4.57238587E-11
  -14.1999998      -5.08072681E-11
  -14.1899996      -4.13643945E-11
  -14.1800003      -1.54321365E-11
  -14.1700001       2.43128642E-11
  -14.1599998       6.99028196E-11
  -14.1499996       1.08920976E-10
  -14.1400003       1.27028971E-10
  -14.1300001       1.11880186E-10
  -14.1199999       5.75946443E-11
  -14.1099997      -3.14499607E-11
  -14.1000004      -1.38896145E-10
  -14.0900002      -2.37883879E-10
  -14.0799999      -2.96169617E-10
  -14.0699997      -2.84331392E-10
  -14.0600004      -1.85401736E-10
  -14.0500002      -3.40405178E-12
  -14.0400000       2.32077801E-10
  -14.0299997       4.67687833E-10
  -14.0200005       6.35559494E-10
  -14.0100002       6.69217182E-10
  -14.0000000       5.23119825E-10
  -13.9899998       1.91061444E-10
  -13.9799995      -2.82167123E-10
  -13.9700003      -8.00821132E-10
  -13.9600000      -1.23268340E-09
  -13.9499998      -1.43724066E-09
  -13.9399996      -1.30274935E-09
  -13.9300003      -7.83791587E-10
  -13.9200001       7.10005388E-11
  -13.9099998       1.11087572E-09
  -13.8999996       2.10103646E-09
  -13.8900003       2.76744183E-09
  -13.8800001       2.86179214E-09
  -13.8699999       2.23321894E-09
  -13.8599997       8.88839502E-10
  -13.8500004      -9.75391878E-10
  -13.8400002      -2.98759040E-09
  -13.8299999      -4.66179317E-09
  -13.8199997      -5.50185186E-09
  -13.8100004      -5.12799092E-09
  -13.8000002      -3.39713480E-09
  -13.7900000      -4.84337292E-10
  -13.7799997       3.10301140E-09
  -13.7700005       6.59407329E-09
  -13.7600002       9.10352504E-09
  -13.7500000       9.83597737E-09
  -13.7399998       8.30286329E-09
  -13.7299995       4.49782966E-09
  -13.7200003      -1.02144149E-09
  -13.7100000      -7.18167081E-09
  -13.6999998      -1.25813058E-08
  -13.6899996      -1.57911693E-08
  -13.6800003      -1.57085154E-08
  -13.6700001      -1.18823751E-08
  -13.6599998      -4.72134465E-09
  -13.6499996       4.48709114E-09
  -13.6400003       1.37786049E-08
  -13.6300001       2.09152429E-08
  -13.6199999       2.39140956E-08
  -13.6099997       2.15809042E-08
  -13.6000004       1.39110075E-08
  -13.5900002       2.23360219E-09
  -13.5799999      -1.09721805E-08
  -13.5699997      -2.25841301E-08
  -13.5600004      -2.95744123E-08
  -13.5500002      -2.98101881E-08
  -13.5400000      -2.27113830E-08
  -13.5299997      -9.56976542E-09
  -13.5200005       6.59953692E-09
  -13.5100002       2.16926672E-08
  -13.5000000       3.15252322E-08
  -13.4899998       3.29835572E-08
  -13.4799995       2.50175933E-08
  -13.4700003       9.17881415E-09
  -13.4600000      -1.05086269E-08
  -13.4499998      -2.83964692E-08
  -13.4399996      -3.86404047E-08
  -13.4300003      -3.68848916E-08
  -13.4200001      -2.17658602E-08
  -13.4099998       4.22231361E-09
  -13.3999996       3.48329223E-08
  -13.3900003       6.12640534E-08
  -13.3800001       7.42769544E-08
  -13.3699999       6.67873366E-08
  -13.3599997       3.62812074E-08
  -13.3500004      -1.36369254E-08
  -13.3400002      -7.31254275E-08
  -13.3299999      -1.27672621E-07
  -13.3199997      -1.61190925E-07
  -13.3100004      -1.60048160E-07
  -13.3000002      -1.17110169E-07
  -13.2900000      -3.47403777E-08
  -13.2799997       7.41855288E-08
  -13.2700005       1.87800381E-07
  -13.2600002       2.79278680E-07
  -13.2500000       3.22716204E-07
  -13.2399998       2.99634337E-07
  -13.2299995       2.04568636E-07
  -13.2200003       4.82388671E-08
  -13.2100000      -1.42789062E-07
  -13.1999998      -3.30299940E-07
  -13.1899996      -4.71934243E-07
  -13.1800003      -5.30577552E-07
  -13.1700001      -4.83576230E-07
  -13.1599998      -3.29568422E-07
  -13.1499996      -9.10272959E-08
  -13.1400003       1.88518385E-07
  -13.1300001       4.52461052E-07
  -13.1199999       6.42890825E-07
  -13.1099997       7.13727161E-07
  -13.1000004       6.42202622E-07
  -13.0900002       4.35824319E-07
  -13.0799999       1.32761556E-07
  -13.0699997      -2.04958368E-07
  -13.0600004      -5.04415709E-07
  -13.0500002      -6.98270071E-07
  -13.0400000      -7.41025474E-07
  -13.0299997      -6.21128436E-07
  -13.0200005      -3.65600414E-07
  -13.0100002      -3.55172247E-08
  -13.0000000       2.87264442E-07
  -12.9899998       5.19507410E-07
  -12.9799995       5.97761641E-07
  -12.9700003       4.96120890E-07
  -12.9600000       2.35806766E-07
  -12.9499998      -1.16541152E-07
  -12.9399996      -4.62440994E-07
  -12.9300003      -6.94648577E-07
  -12.9200001      -7.24763993E-07
  -12.9099998      -5.08843414E-07
  -12.8999996      -6.43310116E-08
  -12.8900003       5.26774613E-07
  -12.8800001       1.13069677E-06
  -12.8699999       1.58903492E-06
  -12.8599997       1.75505636E-06
  -12.8500004       1.53116093E-06
  -12.8400002       8.98619646E-07
  -12.8299999      -6.83192951E-08
  -12.8199997      -1.20870129E-06
  -12.8100004      -2.30190358E-06
  -12.8000002      -3.11084159E-06
  -12.7900000      -3.43276201E-06
  -12.7799997      -3.14644785E-06
  -12.7700005      -2.24491578E-06
  -12.7600002      -8.45229351E-07
  -12.7500000       8.28231691E-07
  -12.7399998       2.48471110E-06
  -12.7299995       3.82430562E-06
  -12.7200003       4.59940156E-06
  -12.7100000       4.66673009E-06
  -12.6999998       4.01803709E-06
  -12.6899996       2.78175071E-06
  -12.6800003       1.19455717E-06
  -12.6700001      -4.51313383E-07
  -12.6599998      -1.87334388E-06
  -12.6499996      -2.86143722E-06
  -12.6400003      -3.32303080E-06
  -12.6300001      -3.29932686E-06
  -12.6199999      -2.94790743E-06
  -12.6099997      -2.49513005E-06
  -12.6000004      -2.16925559E-06
  -12.5900002      -2.13078056E-06
  -12.5799999      -2.41795942E-06
  -12.5699997      -2.92276286E-06
  -12.5600004      -3.40581687E-06
  -12.5500002      -3.54953863E-06
  -12.5400000      -3.03881961E-06
  -12.5299997      -1.65090046E-06
  -12.5200005       6.67849633E-07
  -12.5100002       3.75910099E-06
  -12.5000000       7.25764858E-06
  -12.4899998       1.06476346E-05
  -12.4799995       1.33604617E-05
  -12.4700003       1.48937434E-05
  -12.4600000       1.49235493E-05
  -12.4499998       1.33813101E-05
  -12.4399996       1.04730043E-05
  -12.4300003       6.63063884E-06
  -12.4200001       2.40146983E-06
  -12.4099998      -1.70330952E-06
  -12.3999996      -5.36725520E-06
  -12.3900003      -8.59636657E-06
  -12.3800001      -1.17819018E-05
  -12.3699999      -1.56762962E-05
  -12.3599997      -2.12792675E-05
  -12.3500004      -2.96513190E-05
  -12.3400002      -4.16902367E-05
  -12.3299999      -5.79160114E-05
  -12.3199997      -7.83124633E-05
  -12.3100004      -1.02261103E-04
  -12.3000002      -1.28584536E-04
  -12.2900000      -1.55697213E-04
  -12.2799997      -1.81830124E-04
  -12.2700005      -2.05284799E-04
  -12.2600002      -2.24663832E-04
  -12.2500000      -2.39029876E-04
  -12.2399998      -2.47954798E-04
  -12.2299995      -2.51463411E-04
  -12.2200003      -2.49871024E-04
  -12.2100000      -2.43574541E-04
  -12.1999998      -2.32839666E-04
  -12.1899996      -2.17634297E-04
  -12.1800003      -1.97568006E-04
  -12.1700001      -1.71932901E-04
  -12.1599998      -1.39861513E-04
  -12.1499996      -1.00554695E-04
  -12.1400003      -5.35309337E-05
  -12.1300001       1.16283059E-06
  -12.1199999       6.28297785E-05
  -12.1099997       1.30120272E-04
  -12.1000004       2.01171206E-04
  -12.0900002       2.73840065E-04
  -12.0799999       3.46004439E-04
  -12.0699997       4.15865012E-04
  -12.0600004       4.82176663E-04
  -12.0500002       5.44371956E-04
  -12.0400000       6.02539512E-04
  -12.0299997       6.57273806E-04
  -12.0200005       7.09408370E-04
  -12.0100002       7.59711722E-04
  -12.0000000       8.08587531E-04
  -11.9899998       8.55861173E-04
  -11.9799995       9.00679210E-04
  -11.9700003       9.41555481E-04
  -11.9600000       9.76543757E-04
  -11.9499998       1.00350683E-03
  -11.9399996       1.02041860E-03
  -11.9300003       1.02563179E-03
  -11.9200001       1.01807399E-03
  -11.9099998       9.97317373E-04
  -11.8999996       9.63518862E-04
  -11.8900003       9.17256868E-04
  -11.8800001       8.59299034E-04
  -11.8699999       7.90356949E-04
  -11.8599997       7.10907741E-04
  -11.8500004       6.21078827E-04
  -11.8400002       5.20667585E-04
  -11.8299999       4.09263710E-04
  -11.8199997       2.86439026E-04
  -11.8100004       1.51976245E-04
  -11.8000002       6.06395724E-06
  -11.7900000      -1.50581473E-04
  -11.7799997      -3.16681952E-04
  -11.7700005      -4.90493141E-04
  -11.7600002      -6.69951900E-04
  -11.7500000      -8.52892990E-04
  -11.7399998      -1.03724166E-03
  -11.7299995      -1.22116937E-03
  -11.7200003      -1.40315981E-03
  -11.7100000      -1.58199284E-03
  -11.6999998      -1.75665203E-03
  -11.6899996      -1.92618719E-03
  -11.6800003      -2.08957656E-03
  -11.6700001      -2.24562478E-03
  -11.6599998      -2.39292206E-03
  -11.6499996      -2.52986955E-03
  -11.6400003      -2.65478366E-03
  -11.6300001      -2.76600057E-03
  -11.6199999      -2.86201318E-03
  -11.6099997      -2.94155302E-03
  -11.6000004      -3.00363498E-03
  -11.5900002      -3.04751284E-03
  -11.5799999      -3.07262619E-03
  -11.5699997      -3.07848305E-03
  -11.5600004      -3.06456536E-03
  -11.5500002      -3.03024356E-03
  -11.5400000      -2.97477865E-03
  -11.5299997      -2.89730984E-03
  -11.5200005      -2.79695657E-03
  -11.5100002      -2.67287041E-03
  -11.5000000      -2.52433610E-03
  -11.4899998      -2.35080579E-03
  -11.4799995      -2.15192093E-03
  -11.4700003      -1.92747416E-03
  -11.4600000      -1.67735305E-03
  -11.4499998      -1.40145933E-03
  -11.4399996      -1.09967904E-03
  -11.4300003      -7.71845225E-04
  -11.4200001      -4.17796167E-04
  -11.4099998      -3.74288065E-05
  -11.3999996       3.69168149E-04
  -11.3900003       8.01591494E-04
  -11.3800001       1.25904975E-03
  -11.3699999       1.74027600E-03
  -11.3599997       2.24357285E-03
  -11.3500004       2.76688836E-03
  -11.3400002       3.30795255E-03
  -11.3299999       3.86446039E-03
  -11.3199997       4.43421723E-03
  -11.3100004       5.01529267E-03
  -11.3000002       5.60605526E-03
  -11.2900000       6.20516203E-03
  -11.2799997       6.81144744E-03
  -11.2700005       7.42378645E-03
  -11.2600002       8.04092363E-03
  -11.2500000       8.66133720E-03
  -11.2399998       9.28316545E-03
  -11.2299995       9.90423933E-03
  -11.2200003       1.05222082E-02
  -11.2100000       1.11346999E-02
  -11.1999998       1.17395874E-02
  -11.1899996       1.23351542E-02
  -11.1800003       1.29202614E-02
  -11.1700001       1.34943444E-02
  -11.1599998       1.40573550E-02
  -11.1499996       1.46095306E-02
  -11.1400003       1.51511608E-02
  -11.1300001       1.56823117E-02
  -11.1199999       1.62026491E-02
  -11.1099997       1.67113170E-02
  -11.1000004       1.72070675E-02
  -11.0900002       1.76884010E-02
  -11.0799999       1.81539152E-02
  -11.0699997       1.86026078E-02
  -11.0600004       1.90341696E-02
  -11.0500002       1.94491483E-02
  -11.0400000       1.98489092E-02
  -11.0299997       2.02354603E-02
  -11.0200005       2.06110943E-02
  -11.0100002       2.09780205E-02
  -11.0000000       2.13379487E-02
  -10.9899998       2.16918271E-02
  -10.9799995       2.20398065E-02
  -10.9700003       2.23813280E-02
  -10.9600000       2.27154568E-02
  -10.9499998       2.30413340E-02
  -10.9399996       2.33585611E-02
  -10.9300003       2.36675963E-02
  -10.9200001       2.39698589E-02
  -10.9099998       2.42676660E-02
  -10.8999996       2.45639067E-02
  -10.8900003       2.48615909E-02
  -10.8800001       2.51633395E-02
  -10.8699999       2.54709180E-02
  -10.8599997       2.57849395E-02
  -10.8500004       2.61048619E-02
  -10.8400002       2.64290795E-02
  -10.8299999       2.67553423E-02
  -10.8199997       2.70811673E-02
  -10.8100004       2.74042580E-02
  -10.8000002       2.77227983E-02
  -10.7900000       2.80356146E-02
  -10.7799997       2.83420645E-02
  -10.7700005       2.86418088E-02
  -10.7600002       2.89344937E-02
  -10.7500000       2.92195287E-02
  -10.7399998       2.94957906E-02
  -10.7299995       2.97616906E-02
  -10.7200003       3.00152358E-02
  -10.7100000       3.02543212E-02
  -10.6999998       3.04771177E-02
  -10.6899996       3.06823384E-02
  -10.6800003       3.08694970E-02
  -10.6700001       3.10390107E-02
  -10.6599998       3.11921649E-02
  -10.6499996       3.13307941E-02
  -10.6400003       3.14570107E-02
  -10.6300001       3.15728560E-02
  -10.6199999       3.16798761E-02
  -10.6099997       3.17789502E-02
  -10.6000004       3.18701677E-02
  -10.5900002       3.19528915E-02
  -10.5799999       3.20259705E-02
  -10.5699997       3.20880860E-02
  -10.5600004       3.21381725E-02
  -10.5500002       3.21757421E-02
  -10.5400000       3.22012492E-02
  -10.5299997       3.22161466E-02
  -10.5200005       3.22228782E-02
  -10.5100002       3.22246067E-02
  -10.5000000       3.22247818E-02
  -10.4899998       3.22267674E-02
  -10.4799995       3.22331712E-02
  -10.4700003       3.22456211E-02
  -10.4600000       3.22644897E-02
  -10.4499998       3.22889350E-02
  -10.4399996       3.23170237E-02
  -10.4300003       3.23462225E-02
  -10.4200001       3.23738344E-02
  -10.4099998       3.23973261E-02
  -10.3999996       3.24148275E-02
  -10.3900003       3.24253179E-02
  -10.3800001       3.24285068E-02
  -10.3699999       3.24248560E-02
  -10.3599997       3.24154161E-02
  -10.3500004       3.24014835E-02
  -10.3400002       3.23844217E-02
  -10.3299999       3.23654525E-02
  -10.3199997       3.23455893E-02
  -10.3100004       3.23255435E-02
  -10.3000002       3.23058069E-02
  -10.2900000       3.22865881E-02
  -10.2799997       3.22680399E-02
  -10.2700005       3.22503373E-02
  -10.2600002       3.22337560E-02
  -10.2500000       3.22190337E-02
  -10.2399998       3.22072506E-02
  -10.2299995       3.22001353E-02
  -10.2200003       3.21998633E-02
  -10.2100000       3.22089791E-02
  -10.1999998       3.22300792E-02
  -10.1899996       3.22655626E-02
  -10.1800003       3.23171802E-02
  -10.1700001       3.23858373E-02
  -10.1599998       3.24716642E-02
  -10.1499996       3.25739756E-02
  -10.1400003       3.26917171E-02
  -10.1300001       3.28238197E-02
  -10.1199999       3.29696387E-02
  -10.1099997       3.31293009E-02
  -10.1000004       3.33039090E-02
  -10.0900002       3.34951952E-02
  -10.0799999       3.37055065E-02
  -10.0699997       3.39372121E-02
  -10.0600004       3.41925174E-02
  -10.0500002       3.44729424E-02
  -10.0400000       3.47795673E-02
  -10.0299997       3.51128615E-02
  -10.0200005       3.54730561E-02
  -10.0100002       3.58604491E-02
  -10.0000000       3.62753272E-02
  -9.98999977       3.67184542E-02
  -9.97999954       3.71907204E-02
  -9.97000027       3.76931354E-02
  -9.96000004       3.82266231E-02
  -9.94999981       3.87917981E-02
  -9.93999958       3.93890403E-02
  -9.93000031       4.00186330E-02
  -9.92000008       4.06807587E-02
  -9.90999985       4.13757823E-02
  -9.89999962       4.21040878E-02
  -9.89000034       4.28662859E-02
  -9.88000011       4.36630286E-02
  -9.86999989       4.44946699E-02
  -9.85999966       4.53615226E-02
  -9.85000038       4.62636165E-02
  -9.84000015       4.72011343E-02
  -9.82999992       4.81746420E-02
  -9.81999969       4.91855107E-02
  -9.81000042       5.02362363E-02
  -9.80000019       5.13305254E-02
  -9.78999996       5.24728373E-02
  -9.77999973       5.36678992E-02
  -9.77000046       5.49197868E-02
  -9.76000023       5.62314838E-02
  -9.75000000       5.76039925E-02
  -9.73999977       5.90365082E-02
  -9.72999954       6.05266020E-02
  -9.72000027       6.20710999E-02
  -9.71000004       6.36665300E-02
  -9.69999981       6.53109178E-02
  -9.68999958       6.70033544E-02
  -9.68000031       6.87450618E-02
  -9.67000008       7.05385804E-02
  -9.65999985       7.23869428E-02
  -9.64999962       7.42928907E-02
  -9.64000034       7.62576237E-02
  -9.63000011       7.82803893E-02
  -9.61999989       8.03575963E-02
  -9.60999966       8.24836642E-02
  -9.60000038       8.46507475E-02
  -9.59000015       8.68499428E-02
  -9.57999992       8.90720338E-02
  -9.56999969       9.13075358E-02
  -9.56000042       9.35477614E-02
  -9.55000019       9.57841724E-02
  -9.53999996       9.80082005E-02
  -9.52999973      0.100211345    
  -9.52000046      0.102384478    
  -9.51000023      0.104518265    
  -9.50000000      0.106602885    
  -9.48999977      0.108629003    
  -9.47999954      0.110588059    
  -9.47000027      0.112472370    
  -9.46000004      0.114276290    
  -9.44999981      0.115995534    
  -9.43999958      0.117627479    
  -9.43000031      0.119170785    
  -9.42000008      0.120624602    
  -9.40999985      0.121988587    
  -9.39999962      0.123262472    
  -9.39000034      0.124446020    
  -9.38000011      0.125539497    
  -9.36999989      0.126543865    
  -9.35999966      0.127461508    
  -9.35000038      0.128296882    
  -9.34000015      0.129056886    
  -9.32999992      0.129751176    
  -9.31999969      0.130392030    
  -9.31000042      0.130994096    
  -9.30000019      0.131574094    
  -9.28999996      0.132150382    
  -9.27999973      0.132742226    
  -9.27000046      0.133369476    
  -9.26000023      0.134052143    
  -9.25000000      0.134810179    
  -9.23999977      0.135663107    
  -9.22999954      0.136629999    
  -9.22000027      0.137729123    
  -9.21000004      0.138977781    
  -9.19999981      0.140391782    
  -9.18999958      0.141985208    
  -9.18000031      0.143770650    
  -9.17000008      0.145758569    
  -9.15999985      0.147956908    
  -9.14999962      0.150372103    
  -9.14000034      0.153007865    
  -9.13000011      0.155866101    
  -9.11999989      0.158946663    
  -9.10999966      0.162247092    
  -9.10000038      0.165763050    
  -9.09000015      0.169488326    
  -9.07999992      0.173415199    
  -9.06999969      0.177533850    
  -9.06000042      0.181833252    
  -9.05000019      0.186300814    
  -9.03999996      0.190922171    
  -9.02999973      0.195682198    
  -9.02000046      0.200563565    
  -9.01000023      0.205547228    
  -9.00000000      0.210612446    
  -8.98999977      0.215736344    
  -8.97999954      0.220894992    
  -8.97000027      0.226062819    
  -8.96000004      0.231213912    
  -8.94999981      0.236322224    
  -8.93999958      0.241362944    
  -8.93000031      0.246312067    
  -8.92000008      0.251146883    
  -8.90999985      0.255846500    
  -8.89999962      0.260391265    
  -8.89000034      0.264763594    
  -8.88000011      0.268946320    
  -8.86999989      0.272923440    
  -8.85999966      0.276680410    
  -8.85000038      0.280202687    
  -8.84000015      0.283477604    
  -8.82999992      0.286493421    
  -8.81999969      0.289239198    
  -8.81000042      0.291705251    
  -8.80000019      0.293883860    
  -8.78999996      0.295768410    
  -8.77999973      0.297353894    
  -8.77000046      0.298637658    
  -8.76000023      0.299618363    
  -8.75000000      0.300297141    
  -8.73999977      0.300676554    
  -8.72999954      0.300762177    
  -8.72000027      0.300560027    
  -8.71000004      0.300078422    
  -8.69999981      0.299327284    
  -8.68999958      0.298318088    
  -8.68000031      0.297064036    
  -8.67000008      0.295580387    
  -8.65999985      0.293884754    
  -8.64999962      0.291996270    
  -8.64000034      0.289935827    
  -8.63000011      0.287725180    
  -8.61999989      0.285386175    
  -8.60999966      0.282940090    
  -8.60000038      0.280407667    
  -8.59000015      0.277808398    
  -8.57999992      0.275161803    
  -8.56999969      0.272486120    
  -8.56000042      0.269799650    
  -8.55000019      0.267121792    
  -8.53999996      0.264470547    
  -8.52999973      0.261864543    
  -8.52000046      0.259320557    
  -8.51000023      0.256852627    
  -8.50000000      0.254473180    
  -8.48999977      0.252189934    
  -8.47999954      0.250010461    
  -8.47000027      0.247939393    
  -8.46000004      0.245980680    
  -8.44999981      0.244139418    
  -8.43999958      0.242420375    
  -8.43000031      0.240828753    
  -8.42000008      0.239368871    
  -8.40999985      0.238042891    
  -8.39999962      0.236851215    
  -8.39000034      0.235790282    
  -8.38000011      0.234853968    
  -8.36999989      0.234034717    
  -8.35999966      0.233324572    
  -8.35000038      0.232717231    
  -8.34000015      0.232208714    
  -8.32999992      0.231798217    
  -8.31999969      0.231487751    
  -8.31000042      0.231280535    
  -8.30000019      0.231180504    
  -8.28999996      0.231190294    
  -8.27999973      0.231310636    
  -8.27000046      0.231541738    
  -8.26000023      0.231881946    
  -8.25000000      0.232330218    
  -8.23999977      0.232887313    
  -8.22999954      0.233555704    
  -8.22000027      0.234340414    
  -8.21000004      0.235247254    
  -8.19999981      0.236283362    
  -8.18999958      0.237454653    
  -8.18000031      0.238767236    
  -8.17000008      0.240226358    
  -8.15999985      0.241836965    
  -8.14999962      0.243606389    
  -8.14000034      0.245544866    
  -8.13000011      0.247663826    
  -8.11999989      0.249978527    
  -8.10999966      0.252504796    
  -8.10000038      0.255258292    
  -8.09000015      0.258252800    
  -8.07999992      0.261497825    
  -8.06999969      0.265000701    
  -8.06000042      0.268766284    
  -8.05000019      0.272795856    
  -8.03999996      0.277094334    
  -8.02999973      0.281665683    
  -8.02000046      0.286515743    
  -8.01000023      0.291652709    
  -8.00000000      0.297082782    
  -7.98999977      0.302811772    
  -7.98000002      0.308838964    
  -7.96999979      0.315161943    
  -7.96000004      0.321771324    
  -7.94999981      0.328656614    
  -7.94000006      0.335808009    
  -7.92999983      0.343214750    
  -7.92000008      0.350870371    
  -7.90999985      0.358771116    
  -7.90000010      0.366914332    
  -7.88999987      0.375297993    
  -7.88000011      0.383917272    
  -7.86999989      0.392763853    
  -7.86000013      0.401828140    
  -7.84999990      0.411092818    
  -7.84000015      0.420542687    
  -7.82999992      0.430161446    
  -7.82000017      0.439932227    
  -7.80999994      0.449844390    
  -7.80000019      0.459888220    
  -7.78999996      0.470053166    
  -7.78000021      0.480331630    
  -7.76999998      0.490711600    
  -7.76000023      0.501178324    
  -7.75000000      0.511715770    
  -7.73999977      0.522304595    
  -7.73000002      0.532927692    
  -7.71999979      0.543567777    
  -7.71000004      0.554210961    
  -7.69999981      0.564847708    
  -7.69000006      0.575470388    
  -7.67999983      0.586072087    
  -7.67000008      0.596647799    
  -7.65999985      0.607191086    
  -7.65000010      0.617692292    
  -7.63999987      0.628143728    
  -7.63000011      0.638538182    
  -7.61999989      0.648869812    
  -7.61000013      0.659135580    
  -7.59999990      0.669338286    
  -7.59000015      0.679478824    
  -7.57999992      0.689562201    
  -7.57000017      0.699593544    
  -7.55999994      0.709575236    
  -7.55000019      0.719508767    
  -7.53999996      0.729394913    
  -7.53000021      0.739233792    
  -7.51999998      0.749028146    
  -7.51000023      0.758782625    
  -7.50000000      0.768502414    
  -7.48999977      0.778197050    
  -7.48000002      0.787876189    
  -7.46999979      0.797550261    
  -7.46000004      0.807228029    
  -7.44999981      0.816920578    
  -7.44000006      0.826633334    