  -16.0000000       0.00000000    
  -15.9899998       0.00000000    
  -15.9799995       0.00000000    
  -15.9700003       0.00000000    
  -15.9600000       0.00000000    
  -15.9499998       0.00000000    
  -15.9399996       0.00000000    
  -15.9300003       0.00000000    
  -15.9200001       0.00000000    
  -15.9099998       0.00000000    
  -15.8999996       0.00000000    
  -15.8900003       6.98267025E-42
  -15.8800001       7.21150229E-40
  -15.8699999       2.29805479E-38
  -15.8599997       3.89707426E-37
  -15.8500004       4.39610709E-36
  -15.8400002       3.69319605E-35
  -15.8299999       2.46891214E-34
  -15.8199997       1.37062412E-33
  -15.8100004       6.50680057E-33
  -15.8000002       2.69751944E-32
  -15.7900000       9.91762703E-32
  -15.7799997       3.27099382E-31
  -15.7700005       9.76036093E-31
  -15.7600002       2.65093518E-30
  -15.7500000       6.57929943E-30
  -15.7399998       1.49479563E-29
  -15.7299995       3.10685602E-29
  -15.7200003       5.88426607E-29
  -15.7100000       1.00630327E-28
  -15.6999998       1.52454821E-28
  -15.6899996       1.96014890E-28
  -15.6800003       1.88901733E-28
  -15.6700001       5.81592746E-29
  -15.6599998      -2.92699727E-28
  -15.6499996      -9.49426551E-28
  -15.6400003      -1.91414133E-27
  -15.6300001      -2.99688335E-27
  -15.6199999      -3.70458518E-27
  -15.6099997      -3.20102826E-27
  -15.6000004      -4.44145012E-28
  -15.5900002       5.40013076E-27
  -15.5799999       1.42512160E-26
  -15.5699997       2.42730159E-26
  -15.5600004       3.12906085E-26
  -15.5500002       2.90437785E-26
  -15.5400000       1.08367856E-26
  -15.5299997      -2.72396968E-26
  -15.5200005      -8.21267188E-26
  -15.5100002      -1.40270057E-25
  -15.5000000      -1.77117331E-25
  -15.4899998      -1.61885573E-25
  -15.4799995      -6.83419168E-26
  -15.4700003       1.10514470E-25
  -15.4600000       3.49304330E-25
  -15.4499998       5.86134499E-25
  -15.4399996       7.33707399E-25
  -15.4300003       7.06123497E-25
  -15.4200001       4.52467245E-25
  -15.4099998      -2.06839715E-26
  -15.3999996      -6.57556289E-25
  -15.3900003      -1.39983447E-24
  -15.3800001      -2.25032552E-24
  -15.3699999      -3.29399836E-24
  -15.3599997      -4.59089003E-24
  -15.3500004      -5.87662839E-24
  -15.3400002      -6.11028149E-24
  -15.3299999      -3.10555704E-24
  -15.3199997       6.28266850E-24
  -15.3100004       2.48145648E-23
  -15.3000002       5.19692350E-23
  -15.2900000       7.98768241E-23
  -15.2799997       8.98548669E-23
  -15.2700005       5.29628085E-23
  -15.2600002      -6.11207347E-23
  -15.2500000      -2.63963890E-22
  -15.2399998      -5.19135503E-22
  -15.2299995      -7.14975814E-22
  -15.2200003      -6.60896862E-22
  -15.2100000      -1.34394408E-22
  -15.1999998       1.00201026E-21
  -15.1899996       2.62416123E-21
  -15.1800003       4.17155463E-21
  -15.1700001       4.59429562E-21
  -15.1599998       2.57284695E-21
  -15.1499996      -2.88040102E-21
  -15.1400003      -1.14827742E-20
  -15.1300001      -2.07145170E-20
  -15.1199999      -2.54254269E-20
  -15.1099997      -1.87726411E-20
  -15.1000004       4.95537531E-21
  -15.0900002       4.58078600E-20
  -15.0799999       9.33497297E-20
  -15.0699997       1.24328077E-19
  -15.0600004       1.06333383E-19
  -15.0500002       1.00808905E-20
  -15.0400000      -1.70280377E-19
  -15.0299997      -3.94822173E-19
  -15.0200005      -5.65393872E-19
  -15.0100002      -5.38310531E-19
  -15.0000000      -1.74015640E-19
  -14.9899998       5.77474328E-19
  -14.9799995       1.57862612E-18
  -14.9700003       2.44191637E-18
  -14.9600000       2.56550398E-18
  -14.9499998       1.31865576E-18
  -14.9399996      -1.62022741E-18
  -14.9300003      -5.85512352E-18
  -14.9200001      -9.97363676E-18
  -14.9099998      -1.16028931E-17
  -14.8999996      -8.03724500E-18
  -14.8900003       2.51199573E-18
  -14.8800001       1.93017600E-17
  -14.8699999       3.77059959E-17
  -14.8599997       4.90327190E-17
  -14.8500004       4.23845063E-17
  -14.8400002       8.92156063E-18
  -14.8299999      -5.21484337E-17
  -14.8199997      -1.27864904E-16
  -14.8100004      -1.89227452E-16
  -14.8000002      -1.95658748E-16
  -14.7900000      -1.08159781E-16
  -14.7799997       9.01201631E-17
  -14.7700005       3.71679540E-16
  -14.7600002       6.50880604E-16
  -14.7500000       7.90424518E-16
  -14.7399998       6.36892067E-16
  -14.7299995       8.50844331E-17
  -14.7200003      -8.43196576E-16
  -14.7100000      -1.93535276E-15
  -14.6999998      -2.77794281E-15
  -14.6899996      -2.83516666E-15
  -14.6800003      -1.62815604E-15
  -14.6700001       1.01300567E-15
  -14.6599998       4.70130433E-15
  -14.6499996       8.36431568E-15
  -14.6400003       1.03566973E-14
  -14.6300001       8.88879678E-15
  -14.6199999       2.74297856E-15
  -14.6099997      -7.89340771E-15
  -14.6000004      -2.07865714E-14
  -14.5900002      -3.15822604E-14
  -14.5799999      -3.46108775E-14
  -14.5699997      -2.46525077E-14
  -14.5600004       6.31799281E-16
  -14.5500002       3.83191065E-14
  -14.5400000       7.89220238E-14
  -14.5299997       1.07210376E-13
  -14.5200005       1.05788676E-13
  -14.5100002       6.11989233E-14
  -14.5000000      -2.88255002E-14
  -14.4899998      -1.49400566E-13
  -14.4799995      -2.66801690E-13
  -14.4700003      -3.33558864E-13
  -14.4600000      -3.01188870E-13
  -14.4499998      -1.38725687E-13
  -14.4399996       1.47835818E-13
  -14.4300003       5.02405897E-13
  -14.4200001       8.19610059E-13
  -14.4099998       9.64784242E-13
  -14.3999996       8.13040444E-13
  -14.3900003       2.99950142E-13
  -14.3800001      -5.30829178E-13
  -14.3699999      -1.50197584E-12
  -14.3599997      -2.31668005E-12
  -14.3500004      -2.62189988E-12
  -14.3400002      -2.11522076E-12
  -14.3299999      -6.71919660E-13
  -14.3199997       1.54663782E-12
  -14.3100004       4.04862125E-12
  -14.3000002       6.06902376E-12
  -14.2900000       6.74238616E-12
  -14.2799997       5.36837979E-12
  -14.2700005       1.70773996E-12
  -14.2600002      -3.78425112E-12
  -14.2500000      -9.88668782E-12
  -14.2399998      -1.47789385E-11
  -14.2299995      -1.64595160E-11
  -14.2200003      -1.33528509E-11
  -14.2100000      -4.95678368E-12
  -14.1999998       7.67190218E-12
  -14.1899996       2.17996229E-11
  -14.1800003       3.34071729E-11
  -14.1700001       3.81031699E-11
  -14.1599998       3.24075419E-11
  -14.1499996       1.50943442E-11
  -14.1400003      -1.18148182E-11
  -14.1300001      -4.28073514E-11
  -14.1199999      -6.96500219E-11
  -14.1099997      -8.31854030E-11
  -14.1000004      -7.58535110E-11
  -14.0900002      -4.43473765E-11
  -14.0799999       8.36362750E-12
  -14.0699997       7.23890670E-11
  -14.0600004       1.32150443E-10
  -14.0500002       1.69545794E-10
  -14.0400000       1.68547509E-10
  -14.0299997       1.20220126E-10
  -14.0200005       2.68197010E-11
  -14.0100002      -9.63676777E-11
  -14.0000000      -2.22420179E-10
  -13.9899998      -3.17667809E-10
  -13.9799995      -3.49425183E-10
  -13.9700003      -2.95026809E-10
  -13.9600000      -1.49985940E-10
  -13.9499998       6.70668521E-11
  -13.9399996       3.14584664E-10
  -13.9300003       5.34365441E-10
  -13.9200001       6.63385569E-10
  -13.9099998       6.49190091E-10
  -13.8999996       4.65546629E-10
  -13.8900003       1.24399852E-10
  -13.8800001      -3.19624965E-10
  -13.8699999      -7.74733777E-10
  -13.8599997      -1.12800114E-09
  -13.8500004      -1.26988797E-09
  -13.8400002      -1.12266063E-09
  -13.8299999      -6.66260880E-10
  -13.8199997       4.54294796E-11
  -13.8100004       8.83935869E-10
  -13.8000002       1.66435243E-09
  -13.7900000       2.18134688E-09
  -13.7799997       2.25725194E-09
  -13.7700005       1.79222104E-09
  -13.7600002       8.03926037E-10
  -13.7500000      -5.55468616E-10
  -13.7399998      -2.01375294E-09
  -13.7299995      -3.22663118E-09
  -13.7200003      -3.85284382E-09
  -13.7100000      -3.64169184E-09
  -13.6999998      -2.51218579E-09
  -13.6899996      -6.01497019E-10
  -13.6800003       1.73532899E-09
  -13.6700001       3.98249256E-09
  -13.6599998       5.57153790E-09
  -13.6499996       6.01981709E-09
  -13.6400003       5.06714892E-09
  -13.6300001       2.77385848E-09
  -13.6199999      -4.51748555E-10
  -13.6099997      -3.91405486E-09
  -13.6000004      -6.77497969E-09
  -13.5900002      -8.25547009E-09
  -13.5799999      -7.84667797E-09
  -13.5699997      -5.47486678E-09
  -13.5600004      -1.56928393E-09
  -13.5500002       2.99756886E-09
  -13.5400000       7.09652204E-09
  -13.5299997       9.61923696E-09
  -13.5200005       9.78100800E-09
  -13.5100002       7.36820205E-09
  -13.5000000       2.85534618E-09
  -13.4899998      -2.65592193E-09
  -13.4799995      -7.67981145E-09
  -13.4700003      -1.07248050E-08
  -13.4600000      -1.07176517E-08
  -13.4499998      -7.35950811E-09
  -13.4399996      -1.30591304E-09
  -13.4300003       5.90197802E-09
  -13.4200001       1.21673054E-08
  -13.4099998       1.53700768E-08
  -13.3999996       1.39803271E-08
  -13.3900003       7.59180452E-09
  -13.3800001      -2.78322609E-09
  -13.3699999      -1.47734172E-08
  -13.3599997      -2.50965666E-08
  -13.3500004      -3.03309271E-08
  -13.3400002      -2.78476335E-08
  -13.3299999      -1.66766227E-08
  -13.3199997       1.93612837E-09
  -13.3100004       2.44753071E-08
  -13.3000002       4.56977531E-08
  -13.2900000       5.97173440E-08
  -13.2799997       6.14334468E-08
  -13.2700005       4.79853988E-08
  -13.2600002       1.98630286E-08
  -13.2500000      -1.86624423E-08
  -13.2399998      -5.99974612E-08
  -13.2299995      -9.45905470E-08
  -13.2200003      -1.12990371E-07
  -13.2100000      -1.08182114E-07
  -13.1999998      -7.76593296E-08
  -13.1899996      -2.46805207E-08
  -13.1800003       4.17102939E-08
  -13.1700001       1.08067951E-07
  -13.1599998       1.59177276E-07
  -13.1499996       1.81443497E-07
  -13.1400003       1.66306961E-07
  -13.1300001       1.12853286E-07
  -13.1199999       2.88910478E-08
  -13.1099997      -6.99347353E-08
  -13.1000004      -1.62989991E-07
  -13.0900002      -2.28974457E-07
  -13.0799999      -2.50822580E-07
  -13.0699997      -2.20055085E-07
  -13.0600004      -1.39481870E-07
  -13.0500002      -2.34595330E-08
  -13.0400000       1.04564080E-07
  -13.0299997       2.16845848E-07
  -13.0200005       2.87508612E-07
  -13.0100002       2.98684625E-07
  -13.0000000       2.45160464E-07
  -12.9899998       1.36303328E-07
  -12.9799995      -5.36908606E-09
  -12.9700003      -1.48834772E-07
  -12.9600000      -2.61493568E-07
  -12.9499998      -3.16823332E-07
  -12.9399996      -3.00947136E-07
  -12.9300003      -2.16453316E-07
  -12.9200001      -8.23967028E-08
  -12.9099998       6.97158313E-08
  -12.8999996       2.03171567E-07
  -12.8900003       2.84910300E-07
  -12.8800001       2.93888803E-07
  -12.8699999       2.26855789E-07
  -12.8599997       9.99679486E-08
  -12.8500004      -5.43825074E-08
  -12.8400002      -1.95004233E-07
  -12.8299999      -2.81999377E-07
  -12.8199997      -2.87150442E-07
  -12.8100004      -2.02029014E-07
  -12.8000002      -4.16573123E-08
  -12.7900000       1.57474759E-07
  -12.7799997       3.44920437E-07
  -12.7700005       4.67823043E-07
  -12.7600002       4.83923998E-07
  -12.7500000       3.72935659E-07
  -12.7399998       1.43392725E-07
  -12.7299995      -1.66970665E-07
  -12.7200003      -4.97806582E-07
  -12.7100000      -7.78516551E-07
  -12.6999998      -9.43737120E-07
  -12.6899996      -9.48389925E-07
  -12.6800003      -7.78676849E-07
  -12.6700001      -4.56218203E-07
  -12.6599998      -3.40994042E-08
  -12.6499996       4.14476034E-07
  -12.6400003       8.12371809E-07
  -12.6300001       1.09569817E-06
  -12.6199999       1.22775953E-06
  -12.6099997       1.20621689E-06
  -12.6000004       1.06151674E-06
  -12.5900002       8.46790556E-07
  -12.5799999       6.21641902E-07
  -12.5699997       4.33903722E-07
  -12.5600004       3.04170896E-07
  -12.5500002       2.17435243E-07
  -12.5400000       1.24568530E-07
  -12.5299997      -4.59420200E-08
  -12.5200005      -3.68146715E-07
  -12.5100002      -8.94952393E-07
  -12.5000000      -1.63609377E-06
  -12.4899998      -2.54318002E-06
  -12.4799995      -3.50597929E-06
  -12.4700003      -4.36178198E-06
  -12.4600000      -4.91698984E-06
  -12.4499998      -4.97741030E-06
  -12.4399996      -4.38185998E-06
  -12.4300003      -3.03283059E-06
  -12.4200001      -9.18395870E-07
  -12.4099998       1.87892249E-06
  -12.3999996       5.18823072E-06
  -12.3900003       8.77054117E-06
  -12.3800001       1.23499585E-05
  -12.3699999       1.56506267E-05
  -12.3599997       1.84332494E-05
  -12.3500004       2.05251399E-05
  -12.3400002       2.18388141E-05
  -12.3299999       2.23761308E-05
  -12.3199997       2.22174112E-05
  -12.3100004       2.14976681E-05
  -12.3000002       2.03743621E-05
  -12.2900000       1.89928160E-05
  -12.2799997       1.74560391E-05
  -12.2700005       1.58050352E-05
  -12.2600002       1.40139728E-05
  -12.2500000       1.20015247E-05
  -12.2399998       9.65645904E-06
  -12.2299995       6.87218244E-06
  -12.2200003       3.58257512E-06
  -12.2100000      -2.09487595E-07
  -12.1999998      -4.41843713E-06
  -12.1899996      -8.88181239E-06
  -12.1800003      -1.33858548E-05
  -12.1700001      -1.77063230E-05
  -12.1599998      -2.16557437E-05
  -12.1499996      -2.51257479E-05
  -12.1400003      -2.81133052E-05
  -12.1300001      -3.07224545E-05
  -12.1199999      -3.31386545E-05
  -12.1099997      -3.55792217E-05
  -12.1000004      -3.82300314E-05
  -12.0900002      -4.11828114E-05
  -12.0799999      -4.43887548E-05
  -12.0699997      -4.76415880E-05
  -12.0600004      -5.05970675E-05
  -12.0500002      -5.28275850E-05
  -12.0400000      -5.39020439E-05
  -12.0299997      -5.34743340E-05
  -12.0200005      -5.13607265E-05
  -12.0100002      -4.75880188E-05
  -12.0000000      -4.24004575E-05
  -11.9899998      -3.62225583E-05
  -11.9799995      -2.95849823E-05
  -11.9700003      -2.30293535E-05
  -11.9600000      -1.70126314E-05
  -11.9499998      -1.18314883E-05
  -11.9399996      -7.58216947E-06
  -11.9300003      -4.16259081E-06
  -11.9200001      -1.31344189E-06
  -11.9099998       1.31361787E-06
  -11.8999996       4.07794278E-06
  -11.8900003       7.27993893E-06
  -11.8800001       1.11132022E-05
  -11.8699999       1.56456263E-05
  -11.8599997       2.08283382E-05
  -11.8500004       2.65244635E-05
  -11.8400002       3.25461006E-05
  -11.8299999       3.86881002E-05
  -11.8199997       4.47508828E-05
  -11.8100004       5.05501521E-05
  -11.8000002       5.59166147E-05
  -11.7900000       6.06924150E-05
  -11.7799997       6.47312263E-05
  -11.7700005       6.79063087E-05
  -11.7600002       7.01261306E-05
  -11.7500000       7.13527261E-05
  -11.7399998       7.16147915E-05
  -11.7299995       7.10080130E-05
  -11.7200003       6.96783827E-05
  -11.7100000       6.77900462E-05
  -11.6999998       6.54851901E-05
  -11.6899996       6.28475100E-05
  -11.6800003       5.98816187E-05
  -11.6700001       5.65168739E-05
  -11.6599998       5.26373806E-05
  -11.6499996       4.81315656E-05
  -11.6400003       4.29473621E-05
  -11.6300001       3.71358983E-05
  -11.6199999       3.08679409E-05
  -11.6099997       2.44142284E-05
  -11.6000004       1.80908974E-05
  -11.5900002       1.21819112E-05
  -11.5799999       6.85852365E-06
  -11.5699997       2.11882389E-06
  -11.5600004      -2.23308120E-06
  -11.5500002      -6.55802205E-06
  -11.5400000      -1.13054539E-05
  -11.5299997      -1.69053419E-05
  -11.5200005      -2.36533360E-05
  -11.5100002      -3.16175210E-05
  -11.5000000      -4.05911051E-05
  -11.4899998      -5.01050272E-05
  -11.4799995      -5.94999510E-05
  -11.4700003      -6.80432349E-05
  -11.4600000      -7.50647960E-05
  -11.4499998      -8.00818016E-05
  -11.4399996      -8.28848206E-05
  -11.4300003      -8.35670580E-05
  -11.4200001      -8.24926610E-05
  -11.4099998      -8.02130671E-05
  -11.3999996      -7.73528809E-05
  -11.3900003      -7.44909266E-05
  -11.3800001      -7.20626194E-05
  -11.3699999      -7.03016849E-05
  -11.3599997      -6.92293834E-05
  -11.3500004      -6.86873609E-05
  -11.3400002      -6.84013139E-05
  -11.3299999      -6.80573139E-05
  -11.3199997      -6.73724135E-05
  -11.3100004      -6.61461527E-05
  -11.3000002      -6.42858358E-05
  -11.2900000      -6.18061677E-05
  -11.2799997      -5.88096227E-05
  -11.2700005      -5.54561047E-05
  -11.2600002      -5.19305686E-05
  -11.2500000      -4.84143093E-05
  -11.2399998      -4.50621665E-05
  -11.2299995      -4.19854659E-05
  -11.2200003      -3.92394613E-05
  -11.2100000      -3.68149485E-05
  -11.1999998      -3.46358320E-05
  -11.1899996      -3.25660876E-05
  -11.1800003      -3.04297573E-05
  -11.1700001      -2.80454551E-05
  -11.1599998      -2.52728423E-05
  -11.1499996      -2.20630154E-05
  -11.1400003      -1.85008539E-05
  -11.1300001      -1.48255185E-05
  -11.1199999      -1.14178229E-05
  -11.1099997      -8.74956822E-06
  -11.1000004      -7.29900557E-06
  -11.0900002      -7.44638464E-06
  -11.0799999      -9.37100231E-06
  -11.0699997      -1.29742284E-05
  -11.0600004      -1.78500413E-05
  -11.0500002      -2.33162991E-05
  -11.0400000      -2.85073820E-05
  -11.0299997      -3.25152214E-05
  -11.0200005      -3.45539156E-05
  -11.0100002      -3.41159466E-05
  -11.0000000      -3.10874275E-05
  -10.9899998      -2.57959473E-05
  -10.9799995      -1.89764996E-05
  -10.9700003      -1.16568135E-05
  -10.9600000      -4.97945121E-06
  -10.9499998       7.94415733E-09
  -10.9399996       2.55446867E-06
  -10.9300003       2.35893276E-06
  -10.9200001      -3.59775555E-07
  -10.9099998      -4.89401009E-06
  -10.8999996      -1.01793603E-05
  -10.8900003      -1.50045516E-05
  -10.8800001      -1.82577151E-05
  -10.8699999      -1.91564031E-05
  -10.8599997      -1.74087363E-05
  -10.8500004      -1.32657397E-05
  -10.8400002      -7.44858198E-06
  -10.8299999      -9.64100991E-07
  -10.8199997       5.14914018E-06
  -10.8100004       1.00818834E-05
  -10.8000002       1.34547727E-05
  -10.7900000       1.54036697E-05
  -10.7799997       1.65232796E-05
  -10.7700005       1.76804333E-05
  -10.7600002       1.97449517E-05
  -10.7500000       2.33114824E-05
  -10.7399998       2.84915477E-05
  -10.7299995       3.48384419E-05
  -10.7200003       4.14327005E-05
  -10.7100000       4.71108797E-05
  -10.6999998       5.07791556E-05
  -10.6899996       5.17272347E-05
  -10.6800003       4.98550944E-05
  -10.6700001       4.57475762E-05
  -10.6599998       4.05723767E-05
  -10.6499996       3.58250945E-05
  -10.6400003       3.29861941E-05
  -10.6300001       3.31777119E-05
  -10.6199999       3.69059126E-05
  -10.6099997       4.39510331E-05
  -10.6000004       5.34252285E-05
  -10.5900002       6.39761711E-05
  -10.5799999       7.40795949E-05
  -10.5699997       8.23473893E-05
  -10.5600004       8.77818820E-05
  -10.5500002       8.99278966E-05
  -10.5400000       8.89038201E-05
  -10.5299997       8.53220918E-05
  -10.5200005       8.01299248E-05
  -10.5100002       7.44102217E-05
  -10.5000000       6.91800815E-05
  -10.4899998       6.52164599E-05
  -10.4799995       6.29283459E-05
  -10.4700003       6.22884181E-05
  -10.4600000       6.28328053E-05
  -10.4499998       6.37347330E-05
  -10.4399996       6.39516584E-05
  -10.4300003       6.24337772E-05
  -10.4200001       5.83650326E-05
  -10.4099998       5.13904452E-05
  -10.3999996       4.17733718E-05
  -10.3900003       3.04287605E-05
  -10.3800001       1.87999813E-05
  -10.3699999       8.58294788E-06
  -10.3599997       1.34493780E-06
  -10.3500004      -1.87636772E-06
  -10.3400002      -8.89448188E-07
  -10.3299999       3.51393078E-06
  -10.3199997       9.65694198E-06
  -10.3100004       1.53077253E-05
  -10.3000002       1.81728556E-05
  -10.2900000       1.64357807E-05
  -10.2799997       9.20206185E-06
  -10.2700005      -3.26756822E-06
  -10.2600002      -1.96019355E-05
  -10.2500000      -3.76330936E-05
  -10.2399998      -5.48974313E-05
  -10.2299995      -6.91921960E-05
  -10.2200003      -7.90424019E-05
  -10.2100000      -8.39613858E-05
  -10.1999998      -8.44492970E-05
  -10.1899996      -8.17476903E-05
  -10.1800003      -7.74353102E-05
  -10.1700001      -7.29880630E-05
  -10.1599998      -6.94268965E-05
  -10.1499996      -6.71420421E-05
  -10.1400003      -6.59230645E-05
  -10.1300001      -6.51611044E-05
  -10.1199999      -6.41417791E-05
  -10.1099997      -6.23277374E-05
  -10.1000004      -5.95431302E-05
  -10.0900002      -5.60110566E-05
  -10.0799999      -5.22459050E-05
  -10.0699997      -4.88481382E-05
  -10.0600004      -4.62761091E-05
  -10.0500002      -4.46709782E-05
  -10.0400000      -4.37880699E-05
  -10.0299997      -4.30510045E-05
  -10.0200005      -4.17059964E-05
  -10.0100002      -3.90251080E-05
  -10.0000000      -3.44972577E-05
  -9.98999977      -2.79549640E-05
  -9.97999954      -1.96092133E-05
  -9.97000027      -9.99383974E-06
  -9.96000004       1.53616440E-07
  -9.94999981       1.00343414E-05
  -9.93999958       1.89142920E-05
  -9.93000031       2.62074154E-05
  -9.92000008       3.15084253E-05
  -9.90999985       3.45859771E-05
  -9.89999962       3.53576106E-05
  -9.89000034       3.38688333E-05
  -9.88000011       3.02899371E-05
  -9.86999989       2.49306140E-05
  -9.85999966       1.82593340E-05
  -9.85000038       1.09072689E-05
  -9.84000015       3.63814547E-06
  -9.82999992      -2.72407533E-06
  -9.81999969      -7.40225323E-06
  -9.81000042      -9.78548633E-06
  -9.80000019      -9.52898063E-06
  -9.78999996      -6.60311207E-06
  -9.77999973      -1.27190106E-06
  -9.77000046       5.99981422E-06
  -9.76000023       1.46897328E-05
  -9.75000000       2.43743580E-05
  -9.73999977       3.48543508E-05
  -9.72999954       4.62117205E-05
  -9.72000027       5.87805662E-05
  -9.71000004       7.30382089E-05
  -9.69999981       8.94474724E-05
  -9.68999958       1.08295360E-04
  -9.68000031       1.29574997E-04
  -9.67000008       1.52941910E-04
  -9.65999985       1.77752838E-04
  -9.64999962       2.03167598E-04
  -9.64000034       2.28276840E-04
  -9.63000011       2.52211670E-04
  -9.61999989       2.74204474E-04
  -9.60999966       2.93591613E-04
  -9.60000038       3.09776136E-04
  -9.59000015       3.22187436E-04
  -9.57999992       3.30276845E-04
  -9.56999969       3.33573989E-04
  -9.56000042       3.31799296E-04
  -9.55000019       3.24995344E-04
  -9.53999996       3.13620723E-04
  -9.52999973       2.98547064E-04
  -9.52000046       2.80927314E-04
  -9.51000023       2.61944399E-04
  -9.50000000       2.42498034E-04
  -9.48999977       2.22922929E-04
  -9.47999954       2.02836018E-04
  -9.47000027       1.81184616E-04
  -9.46000004       1.56508075E-04
  -9.44999981       1.27357373E-04
  -9.43999958       9.27589863E-05
  -9.43000031       5.25836404E-05
  -9.42000008       7.69855524E-06
  -9.40999985      -4.01551551E-05
  -9.39999962      -8.87370697E-05
  -9.39000034      -1.35826485E-04
  -9.38000011      -1.79728799E-04
  -9.36999989      -2.19611698E-04
  -9.35999966      -2.55563325E-04
  -9.35000038      -2.88353534E-04
  -9.34000015      -3.18977429E-04
  -9.32999992      -3.48129892E-04
  -9.31999969      -3.75788077E-04
  -9.31000042      -4.01040015E-04
  -9.30000019      -4.22219251E-04
  -9.28999996      -4.37302631E-04
  -9.27999973      -4.44439793E-04
  -9.27000046      -4.42443445E-04
  -9.26000023      -4.31081804E-04
  -9.25000000      -4.11086512E-04
  -9.23999977      -3.83883656E-04
  -9.22999954      -3.51151568E-04
  -9.22000027      -3.14359902E-04
  -9.21000004      -2.74445425E-04
  -9.19999981      -2.31724232E-04
  -9.18999958      -1.86049743E-04
  -9.18000031      -1.37137860E-04
  -9.17000008      -8.49215721E-05
  -9.15999985      -2.97920560E-05
  -9.14999962       2.73675505E-05
  -9.14000034       8.53679230E-05
  -9.13000011       1.43042926E-04
  -9.11999989       1.99588379E-04
  -9.10999966       2.54769868E-04
  -9.10000038       3.08904884E-04
  -9.09000015       3.62608873E-04
  -9.07999992       4.16385330E-04
  -9.06999969       4.70203056E-04
  -9.06000042       5.23216440E-04
  -9.05000019       5.73740923E-04
  -9.03999996       6.19510654E-04
  -9.02999973       6.58148783E-04
  -9.02000046       6.87705877E-04
  -9.01000023       7.07100669E-04
  -9.00000000       7.16324896E-04
  -8.98999977       7.16357725E-04
  -8.97999954       7.08830543E-04
  -8.97000027       6.95561001E-04
  -8.96000004       6.78117445E-04
  -8.94999981       6.57548255E-04
  -8.93999958       6.34349999E-04
  -8.93000031       6.08652132E-04
  -8.92000008       5.80521766E-04
  -8.90999985       5.50247438E-04
  -8.89999962       5.18476241E-04
  -8.89000034       4.86139761E-04
  -8.88000011       4.54187015E-04
  -8.86999989       4.23227611E-04
  -8.85999966       3.93225695E-04
  -8.85000038       3.63378611E-04
  -8.84000015       3.32252210E-04
  -8.82999992       2.98155705E-04
  -8.81999969       2.59650056E-04
  -8.81000042       2.16030428E-04
  -8.80000019       1.67622318E-04
  -8.78999996       1.15786293E-04
  -8.77999973       6.26176916E-05
  -8.77000046       1.04284827E-05
  -8.76000023      -3.88307308E-05
  -8.75000000      -8.40284411E-05
  -8.73999977      -1.25048362E-04
  -8.72999954      -1.62666955E-04
  -8.72000027      -1.98158712E-04
  -8.71000004      -2.32762803E-04
  -8.69999981      -2.67186901E-04
  -8.68999958      -3.01309803E-04
  -8.68000031      -3.34173266E-04
  -8.67000008      -3.64258070E-04
  -8.65999985      -3.89943307E-04
  -8.64999962      -4.09989676E-04
  -8.64000034      -4.23882128E-04
  -8.63000011      -4.31918772E-04
  -8.61999989      -4.35020862E-04
  -8.60999966      -4.34335467E-04
  -8.60000038      -4.30772983E-04
  -8.59000015      -4.24644328E-04
  -8.57999992      -4.15527873E-04
  -8.56999969      -4.02417965E-04
  -8.56000042      -3.84110695E-04
  -8.55000019      -3.59700003E-04
  -8.53999996      -3.29020579E-04
  -8.52999973      -2.92887533E-04
  -8.52000046      -2.53050355E-04
  -8.51000023      -2.11871782E-04
  -8.50000000      -1.71830106E-04
  -8.48999977      -1.35000533E-04
  -8.47999954      -1.02673068E-04
  -8.47000027      -7.52170236E-05
  -8.46000004      -5.22188748E-05
  -8.44999981      -3.28303577E-05
  -8.43999958      -1.62003580E-05
  -8.43000031      -1.84074690E-06
  -8.42000008       1.01895994E-05
  -8.40999985       1.93336091E-05
  -8.39999962       2.47839653E-05
  -8.39000034       2.58319960E-05
  -8.38000011       2.21887349E-05
  -8.36999989       1.41673572E-05
  -8.35999966       2.66924644E-06
  -8.35000038      -1.10124147E-05
  -8.34000015      -2.54958286E-05
  -8.32999992      -3.96139767E-05
  -8.31999969      -5.26200783E-05
  -8.31000042      -6.42398591E-05
  -8.30000019      -7.45741272E-05
  -8.28999996      -8.39083586E-05
  -8.27999973      -9.25124041E-05
  -8.27000046      -1.00506935E-04
  -8.26000023      -1.07837906E-04
  -8.25000000      -1.14351322E-04
  -8.23999977      -1.19920311E-04
  -8.22999954      -1.24557788E-04
  -8.22000027      -1.28459986E-04
  -8.21000004      -1.31959488E-04
  -8.19999981      -1.35408205E-04
  -8.18999958      -1.39040916E-04
  -8.18000031      -1.42878751E-04
  -8.17000008      -1.46711391E-04
  -8.15999985      -1.50162959E-04
  -8.14999962      -1.52808774E-04
  -8.14000034      -1.54288849E-04
  -8.13000011      -1.54368376E-04
  -8.11999989      -1.52921144E-04
  -8.10999966      -1.49851883E-04
  -8.10000038      -1.45004102E-04
  -8.09000015      -1.38111369E-04
  -8.07999992      -1.28830608E-04
  -8.06999969      -1.16857474E-04
  -8.06000042      -1.02079852E-04
  -8.05000019      -8.46967669E-05
  -8.03999996      -6.52324161E-05
  -8.02999973      -4.44132675E-05
  -8.02000046      -2.29317193E-05
  -8.01000023      -1.17712977E-06
  -8.00000000       2.09573464E-05
  -7.98999977       4.40980475E-05
  -7.98000002       6.92074609E-05
  -7.96999979       9.72383350E-05
  -7.96000004       1.28743821E-04
  -7.94999981       1.63594537E-04
  -7.94000006       2.00931157E-04
  -7.92999983       2.39401532E-04
  -7.92000008       2.77621060E-04
  -7.90999985       3.14698671E-04
  -7.90000010       3.50621238E-04
  -7.88999987       3.86322965E-04
  -7.88000011       4.23361926E-04
  -7.86999989       4.63276199E-04
  -7.86000013       5.06820506E-04
  -7.84999990       5.53357822E-04
  -7.84000015       6.00656262E-04
  -7.82999992       6.45221269E-04
  -7.82000017       6.83113118E-04
  -7.80999994       7.11020955E-04
  -7.80000019       7.27250765E-04
  -7.78999996       7.32287706E-04
  -7.78000021       7.28709332E-04
  -7.76999998       7.20439130E-04
  -7.76000023       7.11550761E-04
  -7.75000000       7.04998034E-04
  -7.73999977       7.01688870E-04
  -7.73000002       7.00218079E-04
  -7.71999979       6.97361713E-04
  -7.71000004       6.89176901E-04
  -7.69999981       6.72344468E-04
  -7.69000006       6.45296182E-04
  -7.67999983       6.08743867E-04
  -7.67000008       5.65426715E-04
  -7.65999985       5.19166817E-04
  -7.65000010       4.73569351E-04
  -7.63999987       4.30831045E-04
  -7.63000011       3.91089328E-04
  -7.61999989       3.52554373E-04
  -7.61000013       3.12386575E-04
  -7.59999990       2.68011441E-04
  -7.59000015       2.18394256E-04
  -7.57999992       1.64798941E-04
  -7.57000017       1.10728382E-04
  -7.55999994       6.10264287E-05
  -7.55000019       2.04260468E-05
  -7.53999996      -7.96864606E-06
  -7.53000021      -2.37369259E-05
  -7.51999998      -2.93526100E-05
  -7.51000023      -2.94525616E-05
  -7.50000000      -2.93949233E-05
  -7.48999977      -3.35790246E-05
  -7.48000002      -4.40941185E-05
  -7.46999979      -6.01459069E-05
  -7.46000004      -7.84479780E-05
  -7.44999981      -9.44261265E-05
  -7.44000006      -1.03805636E-04