  -16.0000000       0.00000000    
  -15.9899998       0.00000000    
  -15.9799995       0.00000000    
  -15.9700003       0.00000000    
  -15.9600000       0.00000000    
  -15.9499998       0.00000000    
  -15.9399996       0.00000000    
  -15.9300003       0.00000000    
  -15.9200001       0.00000000    
  -15.9099998       0.00000000    
  -15.8999996       0.00000000    
  -15.8900003      -0.00000000    
  -15.8800001      -0.00000000    
  -15.8699999       0.00000000    
  -15.8599997      -0.00000000    
  -15.8500004      -1.40129846E-45
  -15.8400002      -9.80908925E-45
  -15.8299999      -6.44597294E-44
  -15.8199997      -3.64337601E-43
  -15.8100004      -1.70397893E-42
  -15.8000002      -6.89438844E-42
  -15.7900000      -2.45605582E-41
  -15.7799997      -7.80453180E-41
  -15.7700005      -2.23294108E-40
  -15.7600002      -5.79291180E-40
  -15.7500000      -1.37034799E-39
  -15.7399998      -2.97027350E-39
  -15.7299995      -5.92998261E-39
  -15.7200003      -1.09802931E-38
  -15.7100000      -1.90550401E-38
  -15.6999998      -3.14714147E-38
  -15.6899996      -5.04200864E-38
  -15.6800003      -7.95401223E-38
  -15.6700001      -1.23100191E-37
  -15.6599998      -1.79867779E-37
  -15.6499996      -2.24834370E-37
  -15.6400003      -1.71448587E-37
  -15.6300001       1.85877387E-37
  -15.6199999       1.22850101E-36
  -15.6099997       3.51402033E-36
  -15.6000004       7.62787281E-36
  -15.5900002       1.37848739E-35
  -15.5799999       2.11402442E-35
  -15.5699997       2.69245604E-35
  -15.5600004       2.57366079E-35
  -15.5500002       9.50065615E-36
  -15.5400000      -3.14222554E-35
  -15.5299997      -1.05740986E-34
  -15.5200005      -2.17415234E-34
  -15.5100002      -3.60353602E-34
  -15.5000000      -5.10252940E-34
  -15.4899998      -6.10380355E-34
  -15.4799995      -5.48078557E-34
  -15.4700003      -1.25321002E-34
  -15.4600000       9.55032038E-34
  -15.4499998       3.03526196E-33
  -15.4399996       6.29961014E-33
  -15.4300003       1.03445751E-32
  -15.4200001       1.35320691E-32
  -15.4099998       1.23470841E-32
  -15.3999996       1.30916294E-33
  -15.3900003      -2.56906259E-32
  -15.3800001      -7.17080177E-32
  -15.3699999      -1.30411048E-31
  -15.3599997      -1.78394139E-31
  -15.3500004      -1.70041735E-31
  -15.3400002      -4.17083116E-32
  -15.3299999       2.66618576E-31
  -15.3199997       7.66675565E-31
  -15.3100004       1.35823463E-30
  -15.3000002       1.76750246E-30
  -15.2900000       1.53076119E-30
  -15.2799997       8.37917470E-32
  -15.2700005      -2.98595088E-30
  -15.2600002      -7.51201226E-30
  -15.2500000      -1.22344534E-29
  -15.2399998      -1.44363300E-29
  -15.2299995      -1.01236839E-29
  -15.2200003       4.79525974E-30
  -15.2100000       3.20425722E-29
  -15.1999998       6.74539148E-29
  -15.1899996       9.75731119E-29
  -15.1800003       9.86387410E-29
  -15.1700001       4.10335595E-29
  -15.1599998      -9.81254084E-29
  -15.1499996      -3.14095413E-28
  -15.1400003      -5.50285322E-28
  -15.1300001      -6.82678128E-28
  -15.1199999      -5.31076530E-28
  -15.1099997       8.40284499E-29
  -15.1000004       1.23086491E-27
  -15.0900002       2.71987068E-27
  -15.0799999       3.97805914E-27
  -15.0699997       4.04063107E-27
  -15.0600004       1.77219220E-27
  -15.0500002      -3.60876169E-27
  -15.0400000      -1.17468006E-26
  -15.0299997      -2.03479814E-26
  -15.0200005      -2.48203990E-26
  -15.0100002      -1.89522384E-26
  -15.0000000       2.88251508E-27
  -14.9899998       4.19828692E-26
  -14.9799995       9.09230602E-26
  -14.9700003       1.30480293E-25
  -14.9600000       1.30723053E-25
  -14.9499998       5.90088850E-26
  -14.9399996      -1.04074777E-25
  -14.9300003      -3.43430053E-25
  -14.9200001      -5.90419197E-25
  -14.9099998      -7.18263524E-25
  -14.8999996      -5.65388986E-25
  -14.8900003       4.79819137E-27
  -14.8800001       1.01255119E-24
  -14.8699999       2.26412881E-24
  -14.8599997       3.29477302E-24
  -14.8500004       3.41146291E-24
  -14.8400002       1.88438853E-24
  -14.8299999      -1.70679444E-24
  -14.8199997      -7.04114919E-24
  -14.8100004      -1.26994165E-23
  -14.8000002      -1.61125534E-23
  -14.7900000      -1.40474733E-23
  -14.7799997      -3.74684475E-24
  -14.7700005       1.54075358E-23
  -14.7600002       4.01798382E-23
  -14.7500000       6.25126829E-23
  -14.7399998       7.02492627E-23
  -14.7299995       5.02643741E-23
  -14.7200003      -5.98013601E-24
  -14.7100000      -9.55783999E-23
  -14.6999998      -1.98435285E-22
  -14.6899996      -2.75970707E-22
  -14.6800003      -2.77521771E-22
  -14.6700001      -1.56054332E-22
  -14.6599998       1.08528618E-22
  -14.6499996       4.84609851E-22
  -14.6400003       8.72872749E-22
  -14.6300001       1.11117195E-21
  -14.6199999       1.00973923E-21
  -14.6099997       4.18029914E-22
  -14.6000004      -6.88637856E-22
  -14.5900002      -2.12942240E-21
  -14.5799999      -3.48317920E-21
  -14.5699997      -4.13707396E-21
  -14.5600004      -3.44148009E-21
  -14.5500002      -9.60854494E-22
  -14.5400000       3.23520940E-21
  -14.5299997       8.34118267E-21
  -14.5200005       1.27701322E-20
  -14.5100002       1.44034327E-20
  -14.5000000       1.11780559E-20
  -14.4899998       1.93693287E-21
  -14.4799995      -1.26731768E-20
  -14.4700003      -2.95913848E-20
  -14.4600000      -4.33949515E-20
  -14.4499998      -4.72980970E-20
  -14.4399996      -3.51375823E-20
  -14.4300003      -4.01817402E-21
  -14.4200001       4.31077809E-20
  -14.4099998       9.59422494E-20
  -14.3999996       1.37462787E-19
  -14.3900003       1.47334748E-19
  -14.3800001       1.08015157E-19
  -14.3699999       1.23973105E-20
  -14.3599997      -1.29198387E-19
  -14.3500004      -2.85524549E-19
  -14.3400002      -4.07081584E-19
  -14.3299999      -4.36450735E-19
  -14.3199997      -3.25562728E-19
  -14.3100004      -5.64001533E-20
  -14.3000002       3.40923523E-19
  -14.2900000       7.80098733E-19
  -14.2799997       1.12713636E-18
  -14.2700005       1.22859534E-18
  -14.2600002       9.56887082E-19
  -14.2500000       2.63151330E-19
  -14.2399998      -7.77734857E-19
  -14.2299995      -1.94808665E-18
  -14.2200003      -2.90967584E-18
  -14.2100000      -3.27388243E-18
  -14.1999998      -2.71235894E-18
  -14.1899996      -1.08486257E-18
  -14.1800003       1.45231047E-18
  -14.1700001       4.39906272E-18
  -14.1599998       6.96020456E-18
  -14.1499996       8.20434045E-18
  -14.1400003       7.31582605E-18
  -14.1300001       3.88752389E-18
  -14.1199999      -1.82638212E-18
  -14.1099997      -8.78900494E-18
  -14.1000004      -1.52671055E-17
  -14.0900002      -1.91577296E-17
  -14.0799999      -1.85217568E-17
  -14.0699997      -1.22177678E-17
  -14.0600004      -4.69891062E-19
  -14.0500002       1.48205504E-17
  -14.0400000       3.01815574E-17
  -14.0299997       4.11724551E-17
  -14.0200005       4.34292784E-17
  -14.0100002       3.39560288E-17
  -14.0000000       1.23432718E-17
  -13.9899998      -1.84604313E-17
  -13.9799995      -5.21560074E-17
  -13.9700003      -8.00628710E-17
  -13.9600000      -9.29959127E-17
  -13.9499998      -8.37229004E-17
  -13.9399996      -4.94368166E-17
  -13.9300003       6.45106621E-18
  -13.9200001       7.38479719E-17
  -13.9099998       1.37261504E-16
  -13.8999996       1.78840194E-16
  -13.8900003       1.82700639E-16
  -13.8800001       1.39618624E-16
  -13.8699999       5.08790159E-17
  -13.8599997      -6.99261895E-17
  -13.8500004      -1.98035046E-16
  -13.8400002      -3.01845088E-16
  -13.8299999      -3.49879558E-16
  -13.8199997      -3.19024398E-16
  -13.8100004      -2.02088416E-16
  -13.8000002      -1.25710947E-17
  -13.7900000       2.15106307E-16
  -13.7799997       4.30750135E-16
  -13.7700005       5.78500792E-16
  -13.7600002       6.10095386E-16
  -13.7500000       4.98370152E-16
  -13.7399998       2.47548926E-16
  -13.7299995      -1.02849017E-16
  -13.7200003      -4.82485531E-16
  -13.7100000      -8.03202963E-16
  -13.6999998      -9.78493731E-16
  -13.6899996      -9.45405024E-16
  -13.6800003      -6.83609746E-16
  -13.6700001      -2.26344859E-16
  -13.6599998       3.40736791E-16
  -13.6499996       8.94180495E-16
  -13.6400003       1.29887579E-15
  -13.6300001       1.44053835E-15
  -13.6199999       1.25696471E-15
  -13.6099997       7.59802794E-16
  -13.6000004       3.99713988E-17
  -13.5900002      -7.46735141E-16
  -13.5799999      -1.41253946E-15
  -13.5699997      -1.78268418E-15
  -13.5600004      -1.74210050E-15
  -13.5500002      -1.27154299E-15
  -13.5400000      -4.62269607E-16
  -13.5299997       4.97251803E-16
  -13.5200005       1.36234958E-15
  -13.5100002       1.89304283E-15
  -13.5000000       1.92054980E-15
  -13.4899998       1.40177822E-15
  -13.4799995       4.45216822E-16
  -13.4700003      -7.02583442E-16
  -13.4600000      -1.71121514E-15
  -13.4499998      -2.25141823E-15
  -13.4399996      -2.09107955E-15
  -13.4300003      -1.17665878E-15
  -13.4200001       3.24955879E-16
  -13.4099998       2.04156603E-15
  -13.3999996       3.47168418E-15
  -13.3900003       4.10900807E-15
  -13.3800001       3.58764066E-15
  -13.3699999       1.81071504E-15
  -13.3599997      -9.75726157E-16
  -13.3500004      -4.19210963E-15
  -13.3400002      -7.02785312E-15
  -13.3299999      -8.62306476E-15
  -13.3199997      -8.29210781E-15
  -13.3100004      -5.73540747E-15
  -13.3000002      -1.18158354E-15
  -13.2900000       4.58739831E-15
  -13.2799997       1.03509129E-14
  -13.2700005       1.46935263E-14
  -13.2600002       1.63325554E-14
  -13.2500000       1.44565010E-14
  -13.2399998       8.98978005E-15
  -13.2299995       7.07795077E-16
  -13.2200003      -8.84453254E-15
  -13.2100000      -1.76334895E-14
  -13.1999998      -2.35693474E-14
  -13.1899996      -2.50008771E-14
  -13.1800003      -2.11558845E-14
  -13.1700001      -1.24136905E-14
  -13.1599998      -3.25287783E-16
  -13.1499996       1.26488014E-14
  -13.1400003       2.36458497E-14
  -13.1300001       3.00520310E-14
  -13.1199999       3.01504325E-14
  -13.1099997       2.36057935E-14
  -13.1000004       1.16515184E-14
  -13.0900002      -3.09452793E-15
  -13.0799999      -1.71730357E-14
  -13.0699997      -2.70822369E-14
  -13.0600004      -3.01564227E-14
  -13.0500002      -2.53107709E-14
  -13.0400000      -1.34522435E-14
  -13.0299997       2.57903215E-15
  -13.0200005       1.85694118E-14
  -13.0100002       2.99007035E-14
  -13.0000000       3.27248198E-14
  -12.9899998       2.50679130E-14
  -12.9799995       7.57678086E-15
  -12.9700003      -1.63203225E-14
  -12.9600000      -4.09440988E-14
  -12.9499998      -5.95306004E-14
  -12.9399996      -6.58148462E-14
  -12.9300003      -5.56863278E-14
  -12.9200001      -2.85167940E-14
  -12.9099998       1.22011335E-14
  -12.8999996       5.91362151E-14
  -12.8900003       1.02354397E-13
  -12.8800001       1.31315043E-13
  -12.8699999       1.37234150E-13
  -12.8599997       1.15296268E-13
  -12.8500004       6.61859822E-14
  -12.8400002      -3.47812099E-15
  -12.8299999      -8.20023167E-14
  -12.8199997      -1.54680061E-13
  -12.8100004      -2.06683086E-13
  -12.8000002      -2.26189266E-13
  -12.7900000      -2.07059996E-13
  -12.7799997      -1.50440316E-13
  -12.7700005      -6.48662032E-14
  -12.7600002       3.52186711E-14
  -12.7500000       1.32273017E-13
  -12.7399998       2.09215471E-13
  -12.7299995       2.52952282E-13
  -12.7200003       2.57077589E-13
  -12.7100000       2.23109102E-13
  -12.6999998       1.59947562E-13
  -12.6899996       8.16563478E-14
  -12.6800003       4.05944690E-15
  -12.6700001      -5.90424994E-14
  -12.6599998      -9.91224721E-14
  -12.6499996      -1.14827581E-13
  -12.6400003      -1.12018650E-13
  -12.6300001      -1.01882471E-13
  -12.6199999      -9.75323812E-14
  -12.6099997      -1.09916159E-13
  -12.6000004      -1.44071251E-13
  -12.5900002      -1.96741183E-13
  -12.5799999      -2.56084162E-13
  -12.5699997      -3.03722542E-13
  -12.5600004      -3.18804201E-13
  -12.5500002      -2.83212662E-13
  -12.5400000      -1.86706024E-13
  -12.5299997      -3.06848832E-14
  -12.5200005       1.70471127E-13
  -12.5100002       3.91041447E-13
  -12.5000000       5.98428371E-13
  -12.4899998       7.59588952E-13
  -12.4799995       8.48028679E-13
  -12.4700003       8.49696344E-13
  -12.4600000       7.66262325E-13
  -12.4499998       6.14772068E-13
  -12.4399996       4.23472482E-13
  -12.4300003       2.24511870E-13
  -12.4200001       4.50267943E-14
  -12.4099998      -1.01369854E-13
  -12.3999996      -2.20623650E-13
  -12.3900003      -3.40152196E-13
  -12.3800001      -5.05837668E-13
  -12.3699999      -7.74388962E-13
  -12.3599997      -1.20245285E-12
  -12.3500004      -1.83467477E-12
  -12.3400002      -2.69326727E-12
  -12.3299999      -3.77142154E-12
  -12.3199997      -5.03212142E-12
  -12.3100004      -6.41273753E-12
  -12.3000002      -7.83449000E-12
  -12.2900000      -9.21470625E-12
  -12.2799997      -1.04791583E-11
  -12.2700005      -1.15716863E-11
  -12.2600002      -1.24588916E-11
  -12.2500000      -1.31288999E-11
  -12.2399998      -1.35846013E-11
  -12.2299995      -1.38331013E-11
  -12.2200003      -1.38741987E-11
  -12.2100000      -1.36909503E-11
  -12.1999998      -1.32450413E-11
  -12.1899996      -1.24785919E-11
  -12.1800003      -1.13224560E-11
  -12.1700001      -9.70956562E-12
  -12.1599998      -7.59048293E-12
  -12.1499996      -4.94764733E-12
  -12.1400003      -1.80491082E-12
  -12.1300001       1.77007638E-12
  -12.1199999       5.67174346E-12
  -12.1099997       9.76971629E-12
  -12.1000004       1.39269525E-11
  -12.0900002       1.80191018E-11
  -12.0799999       2.19512464E-11
  -12.0699997       2.56683997E-11
  -12.0600004       2.91578151E-11
  -12.0500002       3.24425070E-11
  -12.0400000       3.55674726E-11
  -12.0299997       3.85816240E-11
  -12.0200005       4.15193782E-11
  -12.0100002       4.43857381E-11
  -12.0000000       4.71479349E-11
  -11.9899998       4.97355247E-11
  -11.9799995       5.20485217E-11
  -11.9700003       5.39717888E-11
  -11.9600000       5.53923782E-11
  -11.9499998       5.62162157E-11
  -11.9399996       5.63803865E-11
  -11.9300003       5.58586268E-11
  -11.9200001       5.46590134E-11
  -11.9099998       5.28146797E-11
  -11.8999996       5.03698194E-11
  -11.8900003       4.73643486E-11
  -11.8800001       4.38208046E-11
  -11.8699999       3.97364988E-11
  -11.8599997       3.50828498E-11
  -11.8500004       2.98119966E-11
  -11.8400002       2.38693197E-11
  -11.8299999       1.72091508E-11
  -11.8199997       9.81034091E-12
  -11.8100004       1.68796054E-12
  -11.8000002      -7.10088065E-12
  -11.7900000      -1.64591153E-11
  -11.7799997      -2.62585041E-11
  -11.7700005      -3.63535174E-11
  -11.7600002      -4.65977118E-11
  -11.7500000      -5.68583930E-11
  -11.7399998      -6.70276612E-11
  -11.7299995      -7.70265518E-11
  -11.7200003      -8.68029676E-11
  -11.7100000      -9.63236296E-11
  -11.6999998      -1.05562066E-10
  -11.6899996      -1.14486406E-10
  -11.6800003      -1.23048849E-10
  -11.6700001      -1.31179609E-10
  -11.6599998      -1.38786427E-10
  -11.6499996      -1.45759307E-10
  -11.6400003      -1.51979540E-10
  -11.6300001      -1.57330315E-10
  -11.6199999      -1.61706912E-10
  -11.6099997      -1.65024328E-10
  -11.6000004      -1.67220779E-10
  -11.5900002      -1.68257436E-10
  -11.5799999      -1.68113912E-10
  -11.5699997      -1.66782463E-10
  -11.5600004      -1.64260855E-10
  -11.5500002      -1.60546743E-10
  -11.5400000      -1.55634020E-10
  -11.5299997      -1.49510862E-10
  -11.5200005      -1.42160728E-10
  -11.5100002      -1.33563480E-10
  -11.5000000      -1.23698121E-10
  -11.4899998      -1.12543586E-10
  -11.4799995      -1.00080444E-10
  -11.4700003      -8.62905580E-11
  -11.4600000      -7.11579962E-11
  -11.4499998      -5.46692899E-11
  -11.4399996      -3.68151828E-11
  -11.4300003      -1.75937008E-11
  -11.4200001       2.98707500E-12
  -11.4099998       2.49051561E-11
  -11.3999996       4.81224192E-11
  -11.3900003       7.25842303E-11
  -11.3800001       9.82209661E-11
  -11.3699999       1.24951494E-10
  -11.3599997       1.52687848E-10
  -11.3500004       1.81340193E-10
  -11.3400002       2.10820417E-10
  -11.3299999       2.41043269E-10
  -11.3199997       2.71924872E-10
  -11.3100004       3.03378989E-10
  -11.3000002       3.35312139E-10
  -11.2900000       3.67618824E-10
  -11.2799997       4.00179778E-10
  -11.2700005       4.32862052E-10
  -11.2600002       4.65525118E-10
  -11.2500000       4.98028896E-10
  -11.2399998       5.30244293E-10
  -11.2299995       5.62063562E-10
  -11.2200003       5.93407323E-10
  -11.2100000       6.24227281E-10
  -11.1999998       6.54502508E-10
  -11.1899996       6.84230450E-10
  -11.1800003       7.13412995E-10
  -11.1700001       7.42042927E-10
  -11.1599998       7.70089936E-10
  -11.1499996       7.97494182E-10
  -11.1400003       8.24165403E-10
  -11.1300001       8.49992243E-10
  -11.1199999       8.74857298E-10
  -11.1099997       8.98657537E-10
  -11.1000004       9.21325183E-10
  -11.0900002       9.42846246E-10
  -11.0799999       9.63270685E-10
  -11.0699997       9.82709802E-10
  -11.0600004       1.00132769E-09
  -11.0500002       1.01931830E-09
  -11.0400000       1.03687892E-09
  -11.0299997       1.05417930E-09
  -11.0200005       1.07133868E-09
  -11.0100002       1.08841081E-09
  -11.0000000       1.10537723E-09
  -10.9899998       1.12216114E-09
  -10.9799995       1.13865084E-09
  -10.9700003       1.15472587E-09
  -10.9600000       1.17029042E-09
  -10.9499998       1.18529853E-09
  -10.9399996       1.19977317E-09
  -10.9300003       1.21380339E-09
  -10.9200001       1.22753929E-09
  -10.9099998       1.24116251E-09
  -10.8999996       1.25486088E-09
  -10.8900003       1.26880284E-09
  -10.8800001       1.28310851E-09
  -10.8699999       1.29784949E-09
  -10.8599997       1.31304478E-09
  -10.8500004       1.32867062E-09
  -10.8400002       1.34469003E-09
  -10.8299999       1.36106315E-09
  -10.8199997       1.37776812E-09
  -10.8100004       1.39480372E-09
  -10.8000002       1.41218814E-09
  -10.7900000       1.42993606E-09
  -10.7799997       1.44804468E-09
  -10.7700005       1.46647616E-09
  -10.7600002       1.48514079E-09
  -10.7500000       1.50390334E-09
  -10.7399998       1.52258672E-09
  -10.7299995       1.54099933E-09
  -10.7200003       1.55895430E-09
  -10.7100000       1.57630564E-09
  -10.6999998       1.59296532E-09
  -10.6899996       1.60890934E-09
  -10.6800003       1.62418290E-09
  -10.6700001       1.63887570E-09
  -10.6599998       1.65311809E-09
  -10.6499996       1.66704162E-09
  -10.6400003       1.68075986E-09
  -10.6300001       1.69434511E-09
  -10.6199999       1.70782910E-09
  -10.6099997       1.72119075E-09
  -10.6000004       1.73437942E-09
  -10.5900002       1.74731862E-09
  -10.5799999       1.75993986E-09
  -10.5699997       1.77219195E-09
  -10.5600004       1.78408033E-09
  -10.5500002       1.79566417E-09
  -10.5400000       1.80707449E-09
  -10.5299997       1.81851079E-09
  -10.5200005       1.83021109E-09
  -10.5100002       1.84244697E-09
  -10.5000000       1.85548232E-09
  -10.4899998       1.86953786E-09
  -10.4799995       1.88476235E-09
  -10.4700003       1.90121185E-09
  -10.4600000       1.91885774E-09
  -10.4499998       1.93758343E-09
  -10.4399996       1.95720840E-09
  -10.4300003       1.97752725E-09
  -10.4200001       1.99834305E-09
  -10.4099998       2.01949191E-09
  -10.3999996       2.04086992E-09
  -10.3900003       2.06243134E-09
  -10.3800001       2.08416640E-09
  -10.3699999       2.10609419E-09
  -10.3599997       2.12823625E-09
  -10.3500004       2.15059814E-09
  -10.3400002       2.17315121E-09
  -10.3299999       2.19584462E-09
  -10.3199997       2.21860796E-09
  -10.3100004       2.24136598E-09
  -10.3000002       2.26405472E-09
  -10.2900000       2.28666686E-09
  -10.2799997       2.30923458E-09
  -10.2700005       2.33182229E-09
  -10.2600002       2.35453990E-09
  -10.2500000       2.37752595E-09
  -10.2399998       2.40092302E-09
  -10.2299995       2.42487519E-09
  -10.2200003       2.44950527E-09
  -10.2100000       2.47492804E-09
  -10.1999998       2.50123988E-09
  -10.1899996       2.52851540E-09
  -10.1800003       2.55682497E-09
  -10.1700001       2.58622634E-09
  -10.1599998       2.61676791E-09
  -10.1499996       2.64850208E-09
  -10.1400003       2.68148015E-09
  -10.1300001       2.71577116E-09
  -10.1199999       2.75144019E-09
  -10.1099997       2.78858203E-09
  -10.1000004       2.82728085E-09
  -10.0900002       2.86762170E-09
  -10.0799999       2.90969360E-09
  -10.0699997       2.95354274E-09
  -10.0600004       2.99921399E-09
  -10.0500002       3.04670733E-09
  -10.0400000       3.09601100E-09
  -10.0299997       3.14709503E-09
  -10.0200005       3.19995053E-09
  -10.0100002       3.25460614E-09
  -10.0000000       3.31110805E-09
  -9.98999977       3.36953754E-09
  -9.97999954       3.43001738E-09
  -9.97000027       3.49266616E-09
  -9.96000004       3.55762442E-09
  -9.94999981       3.62498898E-09
  -9.93999958       3.69480557E-09
  -9.93000031       3.76709952E-09
  -9.92000008       3.84180199E-09
  -9.90999985       3.91884969E-09
  -9.89999962       3.99814537E-09
  -9.89000034       4.07958645E-09
  -9.88000011       4.16308321E-09
  -9.86999989       4.24857927E-09
  -9.85999966       4.33607639E-09
  -9.85000038       4.42561809E-09
  -9.84000015       4.51733140E-09
  -9.82999992       4.61139704E-09
  -9.81999969       4.70805706E-09
  -9.81000042       4.80761253E-09
  -9.80000019       4.91039742E-09
  -9.78999996       5.01676123E-09
  -9.77999973       5.12705434E-09
  -9.77000046       5.24156096E-09
  -9.76000023       5.36054490E-09
  -9.75000000       5.48419621E-09
  -9.73999977       5.61264946E-09
  -9.72999954       5.74601611E-09
  -9.72000027       5.88436277E-09
  -9.71000004       6.02777739E-09
  -9.69999981       6.17638829E-09
  -9.68999958       6.33029984E-09
  -9.68000031       6.48967191E-09
  -9.67000008       6.65461242E-09
  -9.65999985       6.82520440E-09
  -9.64999962       7.00142833E-09
  -9.64000034       7.18314475E-09
  -9.63000011       7.37007655E-09
  -9.61999989       7.56181162E-09
  -9.60999966       7.75781928E-09
  -9.60000038       7.95743293E-09
  -9.59000015       8.15992873E-09
  -9.57999992       8.36455438E-09
  -9.56999969       8.57051763E-09
  -9.56000042       8.77700579E-09
  -9.55000019       8.98319108E-09
  -9.53999996       9.18824128E-09
  -9.52999973       9.39126288E-09
  -9.52000046       9.59137747E-09
  -9.51000023       9.78768089E-09
  -9.50000000       9.97923966E-09
  -9.48999977       1.01651914E-08
  -9.47999954       1.03446887E-08
  -9.47000027       1.05170059E-08
  -9.46000004       1.06814833E-08
  -9.44999981       1.08375833E-08
  -9.43999958       1.09848717E-08
  -9.43000031       1.11230447E-08
  -9.42000008       1.12518448E-08
  -9.40999985       1.13711200E-08
  -9.39999962       1.14808634E-08
  -9.39000034       1.15811760E-08
  -9.38000011       1.16722481E-08
  -9.36999989       1.17545325E-08
  -9.35999966       1.18286403E-08
  -9.35000038       1.18953993E-08
  -9.34000015       1.19558043E-08
  -9.32999992       1.20110526E-08
  -9.31999969       1.20625199E-08
  -9.31000042       1.21116743E-08
  -9.30000019       1.21600952E-08
  -9.28999996       1.22094823E-08
  -9.27999973       1.22615536E-08
  -9.27000046       1.23181634E-08
  -9.26000023       1.23812072E-08
  -9.25000000       1.24526895E-08
  -9.23999977       1.25345903E-08
  -9.22999954       1.26289139E-08
  -9.22000027       1.27375808E-08
  -9.21000004       1.28623387E-08
  -9.19999981       1.30049020E-08
  -9.18999958       1.31666988E-08
  -9.18000031       1.33489895E-08
  -9.17000008       1.35529072E-08
  -9.15999985       1.37793474E-08
  -9.14999962       1.40291574E-08
  -9.14000034       1.43029251E-08
  -9.13000011       1.46012109E-08
  -9.11999989       1.49243089E-08
  -9.10999966       1.52722759E-08
  -9.10000038       1.56448845E-08
  -9.09000015       1.60416196E-08
  -9.07999992       1.64616178E-08
  -9.06999969       1.69037389E-08
  -9.06000042       1.73666237E-08
  -9.05000019       1.78486648E-08
  -9.03999996       1.83481532E-08
  -9.02999973       1.88631812E-08
  -9.02000046       1.93916883E-08
  -9.01000023       1.99314858E-08
  -9.00000000       2.04802095E-08
  -8.98999977       2.10353530E-08
  -8.97999954       2.15942535E-08
  -8.97000027       2.21541470E-08
  -8.96000004       2.27122676E-08
  -8.94999981       2.32657502E-08
  -8.93999958       2.38119107E-08
  -8.93000031       2.43481413E-08
  -8.92000008       2.48719250E-08
  -8.90999985       2.53809578E-08
  -8.89999962       2.58729731E-08
  -8.89000034       2.63457736E-08
  -8.88000011       2.67972950E-08
  -8.86999989       2.72255480E-08
  -8.85999966       2.76286549E-08
  -8.85000038       2.80049886E-08
  -8.84000015       2.83530373E-08
  -8.82999992       2.86713853E-08
  -8.81999969       2.89588815E-08
  -8.81000042       2.92145437E-08
  -8.80000019       2.94373681E-08
  -8.78999996       2.96265696E-08
  -8.77999973       2.97815603E-08
  -8.77000046       2.99018552E-08
  -8.76000023       2.99872163E-08
  -8.75000000       3.00377003E-08
  -8.73999977       3.00536094E-08
  -8.72999954       3.00355296E-08
  -8.72000027       2.99842497E-08
  -8.71000004       2.99008107E-08
  -8.69999981       2.97862197E-08
  -8.68999958       2.96416065E-08
  -8.68000031       2.94682287E-08
  -8.67000008       2.92673707E-08
  -8.65999985       2.90405247E-08
  -8.64999962       2.87894082E-08
  -8.64000034       2.85158297E-08
  -8.63000011       2.82219013E-08
  -8.61999989       2.79098096E-08
  -8.60999966       2.75818088E-08
  -8.60000038       2.72401053E-08
  -8.59000015       2.68868430E-08
  -8.57999992       2.65239830E-08
  -8.56999969       2.61535096E-08
  -8.56000042       2.57771191E-08
  -8.55000019       2.53966856E-08
  -8.53999996       2.50140229E-08
  -8.52999973       2.46309266E-08
  -8.52000046       2.42492408E-08
  -8.51000023       2.38707276E-08
  -8.50000000       2.34968400E-08
  -8.48999977       2.31290276E-08
  -8.47999954       2.27682957E-08
  -8.47000027       2.24154508E-08
  -8.46000004       2.20711680E-08
  -8.44999981       2.17360139E-08
  -8.43999958       2.14103828E-08
  -8.43000031       2.10948112E-08
  -8.42000008       2.07896509E-08
  -8.40999985       2.04951807E-08
  -8.39999962       2.02115142E-08
  -8.39000034       1.99386818E-08
  -8.38000011       1.96764685E-08
  -8.36999989       1.94245118E-08
  -8.35999966       1.91826253E-08
  -8.35000038       1.89503861E-08
  -8.34000015       1.87278015E-08
  -8.32999992       1.85149762E-08
  -8.31999969       1.83119688E-08
  -8.31000042       1.81192448E-08
  -8.30000019       1.79369160E-08
  -8.28999996       1.77652026E-08
  -8.27999973       1.76040036E-08
  -8.27000046       1.74532087E-08
  -8.26000023       1.73127983E-08
  -8.25000000       1.71827068E-08
  -8.23999977       1.70630106E-08
  -8.22999954       1.69541359E-08
  -8.22000027       1.68566885E-08
  -8.21000004       1.67715477E-08
  -8.19999981       1.66995680E-08
  -8.18999958       1.66415894E-08
  -8.18000031       1.65986869E-08
  -8.17000008       1.65715583E-08
  -8.15999985       1.65610725E-08
  -8.14999962       1.65683112E-08
  -8.14000034       1.65940719E-08
  -8.13000011       1.66396070E-08
  -8.11999989       1.67061049E-08
  -8.10999966       1.67948588E-08
  -8.10000038       1.69073697E-08
  -8.09000015       1.70448633E-08
  -8.07999992       1.72085191E-08
  -8.06999969       1.73993868E-08
  -8.06000042       1.76182890E-08
  -8.05000019       1.78660997E-08
  -8.03999996       1.81434618E-08
  -8.02999973       1.84513205E-08
  -8.02000046       1.87904377E-08
  -8.01000023       1.91616483E-08
  -8.00000000       1.95657588E-08
  -7.98999977       2.00030907E-08
  -7.98000002       2.04739941E-08
  -7.96999979       2.09786624E-08
  -7.96000004       2.15166249E-08
  -7.94999981       2.20876970E-08
  -7.94000006       2.26912213E-08
  -7.92999983       2.33265069E-08
  -7.92000008       2.39928486E-08
  -7.90999985       2.46893119E-08
  -7.90000010       2.54150923E-08
  -7.88999987       2.61690456E-08
  -7.88000011       2.69498184E-08
  -7.86999989       2.77562453E-08
  -7.86000013       2.85867596E-08
  -7.84999990       2.94398479E-08
  -7.84000015       3.03139558E-08
  -7.82999992       3.12074349E-08
  -7.82000017       3.21188303E-08
  -7.80999994       3.30465646E-08
  -7.80000019       3.39891493E-08
  -7.78999996       3.49452378E-08
  -7.78000021       3.59132599E-08
  -7.76999998       3.68916950E-08
  -7.76000023       3.78790119E-08
  -7.75000000       3.88739245E-08
  -7.73999977       3.98750579E-08
  -7.73000002       4.08811225E-08
  -7.71999979       4.18907966E-08
  -7.71000004       4.29030500E-08
  -7.69999981       4.39165753E-08
  -7.69000006       4.49299158E-08
  -7.67999983       4.59420697E-08
  -7.67000008       4.69517474E-08
  -7.65999985       4.79579008E-08
  -7.65000010       4.89594427E-08
  -7.63999987       4.99558368E-08
  -7.63000011       5.09463902E-08
  -7.61999989       5.19307513E-08
  -7.61000013       5.29086535E-08
  -7.59999990       5.38797877E-08
  -7.59000015       5.48442678E-08
  -7.57999992       5.58021576E-08
  -7.57000017       5.67535352E-08
  -7.55999994       5.76985322E-08
  -7.55000019       5.86374540E-08
  -7.53999996       5.95710397E-08
  -7.53000021       6.04999286E-08
  -7.51999998       6.14246787E-08
  -7.51000023       6.23464587E-08
  -7.50000000       6.32661425E-08
  -7.48999977       6.41843059E-08
  -7.48000002       6.51016450E-08
  -7.46999979       6.60187922E-08
  -7.46000004       6.69364226E-08
  -7.44999981       6.78552823E-08
  -7.44000006       6.87764015E-08