  -16.0000000       0.00000000    
  -15.9899998       0.00000000    
  -15.9799995       0.00000000    
  -15.9700003       0.00000000    
  -15.9600000       0.00000000    
  -15.9499998       0.00000000    
  -15.9399996       0.00000000    
  -15.9300003       0.00000000    
  -15.9200001       0.00000000    
  -15.9099998       0.00000000    
  -15.8999996       0.00000000    
  -15.8900003       7.97338826E-43
  -15.8800001       2.38599090E-41
  -15.8699999       2.85806032E-40
  -15.8599997       1.88854395E-39
  -15.8500004       7.32963035E-39
  -15.8400002       1.06989152E-38
  -15.8299999      -7.53611812E-38
  -15.8199997      -7.95726055E-37
  -15.8100004      -4.89805767E-36
  -15.8000002      -2.46365306E-35
  -15.7900000      -1.07790628E-34
  -15.7799997      -4.12401484E-34
  -15.7700005      -1.36924254E-33
  -15.7600002      -3.89939688E-33
  -15.7500000      -9.33030421E-33
  -15.7399998      -1.78390804E-32
  -15.7299995      -2.29136219E-32
  -15.7200003       1.75827084E-33
  -15.7100000       1.25135535E-31
  -15.6999998       4.86028875E-31
  -15.6899996       1.30321792E-30
  -15.6800003       2.82603982E-30
  -15.6700001       5.17225113E-30
  -15.6599998       8.02380256E-30
  -15.6499996       1.02271078E-29
  -15.6400003       9.45598200E-30
  -15.6300001       2.17741069E-30
  -15.6199999      -1.58659297E-29
  -15.6099997      -4.85518122E-29
  -15.6000004      -9.75131553E-29
  -15.5900002      -1.58810739E-28
  -15.5799999      -2.16361377E-28
  -15.5699997      -2.29981602E-28
  -15.5600004      -1.19357161E-28
  -15.5500002       2.43748390E-28
  -15.5400000       1.00408704E-27
  -15.5299997       2.20593146E-27
  -15.5200005       3.55843676E-27
  -15.5100002       4.13170098E-27
  -15.5000000       2.19483579E-27
  -15.4899998      -4.39662766E-27
  -15.4799995      -1.67928272E-26
  -15.4700003      -3.25795425E-26
  -15.4600000      -4.28517964E-26
  -15.4499998      -3.12191796E-26
  -15.4399996       2.16942095E-26
  -15.4300003       1.25073983E-25
  -15.4200001       2.56692972E-25
  -15.4099998       3.42217746E-25
  -15.3999996       2.53638971E-25
  -15.3900003      -1.48894476E-25
  -15.3800001      -9.15918886E-25
  -15.3699999      -1.86343283E-24
  -15.3599997      -2.45182111E-24
  -15.3500004      -1.81221939E-24
  -15.3400002       9.41067475E-25
  -15.3299999       6.05094890E-24
  -15.3199997       1.22526980E-23
  -15.3100004       1.61435935E-23
  -15.3000002       1.24878653E-23
  -15.2900000      -3.84859203E-24
  -15.2799997      -3.41520794E-23
  -15.2700005      -7.12429056E-23
  -15.2600002      -9.63945365E-23
  -15.2500000      -8.13104999E-23
  -15.2399998       1.66301799E-24
  -15.2299995       1.60680705E-22
  -15.2200003       3.61883061E-22
  -15.2100000       5.14785484E-22
  -15.1999998       4.81536499E-22
  -15.1899996       1.23696268E-22
  -15.1800003      -6.12594745E-22
  -15.1700001      -1.59546106E-21
  -15.1599998      -2.43953152E-21
  -15.1499996      -2.53808577E-21
  -15.1400003      -1.25086127E-21
  -15.1300001       1.74827430E-21
  -15.1199999       6.05054305E-21
  -15.1099997       1.02090736E-20
  -15.1000004       1.18091996E-20
  -15.0900002       8.13124843E-21
  -15.0799999      -2.56024496E-21
  -15.0699997      -1.93937293E-20
  -15.0600004      -3.76022089E-20
  -15.0500002      -4.84868201E-20
  -15.0400000      -4.14575007E-20
  -15.0299997      -8.38624786E-21
  -15.0200005       5.05750537E-20
  -15.0100002       1.21843226E-19
  -15.0000000       1.76992146E-19
  -14.9899998       1.78068812E-19
  -14.9799995       9.09643023E-20
  -14.9700003      -9.51348888E-20
  -14.9600000      -3.48353544E-19
  -14.9499998      -5.84434794E-19
  -14.9399996      -6.77111490E-19
  -14.9300003      -4.94987050E-19
  -14.9200001       3.77227899E-20
  -14.9099998       8.72153285E-19
  -14.8999996       1.78549624E-18
  -14.8900003       2.38575722E-18
  -14.8800001       2.19871390E-18
  -14.8699999       8.42981623E-19
  -14.8599997      -1.73778115E-18
  -14.8500004      -5.05921985E-18
  -14.8400002      -8.00409656E-18
  -14.8299999      -8.96451943E-18
  -14.8199997      -6.28806530E-18
  -14.8100004       9.98146437E-19
  -14.8000002       1.23457120E-17
  -14.7900000       2.50290494E-17
  -14.7799997       3.40693360E-17
  -14.7700005       3.31086981E-17
  -14.7600002       1.64072168E-17
  -14.7500000      -1.82452684E-17
  -14.7399998      -6.64301008E-17
  -14.7299995      -1.15045140E-16
  -14.7200003      -1.42804779E-16
  -14.7100000      -1.24600254E-16
  -14.6999998      -4.01256547E-17
  -14.6899996       1.14413505E-16
  -14.6800003       3.14742991E-16
  -14.6700001       5.02186882E-16
  -14.6599998       5.88388260E-16
  -14.6499996       4.75561407E-16
  -14.6400003       9.26809025E-17
  -14.6300001      -5.58620770E-16
  -14.6199999      -1.36245938E-15
  -14.6099997      -2.07162469E-15
  -14.6000004      -2.33622741E-15
  -14.5900002      -1.79177326E-15
  -14.5799999      -2.02659753E-16
  -14.5699997       2.36850783E-15
  -14.5600004       5.42249402E-15
  -14.5500002       7.99033877E-15
  -14.5400000       8.77550189E-15
  -14.5299997       6.50541421E-15
  -14.5200005       4.57426802E-16
  -14.5100002      -8.96554220E-15
  -14.5000000      -1.98178384E-14
  -14.4899998      -2.86006672E-14
  -14.4799995      -3.08639426E-14
  -14.4700003      -2.24803561E-14
  -14.4600000      -1.41022134E-15
  -14.4499998       3.05045058E-14
  -14.4399996       6.64071527E-14
  -14.4300003       9.47016106E-14
  -14.4200001       1.01271252E-13
  -14.4099998       7.36668756E-14
  -14.3999996       6.52800923E-15
  -14.3900003      -9.32774433E-14
  -14.3800001      -2.03861179E-13
  -14.3699999      -2.89919618E-13
  -14.3599997      -3.09976003E-13
  -14.3500004      -2.28896139E-13
  -14.3400002      -3.32170747E-14
  -14.3299999       2.55214307E-13
  -14.3199997       5.72919696E-13
  -14.3100004       8.20917173E-13
  -14.3000002       8.85866250E-13
  -14.2900000       6.74327781E-13
  -14.2799997       1.52833814E-13
  -14.2700005      -6.18257615E-13
  -14.2600002      -1.47123893E-12
  -14.2500000      -2.14980095E-12
  -14.2399998      -2.36478437E-12
  -14.2299995      -1.88041705E-12
  -14.2200003      -6.11882181E-13
  -14.2100000       1.29537082E-12
  -14.1999998       3.43722403E-12
  -14.1899996       5.19942986E-12
  -14.1800003       5.89116082E-12
  -14.1700001       4.94568015E-12
  -14.1599998       2.14249170E-12
  -14.1499996      -2.21556020E-12
  -14.1400003      -7.24118638E-12
  -14.1300001      -1.15711546E-11
  -14.1199999      -1.36579159E-11
  -14.1099997      -1.22023962E-11
  -14.1000004      -6.62917204E-12
  -14.0900002       2.53445420E-12
  -14.0799999       1.35207869E-11
  -14.0699997       2.35310885E-11
  -14.0600004       2.93164416E-11
  -14.0500002       2.80446482E-11
  -14.0400000       1.82577720E-11
  -14.0299997       6.50995534E-13
  -14.0200005      -2.16070304E-11
  -14.0100002      -4.32160835E-11
  -14.0000000      -5.77986062E-11
  -13.9899998      -5.95142199E-11
  -13.9799995      -4.48799227E-11
  -13.9700003      -1.43045627E-11
  -13.9600000       2.71735464E-11
  -13.9499998       7.03309286E-11
  -13.9399996       1.03499292E-10
  -13.9300003       1.15367771E-10
  -13.9200001       9.82493392E-11
  -13.9099998       5.09728336E-11
  -13.8999996      -1.95034804E-11
  -13.8900003      -9.84580126E-11
  -13.8800001      -1.66027511E-10
  -13.8699999      -2.01763550E-10
  -13.8599997      -1.90198995E-10
  -13.8500004      -1.26039207E-10
  -13.8400002      -1.74507804E-11
  -13.8299999       1.13824450E-10
  -13.8199997       2.36130004E-10
  -13.8100004       3.14973270E-10
  -13.8000002       3.22136706E-10
  -13.7900000       2.44607196E-10
  -13.7799997       9.07628278E-11
  -13.7700005      -1.08432457E-10
  -13.7600002      -3.04454462E-10
  -13.7500000      -4.42146014E-10
  -13.7399998      -4.74463524E-10
  -13.7299995      -3.77464643E-10
  -13.7200003      -1.61221175E-10
  -13.7100000       1.27322486E-10
  -13.6999998       4.11914891E-10
  -13.6899996       6.04760408E-10
  -13.6800003       6.31187935E-10
  -13.6700001       4.55182031E-10
  -13.6599998       9.82360165E-11
  -13.6499996      -3.55610069E-10
  -13.6400003      -7.73059616E-10
  -13.6300001      -1.00310527E-09
  -13.6199999      -9.21228094E-10
  -13.6099997      -4.75534612E-10
  -13.6000004       2.78909951E-10
  -13.5900002       1.17087540E-09
  -13.5799999       1.93764849E-09
  -13.5699997       2.28421859E-09
  -13.5600004       1.96726679E-09
  -13.5500002       8.84548657E-10
  -13.5400000      -8.55883808E-10
  -13.5299997      -2.91229618E-09
  -13.5200005      -4.74970152E-09
  -13.5100002      -5.74771564E-09
  -13.5000000      -5.36045963E-09
  -13.4899998      -3.29463856E-09
  -13.4799995       3.41107226E-10
  -13.4700003       4.96477748E-09
  -13.4600000       9.56566293E-09
  -13.4499998       1.28788802E-08
  -13.4399996       1.36706344E-08
  -13.4300003       1.10798828E-08
  -13.4200001       4.93609154E-09
  -13.4099998      -4.03807299E-09
  -13.3999996      -1.42174716E-08
  -13.3900003      -2.32999966E-08
  -13.3800001      -2.87552595E-08
  -13.3699999      -2.84227930E-08
  -13.3599997      -2.11337632E-08
  -13.3500004      -7.20097626E-09
  -13.3400002       1.13714620E-08
  -13.3299999       3.10628465E-08
  -13.3199997       4.74176716E-08
  -13.3100004       5.59599620E-08
  -13.3000002       5.32686144E-08
  -13.2900000       3.79759584E-08
  -13.2799997       1.14324301E-08
  -13.2700005      -2.21755982E-08
  -13.2600002      -5.63670994E-08
  -13.2500000      -8.35324840E-08
  -13.2399998      -9.65363540E-08
  -13.2299995      -9.04346962E-08
  -13.2200003      -6.39140794E-08
  -13.2100000      -2.00744346E-08
  -13.1999998       3.37126771E-08
  -13.1899996       8.69545502E-08
  -13.1800003       1.28047887E-07
  -13.1700001       1.46778405E-07
  -13.1599998       1.36779363E-07
  -13.1499996       9.73670282E-08
  -13.1400003       3.42579014E-08
  -13.1300001      -4.11194669E-08
  -13.1199999      -1.13694014E-07
  -13.1099997      -1.67849436E-07
  -13.1000004      -1.90913767E-07
  -13.0900002      -1.76247141E-07
  -13.0799999      -1.25162813E-07
  -13.0699997      -4.71201638E-08
  -13.0600004       4.19903792E-08
  -13.0500002       1.23204217E-07
  -13.0400000       1.78783637E-07
  -13.0299997       1.96475384E-07
  -13.0200005       1.72663334E-07
  -13.0100002       1.13553874E-07
  -13.0000000       3.39527695E-08
  -12.9899998      -4.62117740E-08
  -12.9799995      -1.06882339E-07
  -12.9700003      -1.33177210E-07
  -12.9600000      -1.19627146E-07
  -12.9499998      -7.21231572E-08
  -12.9399996      -6.86356749E-09
  -12.9300003       5.36711582E-08
  -12.9200001       8.68809735E-08
  -12.9099998       7.68444721E-08
  -12.8999996       1.99278176E-08
  -12.8900003      -7.24930089E-08
  -12.8800001      -1.75286829E-07
  -12.8699999      -2.54936083E-07
  -12.8599997      -2.78045036E-07
  -12.8500004      -2.21064212E-07
  -12.8400002      -7.87331373E-08
  -12.8299999       1.31191982E-07
  -12.8199997       3.68686528E-07
  -12.8100004       5.78206027E-07
  -12.8000002       7.00469570E-07
  -12.7900000       6.86900762E-07
  -12.7799997       5.13410043E-07
  -12.7700005       1.89992264E-07
  -12.7600002      -2.36704395E-07
  -12.7500000      -6.89273350E-07
  -12.7399998      -1.07337723E-06
  -12.7299995      -1.29704028E-06
  -12.7200003      -1.29140199E-06
  -12.7100000      -1.02822821E-06
  -12.6999998      -5.29906231E-07
  -12.6899996       1.30922572E-07
  -12.6800003       8.42724489E-07
  -12.6700001       1.47551987E-06
  -12.6599998       1.90633727E-06
  -12.6499996       2.04424964E-06
  -12.6400003       1.84941291E-06
  -12.6300001       1.34175548E-06
  -12.6199999       5.97139717E-07
  -12.6099997      -2.68241621E-07
  -12.6000004      -1.12176645E-06
  -12.5900002      -1.84108785E-06
  -12.5799999      -2.33739524E-06
  -12.5699997      -2.56968428E-06
  -12.5600004      -2.54669590E-06
  -12.5500002      -2.31609147E-06
  -12.5400000      -1.94374843E-06
  -12.5299997      -1.48869242E-06
  -12.5200005      -9.80556479E-07
  -12.5100002      -4.06212450E-07
  -12.5000000       2.89634784E-07
  -12.4899998       1.18842127E-06
  -12.4799995       2.36850769E-06
  -12.4700003       3.86860711E-06
  -12.4600000       5.65196297E-06
  -12.4499998       7.58006945E-06
  -12.4399996       9.40329301E-06
  -12.4300003       1.07727201E-05
  -12.4200001       1.12728803E-05
  -12.4099998       1.04711835E-05
  -12.3999996       7.97546818E-06
  -12.3900003       3.48948265E-06
  -12.3800001      -3.14411545E-06
  -12.3699999      -1.19205661E-05
  -12.3599997      -2.26745124E-05
  -12.3500004      -3.51038798E-05
  -12.3400002      -4.88109399E-05
  -12.3299999      -6.33516029E-05
  -12.3199997      -7.82806965E-05
  -12.3100004      -9.31856193E-05
  -12.3000002      -1.07699023E-04
  -12.2900000      -1.21491990E-04
  -12.2799997      -1.34248869E-04
  -12.2700005      -1.45631086E-04
  -12.2600002      -1.55244212E-04
  -12.2500000      -1.62615019E-04
  -12.2399998      -1.67190228E-04
  -12.2299995      -1.68359416E-04
  -12.2200003      -1.65501362E-04
  -12.2100000      -1.58046460E-04
  -12.1999998      -1.45542421E-04
  -12.1899996      -1.27716747E-04
  -12.1800003      -1.04510727E-04
  -12.1700001      -7.60948169E-05
  -12.1599998      -4.28453641E-05
  -12.1499996      -5.30156876E-06
  -12.1400003       3.59016012E-05
  -12.1300001       8.00956477E-05
  -12.1199999       1.26637300E-04
  -12.1099997       1.74940651E-04
  -12.1000004       2.24483883E-04
  -12.0900002       2.74790393E-04
  -12.0799999       3.25386383E-04
  -12.0699997       3.75752628E-04
  -12.0600004       4.25282662E-04
  -12.0500002       4.73261258E-04
  -12.0400000       5.18865359E-04
  -12.0299997       5.61198860E-04
  -12.0200005       5.99347288E-04
  -12.0100002       6.32444397E-04
  -12.0000000       6.59731391E-04
  -11.9899998       6.80604659E-04
  -11.9799995       6.94627524E-04
  -11.9700003       7.01513723E-04
  -11.9600000       7.01081473E-04
  -11.9499998       6.93191192E-04
  -11.9399996       6.77683274E-04
  -11.9300003       6.54331408E-04
  -11.9200001       6.22821623E-04
  -11.9099998       5.82772598E-04
  -11.8999996       5.33785031E-04
  -11.8900003       4.75515670E-04
  -11.8800001       4.07760206E-04
  -11.8699999       3.30524461E-04
  -11.8599997       2.44072769E-04
  -11.8500004       1.48939565E-04
  -11.8400002       4.59112089E-05
  -11.8299999      -6.40329890E-05
  -11.8199997      -1.79779337E-04
  -11.8100004      -3.00154294E-04
  -11.8000002      -4.23975667E-04
  -11.7900000      -5.50092314E-04
  -11.7799997      -6.77391188E-04
  -11.7700005      -8.04793788E-04
  -11.7600002      -9.31241375E-04
  -11.7500000      -1.05568301E-03
  -11.7399998      -1.17707299E-03
  -11.7299995      -1.29438355E-03
  -11.7200003      -1.40662387E-03
  -11.7100000      -1.51285983E-03
  -11.6999998      -1.61222159E-03
  -11.6899996      -1.70389249E-03
  -11.6800003      -1.78707531E-03
  -11.6700001      -1.86093803E-03
  -11.6599998      -1.92455645E-03
  -11.6499996      -1.97688187E-03
  -11.6400003      -2.01672246E-03
  -11.6300001      -2.04278692E-03
  -11.6199999      -2.05376791E-03
  -11.6099997      -2.04846775E-03
  -11.6000004      -2.02591438E-03
  -11.5900002      -1.98549055E-03
  -11.5799999      -1.92698825E-03
  -11.5699997      -1.85060478E-03
  -11.5600004      -1.75686402E-03
  -11.5500002      -1.64647470E-03
  -11.5400000      -1.52015837E-03
  -11.5299997      -1.37848582E-03
  -11.5200005      -1.22176809E-03
  -11.5100002      -1.05001894E-03
  -11.5000000      -8.63021822E-04
  -11.4899998      -6.60470105E-04
  -11.4799995      -4.42161923E-04
  -11.4700003      -2.08202720E-04
  -11.4600000       4.08351007E-05
  -11.4499998       3.03839450E-04
  -11.4399996       5.79177518E-04
  -11.4300003       8.64817528E-04
  -11.4200001       1.15852163E-03
  -11.4099998       1.45806035E-03
  -11.3999996       1.76142063E-03
  -11.3900003       2.06694193E-03
  -11.3800001       2.37339037E-03
  -11.3699999       2.67992471E-03
  -11.3599997       2.98603089E-03
  -11.3500004       3.29139852E-03
  -11.3400002       3.59581760E-03
  -11.3299999       3.89910722E-03
  -11.3199997       4.20108158E-03
  -11.3100004       4.50157514E-03
  -11.3000002       4.80048079E-03
  -11.2900000       5.09779388E-03
  -11.2799997       5.39361872E-03
  -11.2700005       5.68814110E-03
  -11.2600002       5.98153099E-03
  -11.2500000       6.27383124E-03
  -11.2399998       6.56480435E-03
  -11.2299995       6.85381889E-03
  -11.2200003       7.13977171E-03
  -11.2100000       7.42108282E-03
  -11.1999998       7.69577222E-03
  -11.1899996       7.96161685E-03
  -11.1800003       8.21635500E-03
  -11.1700001       8.45792145E-03
  -11.1599998       8.68470408E-03
  -11.1499996       8.89571477E-03
  -11.1400003       9.09073837E-03
  -11.1300001       9.27036162E-03
  -11.1199999       9.43589397E-03
  -11.1099997       9.58921853E-03
  -11.1000004       9.73252486E-03
  -11.0900002       9.86800808E-03
  -11.0799999       9.99758206E-03
  -11.0699997       1.01226177E-02
  -11.0600004       1.02437744E-02
  -11.0500002       1.03609841E-02
  -11.0400000       1.04735289E-02
  -11.0299997       1.05802454E-02
  -11.0200005       1.06798159E-02
  -11.0100002       1.07710501E-02
  -11.0000000       1.08531378E-02
  -10.9899998       1.09258248E-02
  -10.9799995       1.09894508E-02
  -10.9700003       1.10449223E-02
  -10.9600000       1.10935522E-02
  -10.9499998       1.11369025E-02
  -10.9399996       1.11765843E-02
  -10.9300003       1.12140914E-02
  -10.9200001       1.12506542E-02
  -10.9099998       1.12871118E-02
  -10.8999996       1.13237817E-02
  -10.8900003       1.13603557E-02
  -10.8800001       1.13957524E-02
  -10.8699999       1.14280647E-02
  -10.8599997       1.14545645E-02
  -10.8500004       1.14718480E-02
  -10.8400002       1.14761516E-02
  -10.8299999       1.14637939E-02
  -10.8199997       1.14317155E-02
  -10.8100004       1.13779902E-02
  -10.8000002       1.13022076E-02
  -10.7900000       1.12055764E-02
  -10.7799997       1.10907210E-02
  -10.7700005       1.09611703E-02
  -10.7600002       1.08206058E-02
  -10.7500000       1.06720412E-02
  -10.7399998       1.05171204E-02
  -10.7299995       1.03556700E-02
  -10.7200003       1.01856496E-02
  -10.7100000       1.00035388E-02
  -10.6999998       9.80495941E-03
  -10.6899996       9.58560314E-03
  -10.6800003       9.34203528E-03
  -10.6700001       9.07239225E-03
  -10.6599998       8.77669919E-03
  -10.6499996       8.45690444E-03
  -10.6400003       8.11652467E-03
  -10.6300001       7.76013220E-03
  -10.6199999       7.39271240E-03
  -10.6099997       7.01911515E-03
  -10.6000004       6.64359005E-03
  -10.5900002       6.26951270E-03
  -10.5799999       5.89922862E-03
  -10.5699997       5.53406542E-03
  -10.5600004       5.17438445E-03
  -10.5500002       4.81970422E-03
  -10.5400000       4.46888153E-03
  -10.5299997       4.12034336E-03
  -10.5200005       3.77241662E-03
  -10.5100002       3.42366123E-03
  -10.5000000       3.07325274E-03
  -10.4899998       2.72127963E-03
  -10.4799995       2.36891699E-03
  -10.4700003       2.01836624E-03
  -10.4600000       1.67263206E-03
  -10.4499998       1.33506884E-03
  -10.4399996       1.00890838E-03
  -10.4300003       6.96768926E-04
  -10.4200001       4.00340970E-04
  -10.4099998       1.20219600E-04
  -10.3999996      -1.44007223E-04
  -10.3900003      -3.93542025E-04
  -10.3800001      -6.30162074E-04
  -10.3699999      -8.55989289E-04
  -10.3599997      -1.07339513E-03
  -10.3500004      -1.28500618E-03
  -10.3400002      -1.49371207E-03
  -10.3299999      -1.70265022E-03
  -10.3199997      -1.91496371E-03
  -10.3100004      -2.13343557E-03
  -10.3000002      -2.35989154E-03
  -10.2900000      -2.59467820E-03
  -10.2799997      -2.83624628E-03
  -10.2700005      -3.08114709E-03
  -10.2600002      -3.32446327E-03
  -10.2500000      -3.56072281E-03
  -10.2399998      -3.78513103E-03
  -10.2299995      -3.99479782E-03
  -10.2200003      -4.18967288E-03
  -10.2100000      -4.37294412E-03
  -10.1999998      -4.55065165E-03
  -10.1899996      -4.73062368E-03
  -10.1800003      -4.92090592E-03
  -10.1700001      -5.12804976E-03
  -10.1599998      -5.35568874E-03
  -10.1499996      -5.60370088E-03
  -10.1400003      -5.86819462E-03
  -10.1300001      -6.14231406E-03
  -10.1199999      -6.41755154E-03
  -10.1099997      -6.68540085E-03
  -10.1000004      -6.93872431E-03
  -10.0900002      -7.17276661E-03
  -10.0799999      -7.38541689E-03
  -10.0699997      -7.57696200E-03
  -10.0600004      -7.74929347E-03
  -10.0500002      -7.90502504E-03
  -10.0400000      -8.04667361E-03
  -10.0299997      -8.17614421E-03
  -10.0200005      -8.29462707E-03
  -10.0100002      -8.40263348E-03
  -10.0000000      -8.50033481E-03
  -9.98999977      -8.58766399E-03
  -9.97999954      -8.66437238E-03
  -9.97000027      -8.72979034E-03
  -9.96000004      -8.78255069E-03
  -9.94999981      -8.82037077E-03
  -9.93999958      -8.84003751E-03
  -9.93000031      -8.83771572E-03
  -9.92000008      -8.80953483E-03
  -9.90999985      -8.75233952E-03
  -9.89999962      -8.66429694E-03
  -9.89000034      -8.54525808E-03
  -9.88000011      -8.39670096E-03
  -9.86999989      -8.22116900E-03
  -9.85999966      -8.02156702E-03
  -9.85000038      -7.80034857E-03
  -9.84000015      -7.55894324E-03
  -9.82999992      -7.29765324E-03
  -9.81999969      -7.01598031E-03
  -9.81000042      -6.71319291E-03
  -9.80000019      -6.38905633E-03
  -9.78999996      -6.04429794E-03
  -9.77999973      -5.68064768E-03
  -9.77000046      -5.30043151E-03
  -9.76000023      -4.90583433E-03
  -9.75000000      -4.49816231E-03
  -9.73999977      -4.07735538E-03
  -9.72999954      -3.64206871E-03
  -9.72000027      -3.19037400E-03
  -9.71000004      -2.72079068E-03
  -9.69999981      -2.23351875E-03
  -9.68999958      -1.73127057E-03
  -9.68000031      -1.21941813E-03
  -9.67000008      -7.05361716E-04
  -9.65999985      -1.97199057E-04
  -9.64999962       2.97860010E-04
  -9.64000034       7.74953398E-04
  -9.63000011       1.23225630E-03
  -9.61999989       1.67083798E-03
  -9.60999966       2.09363177E-03
  -9.60000038       2.50390428E-03
  -9.59000015       2.90373038E-03
  -9.57999992       3.29313171E-03
  -9.56999969       3.66994762E-03
  -9.56000042       4.03079623E-03
  -9.55000019       4.37253108E-03
  -9.53999996       4.69377870E-03
  -9.52999973       4.99589974E-03
  -9.52000046       5.28299809E-03
  -9.51000023       5.56093920E-03
  -9.50000000       5.83554897E-03
  -9.48999977       6.11084606E-03
  -9.47999954       6.38769427E-03
  -9.47000027       6.66369451E-03
  -9.46000004       6.93416130E-03
  -9.44999981       7.19408412E-03
  -9.43999958       7.44035468E-03
  -9.43000031       7.67342234E-03
  -9.42000008       7.89782405E-03
  -9.40999985       8.12116917E-03
  -9.39999962       8.35196208E-03
  -9.39000034       8.59688316E-03
  -9.38000011       8.85837805E-03
  -9.36999989       9.13343485E-03
  -9.35999966       9.41404421E-03
  -9.35000038       9.68908519E-03
  -9.34000015       9.94721893E-03
  -9.32999992       1.01796417E-02
  -9.31999969       1.03819761E-02
  -9.31000042       1.05544571E-02
  -9.30000019       1.07006561E-02
  -9.28999996       1.08247893E-02
  -9.27999973       1.09290443E-02
  -9.27000046       1.10114478E-02
  -9.26000023       1.10653965E-02
  -9.25000000       1.10805668E-02
  -9.23999977       1.10454485E-02
  -9.22999954       1.09500522E-02
  -9.22000027       1.07882516E-02
  -9.21000004       1.05587048E-02
  -9.19999981       1.02641899E-02
  -9.18999958       9.90971085E-03
  -9.18000031       9.49988514E-03
  -9.17000008       9.03687254E-03
  -9.15999985       8.51938780E-03
  -9.14999962       7.94329401E-03
  -9.14000034       7.30343163E-03
  -9.13000011       6.59599621E-03
  -9.11999989       5.82049880E-03
  -9.10999966       4.98054083E-03
  -9.10000038       4.08305693E-03
  -9.09000015       3.13634193E-03
  -9.07999992       2.14749039E-03
  -9.06999969       1.12040446E-03
  -9.06000042       5.50439945E-05
  -9.05000019      -1.05150463E-03
  -9.03999996      -2.20269803E-03
  -9.02999973      -3.39947874E-03
  -9.02000046      -4.63769864E-03
  -9.01000023      -5.90705592E-03
  -9.00000000      -7.19197560E-03
  -8.98999977      -8.47407803E-03
  -8.97999954      -9.73573513E-03
  -8.97000027      -1.09633785E-02
  -8.96000004      -1.21493582E-02
  -8.94999981      -1.32918647E-02
  -8.93999958      -1.43929040E-02
  -8.93000031      -1.54549656E-02
  -8.92000008      -1.64776631E-02
  -8.90999985      -1.74553841E-02
  -8.89999962      -1.83768943E-02
  -8.89000034      -1.92269254E-02
  -8.88000011      -1.99892446E-02
  -8.86999989      -2.06500757E-02
  -8.85999966      -2.12007631E-02
  -8.85000038      -2.16386933E-02
  -8.84000015      -2.19663084E-02
  -8.82999992      -2.21885350E-02
  -8.81999969      -2.23096032E-02
  -8.81000042      -2.23304406E-02
  -8.80000019      -2.22474188E-02
  -8.78999996      -2.20530834E-02
  -8.77999973      -2.17382256E-02
  -8.77000046      -2.12948713E-02
  -8.76000023      -2.07188055E-02
  -8.75000000      -2.00109798E-02
  -8.73999977      -1.91772040E-02
  -8.72999954      -1.82262994E-02
  -8.72000027      -1.71675477E-02
  -8.71000004      -1.60081517E-02
  -8.69999981      -1.47518180E-02
  -8.68999958      -1.33986725E-02
  -8.68000031      -1.19466037E-02
  -8.67000008      -1.03933522E-02
  -8.65999985      -8.73854849E-03
  -8.64999962      -6.98484667E-03
  -8.64000034      -5.13782445E-03
  -8.63000011      -3.20460927E-03
  -8.61999989      -1.19170849E-03
  -8.60999966       8.96938029E-04
  -8.60000038       3.06126731E-03
  -8.59000015       5.30492375E-03
  -8.57999992       7.63390167E-03
  -8.56999969       1.00542586E-02
  -8.56000042       1.25697972E-02
  -8.55000019       1.51801612E-02
  -8.53999996       1.78803094E-02
  -8.52999973       2.06610840E-02
  -8.52000046       2.35108528E-02
  -8.51000023       2.64175646E-02
  -8.50000000       2.93706041E-02
  -8.48999977       3.23618725E-02
  -8.47999954       3.53860334E-02
  -8.47000027       3.84397507E-02
  -8.46000004       4.15206775E-02
  -8.44999981       4.46262658E-02
  -8.43999958       4.77531478E-02
  -8.43000031       5.08967489E-02
  -8.42000008       5.40518351E-02
  -8.40999985       5.72129041E-02
  -8.39999962       6.03747144E-02
  -8.39000034       6.35325536E-02
  -8.38000011       6.66819289E-02
  -8.36999989       6.98181912E-02
  -8.35999966       7.29359388E-02
  -8.35000038       7.60284364E-02
  -8.34000015       7.90876448E-02
  -8.32999992       8.21042955E-02
  -8.31999969       8.50685164E-02
  -8.31000042       8.79703015E-02
  -8.30000019       9.08002779E-02
  -8.28999996       9.35497358E-02
  -8.27999973       9.62109342E-02
  -8.27000046       9.87766385E-02
  -8.26000023      0.101239815    
  -8.25000000      0.103593268    
  -8.23999977      0.105828874    
  -8.22999954      0.107937634    
  -8.22000027      0.109909348    
  -8.21000004      0.111732580    
  -8.19999981      0.113395095    
  -8.18999958      0.114884168    
  -8.18000031      0.116187483    
  -8.17000008      0.117293797    
  -8.15999985      0.118193954    
  -8.14999962      0.118881218    
  -8.14000034      0.119351923    
  -8.13000011      0.119605012    
  -8.11999989      0.119641602    
  -8.10999966      0.119464017    
  -8.10000038      0.119074635    
  -8.09000015      0.118475616    
  -8.07999992      0.117668167    
  -8.06999969      0.116653286    
  -8.06000042      0.115432061    
  -8.05000019      0.114006981    
  -8.03999996      0.112382382    
  -8.02999973      0.110564835    
  -8.02000046      0.108562522    
  -8.01000023      0.106384590    
  -8.00000000      0.104039840    
  -7.98999977      0.101535782    
  -7.98000002       9.88780558E-02
  -7.96999979       9.60709453E-02
  -7.96000004       9.31180641E-02
  -7.94999981       9.00237337E-02
  -7.94000006       8.67940336E-02
  -7.92999983       8.34376886E-02
  -7.92000008       7.99656212E-02
  -7.90999985       7.63903633E-02
  -7.90000010       7.27243945E-02
  -7.88999987       6.89791292E-02
  -7.88000011       6.51639327E-02
  -7.86999989       6.12861998E-02
  -7.86000013       5.73522784E-02
  -7.84999990       5.33691309E-02
  -7.84000015       4.93458398E-02
  -7.82999992       4.52947766E-02
  -7.82000017       4.12321500E-02
  -7.80999994       3.71768065E-02
  -7.80000019       3.31488475E-02
  -7.78999996       2.91675106E-02
  -7.78000021       2.52489578E-02
  -7.76999998       2.14055423E-02
  -7.76000023       1.76456850E-02
  -7.75000000       1.39744170E-02
  -7.73999977       1.03953974E-02
  -7.73000002       6.91235671E-03
  -7.71999979       3.53039755E-03
  -7.71000004       2.56429950E-04
  -7.69999981      -2.90143304E-03
  -7.69000006      -5.93472319E-03
  -7.67999983      -8.83632898E-03
  -7.67000008      -1.16011640E-02
  -7.65999985      -1.42265381E-02
  -7.65000010      -1.67119298E-02
  -7.63999987      -1.90577433E-02
  -7.63000011      -2.12639812E-02
  -7.61999989      -2.33293492E-02
  -7.61000013      -2.52510477E-02
  -7.59999990      -2.70249583E-02
  -7.59000015      -2.86472496E-02
  -7.57999992      -3.01154628E-02
  -7.57000017      -3.14299911E-02
  -7.55999994      -3.25944833E-02
  -7.55000019      -3.36154513E-02
  -7.53999996      -3.45010236E-02
  -7.53000021      -3.52591351E-02
  -7.51999998      -3.58956419E-02
  -7.51000023      -3.64135467E-02
  -7.50000000      -3.68122868E-02
  -7.48999977      -3.70890908E-02
  -7.48000002      -3.72402519E-02
  -7.46999979      -3.72632742E-02
  -7.46000004      -3.71585041E-02
  -7.44999981      -3.69295925E-02
  -7.44000006      -3.65836360E-02