  -16.0000000       0.00000000    
  -15.9899998       0.00000000    
  -15.9799995       0.00000000    
  -15.9700003       0.00000000    
  -15.9600000       0.00000000    
  -15.9499998       0.00000000    
  -15.9399996       0.00000000    
  -15.9300003       0.00000000    
  -15.9200001       0.00000000    
  -15.9099998       0.00000000    
  -15.8999996       0.00000000    
  -15.8900003       0.00000000    
  -15.8800001      -2.92810338E-38
  -15.8699999      -2.96835058E-37
  -15.8599997       1.51188558E-37
  -15.8500004       2.32284428E-35
  -15.8400002       2.30931077E-34
  -15.8299999       1.36602968E-33
  -15.8199997       5.77644059E-33
  -15.8100004       1.83536663E-32
  -15.8000002       4.28242349E-32
  -15.7900000       5.98039040E-32
  -15.7799997      -3.94310000E-32
  -15.7700005      -5.92963455E-31
  -15.7600002      -2.37983514E-30
  -15.7500000      -6.80656293E-30
  -15.7399998      -1.58177649E-29
  -15.7299995      -3.11263501E-29
  -15.7200003      -5.22907193E-29
  -15.7100000      -7.31850971E-29
  -15.6999998      -7.63878404E-29
  -15.6899996      -2.50529316E-29
  -15.6800003       1.46737445E-28
  -15.6700001       5.37779441E-28
  -15.6599998       1.25465968E-27
  -15.6499996       2.31142447E-27
  -15.6400003       3.39784001E-27
  -15.6300001       3.51488609E-27
  -15.6199999       6.62492023E-28
  -15.6099997      -7.90196422E-27
  -15.6000004      -2.39949609E-26
  -15.5900002      -4.47276584E-26
  -15.5799999      -5.71858952E-26
  -15.5699997      -3.49782682E-26
  -15.5600004       5.62370373E-26
  -15.5500002       2.35420820E-25
  -15.5400000       4.61531553E-25
  -15.5299997       5.81524643E-25
  -15.5200005       3.13792228E-25
  -15.5100002      -6.63075505E-25
  -15.5000000      -2.45127620E-24
  -15.4899998      -4.51588395E-24
  -15.4799995      -5.28901300E-24
  -15.4700003      -2.20128204E-24
  -15.4600000       7.31464017E-24
  -15.4499998       2.34839884E-23
  -15.4399996       4.08836283E-23
  -15.4300003       4.58536603E-23
  -15.4200001       1.77560236E-23
  -15.4099998      -6.22912212E-23
  -15.3999996      -1.93522385E-22
  -15.3900003      -3.32343666E-22
  -15.3800001      -3.76390908E-22
  -15.3699999      -1.76640308E-22
  -15.3599997       4.00557668E-22
  -15.3500004       1.35418413E-21
  -15.3400002       2.39989430E-21
  -15.3299999       2.87064045E-21
  -15.3199997       1.78992656E-21
  -15.3100004      -1.75822874E-21
  -15.3000002      -7.92445732E-21
  -15.2900000      -1.52109047E-20
  -15.2799997      -1.98374051E-20
  -15.2700005      -1.60194673E-20
  -15.2600002       2.16939445E-21
  -15.2500000       3.70976934E-20
  -15.2399998       8.27361558E-20
  -15.2299995       1.20708851E-19
  -15.2200003       1.20469189E-19
  -15.2100000       4.70566604E-20
  -15.1999998      -1.21797886E-19
  -15.1899996      -3.71564516E-19
  -15.1800003      -6.28164628E-19
  -15.1700001      -7.50823880E-19
  -15.1599998      -5.57022959E-19
  -15.1499996       1.09304422E-19
  -15.1400003       1.27076893E-18
  -15.1300001       2.69975684E-18
  -15.1199999       3.84763103E-18
  -15.1099997       3.89138144E-18
  -15.1000004       1.95828744E-18
  -15.0900002      -2.46111296E-18
  -15.0799999      -8.99107937E-18
  -15.0699997      -1.59283950E-17
  -15.0600004      -2.01546858E-17
  -15.0500002      -1.76840792E-17
  -15.0400000      -4.99836872E-18
  -15.0299997       1.89607564E-17
  -15.0200005       5.06682007E-17
  -15.0100002       8.06744685E-17
  -15.0000000       9.41527347E-17
  -14.9899998       7.42376203E-17
  -14.9799995       8.32609151E-18
  -14.9700003      -1.03719079E-16
  -14.9600000      -2.41970049E-16
  -14.9499998      -3.63101293E-16
  -14.9399996      -4.05175855E-16
  -14.9300003      -3.03054095E-16
  -14.9200001      -1.37940068E-17
  -14.9099998       4.53080359E-16
  -14.8999996       1.01026509E-15
  -14.8900003       1.48520822E-15
  -14.8800001       1.64277868E-15
  -14.8699999       1.24459527E-15
  -14.8599997       1.40398715E-16
  -14.8500004      -1.62785492E-15
  -14.8400002      -3.74267691E-15
  -14.8299999      -5.59030056E-15
  -14.8199997      -6.34046174E-15
  -14.8100004      -5.14547952E-15
  -14.8000002      -1.44226259E-15
  -14.7900000       4.70379080E-15
  -14.7799997       1.23167578E-14
  -14.7700005       1.94188537E-14
  -14.7600002       2.32493807E-14
  -14.7500000       2.08589554E-14
  -14.7399998       1.00435814E-14
  -14.7299995      -9.54808318E-15
  -14.7200003      -3.54340072E-14
  -14.7100000      -6.18313384E-14
  -14.6999998      -8.00877986E-14
  -14.6899996      -8.02657433E-14
  -14.6800003      -5.38628692E-14
  -14.6700001       2.72761994E-15
  -14.6599998       8.48293739E-14
  -14.6499996       1.77307672E-13
  -14.6400003       2.54844323E-13
  -14.6300001       2.85638592E-13
  -14.6199999       2.38822173E-13
  -14.6099997       9.47925278E-14
  -14.6000004      -1.43602171E-13
  -14.5900002      -4.42272439E-13
  -14.5799999      -7.33308271E-13
  -14.5699997      -9.22077735E-13
  -14.5600004      -9.05791447E-13
  -14.5500002      -6.02402297E-13
  -14.5400000       1.50621432E-14
  -14.5299997       8.87378224E-13
  -14.5200005       1.85235334E-12
  -14.5100002       2.65341937E-12
  -14.5000000       2.98100845E-12
  -14.4899998       2.54662047E-12
  -14.4799995       1.17926112E-12
  -14.4700003      -1.07713523E-12
  -14.4600000      -3.89496638E-12
  -14.4499998      -6.65476138E-12
  -14.4399996      -8.52238592E-12
  -14.4300003      -8.61910630E-12
  -14.4200001      -6.26617074E-12
  -14.4099998      -1.25650781E-12
  -14.3999996       5.91861889E-12
  -14.3900003       1.39710734E-11
  -14.3800001       2.09176669E-11
  -14.3699999       2.44186338E-11
  -14.3599997       2.23305454E-11
  -14.3500004       1.33807410E-11
  -14.3400002      -2.19358754E-12
  -14.3299999      -2.22373040E-11
  -14.3199997      -4.26865696E-11
  -14.3100004      -5.81177328E-11
  -14.3000002      -6.28377003E-11
  -14.2900000      -5.23655459E-11
  -14.2799997      -2.50010724E-11
  -14.2700005       1.69300077E-11
  -14.2600002       6.65865904E-11
  -14.2500000       1.13210885E-10
  -14.2399998       1.43936529E-10
  -14.2299995       1.46624698E-10
  -14.2200003       1.13221155E-10
  -14.2100000       4.28663320E-11
  -14.1999998      -5.61269954E-11
  -14.1899996      -1.66212488E-10
  -14.1800003      -2.62917244E-10
  -14.1700001      -3.19442833E-10
  -14.1599998      -3.12862125E-10
  -14.1499996      -2.30660199E-10
  -14.1400003      -7.60090463E-11
  -14.1300001       1.29813174E-10
  -14.1199999       3.49023727E-10
  -14.1099997       5.33311506E-10
  -14.1000004       6.33488983E-10
  -14.0900002       6.11057538E-10
  -14.0799999       4.49149135E-10
  -14.0699997       1.60046518E-10
  -14.0600004      -2.13104659E-10
  -14.0500002      -6.01672434E-10
  -14.0400000      -9.23703947E-10
  -14.0299997      -1.10084020E-09
  -14.0200005      -1.07649012E-09
  -14.0100002      -8.31027858E-10
  -14.0000000      -3.90020322E-10
  -13.9899998       1.77199255E-10
  -13.9799995       7.69148689E-10
  -13.9700003       1.27204236E-09
  -13.9600000       1.58364866E-09
  -13.9499998       1.63561065E-09
  -13.9399996       1.40869860E-09
  -13.9300003       9.36978162E-10
  -13.9200001       2.99608671E-10
  -13.9099998      -3.97730487E-10
  -13.8999996      -1.04685705E-09
  -13.8900003      -1.55991176E-09
  -13.8800001      -1.88452454E-09
  -13.8699999      -2.00701278E-09
  -13.8599997      -1.94302041E-09
  -13.8500004      -1.71921122E-09
  -13.8400002      -1.35312961E-09
  -13.8299999      -8.39773751E-10
  -13.8199997      -1.52082374E-10
  -13.8100004       7.41533668E-10
  -13.8000002       1.84554583E-09
  -13.7900000       3.10062842E-09
  -13.7799997       4.35545333E-09
  -13.7700005       5.36119948E-09
  -13.7600002       5.79920023E-09
  -13.7500000       5.34392353E-09
  -13.7399998       3.75270481E-09
  -13.7299995       9.62938951E-10
  -13.7200003      -2.82974288E-09
  -13.7100000      -7.13975679E-09
  -13.6999998      -1.12269074E-08
  -13.6899996      -1.42054066E-08
  -13.6800003      -1.52145585E-08
  -13.6700001      -1.36203617E-08
  -13.6599998      -9.20369381E-09
  -13.6499996      -2.28639840E-09
  -13.6400003       6.24552632E-09
  -13.6300001       1.50428416E-08
  -13.6199999       2.25118448E-08
  -13.6099997       2.71150675E-08
  -13.6000004       2.76939609E-08
  -13.5900002       2.37417783E-08
  -13.5799999       1.55596389E-08
  -13.5699997       4.25042579E-09
  -13.5600004      -8.45963566E-09
  -13.5500002      -2.05415578E-08
  -13.5400000      -3.00599652E-08
  -13.5299997      -3.55564360E-08
  -13.5200005      -3.63290553E-08
  -13.5100002      -3.25385905E-08
  -13.5000000      -2.51117491E-08
  -13.4899998      -1.54625841E-08
  -13.4799995      -5.10215781E-09
  -13.4700003       4.75928541E-09
  -13.4600000       1.35039642E-08
  -13.4499998       2.11993498E-08
  -13.4399996       2.84473813E-08
  -13.4300003       3.60118975E-08
  -13.4200001       4.43146710E-08
  -13.4099998       5.29433919E-08
  -13.3999996       6.03363830E-08
  -13.3900003       6.37876383E-08
  -13.3800001       5.98519634E-08
  -13.3699999       4.51332234E-08
  -13.3599997       1.73290360E-08
  -13.3500004      -2.36918094E-08
  -13.3400002      -7.50579758E-08
  -13.3299999      -1.30585946E-07
  -13.3199997      -1.81191524E-07
  -13.3100004      -2.16086605E-07
  -13.3000002      -2.24647195E-07
  -13.2900000      -1.98661198E-07
  -13.2799997      -1.34527340E-07
  -13.2700005      -3.49147342E-08
  -13.2600002       9.05594888E-08
  -13.2500000       2.25929057E-07
  -13.2399998       3.50810126E-07
  -13.2299995       4.43445742E-07
  -13.2200003       4.84385794E-07
  -13.2100000       4.60144776E-07
  -13.1999998       3.66130905E-07
  -13.1899996       2.08226993E-07
  -13.1800003       2.64873434E-09
  -13.1700001      -2.25979505E-07
  -13.1599998      -4.48035166E-07
  -13.1499996      -6.33200727E-07
  -13.1400003      -7.54893392E-07
  -13.1300001      -7.94039636E-07
  -13.1199999      -7.41573558E-07
  -13.1099997      -5.99321652E-07
  -13.1000004      -3.79286007E-07
  -13.0900002      -1.01663488E-07
  -13.0799999       2.07845076E-07
  -13.0699997       5.20823335E-07
  -13.0600004       8.08520952E-07
  -13.0500002       1.04357571E-06
  -13.0400000       1.20112725E-06
  -13.0299997       1.25964903E-06
  -13.0200005       1.20196876E-06
  -13.0100002       1.01690603E-06
  -13.0000000       7.01714782E-07
  -12.9899998       2.65148401E-07
  -12.9799995      -2.69491352E-07
  -12.9700003      -8.62282434E-07
  -12.9600000      -1.45670333E-06
  -12.9499998      -1.98269822E-06
  -12.9399996      -2.36326650E-06
  -12.9300003      -2.52431846E-06
  -12.9200001      -2.40672284E-06
  -12.9099998      -1.97865256E-06
  -12.8999996      -1.24591759E-06
  -12.8900003      -2.57865452E-07
  -12.8800001       8.93034780E-07
  -12.8699999       2.07888502E-06
  -12.8599997       3.15094803E-06
  -12.8500004       3.95937877E-06
  -12.8400002       4.37517065E-06
  -12.8299999       4.31067929E-06
  -12.8199997       3.73510898E-06
  -12.8100004       2.68201620E-06
  -12.8000002       1.24730354E-06
  -12.7900000      -4.22172548E-07
  -12.7799997      -2.14750071E-06
  -12.7700005      -3.74088040E-06
  -12.7600002      -5.02911962E-06
  -12.7500000      -5.87365048E-06
  -12.7399998      -6.18417289E-06
  -12.7299995      -5.92451261E-06
  -12.7200003      -5.11099188E-06
  -12.7100000      -3.80509118E-06
  -12.6999998      -2.10313442E-06
  -12.6899996      -1.25812576E-07
  -12.6800003       1.99023043E-06
  -12.6700001       4.09790482E-06
  -12.6599998       6.04282150E-06
  -12.6499996       7.66598532E-06
  -12.6400003       8.80854168E-06
  -12.6300001       9.32086459E-06
  -12.6199999       9.07714548E-06
  -12.6099997       7.99481313E-06
  -12.6000004       6.05611331E-06
  -12.5900002       3.32750687E-06
  -12.5799999      -2.83441590E-08
  -12.5699997      -3.75276250E-06
  -12.5600004      -7.50662957E-06
  -12.5500002      -1.09017537E-05
  -12.5400000      -1.35452538E-05
  -12.5299997      -1.50910946E-05
  -12.5200005      -1.52907105E-05
  -12.5100002      -1.40338989E-05
  -12.5000000      -1.13721862E-05
  -12.4899998      -7.51953212E-06
  -12.4799995      -2.82906035E-06
  -12.4700003       2.25114991E-06
  -12.4600000       7.23623998E-06
  -12.4499998       1.16671654E-05
  -12.4399996       1.51672675E-05
  -12.4300003       1.74836459E-05
  -12.4200001       1.85072440E-05
  -12.4099998       1.82697640E-05
  -12.3999996       1.69201448E-05
  -12.3900003       1.46871234E-05
  -12.3800001       1.18368343E-05
  -12.3699999       8.63456262E-06
  -12.3599997       5.31799378E-06
  -12.3500004       2.08579581E-06
  -12.3400002      -8.98948656E-07
  -12.3299999      -3.49507491E-06
  -12.3199997      -5.56681971E-06
  -12.3100004      -6.97270252E-06
  -12.3000002      -7.56655936E-06
  -12.2900000      -7.21406559E-06
  -12.2799997      -5.82330040E-06
  -12.2700005      -3.38330824E-06
  -12.2600002      -1.06994658E-09
  -12.2500000       4.07420248E-06
  -12.2399998       8.44893566E-06
  -12.2299995       1.26108716E-05
  -12.2200003       1.59824085E-05
  -12.2100000       1.79950148E-05
  -12.1999998       1.81727555E-05
  -12.1899996       1.62098095E-05
  -12.1800003       1.20268223E-05
  -12.1700001       5.79432390E-06
  -12.1599998      -2.08241863E-06
  -12.1499996      -1.10152387E-05
  -12.1400003      -2.03122599E-05
  -12.1300001      -2.92695750E-05
  -12.1199999      -3.72582144E-05
  -12.1099997      -4.37905728E-05
  -12.1000004      -4.85553246E-05
  -12.0900002      -5.14171516E-05
  -12.0799999      -5.23855924E-05
  -12.0699997      -5.15641732E-05
  -12.0600004      -4.90949278E-05
  -12.0500002      -4.51138440E-05
  -12.0400000      -3.97291260E-05
  -12.0299997      -3.30275107E-05
  -12.0200005      -2.51061483E-05
  -12.0100002      -1.61197931E-05
  -12.0000000      -6.32842011E-06
  -11.9899998       3.87103000E-06
  -11.9799995       1.39420117E-05
  -11.9700003       2.32415568E-05
  -11.9600000       3.10873329E-05
  -11.9499998       3.68481124E-05
  -11.9399996       4.00405843E-05
  -11.9300003       4.04127750E-05
  -11.9200001       3.79962366E-05
  -11.9099998       3.31150513E-05
  -11.8999996       2.63487345E-05
  -11.8900003       1.84557521E-05
  -11.8800001       1.02725580E-05
  -11.8699999       2.60769730E-06
  -11.8599997      -3.84910300E-06
  -11.8500004      -8.58756084E-06
  -11.8400002      -1.12994203E-05
  -11.8299999      -1.18645530E-05
  -11.8199997      -1.03105249E-05
  -11.8100004      -6.76097170E-06
  -11.8000002      -1.38933865E-06
  -11.7900000       5.60839453E-06
  -11.7799997       1.40154380E-05
  -11.7700005       2.35718107E-05
  -11.7600002       3.39374019E-05
  -11.7500000       4.46552549E-05
  -11.7399998       5.51311387E-05
  -11.7299995       6.46425760E-05
  -11.7200003       7.23836201E-05
  -11.7100000       7.75431254E-05
  -11.6999998       7.94054940E-05
  -11.6899996       7.74564760E-05
  -11.6800003       7.14739654E-05
  -11.6700001       6.15850877E-05
  -11.6599998       4.82770010E-05
  -11.6499996       3.23571112E-05
  -11.6400003       1.48679583E-05
  -11.6300001      -3.02956892E-06
  -11.6199999      -2.01854145E-05
  -11.6099997      -3.55811717E-05
  -11.6000004      -4.84239899E-05
  -11.5900002      -5.82011089E-05
  -11.5799999      -6.46906556E-05
  -11.5699997      -6.79324585E-05
  -11.5600004      -6.81703095E-05
  -11.5500002      -6.57806886E-05
  -11.5400000      -6.12042786E-05
  -11.5299997      -5.48936514E-05
  -11.5200005      -4.72850770E-05
  -11.5100002      -3.87950713E-05
  -11.5000000      -2.98361465E-05
  -11.4899998      -2.08403453E-05
  -11.4799995      -1.22778674E-05
  -11.4700003      -4.65866015E-06
  -11.4600000       1.49002790E-06
  -11.4499998       5.67082952E-06
  -11.4399996       7.48153934E-06
  -11.4300003       6.68552366E-06
  -11.4200001       3.27149019E-06
  -11.4099998      -2.51336064E-06
  -11.3999996      -1.01679188E-05
  -11.3900003      -1.89837210E-05
  -11.3800001      -2.81284047E-05
  -11.3699999      -3.67529356E-05
  -11.3599997      -4.41034645E-05
  -11.3500004      -4.96167668E-05
  -11.3400002      -5.29809986E-05
  -11.3299999      -5.41505324E-05
  -11.3199997      -5.33129169E-05
  -11.3100004      -5.08165394E-05
  -11.3000002      -4.70757077E-05
  -11.2900000      -4.24746977E-05
  -11.2799997      -3.72920695E-05
  -11.2700005      -3.16615769E-05
  -11.2600002      -2.55771229E-05
  -11.2500000      -1.89389557E-05
  -11.2399998      -1.16285428E-05
  -11.2299995      -3.59276601E-06
  -11.2200003       5.08377570E-06
  -11.2100000       1.41369064E-05
  -11.1999998       2.31227586E-05
  -11.1899996       3.14609497E-05
  -11.1800003       3.85127387E-05
  -11.1700001       4.36779446E-05
  -11.1599998       4.64904297E-05
  -11.1499996       4.66927013E-05
  -11.1400003       4.42750024E-05
  -11.1300001       3.94726485E-05
  -11.1199999       3.27239904E-05
  -11.1099997       2.45995743E-05
  -11.1000004       1.57181184E-05
  -11.0900002       6.66593405E-06
  -11.0799999      -2.06586424E-06
  -11.0699997      -1.01176520E-05
  -11.0600004      -1.72688415E-05
  -11.0500002      -2.34209092E-05
  -11.0400000      -2.85642982E-05
  -11.0299997      -3.27395683E-05
  -11.0200005      -3.60020167E-05
  -11.0100002      -3.83961960E-05
  -11.0000000      -3.99428500E-05
  -10.9899998      -4.06372856E-05
  -10.9799995      -4.04557650E-05
  -10.9700003      -3.93657574E-05
  -10.9600000      -3.73365510E-05
  -10.9499998      -3.43480606E-05
  -10.9399996      -3.03975521E-05
  -10.9300003      -2.55048089E-05
  -10.9200001      -1.97165482E-05
  -10.9099998      -1.31104343E-05
  -10.8999996      -5.79790230E-06
  -10.8900003       2.07549715E-06
  -10.8800001       1.03336724E-05
  -10.8699999       1.87780388E-05
  -10.8599997       2.71992158E-05
  -10.8500004       3.53897922E-05
  -10.8400002       4.31548542E-05
  -10.8299999       5.03168158E-05
  -10.8199997       5.67127172E-05
  -10.8100004       6.21846339E-05
  -10.8000002       6.65663829E-05
  -10.7900000       6.96723946E-05
  -10.7799997       7.12950714E-05
  -10.7700005       7.12158289E-05
  -10.7600002       6.92319882E-05
  -10.7500000       6.51971568E-05
  -10.7399998       5.90684722E-05
  -10.7299995       5.09502606E-05
  -10.7200003       4.11231049E-05
  -10.7100000       3.00485135E-05
  -10.6999998       1.83440516E-05
  -10.6899996       6.72974238E-06
  -10.6800003      -4.04684670E-06
  -10.6700001      -1.32944906E-05
  -10.6599998      -2.04560311E-05
  -10.6499996      -2.51657930E-05
  -10.6400003      -2.72763773E-05
  -10.6300001      -2.68512322E-05
  -10.6199999      -2.41263624E-05
  -10.6099997      -1.94510285E-05
  -10.6000004      -1.32213727E-05
  -10.5900002      -5.82130588E-06
  -10.5799999       2.41750331E-06
  -10.5699997       1.12301404E-05
  -10.5600004       2.04079643E-05
  -10.5500002       2.97696115E-05
  -10.5400000       3.91245521E-05
  -10.5299997       4.82414762E-05
  -10.5200005       5.68323048E-05
  -10.5100002       6.45578257E-05
  -10.5000000       7.10553722E-05
  -10.4899998       7.59829345E-05
  -10.4799995       7.90699050E-05
  -10.4700003       8.01623901E-05
  -10.4600000       7.92521387E-05
  -10.4499998       7.64820070E-05
  -10.4399996       7.21251490E-05
  -10.4300003       6.65414846E-05
  -10.4200001       6.01195898E-05
  -10.4099998       5.32146405E-05
  -10.3999996       4.60949159E-05
  -10.3900003       3.89062261E-05
  -10.3800001       3.16614532E-05
  -10.3699999       2.42568676E-05
  -10.3599997       1.65121492E-05
  -10.3500004       8.22665970E-06
  -10.3400002      -7.58503177E-07
  -10.3299999      -1.05044528E-05
  -10.3199997      -2.09353057E-05
  -10.3100004      -3.18238635E-05
  -10.3000002      -4.28058338E-05
  -10.2900000      -5.34207393E-05
  -10.2799997      -6.31726507E-05
  -10.2700005      -7.15993519E-05
  -10.2600002      -7.83362848E-05
  -10.2500000      -8.31623329E-05
  -10.2399998      -8.60175787E-05
  -10.2299995      -8.69889845E-05
  -10.2200003      -8.62665838E-05
  -10.2100000      -8.40806169E-05
  -10.1999998      -8.06334210E-05
  -10.1899996      -7.60431358E-05
  -10.1800003      -7.03130936E-05
  -10.1700001      -6.33359014E-05
  -10.1599998      -5.49325850E-05
  -10.1499996      -4.49188083E-05
  -10.1400003      -3.31835618E-05
  -10.1300001      -1.97615864E-05
  -10.1199999      -4.88219030E-06
  -10.1099997       1.10183400E-05
  -10.1000004       2.73249352E-05
  -10.0900002       4.33077694E-05
  -10.0799999       5.82093817E-05
  -10.0699997       7.13367990E-05
  -10.0600004       8.21400972E-05
  -10.0500002       9.02626271E-05
  -10.0400000       9.55542637E-05
  -10.0299997       9.80485420E-05
  -10.0200005       9.79117758E-05
  -10.0100002       9.53779090E-05
  -10.0000000       9.06856221E-05
  -9.98999977       8.40316061E-05
  -9.97999954       7.55497531E-05
  -9.97000027       6.53188690E-05
  -9.96000004       5.33948478E-05
  -9.94999981       3.98577176E-05
  -9.93999958       2.48608103E-05
  -9.93000031       8.67007930E-06
  -9.92000008      -8.31611396E-06
  -9.90999985      -2.55708092E-05
  -9.89999962      -4.24648752E-05
  -9.89000034      -5.83097972E-05
  -9.88000011      -7.24079000E-05
  -9.86999989      -8.41000583E-05
  -9.85999966      -9.28033623E-05
  -9.85000038      -9.80344994E-05
  -9.84000015      -9.94190850E-05
  -9.82999992      -9.66909283E-05
  -9.81999969      -8.96871352E-05
  -9.81000042      -7.83455398E-05
  -9.80000019      -6.27080153E-05
  -9.78999996      -4.29306674E-05
  -9.77999973      -1.92975094E-05
  -9.77000046       7.76782963E-06
  -9.76000023       3.76987518E-05
  -9.75000000       6.97958385E-05
  -9.73999977       1.03252307E-04
  -9.72999954       1.37192939E-04
  -9.72000027       1.70721876E-04
  -9.71000004       2.02971656E-04
  -9.69999981       2.33147308E-04
  -9.68999958       2.60560279E-04
  -9.68000031       2.84650101E-04
  -9.67000008       3.04994348E-04
  -9.65999985       3.21308995E-04
  -9.64999962       3.33441014E-04
  -9.64000034       3.41355742E-04
  -9.63000011       3.45117907E-04
  -9.61999989       3.44866450E-04
  -9.60999966       3.40783357E-04
  -9.60000038       3.33058037E-04
  -9.59000015       3.21852945E-04
  -9.57999992       3.07277194E-04
  -9.56999969       2.89376447E-04
  -9.56000042       2.68144446E-04
  -9.55000019       2.43557151E-04
  -9.53999996       2.15625434E-04
  -9.52999973       1.84454257E-04
  -9.52000046       1.50294538E-04
  -9.51000023       1.13573653E-04
  -9.50000000       7.48944221E-05
  -9.48999977       3.50002229E-05
  -9.47999954      -5.28753662E-06
  -9.47000027      -4.51471496E-05
  -9.46000004      -8.38316701E-05
  -9.44999981      -1.20727047E-04
  -9.43999958      -1.55381495E-04
  -9.43000031      -1.87503625E-04
  -9.42000008      -2.16933564E-04
  -9.40999985      -2.43597009E-04
  -9.39999962      -2.67454539E-04
  -9.39000034      -2.88456125E-04
  -9.38000011      -3.06508504E-04
  -9.36999989      -3.21456610E-04
  -9.35999966      -3.33078380E-04
  -9.35000038      -3.41089937E-04
  -9.34000015      -3.45157838E-04
  -9.32999992      -3.44919215E-04
  -9.31999969      -3.40007507E-04
  -9.31000042      -3.30086012E-04
  -9.30000019      -3.14886420E-04
  -9.28999996      -2.94248923E-04
  -9.27999973      -2.68156786E-04
  -9.27000046      -2.36759864E-04
  -9.26000023      -2.00380571E-04
  -9.25000000      -1.59502946E-04
  -9.23999977      -1.14746384E-04
  -9.22999954      -6.68328867E-05
  -9.22000027      -1.65544079E-05
  -9.21000004       3.52537390E-05
  -9.19999981       8.77317652E-05
  -9.18999958       1.40010729E-04
  -9.18000031       1.91230938E-04
  -9.17000008       2.40569760E-04
  -9.15999985       2.87281524E-04
  -9.14999962       3.30745359E-04
  -9.14000034       3.70511145E-04
  -9.13000011       4.06328851E-04
  -9.11999989       4.38150018E-04
  -9.10999966       4.66095516E-04
  -9.10000038       4.90393431E-04
  -9.09000015       5.11300517E-04
  -9.07999992       5.29027078E-04
  -9.06999969       5.43683709E-04
  -9.06000042       5.55263541E-04
  -9.05000019       5.63659763E-04
  -9.03999996       5.68710733E-04
  -9.02999973       5.70253993E-04
  -9.02000046       5.68171265E-04
  -9.01000023       5.62412897E-04
  -9.00000000       5.52996411E-04
  -8.98999977       5.39989618E-04
  -8.97999954       5.23490016E-04
  -8.97000027       5.03615360E-04
  -8.96000004       4.80510440E-04
  -8.94999981       4.54367953E-04
  -8.93999958       4.25449427E-04
  -8.93000031       3.94089642E-04
  -8.92000008       3.60673759E-04
  -8.90999985       3.25585454E-04
  -8.89999962       2.89141375E-04
  -8.89000034       2.51535355E-04
  -8.88000011       2.12818195E-04
  -8.86999989       1.72931279E-04
  -8.85999966       1.31791938E-04
  -8.85000038       8.94087498E-05
  -8.84000015       4.59893454E-05
  -8.82999992       2.00007162E-06
  -8.81999969      -4.18509626E-05
  -8.81000042      -8.47123883E-05
  -8.80000019      -1.25743565E-04
  -8.78999996      -1.64276600E-04
  -8.77999973      -1.99929724E-04
  -8.77000046      -2.32628168E-04
  -8.76000023      -2.62517016E-04
  -8.75000000      -2.89789925E-04
  -8.73999977      -3.14488250E-04
  -8.72999954      -3.36342520E-04
  -8.72000027      -3.54717806E-04
  -8.71000004      -3.68694193E-04
  -8.69999981      -3.77268268E-04
  -8.68999958      -3.79617850E-04
  -8.68000031      -3.75347037E-04
  -8.67000008      -3.64628388E-04
  -8.65999985      -3.48192261E-04
  -8.64999962      -3.27157322E-04
  -8.64000034      -3.02753906E-04
  -8.63000011      -2.76024890E-04
  -8.61999989      -2.47600459E-04
  -8.60999966      -2.17620283E-04
  -8.60000038      -1.85825411E-04
  -8.59000015      -1.51789267E-04
  -8.57999992      -1.15206894E-04
  -8.56999969      -7.61443225E-05
  -8.56000042      -3.51618255E-05
  -8.55000019       6.72930082E-06
  -8.53999996       4.82616779E-05
  -8.52999973       8.81903179E-05
  -8.52000046       1.25558261E-04
  -8.51000023       1.59860472E-04
  -8.50000000       1.91050742E-04
  -8.48999977       2.19395675E-04
  -8.47999954       2.45231087E-04
  -8.47000027       2.68711330E-04
  -8.46000004       2.89644231E-04
  -8.44999981       3.07469396E-04
  -8.43999958       3.21391213E-04
  -8.43000031       3.30616895E-04
  -8.42000008       3.34614713E-04
  -8.40999985       3.33300588E-04
  -8.39999962       3.27084272E-04
  -8.39000034       3.16760590E-04
  -8.38000011       3.03279579E-04
  -8.36999989       2.87481962E-04
  -8.35999966       2.69888813E-04
  -8.35000038       2.50621990E-04
  -8.34000015       2.29483456E-04
  -8.32999992       2.06164172E-04
  -8.31999969       1.80509000E-04
  -8.31000042       1.52742185E-04
  -8.30000019       1.23571954E-04
  -8.28999996       9.41330363E-05
  -8.27999973       6.57807032E-05
  -8.27000046       3.98025950E-05
  -8.26000023       1.71395968E-05
  -8.25000000      -1.79331585E-06
  -8.23999977      -1.71305383E-05
  -8.22999954      -2.94179099E-05
  -8.22000027      -3.93614646E-05
  -8.21000004      -4.75453016E-05
  -8.19999981      -5.42091475E-05
  -8.18999958      -5.91545613E-05
  -8.18000031      -6.18032500E-05
  -8.17000008      -6.13822776E-05
  -8.15999985      -5.71710952E-05
  -8.14999962      -4.87268589E-05
  -8.14000034      -3.60170270E-05
  -8.13000011      -1.94220229E-05
  -8.11999989       3.86814776E-07
  -8.10999966       2.26443135E-05
  -8.10000038       4.66956189E-05
  -8.09000015       7.21360848E-05
  -8.07999992       9.88444954E-05
  -8.06999969       1.26901854E-04
  -8.06000042       1.56430979E-04
  -8.05000019       1.87417303E-04
  -8.03999996       2.19577851E-04
  -8.02999973       2.52329424E-04
  -8.02000046       2.84873560E-04
  -8.01000023       3.16372869E-04
  -8.00000000       3.46165034E-04
  -7.98999977       3.73943418E-04
  -7.98000002       3.99838435E-04
  -7.96999979       4.24369675E-04
  -7.96000004       4.48271370E-04
  -7.94999981       4.72240878E-04
  -7.94000006       4.96682187E-04
  -7.92999983       5.21524518E-04
  -7.92000008       5.46171679E-04
  -7.90999985       5.69605036E-04
  -7.90000010       5.90612064E-04
  -7.88999987       6.08073431E-04
  -7.88000011       6.21224870E-04
  -7.86999989       6.29811024E-04
  -7.86000013       6.34087308E-04
  -7.84999990       6.34666299E-04
  -7.84000015       6.32261625E-04
  -7.82999992       6.27412111E-04
  -7.82000017       6.20279810E-04
  -7.80999994       6.10593415E-04
  -7.80000019       5.97761711E-04
  -7.78999996       5.81124856E-04
  -7.78000021       5.60262182E-04
  -7.76999998       5.35253785E-04
  -7.76000023       5.06799086E-04
  -7.75000000       4.76145797E-04
  -7.73999977       4.44834994E-04
  -7.73000002       4.14337934E-04
  -7.71999979       3.85696680E-04
  -7.71000004       3.59285361E-04
  -7.69999981       3.34775075E-04
  -7.69000006       3.11318057E-04
  -7.67999983       2.87899806E-04
  -7.67000008       2.63745489E-04
  -7.65999985       2.38647059E-04
  -7.65000010       2.13101695E-04
  -7.63999987       1.88210717E-04
  -7.63000011       1.65368692E-04
  -7.61999989       1.45842059E-04
  -7.61000013       1.30378728E-04
  -7.59999990       1.18979944E-04
  -7.59000015       1.10913250E-04
  -7.57999992       1.04969775E-04
  -7.57000017       9.98782416E-05
  -7.55999994       9.47428707E-05
  -7.55000019       8.93580436E-05
  -7.53999996       8.42934314E-05
  -7.53000021       8.07226825E-05
  -7.51999998       8.00512789E-05
  -7.51000023       8.34717575E-05
  -7.50000000       9.15923520E-05
  -7.48999977       1.04264836E-04
  -7.48000002       1.20662509E-04
  -7.46999979       1.39578158E-04
  -7.46000004       1.59832111E-04
  -7.44999981       1.80649251E-04
  -7.44000006       2.01872259E-04