  -16.0000000       0.00000000    
  -15.9899998       0.00000000    
  -15.9799995       0.00000000    
  -15.9700003       0.00000000    
  -15.9600000       0.00000000    
  -15.9499998       0.00000000    
  -15.9399996       0.00000000    
  -15.9300003       0.00000000    
  -15.9200001       0.00000000    
  -15.9099998       0.00000000    
  -15.8999996       0.00000000    
  -15.8900003      -3.96287206E-42
  -15.8800001      -1.23167129E-40
  -15.8699999      -1.51679769E-39
  -15.8599997      -9.03960543E-39
  -15.8500004      -2.58002589E-39
  -15.8400002       5.04250459E-37
  -15.8299999       5.91097521E-36
  -15.8199997       4.41740072E-35
  -15.8100004       2.56880184E-34
  -15.8000002       1.24637069E-33
  -15.7900000       5.22669898E-33
  -15.7799997       1.93499830E-32
  -15.7700005       6.41351657E-32
  -15.7600002       1.92177575E-31
  -15.7500000       5.24159138E-31
  -15.7399998       1.30726830E-30
  -15.7299995       2.98901149E-30
  -15.7200003       6.26853371E-30
  -15.7100000       1.20328913E-29
  -15.6999998       2.10170385E-29
  -15.6899996       3.29836267E-29
  -15.6800003       4.52818871E-29
  -15.6700001       5.09216238E-29
  -15.6599998       3.68722989E-29
  -15.6499996      -1.58686230E-29
  -15.6400003      -1.28077290E-28
  -15.6300001      -3.11418033E-28
  -15.6199999      -5.49630554E-28
  -15.6099997      -7.74311516E-28
  -15.6000004      -8.44435829E-28
  -15.5900002      -5.47328923E-28
  -15.5799999       3.54053283E-28
  -15.5699997       2.00355051E-27
  -15.5600004       4.25837363E-27
  -15.5500002       6.45955363E-27
  -15.5400000       7.27935575E-27
  -15.5299997       4.84075134E-27
  -15.5200005      -2.65814405E-27
  -15.5100002      -1.56752270E-26
  -15.5000000      -3.15878827E-26
  -15.4899998      -4.32260924E-26
  -15.4799995      -3.90595109E-26
  -15.4700003      -6.73109511E-27
  -15.4600000       5.90525743E-26
  -15.4499998       1.45522441E-25
  -15.4399996       2.12764833E-25
  -15.4300003       1.95490850E-25
  -15.4200001       2.56168389E-26
  -15.4099998      -3.20153331E-25
  -15.3999996      -7.58625099E-25
  -15.3900003      -1.05713988E-24
  -15.3800001      -8.60664997E-25
  -15.3699999       1.62711424E-25
  -15.3599997       2.05274920E-24
  -15.3500004       4.24813904E-24
  -15.3400002       5.43077840E-24
  -15.3299999       3.78227092E-24
  -15.3199997      -2.15589375E-24
  -15.3100004      -1.20985743E-23
  -15.3000002      -2.26455728E-23
  -15.2900000      -2.69240941E-23
  -15.2799997      -1.63887999E-23
  -15.2700005       1.46389723E-23
  -15.2600002       6.25672342E-23
  -15.2500000       1.09190807E-22
  -15.2399998       1.22012611E-22
  -15.2299995       6.46420457E-23
  -15.2200003      -8.17380688E-23
  -15.2100000      -2.91671689E-22
  -15.1999998      -4.77504902E-22
  -15.1899996      -4.99168916E-22
  -15.1800003      -2.16419887E-22
  -15.1700001       4.19056570E-22
  -15.1599998       1.26288932E-21
  -15.1499996       1.92881353E-21
  -15.1400003       1.86139448E-21
  -15.1300001       5.71955559E-22
  -15.1199999      -1.99846594E-21
  -15.1099997      -5.13448091E-21
  -15.1000004      -7.25690479E-21
  -15.0900002      -6.32666668E-21
  -15.0799999      -8.27124774E-22
  -15.0699997       8.90564781E-21
  -15.0600004       1.96205900E-20
  -15.0500002       2.52276791E-20
  -15.0400000       1.87507062E-20
  -15.0299997      -3.80320440E-21
  -15.0200005      -3.88225750E-20
  -15.0100002      -7.21719737E-20
  -15.0000000      -8.10325450E-20
  -14.9899998      -4.26347370E-20
  -14.9799995       5.09010275E-20
  -14.9700003       1.76828067E-19
  -14.9600000       2.74546002E-19
  -14.9499998       2.57480025E-19
  -14.9399996       5.00875051E-20
  -14.9300003      -3.55419166E-19
  -14.9200001      -8.43982719E-19
  -14.9099998      -1.15943094E-18
  -14.8999996      -9.60255051E-19
  -14.8900003       3.21231455E-20
  -14.8800001       1.81648697E-18
  -14.8699999       3.90690845E-18
  -14.8599997       5.26799238E-18
  -14.8500004       4.52412953E-18
  -14.8400002       5.10193370E-19
  -14.8299999      -6.91604718E-18
  -14.8199997      -1.60768673E-17
  -14.8100004      -2.31407945E-17
  -14.8000002      -2.27358135E-17
  -14.7900000      -9.79246105E-18
  -14.7799997       1.75734984E-17
  -14.7700005       5.49899315E-17
  -14.7600002       9.00355987E-17
  -14.7500000       1.03422213E-16
  -14.7399998       7.43539418E-17
  -14.7299995      -1.01138174E-17
  -14.7200003      -1.43970508E-16
  -14.7100000      -2.93791445E-16
  -14.6999998      -3.98504094E-16
  -14.6899996      -3.82120968E-16
  -14.6800003      -1.80638551E-16
  -14.6700001       2.21681572E-16
  -14.6599998       7.58322022E-16
  -14.6499996       1.26554282E-15
  -14.6400003       1.50316193E-15
  -14.6300001       1.22022476E-15
  -14.6199999       2.59283932E-16
  -14.6099997      -1.32715113E-15
  -14.6000004      -3.19262875E-15
  -14.5900002      -4.69722248E-15
  -14.5799999      -5.03275002E-15
  -14.5699997      -3.47869888E-15
  -14.5600004       2.57623139E-16
  -14.5500002       5.71946250E-15
  -14.5400000       1.15384149E-14
  -14.5299997       1.55689331E-14
  -14.5200005       1.53952524E-14
  -14.5100002       9.16827700E-15
  -14.5000000      -3.42018457E-15
  -14.4899998      -2.03527397E-14
  -14.4799995      -3.70767022E-14
  -14.4700003      -4.71849766E-14
  -14.4600000      -4.40828099E-14
  -14.4499998      -2.33940336E-14
  -14.4399996       1.45158069E-14
  -14.4300003       6.28010895E-14
  -14.4200001       1.08125558E-13
  -14.4099998       1.33025725E-13
  -14.3999996       1.20653148E-13
  -14.3900003       6.10335621E-14
  -14.3800001      -4.28681985E-14
  -14.3699999      -1.71506676E-13
  -14.3599997      -2.89657783E-13
  -14.3500004      -3.53086890E-13
  -14.3400002      -3.20593134E-13
  -14.3299999      -1.69051310E-13
  -14.3199997       9.27054589E-14
  -14.3100004       4.16219630E-13
  -14.3000002       7.16473267E-13
  -14.2900000       8.87978005E-13
  -14.2799997       8.32563836E-13
  -14.2700005       4.93328306E-13
  -14.2600002      -1.14376336E-13
  -14.2500000      -8.85675376E-13
  -14.2399998      -1.63201147E-12
  -14.2299995      -2.11480139E-12
  -14.2200003      -2.10423064E-12
  -14.2100000      -1.45205397E-12
  -14.1999998      -1.60059506E-13
  -14.1899996       1.57760827E-12
  -14.1800003       3.37787112E-12
  -14.1700001       4.72894900E-12
  -14.1599998       5.10458516E-12
  -14.1499996       4.11307273E-12
  -14.1400003       1.64706248E-12
  -14.1300001      -2.00851965E-12
  -14.1199999      -6.15179088E-12
  -14.1099997      -9.75057621E-12
  -14.1000004      -1.16443348E-11
  -14.0900002      -1.08341600E-11
  -14.0799999      -6.80271421E-12
  -14.0699997       2.16767793E-13
  -14.0600004       9.10907634E-12
  -14.0500002       1.79538138E-11
  -14.0400000       2.43414802E-11
  -14.0299997       2.59025353E-11
  -14.0200005       2.09584676E-11
  -14.0100002       9.14839558E-12
  -14.0000000      -8.14489275E-12
  -13.9899998      -2.77339592E-11
  -13.9799995      -4.50360929E-11
  -13.9700003      -5.49555679E-11
  -13.9600000      -5.31128821E-11
  -13.9499998      -3.71709261E-11
  -13.9399996      -7.92286722E-12
  -13.9300003       3.02051509E-11
  -13.9200001       6.95022095E-11
  -13.9099998       1.00264359E-10
  -13.8999996       1.12885298E-10
  -13.8900003       1.00354336E-10
  -13.8800001       6.05787503E-11
  -13.8699999      -2.11967466E-12
  -13.8599997      -7.68860878E-11
  -13.8500004      -1.47874241E-10
  -13.8400002      -1.97334343E-10
  -13.8299999      -2.09699716E-10
  -13.8199997      -1.75769579E-10
  -13.8100004      -9.59211599E-11
  -13.8000002       1.86099469E-11
  -13.7900000       1.46963122E-10
  -13.7799997       2.62390498E-10
  -13.7700005       3.37833622E-10
  -13.7600002       3.52122526E-10
  -13.7500000       2.95309832E-10
  -13.7399998       1.71758649E-10
  -13.7299995       9.84012541E-14
  -13.7200003      -1.90069543E-10
  -13.7100000      -3.63993752E-10
  -13.6999998      -4.88726781E-10
  -13.6899996      -5.39521205E-10
  -13.6800003      -5.04162712E-10
  -13.6700001      -3.84369397E-10
  -13.6599998      -1.94272196E-10
  -13.6499996       4.31435512E-11
  -13.6400003       3.00210218E-10
  -13.6300001       5.47922763E-10
  -13.6199999       7.57566454E-10
  -13.6099997       9.00689467E-10
  -13.6000004       9.48508050E-10
  -13.5900002       8.72513062E-10
  -13.5799999       6.48037013E-10
  -13.5699997       2.61681898E-10
  -13.5600004      -2.78077894E-10
  -13.5500002      -9.29686994E-10
  -13.5400000      -1.61083269E-09
  -13.5299997      -2.19901031E-09
  -13.5200005      -2.54413624E-09
  -13.5100002      -2.49450904E-09
  -13.5000000      -1.93367744E-09
  -13.4899998      -8.21620827E-10
  -13.4799995       7.69748376E-10
  -13.4700003       2.63821720E-09
  -13.4600000       4.46008830E-09
  -13.4499998       5.83171733E-09
  -13.4399996       6.34210950E-09
  -13.4300003       5.66646596E-09
  -13.4200001       3.66270481E-09
  -13.4099998       4.48045573E-10
  -13.3999996      -3.56754026E-09
  -13.3900003      -7.70866126E-09
  -13.3800001      -1.11291820E-08
  -13.3699999      -1.29658790E-08
  -13.3599997      -1.25267769E-08
  -13.3500004      -9.47690193E-09
  -13.3400002      -3.97777900E-09
  -13.3299999       3.26003580E-09
  -13.3199997       1.10386900E-08
  -13.3100004       1.78540702E-08
  -13.3000002       2.21739658E-08
  -13.2900000       2.27647394E-08
  -13.2799997       1.89990779E-08
  -13.2700005       1.10718528E-08
  -13.2600002       6.22902840E-11
  -13.2500000      -1.21915802E-08
  -13.2399998      -2.34005846E-08
  -13.2299995      -3.12649533E-08
  -13.2200003      -3.39615767E-08
  -13.2100000      -3.05711545E-08
  -13.1999998      -2.13417231E-08
  -13.1899996      -7.71382513E-09
  -13.1800003       7.91710431E-09
  -13.1700001       2.26647199E-08
  -13.1599998       3.37480195E-08
  -13.1499996       3.90871513E-08
  -13.1400003       3.77573528E-08
  -13.1300001       3.01866123E-08
  -13.1199999       1.80404687E-08
  -13.1099997       3.81427867E-09
  -13.1000004      -9.77071490E-09
  -13.0900002      -2.04152926E-08
  -13.0799999      -2.67640292E-08
  -13.0699997      -2.86579560E-08
  -13.0600004      -2.70435816E-08
  -13.0500002      -2.35580213E-08
  -13.0400000      -1.99051957E-08
  -13.0299997      -1.72077357E-08
  -13.0200005      -1.55407385E-08
  -13.0100002      -1.38162530E-08
  -13.0000000      -1.00958593E-08
  -12.9899998      -2.28398189E-09
  -12.9799995       1.09711582E-08
  -12.9700003       2.94320284E-08
  -12.9600000       5.07684454E-08
  -12.9499998       7.06250560E-08
  -12.9399996       8.33543297E-08
  -12.9300003       8.33274640E-08
  -12.9200001       6.65514648E-08
  -12.9099998       3.21849356E-08
  -12.8999996      -1.64951377E-08
  -12.8900003      -7.20446707E-08
  -12.8800001      -1.23897053E-07
  -12.8699999      -1.60405605E-07
  -12.8599997      -1.71502791E-07
  -12.8500004      -1.51372774E-07
  -12.8400002      -1.00442705E-07
  -12.8299999      -2.60810147E-08
  -12.8199997       5.83493609E-08
  -12.8100004       1.36048541E-07
  -12.8000002       1.90484101E-07
  -12.7900000       2.09420477E-07
  -12.7799997       1.88265872E-07
  -12.7700005       1.31793385E-07
  -12.7600002       5.36119131E-08
  -12.7500000      -2.67094453E-08
  -12.7399998      -8.83504754E-08
  -12.7299995      -1.14725033E-07
  -12.7200003      -9.83656037E-08
  -12.7100000      -4.38432011E-08
  -12.6999998       3.22617346E-08
  -12.6899996       1.04640371E-07
  -12.6800003       1.45259690E-07
  -12.6700001       1.30787328E-07
  -12.6599998       4.96317298E-08
  -12.6499996      -9.32789632E-08
  -12.6400003      -2.75439390E-07
  -12.6300001      -4.60053343E-07
  -12.6199999      -6.03217927E-07
  -12.6099997      -6.63523281E-07
  -12.6000004      -6.11860742E-07
  -12.5900002      -4.39026508E-07
  -12.5799999      -1.59121200E-07
  -12.5699997       1.92310068E-07
  -12.5600004       5.65174616E-07
  -12.5500002       9.05265892E-07
  -12.5400000       1.16577655E-06
  -12.5299997       1.31706895E-06
  -12.5200005       1.35222001E-06
  -12.5100002       1.28684326E-06
  -12.5000000       1.15307409E-06
  -12.4899998       9.89064574E-07
  -12.4799995       8.26466362E-07
  -12.4700003       6.78925744E-07
  -12.4600000       5.34401465E-07
  -12.4499998       3.53230575E-07
  -12.4399996       7.25055358E-08
  -12.4300003      -3.84129294E-07
  -12.4200001      -1.09336088E-06
  -12.4099998      -2.11852307E-06
  -12.3999996      -3.49805214E-06
  -12.3900003      -5.23812423E-06
  -12.3800001      -7.31040427E-06
  -12.3699999      -9.65459731E-06
  -12.3599997      -1.21845524E-05
  -12.3500004      -1.47960300E-05
  -12.3400002      -1.73743883E-05
  -12.3299999      -1.98008274E-05
  -12.3199997      -2.19567846E-05
  -12.3100004      -2.37267541E-05
  -12.3000002      -2.50005542E-05
  -12.2900000      -2.56760886E-05
  -12.2799997      -2.56634939E-05
  -12.2700005      -2.48909128E-05
  -12.2600002      -2.33113497E-05
  -12.2500000      -2.09094742E-05
  -12.2399998      -1.77069542E-05
  -12.2299995      -1.37649040E-05
  -12.2200003      -9.18264141E-06
  -12.2100000      -4.09261474E-06
  -12.1999998       1.34789582E-06
  -12.1899996       6.96700499E-06
  -12.1800003       1.25889628E-05
  -12.1700001       1.80440602E-05
  -12.1599998       2.31767899E-05
  -12.1499996       2.78519801E-05
  -12.1400003       3.19590836E-05
  -12.1300001       3.54151161E-05
  -12.1199999       3.81668506E-05
  -12.1099997       4.01922771E-05
  -12.1000004       4.15014802E-05
  -12.0900002       4.21360201E-05
  -12.0799999       4.21664590E-05
  -12.0699997       4.16872535E-05
  -12.0600004       4.08090746E-05
  -12.0500002       3.96490905E-05
  -12.0400000       3.83202932E-05
  -12.0299997       3.69214831E-05
  -12.0200005       3.55293450E-05
  -12.0100002       3.41937121E-05
  -12.0000000       3.29362811E-05
  -11.9899998       3.17524427E-05
  -11.9799995       3.06148831E-05
  -11.9700003       2.94778019E-05
  -11.9600000       2.82805322E-05
  -11.9499998       2.69499888E-05
  -11.9399996       2.54024744E-05
  -11.9300003       2.35457792E-05
  -11.9200001       2.12829927E-05
  -11.9099998       1.85191966E-05
  -11.8999996       1.51711738E-05
  -11.8900003       1.11793470E-05
  -11.8800001       6.51976779E-06
  -11.8699999       1.21343373E-06
  -11.8599997      -4.66974370E-06
  -11.8500004      -1.10140954E-05
  -11.8400002      -1.76685753E-05
  -11.8299999      -2.44625699E-05
  -11.8199997      -3.12238626E-05
  -11.8100004      -3.77944452E-05
  -11.8000002      -4.40407057E-05
  -11.7900000      -4.98555528E-05
  -11.7799997      -5.51528537E-05
  -11.7700005      -5.98564948E-05
  -11.7600002      -6.38886413E-05
  -11.7500000      -6.71619273E-05
  -11.7399998      -6.95796261E-05
  -11.7299995      -7.10454988E-05
  -11.7200003      -7.14817288E-05
  -11.7100000      -7.08508596E-05
  -11.6999998      -6.91754831E-05
  -11.6899996      -6.65493862E-05
  -11.6800003      -6.31352450E-05
  -11.6700001      -5.91479584E-05
  -11.6599998      -5.48255266E-05
  -11.6499996      -5.03937044E-05
  -11.6400003      -4.60322299E-05
  -11.6300001      -4.18506570E-05
  -11.6199999      -3.78791847E-05
  -11.6099997      -3.40766419E-05
  -11.6000004      -3.03529232E-05
  -11.5900002      -2.65997969E-05
  -11.5799999      -2.27217479E-05
  -11.5699997      -1.86589568E-05
  -11.5600004      -1.43969582E-05
  -11.5500002      -9.96129529E-06
  -11.5400000      -5.39996608E-06
  -11.5299997      -7.59647037E-07
  -11.5200005       3.93663640E-06
  -11.5100002       8.70349231E-06
  -11.5000000       1.35944711E-05
  -11.4899998       1.86902234E-05
  -11.4799995       2.40768095E-05
  -11.4700003       2.98199429E-05
  -11.4600000       3.59420665E-05
  -11.4499998       4.24078426E-05
  -11.4399996       4.91211249E-05
  -11.4300003       5.59331820E-05
  -11.4200001       6.26594556E-05
  -11.4099998       6.91000314E-05
  -11.3999996       7.50595573E-05
  -11.3900003       8.03634393E-05
  -11.3800001       8.48689888E-05
  -11.3699999       8.84727415E-05
  -11.3599997       9.11153766E-05
  -11.3500004       9.27861329E-05
  -11.3400002       9.35270145E-05
  -11.3299999       9.34353302E-05
  -11.3199997       9.26621069E-05
  -11.3100004       9.14030752E-05
  -11.3000002       8.98807848E-05
  -11.2900000       8.83182220E-05
  -11.2799997       8.69076976E-05
  -11.2700005       8.57807390E-05
  -11.2600002       8.49855933E-05
  -11.2500000       8.44785027E-05
  -11.2399998       8.41310975E-05
  -11.2299995       8.37529005E-05
  -11.2200003       8.31240468E-05
  -11.2100000       8.20305868E-05
  -11.1999998       8.02945360E-05
  -11.1899996       7.77931127E-05
  -11.1800003       7.44644858E-05
  -11.1700001       7.03023834E-05
  -11.1599998       6.53440875E-05
  -11.1499996       5.96583923E-05
  -11.1400003       5.33381281E-05
  -11.1300001       4.64996483E-05
  -11.1199999       3.92876027E-05
  -11.1099997       3.18803395E-05
  -11.1000004       2.44909261E-05
  -11.0900002       1.73594508E-05
  -11.0799999       1.07361238E-05
  -11.0699997       4.85792225E-06
  -11.0600004      -7.46484972E-08
  -11.0500002      -3.91434560E-06
  -11.0400000      -6.57255805E-06
  -11.0299997      -8.01249462E-06
  -11.0200005      -8.23436221E-06
  -11.0100002      -7.25994187E-06
  -11.0000000      -5.12444194E-06
  -10.9899998      -1.88117497E-06
  -10.9799995       2.38144230E-06
  -10.9700003       7.51716289E-06
  -10.9600000       1.33041731E-05
  -10.9499998       1.94445201E-05
  -10.9399996       2.55881150E-05
  -10.9300003       3.13813725E-05
  -10.9200001       3.65304950E-05
  -10.9099998       4.08624728E-05
  -10.8999996       4.43635072E-05
  -10.8900003       4.71791500E-05
  -10.8800001       4.95704880E-05
  -10.8699999       5.18343913E-05
  -10.8599997       5.42083653E-05
  -10.8500004       5.67883690E-05
  -10.8400002       5.94864832E-05
  -10.8299999       6.20453065E-05
  -10.8199997       6.41090883E-05
  -10.8100004       6.53336901E-05
  -10.8000002       6.55033800E-05
  -10.7900000       6.46177505E-05
  -10.7799997       6.29190181E-05
  -10.7700005       6.08464761E-05
  -10.7600002       5.89272422E-05
  -10.7500000       5.76323328E-05
  -10.7399998       5.72397112E-05
  -10.7299995       5.77453648E-05
  -10.7200003       5.88502153E-05
  -10.7100000       6.00285639E-05
  -10.6999998       6.06594222E-05
  -10.6899996       6.01829561E-05
  -10.6800003       5.82373177E-05
  -10.6700001       5.47374912E-05
  -10.6599998       4.98769405E-05
  -10.6499996       4.40565491E-05
  -10.6400003       3.77681899E-05
  -10.6300001       3.14727440E-05
  -10.6199999       2.55115356E-05
  -10.6099997       2.00769118E-05
  -10.6000004       1.52452076E-05
  -10.5900002       1.10530609E-05
  -10.5799999       7.58317310E-06
  -10.5699997       5.02159446E-06
  -10.5600004       3.66029758E-06
  -10.5500002       3.83839597E-06
  -10.5400000       5.83808833E-06
  -10.5299997       9.76944830E-06
  -10.5200005       1.54840363E-05
  -10.5100002       2.25495151E-05
  -10.5000000       3.02994486E-05
  -10.4899998       3.79480116E-05
  -10.4799995       4.47396815E-05
  -10.4700003       5.00924834E-05
  -10.4600000       5.36960215E-05
  -10.4499998       5.55406623E-05
  -10.4399996       5.58750326E-05
  -10.4300003       5.51106532E-05
  -10.4200001       5.37068227E-05
  -10.4099998       5.20705871E-05
  -10.3999996       5.04985073E-05
  -10.3900003       4.91691098E-05
  -10.3800001       4.81775351E-05
  -10.3699999       4.75900597E-05
  -10.3599997       4.74919943E-05
  -10.3500004       4.80080707E-05
  -10.3400002       4.92874642E-05
  -10.3299999       5.14596686E-05
  -10.3199997       5.45786024E-05
  -10.3100004       5.85761409E-05
  -10.3000002       6.32420633E-05
  -10.2900000       6.82367900E-05
  -10.2799997       7.31333130E-05
  -10.2700005       7.74750952E-05
  -10.2600002       8.08362165E-05
  -10.2500000       8.28724878E-05
  -10.2399998       8.33594459E-05
  -10.2299995       8.22201400E-05
  -10.2200003       7.95468804E-05
  -10.2100000       7.56194349E-05
  -10.1999998       7.09136730E-05
  -10.1899996       6.60888472E-05
  -10.1800003       6.19385537E-05
  -10.1700001       5.92960714E-05
  -10.1599998       5.88974799E-05
  -10.1499996       6.12239746E-05
  -10.1400003       6.63594474E-05
  -10.1300001       7.39078241E-05
  -10.1199999       8.30060017E-05
  -10.1099997       9.24481355E-05
  -10.1000004       1.00907942E-04
  -10.0900002       1.07212370E-04
  -10.0799999       1.10601031E-04
  -10.0699997       1.10901477E-04
  -10.0600004       1.08567801E-04
  -10.0500002       1.04565901E-04
  -10.0400000       1.00130041E-04
  -10.0299997       9.64552237E-05
  -10.0200005       9.44076237E-05
  -10.0100002       9.43337145E-05
  -10.0000000       9.60199031E-05
  -9.98999977       9.88113679E-05
  -9.97999954       1.01850506E-04
  -9.97000027       1.04362676E-04
  -9.96000004       1.05902109E-04
  -9.94999981       1.06485968E-04
  -9.93999958       1.06579871E-04
  -9.93000031       1.06944150E-04
  -9.92000008       1.08391512E-04
  -9.90999985       1.11532834E-04
  -9.89999962       1.16585878E-04
  -9.89000034       1.23301012E-04
  -9.88000011       1.31018489E-04
  -9.86999989       1.38831194E-04
  -9.85999966       1.45800368E-04
  -9.85000038       1.51159344E-04
  -9.84000015       1.54453563E-04
  -9.82999992       1.55592381E-04
  -9.81999969       1.54819296E-04
  -9.81000042       1.52631445E-04
  -9.80000019       1.49689207E-04
  -9.78999996       1.46747479E-04
  -9.77999973       1.44620266E-04
  -9.77000046       1.44165329E-04
  -9.76000023       1.46261547E-04
  -9.75000000       1.51748813E-04
  -9.73999977       1.61318778E-04
  -9.72999954       1.75368332E-04
  -9.72000027       1.93856205E-04
  -9.71000004       2.16215427E-04
  -9.69999981       2.41369897E-04
  -9.68999958       2.67877913E-04
  -9.68000031       2.94183963E-04
  -9.67000008       3.18921957E-04
  -9.65999985       3.41189036E-04
  -9.64999962       3.60705191E-04
  -9.64000034       3.77805583E-04
  -9.63000011       3.93259194E-04
  -9.61999989       4.07961459E-04
  -9.60999966       4.22591605E-04
  -9.60000038       4.37339535E-04
  -9.59000015       4.51787899E-04
  -9.57999992       4.64985904E-04
  -9.56999969       4.75693785E-04
  -9.56000042       4.82714240E-04
  -9.55000019       4.85202967E-04
  -9.53999996       4.82856238E-04
  -9.52999973       4.75913868E-04
  -9.52000046       4.64981218E-04
  -9.51000023       4.50737716E-04
  -9.50000000       4.33639187E-04
  -9.48999977       4.13727714E-04
  -9.47999954       3.90622416E-04
  -9.47000027       3.63701838E-04
  -9.46000004       3.32418073E-04
  -9.44999981       2.96630169E-04
  -9.43999958       2.56830914E-04
  -9.43000031       2.14177635E-04
  -9.42000008       1.70300409E-04
  -9.40999985       1.26943953E-04
  -9.39999962       8.55617909E-05
  -9.39000034       4.70053856E-05
  -9.38000011       1.14231925E-05
  -9.36999989      -2.15869895E-05
  -9.35999966      -5.26184558E-05
  -9.35000038      -8.20141504E-05
  -9.34000015      -1.09506684E-04
  -9.32999992      -1.34081201E-04
  -9.31999969      -1.54132635E-04
  -9.31000042      -1.67881968E-04
  -9.30000019      -1.73922002E-04
  -9.28999996      -1.71703097E-04
  -9.27999973      -1.61781209E-04
  -9.27000046      -1.45718281E-04
  -9.26000023      -1.25643463E-04
  -9.25000000      -1.03601713E-04
  -9.23999977      -8.08978293E-05
  -9.22999954      -5.76580860E-05
  -9.22000027      -3.27690759E-05
  -9.21000004      -4.23155097E-06
  -9.19999981       3.01722357E-05
  -9.18999958       7.21090983E-05
  -9.18000031       1.22075813E-04
  -9.17000008       1.79138704E-04
  -9.15999985       2.41123635E-04
  -9.14999962       3.05197900E-04
  -9.14000034       3.68650100E-04
  -9.13000011       4.29604843E-04
  -9.11999989       4.87431505E-04
  -9.10999966       5.42708149E-04
  -9.10000038       5.96755708E-04
  -9.09000015       6.50912116E-04
  -9.07999992       7.05799728E-04
  -9.06999969       7.60853232E-04
  -9.06000042       8.14277795E-04
  -9.05000019       8.63459427E-04
  -9.03999996       9.05690016E-04
  -9.02999973       9.38955753E-04
  -9.02000046       9.62516293E-04
  -9.01000023       9.77072632E-04
  -9.00000000       9.84470942E-04
  -8.98999977       9.87046980E-04
  -8.97999954       9.86850238E-04
  -8.97000027       9.85022984E-04
  -8.96000004       9.81542864E-04
  -8.94999981       9.75421164E-04
  -8.93999958       9.65257874E-04
  -8.93000031       9.49941168E-04
  -8.92000008       9.29217378E-04
  -8.90999985       9.03910142E-04
  -8.89999962       8.75700207E-04
  -8.89000034       8.46543175E-04
  -8.88000011       8.17945285E-04
  -8.86999989       7.90377497E-04
  -8.85999966       7.63055985E-04
  -8.85000038       7.34199188E-04
  -8.84000015       7.01678044E-04
  -8.82999992       6.63835963E-04
  -8.81999969       6.20185747E-04
  -8.81000042       5.71715587E-04
  -8.80000019       5.20685920E-04
  -8.78999996       4.69969178E-04
  -8.77999973       4.22162702E-04
  -8.77000046       3.78783530E-04
  -8.76000023       3.39837949E-04
  -8.75000000       3.03922890E-04
  -8.73999977       2.68829201E-04
  -8.72999954       2.32439852E-04
  -8.72000027       1.93602507E-04
  -8.71000004       1.52666951E-04
  -8.69999981       1.11497975E-04
  -8.68999958       7.29570311E-05
  -8.68000031       4.00391000E-05
  -8.67000008       1.49706921E-05
  -8.65999985      -1.40924806E-06
  -8.64999962      -9.77756190E-06
  -8.64000034      -1.19227698E-05
  -8.63000011      -9.97258576E-06
  -8.61999989      -5.53888731E-06
  -8.60999966       9.04308024E-07
  -8.60000038       1.01842306E-05
  -8.59000015       2.40815934E-05
  -8.57999992       4.46057857E-05
  -8.56999969       7.31661130E-05
  -8.56000042       1.09951041E-04
  -8.55000019       1.53738802E-04
  -8.53999996       2.02213108E-04
  -8.52999973       2.52660277E-04
  -8.52000046       3.02789849E-04
  -8.51000023       3.51369410E-04
  -8.50000000       3.98445001E-04
  -8.48999977       4.45059937E-04
  -8.47999954       4.92582680E-04
  -8.47000027       5.41892892E-04
  -8.46000004       5.92731987E-04
  -8.44999981       6.43465319E-04
  -8.43999958       6.91360270E-04
  -8.43000031       7.33291090E-04
  -8.42000008       7.66636338E-04
  -8.40999985       7.90066202E-04
  -8.39999962       8.03945586E-04
  -8.39000034       8.10226367E-04
  -8.38000011       8.11865146E-04
  -8.36999989       8.11967417E-04
  -8.35999966       8.12939776E-04
  -8.35000038       8.15919891E-04
  -8.34000015       8.20648274E-04
  -8.32999992       8.25786148E-04
  -8.31999969       8.29542812E-04
  -8.31000042       8.30382865E-04
  -8.30000019       8.27566779E-04
  -8.28999996       8.21373018E-04
  -8.27999973       8.12954153E-04
  -8.27000046       8.03922594E-04
  -8.26000023       7.95829110E-04
  -8.25000000       7.89730402E-04
  -8.23999977       7.85975950E-04
  -8.22999954       7.84255331E-04
  -8.22000027       7.83854630E-04
  -8.21000004       7.83994095E-04
  -8.19999981       7.84114702E-04
  -8.18999958       7.84016331E-04
  -8.18000031       7.83821335E-04
  -8.17000008       7.83807831E-04
  -8.15999985       7.84204225E-04
  -8.14999962       7.85037526E-04
  -8.14000034       7.86100398E-04
  -8.13000011       7.87036784E-04
  -8.11999989       7.87508849E-04
  -8.10999966       7.87365076E-04
  -8.10000038       7.86745572E-04
  -8.09000015       7.86094344E-04
  -8.07999992       7.86073506E-04
  -8.06999969       7.87434226E-04
  -8.06000042       7.90888269E-04
  -8.05000019       7.97026965E-04
  -8.03999996       8.06295371E-04
  -8.02999973       8.19007051E-04
  -8.02000046       8.35366896E-04
  -8.01000023       8.55469785E-04
  -8.00000000       8.79264669E-04
  -7.98999977       9.06516158E-04
  -7.98000002       9.36780416E-04
  -7.96999979       9.69452609E-04
  -7.96000004       1.00387877E-03
  -7.94999981       1.03952119E-03
  -7.94000006       1.07610645E-03
  -7.92999983       1.11370638E-03
  -7.92000008       1.15268875E-03
  -7.90999985       1.19353796E-03
  -7.90000010       1.23659638E-03
  -7.88999987       1.28180173E-03
  -7.88000011       1.32853724E-03
  -7.86999989       1.37564982E-03
  -7.86000013       1.42165646E-03
  -7.84999990       1.46508846E-03
  -7.84000015       1.50485476E-03
  -7.82999992       1.54050509E-03
  -7.82000017       1.57228811E-03
  -7.80999994       1.60097587E-03
  -7.80000019       1.62751367E-03
  -7.78999996       1.65259570E-03
  -7.78000021       1.67633186E-03
  -7.76999998       1.69812050E-03
  -7.76000023       1.71677524E-03
  -7.75000000       1.73087989E-03
  -7.73999977       1.73925154E-03
  -7.73000002       1.74135121E-03
  -7.71999979       1.73750706E-03
  -7.71000004       1.72886706E-03
  -7.69999981       1.71708898E-03
  -7.69000006       1.70388480E-03
  -7.67999983       1.69055886E-03
  -7.67000008       1.67770439E-03
  -7.65999985       1.66515412E-03
  -7.65000010       1.65220746E-03
  -7.63999987       1.63804682E-03
  -7.63000011       1.62219955E-03
  -7.61999989       1.60488195E-03
  -7.61000013       1.58710103E-03
  -7.59999990       1.57047424E-03
  -7.59000015       1.55681837E-03
  -7.57999992       1.54763286E-03
  -7.57000017       1.54365459E-03
  -7.55999994       1.54462352E-03
  -7.55000019       1.54934486E-03
  -7.53999996       1.55603560E-03
  -7.53000021       1.56285078E-03
  -7.51999998       1.56842568E-03
  -7.51000023       1.57226890E-03
  -7.50000000       1.57488487E-03
  -7.48999977       1.57757604E-03
  -7.48000002       1.58199214E-03
  -7.46999979       1.58956903E-03
  -7.46000004       1.60103815E-03
  -7.44999981       1.61615491E-03
  -7.44000006       1.63376192E-03