  -16.0000000       0.00000000    
  -15.9899998       0.00000000    
  -15.9799995       0.00000000    
  -15.9700003       0.00000000    
  -15.9600000       0.00000000    
  -15.9499998       0.00000000    
  -15.9399996       0.00000000    
  -15.9300003       0.00000000    
  -15.9200001       0.00000000    
  -15.9099998       0.00000000    
  -15.8999996       0.00000000    
  -15.8900003       0.00000000    
  -15.8800001       0.00000000    
  -15.8699999       1.40129846E-45
  -15.8599997       1.96181785E-44
  -15.8500004       1.98984382E-43
  -15.8400002       1.44614002E-42
  -15.8299999       8.43301416E-42
  -15.8199997       4.15667163E-41
  -15.8100004       1.78847723E-40
  -15.8000002       6.83927538E-40
  -15.7900000       2.34497349E-39
  -15.7799997       7.23163054E-39
  -15.7700005       2.00528641E-38
  -15.7600002       4.98473982E-38
  -15.7500000       1.10360673E-37
  -15.7399998       2.14876138E-37
  -15.7299995       3.58447439E-37
  -15.7200003       4.81069036E-37
  -15.7100000       4.16089548E-37
  -15.6999998      -1.44115677E-37
  -15.6899996      -1.59057967E-36
  -15.6800003      -4.14053285E-36
  -15.6700001      -7.30536807E-36
  -15.6599998      -9.18511010E-36
  -15.6499996      -6.06507589E-36
  -15.6400003       6.69521949E-36
  -15.6300001       3.11196288E-35
  -15.6199999       5.94253376E-35
  -15.6099997       6.41731180E-35
  -15.6000004      -8.80286996E-36
  -15.5900002      -2.32333566E-34
  -15.5799999      -6.55462951E-34
  -15.5699997      -1.20757001E-33
  -15.5600004      -1.55050037E-33
  -15.5500002      -9.36903803E-34
  -15.5400000       1.76791246E-33
  -15.5299997       7.63192499E-33
  -15.5200005       1.64763180E-32
  -15.5100002       2.49158076E-32
  -15.5000000       2.42708550E-32
  -15.4899998       2.12281032E-34
  -15.4799995      -6.27155976E-32
  -15.4700003      -1.68361965E-31
  -15.4600000      -2.87489172E-31
  -15.4499998      -3.34506548E-31
  -15.4399996      -1.61270901E-31
  -15.4300003       4.01847822E-31
  -15.4200001       1.42785540E-30
  -15.4099998       2.69589868E-30
  -15.3999996       3.47921953E-30
  -15.3900003       2.47959211E-30
  -15.3800001      -1.84756961E-30
  -15.3699999      -1.03517034E-29
  -15.3599997      -2.16305811E-29
  -15.3500004      -3.03573233E-29
  -15.3400002      -2.66708948E-29
  -15.3299999       1.65348308E-30
  -15.3199997       6.27240536E-29
  -15.3100004       1.49768955E-28
  -15.3000002       2.29338967E-28
  -15.2900000       2.35976107E-28
  -15.2799997       8.40762972E-29
  -15.2700005      -2.93480716E-28
  -15.2600002      -8.79438546E-28
  -15.2500000      -1.49692452E-27
  -15.2399998      -1.76676089E-27
  -15.2299995      -1.15772849E-27
  -15.2200003       8.14338069E-28
  -15.2100000       4.22830216E-27
  -15.1999998       8.32368510E-27
  -15.1899996       1.11978682E-26
  -15.1800003       9.94257867E-27
  -15.1700001       1.52271542E-27
  -15.1599998      -1.54963436E-26
  -15.1499996      -3.86936952E-26
  -15.1400003      -5.99153293E-26
  -15.1300001      -6.51977453E-26
  -15.1199999      -3.80069055E-26
  -15.1099997       3.34169553E-26
  -15.1000004       1.45558654E-25
  -15.0900002       2.69451934E-25
  -15.0799999       3.46772284E-25
  -15.0699997       2.99109160E-25
  -15.0600004       5.51761056E-26
  -15.0500002      -4.05608143E-25
  -15.0400000      -1.00469493E-24
  -15.0299997      -1.53342155E-24
  -15.0200005      -1.66810653E-24
  -15.0100002      -1.05543022E-24
  -15.0000000       5.27720385E-25
  -14.9899998       2.97126570E-24
  -14.9799995       5.65985217E-24
  -14.9700003       7.43853787E-24
  -14.9600000       6.82319718E-24
  -14.9499998       2.50936161E-24
  -14.9399996      -5.87942647E-24
  -14.9300003      -1.70159490E-23
  -14.9200001      -2.74218590E-23
  -14.9099998      -3.17624525E-23
  -14.8999996      -2.41940926E-23
  -14.8900003      -7.63772515E-25
  -14.8800001       3.76293941E-23
  -14.8699999       8.27431281E-23
  -14.8599997       1.18377654E-22
  -14.8500004       1.22987227E-22
  -14.8400002       7.61684773E-23
  -14.8299999      -3.16888045E-23
  -14.8199997      -1.89089959E-22
  -14.8100004      -3.56595926E-22
  -14.8000002      -4.68289290E-22
  -14.7900000      -4.45351134E-22
  -14.7799997      -2.22377062E-22
  -14.7700005       2.17991121E-22
  -14.7600002       8.12277528E-22
  -14.7500000       1.39974106E-21
  -14.7399998       1.73733314E-21
  -14.7299995       1.55570105E-21
  -14.7200003       6.54029607E-22
  -14.7100000      -9.85092946E-22
  -14.6999998      -3.09660777E-21
  -14.6899996      -5.09628520E-21
  -14.6800003      -6.15053618E-21
  -14.6700001      -5.37622364E-21
  -14.6599998      -2.15498260E-21
  -14.6499996       3.50428483E-21
  -14.6400003       1.06693471E-20
  -14.6300001       1.73963902E-20
  -14.6199999       2.09769804E-20
  -14.6099997       1.85807885E-20
  -14.6000004       8.23595786E-21
  -14.5900002      -1.00590203E-20
  -14.5799999      -3.34357422E-20
  -14.5699997      -5.58848198E-20
  -14.5600004      -6.89856740E-20
  -14.5500002      -6.38126028E-20
  -14.5400000      -3.38548643E-20
  -14.5299997       2.16377168E-20
  -14.5200005       9.48684785E-20
  -14.5100002       1.68471035E-19
  -14.5000000       2.17348995E-19
  -14.4899998       2.13951648E-19
  -14.4799995       1.36617667E-19
  -14.4700003      -2.05764861E-20
  -14.4600000      -2.39182609E-19
  -14.4499998      -4.72376688E-19
  -14.4399996      -6.48828116E-19
  -14.4300003      -6.86341946E-19
  -14.4200001      -5.14663557E-19
  -14.4099998      -1.03533531E-19
  -14.3999996       5.11226983E-19
  -14.3900003       1.21299864E-18
  -14.3800001       1.81032282E-18
  -14.3699999       2.06962099E-18
  -14.3599997       1.77429352E-18
  -14.3500004       8.01019475E-19
  -14.3400002      -8.05013620E-19
  -14.3299999      -2.78069233E-18
  -14.3199997      -4.64689885E-18
  -14.3100004      -5.78000187E-18
  -14.3000002      -5.55532886E-18
  -14.2900000      -3.54277734E-18
  -14.2799997       2.89057412E-19
  -14.2700005       5.42175698E-18
  -14.2600002       1.07548931E-17
  -14.2500000       1.47436325E-17
  -14.2399998       1.57204799E-17
  -14.2299995       1.23625501E-17
  -14.2200003       4.20769200E-18
  -14.2100000      -7.92369213E-18
  -14.1999998      -2.17603939E-17
  -14.1899996      -3.37969058E-17
  -14.1800003      -3.99482410E-17
  -14.1700001      -3.65789226E-17
  -14.1599998      -2.17094544E-17
  -14.1499996       3.90792588E-18
  -14.1400003       3.62019499E-17
  -14.1300001       6.79972043E-17
  -14.1199999       9.01927432E-17
  -14.1099997       9.38257932E-17
  -14.1000004       7.26597766E-17
  -14.0900002       2.56872204E-17
  -14.0799999      -4.11953415E-17
  -14.0699997      -1.15031905E-16
  -14.0600004      -1.77597822E-16
  -14.0500002      -2.09109287E-16
  -14.0400000      -1.93272259E-16
  -14.0299997      -1.22575130E-16
  -14.0200005      -2.40893399E-18
  -14.0100002       1.47390006E-16
  -14.0000000       2.94573654E-16
  -13.9899998       4.00313515E-16
  -13.9799995       4.28054135E-16
  -13.9700003       3.53624185E-16
  -13.9600000       1.74144667E-16
  -13.9499998      -8.68859398E-17
  -13.9399996      -3.80424175E-16
  -13.9300003      -6.39534969E-16
  -13.9200001      -7.93121312E-16
  -13.9099998      -7.83239084E-16
  -13.8999996      -5.82129958E-16
  -13.8900003      -2.04516343E-16
  -13.8800001       2.88800357E-16
  -13.8699999       7.98394515E-16
  -13.8599997       1.20458768E-15
  -13.8500004       1.39378541E-15
  -13.8400002       1.28733338E-15
  -13.8299999       8.66004579E-16
  -13.8199997       1.83333558E-16
  -13.8100004      -6.37114837E-16
  -13.8000002      -1.42209346E-15
  -13.7900000      -1.98396165E-15
  -13.7799997      -2.16413932E-15
  -13.7700005      -1.87501543E-15
  -13.7600002      -1.12973591E-15
  -13.7500000      -5.09949039E-17
  -13.7399998       1.14592303E-15
  -13.7299995       2.19476761E-15
  -13.7200003       2.83722685E-15
  -13.7100000       2.88653476E-15
  -13.6999998       2.28051318E-15
  -13.6899996       1.10960977E-15
  -13.6800003      -3.89957743E-16
  -13.6700001      -1.88021621E-15
  -13.6599998      -2.99580010E-15
  -13.6499996      -3.43334641E-15
  -13.6400003      -3.03494806E-15
  -13.6300001      -1.84368135E-15
  -13.6199999      -1.13691475E-16
  -13.6099997       1.73324731E-15
  -13.6000004       3.19999370E-15
  -13.5900002       3.83728710E-15
  -13.5799999       3.36990004E-15
  -13.5699997       1.79322508E-15
  -13.5600004      -5.88753967E-16
  -13.5500002      -3.20182287E-15
  -13.5400000      -5.31660939E-15
  -13.5299997      -6.22101527E-15
  -13.5200005      -5.41336808E-15
  -13.5100002      -2.76937676E-15
  -13.5000000       1.36359408E-15
  -13.4899998       6.17914685E-15
  -13.4799995       1.05431343E-14
  -13.4700003       1.32271267E-14
  -13.4600000       1.31999446E-14
  -13.4499998       9.91315608E-15
  -13.4399996       3.50996837E-15
  -13.4300003      -5.10295041E-15
  -13.4200001      -1.43552247E-14
  -13.4099998      -2.22812017E-14
  -13.3999996      -2.69138315E-14
  -13.3900003      -2.67264001E-14
  -13.3800001      -2.10254957E-14
  -13.3699999      -1.02004815E-14
  -13.3599997       4.24077336E-15
  -13.3500004       1.98772222E-14
  -13.3400002       3.37955338E-14
  -13.3299999       4.31504096E-14
  -13.3199997       4.57510887E-14
  -13.3100004       4.05477382E-14
  -13.3000002       2.79063509E-14
  -13.2900000       9.60231277E-15
  -13.2799997      -1.14775988E-14
  -13.2700005      -3.18698891E-14
  -13.2600002      -4.81954327E-14
  -13.2500000      -5.78049842E-14
  -13.2399998      -5.92668140E-14
  -13.2299995      -5.25883590E-14
  -13.2200003      -3.91244654E-14
  -13.2100000      -2.11992001E-14
  -13.1999998      -1.53890841E-15
  -13.1899996       1.73374515E-14
  -13.1800003       3.36119174E-14
  -13.1700001       4.64143020E-14
  -13.1599998       5.57562792E-14
  -13.1499996       6.21738040E-14
  -13.1400003       6.61866192E-14
  -13.1300001       6.77478229E-14
  -13.1199999       6.58785838E-14
  -13.1099997       5.86499978E-14
  -13.1000004       4.35913919E-14
  -13.0900002       1.84857284E-14
  -13.0799999      -1.76117547E-14
  -13.0699997      -6.33937347E-14
  -13.0600004      -1.14662687E-13
  -13.0500002      -1.64302925E-13
  -13.0400000      -2.03017236E-13
  -13.0299997      -2.20810851E-13
  -13.0200005      -2.09010625E-13
  -13.0100002      -1.62436620E-13
  -13.0000000      -8.12435175E-14
  -12.9899998       2.80460690E-14
  -12.9799995       1.52673555E-13
  -12.9700003       2.75077758E-13
  -12.9600000       3.75489326E-13
  -12.9499998       4.35273535E-13
  -12.9399996       4.40402814E-13
  -12.9300003       3.84362653E-13
  -12.9200001       2.69862691E-13
  -12.9099998       1.08941922E-13
  -12.8999996      -7.86243154E-14
  -12.8900003      -2.68355650E-13
  -12.8800001      -4.34966543E-13
  -12.8699999      -5.56376559E-13
  -12.8599997      -6.17049055E-13
  -12.8500004      -6.10029442E-13
  -12.8400002      -5.37347185E-13
  -12.8299999      -4.08817620E-13
  -12.8199997      -2.39633346E-13
  -12.8100004      -4.73943530E-14
  -12.8000002       1.50683123E-13
  -12.7900000       3.39737922E-13
  -12.7799997       5.08033177E-13
  -12.7700005       6.46511924E-13
  -12.7600002       7.47495598E-13
  -12.7500000       8.03167483E-13
  -12.7399998       8.04585402E-13
  -12.7299995       7.41864849E-13
  -12.7200003       6.05860522E-13
  -12.7100000       3.91229096E-13
  -12.6999998       1.00277778E-13
  -12.6899996      -2.53383008E-13
  -12.6800003      -6.42535124E-13
  -12.6700001      -1.02645410E-12
  -12.6599998      -1.35407375E-12
  -12.6499996      -1.57025922E-12
  -12.6400003      -1.62449513E-12
  -12.6300001      -1.48062465E-12
  -12.6199999      -1.12580854E-12
  -12.6099997      -5.76769047E-13
  -12.6000004       1.18326112E-13
  -12.5900002       8.83287963E-13
  -12.5799999       1.62262901E-12
  -12.5699997       2.23452593E-12
  -12.5600004       2.62604370E-12
  -12.5500002       2.72805238E-12
  -12.5400000       2.50716873E-12
  -12.5299997       1.97247123E-12
  -12.5200005       1.17562785E-12
  -12.5100002       2.04256561E-13
  -12.5000000      -8.30422807E-13
  -12.4899998      -1.80952410E-12
  -12.4799995      -2.62328896E-12
  -12.4700003      -3.18589643E-12
  -12.4600000      -3.44594340E-12
  -12.4499998      -3.39115997E-12
  -12.4399996      -3.04710228E-12
  -12.4300003      -2.47071461E-12
  -12.4200001      -1.74055399E-12
  -12.4099998      -9.45890610E-13
  -12.3999996      -1.76821028E-13
  -12.3900003       4.83050286E-13
  -12.3800001       9.60704931E-13
  -12.3699999       1.19490539E-12
  -12.3599997       1.13563022E-12
  -12.3500004       7.43333075E-13
  -12.3400002      -1.04513210E-14
  -12.3299999      -1.14017563E-12
  -12.3199997      -2.64092546E-12
  -12.3100004      -4.48156096E-12
  -12.3000002      -6.59815085E-12
  -12.2900000      -8.88991485E-12
  -12.2799997      -1.12198272E-11
  -12.2700005      -1.34213439E-11
  -12.2600002      -1.53115177E-11
  -12.2500000      -1.67093197E-11
  -12.2399998      -1.74567669E-11
  -12.2299995      -1.74394093E-11
  -12.2200003      -1.66024416E-11
  -12.2100000      -1.49593411E-11
  -12.1999998      -1.25909214E-11
  -12.1899996      -9.63457005E-12
  -12.1800003      -6.26518282E-12
  -12.1700001      -2.67093422E-12
  -12.1599998       9.71982911E-13
  -12.1499996       4.52127788E-12
  -12.1400003       7.88358007E-12
  -12.1300001       1.10202967E-11
  -12.1199999       1.39439354E-11
  -12.1099997       1.67063845E-11
  -12.1000004       1.93820151E-11
  -12.0900002       2.20492999E-11
  -12.0799999       2.47745227E-11
  -12.0699997       2.76003057E-11
  -12.0600004       3.05403411E-11
  -12.0500002       3.35801213E-11
  -12.0400000       3.66822198E-11
  -12.0299997       3.97937516E-11
  -12.0200005       4.28536338E-11
  -12.0100002       4.57976573E-11
  -12.0000000       4.85604612E-11
  -11.9899998       5.10746063E-11
  -11.9799995       5.32679491E-11
  -11.9700003       5.50610946E-11
  -11.9600000       5.63665919E-11
  -11.9499998       5.70912380E-11
  -11.9399996       5.71414860E-11
  -11.9300003       5.64314151E-11
  -11.9200001       5.48913796E-11
  -11.9099998       5.24755447E-11
  -11.8999996       4.91660948E-11
  -11.8900003       4.49730010E-11
  -11.8800001       3.99291156E-11
  -11.8699999       3.40815362E-11
  -11.8599997       2.74810539E-11
  -11.8500004       2.01724366E-11
  -11.8400002       1.21875730E-11
  -11.8299999       3.54372022E-12
  -11.8199997      -5.75263144E-12
  -11.8100004      -1.56967928E-11
  -11.8000002      -2.62734053E-11
  -11.7900000      -3.74432950E-11
  -11.7799997      -4.91323961E-11
  -11.7700005      -6.12251153E-11
  -11.7600002      -7.35643491E-11
  -11.7500000      -8.59578103E-11
  -11.7399998      -9.81903100E-11
  -11.7299995      -1.10039554E-10
  -11.7200003      -1.21292559E-10
  -11.7100000      -1.31760158E-10
  -11.6999998      -1.41287135E-10
  -11.6899996      -1.49756471E-10
  -11.6800003      -1.57087787E-10
  -11.6700001      -1.63231262E-10
  -11.6599998      -1.68158570E-10
  -11.6499996      -1.71853656E-10
  -11.6400003      -1.74305015E-10
  -11.6300001      -1.75501474E-10
  -11.6199999      -1.75431322E-10
  -11.6099997      -1.74084996E-10
  -11.6000004      -1.71459222E-10
  -11.5900002      -1.67561548E-10
  -11.5799999      -1.62412681E-10
  -11.5699997      -1.56046134E-10
  -11.5600004      -1.48504140E-10
  -11.5500002      -1.39830106E-10
  -11.5400000      -1.30059227E-10
  -11.5299997      -1.19208879E-10
  -11.5200005      -1.07270338E-10
  -11.5100002      -9.42046094E-11
  -11.5000000      -7.99428926E-11
  -11.4899998      -6.43922138E-11
  -11.4799995      -4.74463212E-11
  -11.4700003      -2.89999569E-11
  -11.4600000      -8.96439173E-12
  -11.4499998       1.27174547E-11
  -11.4399996       3.60595026E-11
  -11.4300003       6.10254972E-11
  -11.4200001       8.75283596E-11
  -11.4099998       1.15434398E-10
  -11.3999996       1.44572507E-10
  -11.3900003       1.74744830E-10
  -11.3800001       2.05737385E-10
  -11.3699999       2.37328074E-10
  -11.3599997       2.69291117E-10
  -11.3500004       3.01396880E-10
  -11.3400002       3.33409411E-10
  -11.3299999       3.65083297E-10
  -11.3199997       3.96162270E-10
  -11.3100004       4.26383318E-10
  -11.3000002       4.55486426E-10
  -11.2900000       4.83230511E-10
  -11.2799997       5.09413234E-10
  -11.2700005       5.33891709E-10
  -11.2600002       5.56599988E-10
  -11.2500000       5.77558112E-10
  -11.2399998       5.96872385E-10
  -11.2299995       6.14723605E-10
  -11.2200003       6.31346864E-10
  -11.2100000       6.47004117E-10
  -11.1999998       6.61956379E-10
  -11.1899996       6.76438183E-10
  -11.1800003       6.90639046E-10
  -11.1700001       7.04693748E-10
  -11.1599998       7.18682502E-10
  -11.1499996       7.32635952E-10
  -11.1400003       7.46547046E-10
  -11.1300001       7.60380758E-10
  -11.1199999       7.74084907E-10
  -11.1099997       7.87596155E-10
  -11.1000004       8.00843392E-10
  -11.0900002       8.13750123E-10
  -11.0799999       8.26235913E-10
  -11.0699997       8.38219827E-10
  -11.0600004       8.49627146E-10
  -11.0500002       8.60397531E-10
  -11.0400000       8.70494732E-10
  -11.0299997       8.79915363E-10
  -11.0200005       8.88695895E-10
  -11.0100002       8.96914099E-10
  -11.0000000       9.04687825E-10
  -10.9899998       9.12168729E-10
  -10.9799995       9.19534171E-10
  -10.9700003       9.26978772E-10
  -10.9600000       9.34706645E-10
  -10.9499998       9.42925737E-10
  -10.9399996       9.51842161E-10
  -10.9300003       9.61655311E-10
  -10.9200001       9.72553926E-10
  -10.9099998       9.84708981E-10
  -10.8999996       9.98262695E-10
  -10.8900003       1.01332476E-09
  -10.8800001       1.02995990E-09
  -10.8699999       1.04818754E-09
  -10.8599997       1.06798093E-09
  -10.8500004       1.08927434E-09
  -10.8400002       1.11197751E-09
  -10.8299999       1.13598808E-09
  -10.8199997       1.16120658E-09
  -10.8100004       1.18754229E-09
  -10.8000002       1.21491672E-09
  -10.7900000       1.24325195E-09
  -10.7799997       1.27245436E-09
  -10.7700005       1.30239408E-09
  -10.7600002       1.33288436E-09
  -10.7500000       1.36366818E-09
  -10.7399998       1.39441514E-09
  -10.7299995       1.42473433E-09
  -10.7200003       1.45419654E-09
  -10.7100000       1.48236823E-09
  -10.6999998       1.50884616E-09
  -10.6899996       1.53329116E-09
  -10.6800003       1.55544677E-09
  -10.6700001       1.57515734E-09
  -10.6599998       1.59235813E-09
  -10.6499996       1.60707025E-09
  -10.6400003       1.61938185E-09
  -10.6300001       1.62943403E-09
  -10.6199999       1.63740754E-09
  -10.6099997       1.64352620E-09
  -10.6000004       1.64805458E-09
  -10.5900002       1.65130309E-09
  -10.5799999       1.65363456E-09
  -10.5699997       1.65545133E-09
  -10.5600004       1.65718150E-09
  -10.5500002       1.65924674E-09
  -10.5400000       1.66202840E-09
  -10.5299997       1.66583047E-09
  -10.5200005       1.67084580E-09
  -10.5100002       1.67714498E-09
  -10.5000000       1.68468217E-09
  -10.4899998       1.69330983E-09
  -10.4799995       1.70281855E-09
  -10.4700003       1.71297776E-09
  -10.4600000       1.72356684E-09
  -10.4499998       1.73440129E-09
  -10.4399996       1.74533321E-09
  -10.4300003       1.75624015E-09
  -10.4200001       1.76699788E-09
  -10.4099998       1.77744730E-09
  -10.3999996       1.78737569E-09
  -10.3900003       1.79650494E-09
  -10.3800001       1.80450821E-09
  -10.3699999       1.81103443E-09
  -10.3599997       1.81575288E-09
  -10.3500004       1.81839821E-09
  -10.3400002       1.81879967E-09
  -10.3299999       1.81690063E-09
  -10.3199997       1.81274817E-09
  -10.3100004       1.80647464E-09
  -10.3000002       1.79825632E-09
  -10.2900000       1.78827020E-09
  -10.2799997       1.77666915E-09
  -10.2700005       1.76356707E-09
  -10.2600002       1.74903059E-09
  -10.2500000       1.73310355E-09
  -10.2399998       1.71582504E-09
  -10.2299995       1.69725034E-09
  -10.2200003       1.67745884E-09
  -10.2100000       1.65655045E-09
  -10.1999998       1.63463065E-09
  -10.1899996       1.61179514E-09
  -10.1800003       1.58810409E-09
  -10.1700001       1.56358548E-09
  -10.1599998       1.53823498E-09
  -10.1499996       1.51203994E-09
  -10.1400003       1.48500523E-09
  -10.1300001       1.45718126E-09
  -10.1199999       1.42868106E-09
  -10.1099997       1.39967726E-09
  -10.1000004       1.37038736E-09
  -10.0900002       1.34103983E-09
  -10.0799999       1.31184419E-09
  -10.0699997       1.28296329E-09
  -10.0600004       1.25449973E-09
  -10.0500002       1.22650401E-09
  -10.0400000       1.19899846E-09
  -10.0299997       1.17200627E-09
  -10.0200005       1.14558274E-09
  -10.0100002       1.11983600E-09
  -10.0000000       1.09492304E-09
  -9.98999977       1.07103548E-09
  -9.97999954       1.04836462E-09
  -9.97000027       1.02706776E-09
  -9.96000004       1.00723752E-09
  -9.94999981       9.88891302E-10
  -9.93999958       9.71973613E-10
  -9.93000031       9.56377200E-10
  -9.92000008       9.41982159E-10
  -9.90999985       9.28687516E-10
  -9.89999962       9.16439424E-10
  -9.89000034       9.05248154E-10
  -9.88000011       8.95189589E-10
  -9.86999989       8.86394680E-10
  -9.85999966       8.79035789E-10
  -9.85000038       8.73313533E-10
  -9.84000015       8.69451178E-10
  -9.82999992       8.67698136E-10
  -9.81999969       8.68340011E-10
  -9.81000042       8.71704320E-10
  -9.80000019       8.78169093E-10
  -9.78999996       8.88149221E-10
  -9.77999973       9.02079245E-10
  -9.77000046       9.20377885E-10
  -9.76000023       9.43405132E-10
  -9.75000000       9.71418945E-10
  -9.73999977       1.00453934E-09
  -9.72999954       1.04272091E-09
  -9.72000027       1.08574361E-09
  -9.71000004       1.13321841E-09
  -9.69999981       1.18460597E-09
  -9.68999958       1.23925104E-09
  -9.68000031       1.29641786E-09
  -9.67000008       1.35533140E-09
  -9.65999985       1.41521694E-09
  -9.64999962       1.47533352E-09
  -9.64000034       1.53500213E-09
  -9.63000011       1.59362001E-09
  -9.61999989       1.65067238E-09
  -9.60999966       1.70572501E-09
  -9.60000038       1.75841786E-09
  -9.59000015       1.80844517E-09
  -9.57999992       1.85554072E-09
  -9.56999969       1.89946570E-09
  -9.56000042       1.93999772E-09
  -9.55000019       1.97693306E-09
  -9.53999996       2.01009676E-09
  -9.52999973       2.03935779E-09
  -9.52000046       2.06464001E-09
  -9.51000023       2.08593942E-09
  -9.50000000       2.10333218E-09
  -9.48999977       2.11696682E-09
  -9.47999954       2.12706519E-09
  -9.47000027       2.13389884E-09
  -9.46000004       2.13777729E-09
  -9.44999981       2.13903184E-09
  -9.43999958       2.13799978E-09
  -9.43000031       2.13502038E-09
  -9.42000008       2.13042517E-09
  -9.40999985       2.12453544E-09
  -9.39999962       2.11765649E-09
  -9.39000034       2.11007767E-09
  -9.38000011       2.10205964E-09
  -9.36999989       2.09383688E-09
  -9.35999966       2.08560991E-09
  -9.35000038       2.07755080E-09
  -9.34000015       2.06980877E-09
  -9.32999992       2.06251616E-09
  -9.31999969       2.05580952E-09
  -9.31000042       2.04982076E-09
  -9.30000019       2.04468908E-09
  -9.28999996       2.04055572E-09
  -9.27999973       2.03754369E-09
  -9.27000046       2.03574846E-09
  -9.26000023       2.03521155E-09
  -9.25000000       2.03592010E-09
  -9.23999977       2.03779726E-09
  -9.22999954       2.04070472E-09
  -9.22000027       2.04445705E-09
  -9.21000004       2.04884065E-09
  -9.19999981       2.05363260E-09
  -9.18999958       2.05860928E-09
  -9.18000031       2.06355955E-09
  -9.17000008       2.06828865E-09
  -9.15999985       2.07262074E-09
  -9.14999962       2.07640682E-09
  -9.14000034       2.07953188E-09
  -9.13000011       2.08192485E-09
  -9.11999989       2.08359507E-09
  -9.10999966       2.08462803E-09
  -9.10000038       2.08519335E-09
  -9.09000015       2.08554596E-09
  -9.07999992       2.08601025E-09
  -9.06999969       2.08693107E-09
  -9.06000042       2.08864792E-09
  -9.05000019       2.09146744E-09
  -9.03999996       2.09564011E-09
  -9.02999973       2.10136064E-09
  -9.02000046       2.10879914E-09
  -9.01000023       2.11812301E-09
  -9.00000000       2.12954920E-09
  -8.98999977       2.14335860E-09
  -8.97999954       2.15991469E-09
  -8.97000027       2.17964491E-09
  -8.96000004       2.20301266E-09
  -8.94999981       2.23045782E-09
  -8.93999958       2.26237362E-09
  -8.93000031       2.29905295E-09
  -8.92000008       2.34069275E-09
  -8.90999985       2.38740117E-09
  -8.89999962       2.43922571E-09
  -8.89000034       2.49619148E-09
  -8.88000011       2.55833310E-09
  -8.86999989       2.62571787E-09
  -8.85999966       2.69844258E-09
  -8.85000038       2.77661827E-09
  -8.84000015       2.86034241E-09
  -8.82999992       2.94968183E-09
  -8.81999969       3.04465719E-09
  -8.81000042       3.14525028E-09
  -8.80000019       3.25141225E-09
  -8.78999996       3.36310269E-09
  -8.77999973       3.48032159E-09
  -8.77000046       3.60311980E-09
  -8.76000023       3.73162390E-09
  -8.75000000       3.86602128E-09
  -8.73999977       4.00654843E-09
  -8.72999954       4.15347090E-09
  -8.72000027       4.30707559E-09
  -8.71000004       4.46765114E-09
  -8.69999981       4.63549288E-09
  -8.68999958       4.81089613E-09
  -8.68000031       4.99418018E-09
  -8.67000008       5.18566257E-09
  -8.65999985       5.38568257E-09
  -8.64999962       5.59456570E-09
  -8.64000034       5.81262372E-09
  -8.63000011       6.04013684E-09
  -8.61999989       6.27734531E-09
  -8.60999966       6.52444587E-09
  -8.60000038       6.78158729E-09
  -8.59000015       7.04885661E-09
  -8.57999992       7.32629024E-09
  -8.56999969       7.61382957E-09
  -8.56000042       7.91131605E-09
  -8.55000019       8.21846058E-09
  -8.53999996       8.53483506E-09
  -8.52999973       8.85984530E-09
  -8.52000046       9.19275944E-09
  -8.51000023       9.53273371E-09
  -8.50000000       9.87883997E-09
  -8.48999977       1.02300932E-08
  -8.47999954       1.05854996E-08
  -8.47000027       1.09440617E-08
  -8.46000004       1.13047864E-08
  -8.44999981       1.16666827E-08
  -8.43999958       1.20287469E-08
  -8.43000031       1.23899664E-08
  -8.42000008       1.27493216E-08
  -8.40999985       1.31058133E-08
  -8.39999962       1.34584726E-08
  -8.39000034       1.38063916E-08
  -8.38000011       1.41487444E-08
  -8.36999989       1.44847716E-08
  -8.35999966       1.48137813E-08
  -8.35000038       1.51351056E-08
  -8.34000015       1.54480677E-08
  -8.32999992       1.57519633E-08
  -8.31999969       1.60460196E-08
  -8.31000042       1.63294001E-08
  -8.30000019       1.66012324E-08
  -8.28999996       1.68606480E-08
  -8.27999973       1.71068031E-08
  -8.27000046       1.73389463E-08
  -8.26000023       1.75564203E-08
  -8.25000000       1.77586710E-08
  -8.23999977       1.79452453E-08
  -8.22999954       1.81157471E-08
  -8.22000027       1.82698106E-08
  -8.21000004       1.84070714E-08
  -8.19999981       1.85271478E-08
  -8.18999958       1.86296418E-08
  -8.18000031       1.87141715E-08
  -8.17000008       1.87803746E-08
  -8.15999985       1.88279774E-08
  -8.14999962       1.88567988E-08
  -8.14000034       1.88667642E-08
  -8.13000011       1.88578824E-08
  -8.11999989       1.88302209E-08
  -8.10999966       1.87838705E-08
  -8.10000038       1.87189162E-08
  -8.09000015       1.86354256E-08
  -8.07999992       1.85334823E-08
  -8.06999969       1.84131803E-08
  -8.06000042       1.82747097E-08
  -8.05000019       1.81183868E-08
  -8.03999996       1.79447106E-08
  -8.02999973       1.77543491E-08
  -8.02000046       1.75481087E-08
  -8.01000023       1.73268973E-08
  -8.00000000       1.70916739E-08
  -7.98999977       1.68433942E-08
  -7.98000002       1.65830070E-08
  -7.96999979       1.63114802E-08
  -7.96000004       1.60299027E-08
  -7.94999981       1.57394577E-08
  -7.94000006       1.54415876E-08
  -7.92999983       1.51379567E-08
  -7.92000008       1.48304276E-08
  -7.90999985       1.45209986E-08
  -7.90000010       1.42116594E-08
  -7.88999987       1.39043301E-08
  -7.88000011       1.36007401E-08
  -7.86999989       1.33024116E-08
  -7.86000013       1.30107090E-08
  -7.84999990       1.27268880E-08
  -7.84000015       1.24521833E-08
  -7.82999992       1.21878712E-08
  -7.82000017       1.19353150E-08
  -7.80999994       1.16958851E-08
  -7.80000019       1.14709184E-08
  -7.78999996       1.12615677E-08
  -7.78000021       1.10687379E-08
  -7.76999998       1.08930900E-08
  -7.76000023       1.07349969E-08
  -7.75000000       1.05946665E-08
  -7.73999977       1.04722142E-08
  -7.73000002       1.03677493E-08
  -7.71999979       1.02814415E-08
  -7.71000004       1.02134790E-08
  -7.69999981       1.01639772E-08
  -7.69000006       1.01329496E-08
  -7.67999983       1.01201634E-08
  -7.67000008       1.01251514E-08
  -7.65999985       1.01472803E-08
  -7.65000010       1.01857776E-08
  -7.63999987       1.02399147E-08
  -7.63000011       1.03091224E-08
  -7.61999989       1.03930642E-08
  -7.61000013       1.04916014E-08
  -7.59999990       1.06047517E-08
  -7.59000015       1.07325917E-08
  -7.57999992       1.08750626E-08
  -7.57000017       1.10319540E-08
  -7.55999994       1.12028653E-08
  -7.55000019       1.13872725E-08
  -7.53999996       1.15846319E-08
  -7.53000021       1.17945147E-08
  -7.51999998       1.20166694E-08
  -7.51000023       1.22510535E-08
  -7.50000000       1.24977300E-08
  -7.48999977       1.27568356E-08
  -7.48000002       1.30283615E-08
  -7.46999979       1.33120990E-08
  -7.46000004       1.36076164E-08
  -7.44999981       1.39142902E-08
  -7.44000006       1.42313610E-08