  -16.0000000       0.00000000    
  -15.9899998       0.00000000    
  -15.9799995       0.00000000    
  -15.9700003       0.00000000    
  -15.9600000       0.00000000    
  -15.9499998       0.00000000    
  -15.9399996       0.00000000    
  -15.9300003       0.00000000    
  -15.9200001       0.00000000    
  -15.9099998       0.00000000    
  -15.8999996       0.00000000    
  -15.8900003       3.09126441E-41
  -15.8800001      -1.22846610E-38
  -15.8699999      -3.12053944E-37
  -15.8599997      -4.01251417E-36
  -15.8500004      -3.52836224E-35
  -15.8400002      -2.38754933E-34
  -15.8299999      -1.32290538E-33
  -15.8199997      -6.23032357E-33
  -15.8100004      -2.55486115E-32
  -15.8000002      -9.27136375E-32
  -15.7900000      -3.01062441E-31
  -15.7799997      -8.81341278E-31
  -15.7700005      -2.33666272E-30
  -15.7600002      -5.62159127E-30
  -15.7500000      -1.22609019E-29
  -15.7399998      -2.41256550E-29
  -15.7299995      -4.23479946E-29
  -15.7200003      -6.47198767E-29
  -15.7100000      -8.12313737E-29
  -15.6999998      -6.86318858E-29
  -15.6899996       1.26756689E-29
  -15.6800003       2.12983946E-28
  -15.6700001       5.70623287E-28
  -15.6599998       1.06702672E-27
  -15.6499996       1.56575861E-27
  -15.6400003       1.76239673E-27
  -15.6300001       1.19508354E-27
  -15.6199999      -6.26003643E-28
  -15.6099997      -3.94053047E-27
  -15.6000004      -8.36121300E-27
  -15.5900002      -1.25641106E-26
  -15.5799999      -1.43034472E-26
  -15.5699997      -1.09808976E-26
  -15.5600004      -7.74567520E-28
  -15.5500002       1.60641216E-26
  -15.5400000       3.65062979E-26
  -15.5299997       5.53858995E-26
  -15.5200005       6.74380486E-26
  -15.5100002       6.94728660E-26
  -15.5000000       6.02324883E-26
  -15.4899998       3.57902865E-26
  -15.4799995      -1.85674299E-26
  -15.4700003      -1.33351180E-25
  -15.4600000      -3.44796286E-25
  -15.4499998      -6.58501690E-25
  -15.4399996      -9.88558282E-25
  -15.4300003      -1.10031660E-24
  -15.4200001      -6.14979691E-25
  -15.4099998       8.54869532E-25
  -15.3999996       3.40659130E-24
  -15.3900003       6.45411480E-24
  -15.3800001       8.45135245E-24
  -15.3699999       7.05419301E-24
  -15.3599997       5.51361657E-27
  -15.3500004      -1.32560723E-23
  -15.3400002      -2.97845447E-23
  -15.3299999      -4.21974541E-23
  -15.3199997      -3.99415422E-23
  -15.3100004      -1.35313138E-23
  -15.3000002       3.89327879E-23
  -15.2900000       1.05683228E-22
  -15.2799997       1.59860555E-22
  -15.2700005       1.66493537E-22
  -15.2600002       9.81813064E-23
  -15.2500000      -4.61196768E-23
  -15.2399998      -2.30345365E-22
  -15.2299995      -3.90394590E-22
  -15.2200003      -4.66527139E-22
  -15.2100000      -4.45487802E-22
  -15.1999998      -3.80234112E-22
  -15.1899996      -3.49778754E-22
  -15.1800003      -3.45288230E-22
  -15.1700001      -1.26597218E-22
  -15.1599998       8.32645689E-22
  -15.1499996       3.15061746E-21
  -15.1400003       6.98725683E-21
  -15.1300001       1.12292660E-20
  -15.1199999       1.28178333E-20
  -15.1099997       6.92854478E-21
  -15.1000004      -1.12431544E-20
  -15.0900002      -4.28159348E-20
  -15.0799999      -8.05171986E-20
  -15.0699997      -1.05299833E-19
  -15.0600004      -8.78570113E-20
  -15.0500002       1.56030709E-21
  -15.0400000       1.74205840E-19
  -15.0299997       3.99219491E-19
  -15.0200005       5.86436106E-19
  -15.0100002       5.91666162E-19
  -15.0000000       2.59298840E-19
  -14.9899998      -4.94165143E-19
  -14.9799995      -1.57394790E-18
  -14.9700003      -2.62370854E-18
  -14.9600000      -3.03087393E-18
  -14.9499998      -2.08268052E-18
  -14.9399996       7.07011949E-19
  -14.9300003       5.16292844E-18
  -14.9200001       1.00727851E-17
  -14.9099998       1.31197595E-17
  -14.8999996       1.13704222E-17
  -14.8900003       2.42739356E-18
  -14.8800001      -1.39318126E-17
  -14.8699999      -3.41849593E-17
  -14.8599997      -5.04395348E-17
  -14.8500004      -5.16848222E-17
  -14.8400002      -2.74585417E-17
  -14.8299999       2.64526503E-17
  -14.8199997       1.01937795E-16
  -14.8100004       1.74965693E-16
  -14.8000002       2.07776031E-16
  -14.7900000       1.59221270E-16
  -14.7799997       2.95024347E-18
  -14.7700005      -2.50920355E-16
  -14.7600002      -5.39198251E-16
  -14.7500000      -7.44989988E-16
  -14.7399998      -7.22378391E-16
  -14.7299995      -3.48775822E-16
  -14.7200003       4.04506222E-16
  -14.7100000       1.40660123E-15
  -14.6999998       2.33951178E-15
  -14.6899996       2.74163792E-15
  -14.6800003       2.13989809E-15
  -14.6700001       2.56555030E-16
  -14.6599998      -2.76410462E-15
  -14.6499996      -6.20055349E-15
  -14.6400003      -8.77512750E-15
  -14.6300001      -8.92963224E-15
  -14.6199999      -5.35965222E-15
  -14.6099997       2.29926734E-15
  -14.6000004       1.28568624E-14
  -14.5900002       2.33219816E-14
  -14.5799999       2.93018410E-14
  -14.5699997       2.61760675E-14
  -14.5600004       1.09062378E-14
  -14.5500002      -1.59869574E-14
  -14.5400000      -4.90225841E-14
  -14.5299997      -7.77637096E-14
  -14.5200005      -8.88353247E-14
  -14.5100002      -7.00006391E-14
  -14.5000000      -1.55230036E-14
  -14.4899998       6.87966733E-14
  -14.4799995       1.63047595E-13
  -14.4700003       2.35125694E-13
  -14.4600000       2.48194152E-13
  -14.4499998       1.72976325E-13
  -14.4399996       2.00382478E-15
  -14.4300003      -2.38927991E-13
  -14.4200001      -4.87566747E-13
  -14.4099998      -6.54617690E-13
  -14.3999996      -6.46903917E-13
  -14.3900003      -4.00601319E-13
  -14.3800001       8.42660292E-14
  -14.3699999       7.20482755E-13
  -14.3599997       1.33409278E-12
  -14.3500004       1.69680925E-12
  -14.3400002       1.58954425E-12
  -14.3299999       8.84483784E-13
  -14.3199997      -3.77863349E-13
  -14.3100004      -1.94615461E-12
  -14.3000002      -3.37688818E-12
  -14.2900000      -4.12738767E-12
  -14.2799997      -3.71381268E-12
  -14.2700005      -1.89875676E-12
  -14.2600002       1.14841936E-12
  -14.2500000       4.78307585E-12
  -14.2399998       7.96033118E-12
  -14.2299995       9.47050945E-12
  -14.2200003       8.30100225E-12
  -14.2100000       4.03695263E-12
  -14.1999998      -2.82506418E-12
  -14.1899996      -1.07817574E-11
  -14.1800003      -1.75392981E-11
  -14.1700001      -2.05536352E-11
  -14.1599998      -1.78014738E-11
  -14.1499996      -8.58595139E-12
  -14.1400003       5.88167839E-12
  -14.1300001       2.23747548E-11
  -14.1199999       3.61747264E-11
  -14.1099997       4.22123551E-11
  -14.1000004       3.66067940E-11
  -14.0900002       1.81993916E-11
  -14.0799999      -1.04153509E-11
  -14.0699997      -4.28130829E-11
  -14.0600004      -6.98630043E-11
  -14.0500002      -8.19677312E-11
  -14.0400000      -7.19577731E-11
  -14.0299997      -3.78695651E-11
  -14.0200005       1.52962660E-11
  -14.0100002       7.56067708E-11
  -14.0000000       1.26387456E-10
  -13.9899998       1.50335702E-10
  -13.9799995       1.34673800E-10
  -13.9700003       7.59543192E-11
  -13.9600000      -1.70313433E-11
  -13.9499998      -1.23501417E-10
  -13.9399996      -2.14619045E-10
  -13.9300003      -2.60604344E-10
  -13.9200001      -2.39453818E-10
  -13.9099998      -1.44920298E-10
  -13.8999996       8.78421728E-12
  -13.8900003       1.87547991E-10
  -13.8800001       3.43927775E-10
  -13.8699999       4.28785341E-10
  -13.8599997       4.05388778E-10
  -13.8500004       2.62207894E-10
  -13.8400002       2.04247730E-11
  -13.8299999      -2.66893591E-10
  -13.8199997      -5.25031130E-10
  -13.8100004      -6.75732692E-10
  -13.8000002      -6.59139743E-10
  -13.7900000      -4.53774296E-10
  -13.7799997      -8.85240561E-11
  -13.7700005       3.57985502E-10
  -13.7600002       7.72283404E-10
  -13.7500000       1.03300302E-09
  -13.7399998       1.04395281E-09
  -13.7299995       7.64817654E-10
  -13.7200003       2.30521061E-10
  -13.7100000      -4.47747478E-10
  -13.6999998      -1.10262910E-09
  -13.6899996      -1.54909674E-09
  -13.6800003      -1.63317171E-09
  -13.6700001      -1.27879440E-09
  -13.6599998      -5.19701671E-10
  -13.6499996       4.94434105E-10
  -13.6400003       1.52271296E-09
  -13.6300001       2.28597763E-09
  -13.6199999       2.53746757E-09
  -13.6099997       2.13441598E-09
  -13.6000004       1.09139597E-09
  -13.5900002      -4.01423950E-10
  -13.5799999      -2.00482719E-09
  -13.5699997      -3.30093197E-09
  -13.5600004      -3.89465926E-09
  -13.5500002      -3.52343887E-09
  -13.5400000      -2.14698459E-09
  -13.5299997       9.73223672E-12
  -13.5200005       2.47856025E-09
  -13.5100002       4.63878891E-09
  -13.5000000       5.86206950E-09
  -13.4899998       5.68078118E-09
  -13.4799995       3.93801924E-09
  -13.4700003       8.76156758E-10
  -13.4600000      -2.86922353E-09
  -13.4499998      -6.38272279E-09
  -13.4399996      -8.67550298E-09
  -13.4300003      -8.94287933E-09
  -13.4200001      -6.81102730E-09
  -13.4099998      -2.50393173E-09
  -13.3999996       3.12717252E-09
  -13.3900003       8.74107631E-09
  -13.3800001       1.27986581E-08
  -13.3699999       1.39535121E-08
  -13.3599997       1.14491732E-08
  -13.3500004       5.41518519E-09
  -13.3400002      -3.03453107E-09
  -13.3299999      -1.19575621E-08
  -13.3199997      -1.89883291E-08
  -13.3100004      -2.19189520E-08
  -13.3000002      -1.93225631E-08
  -13.2900000      -1.10553371E-08
  -13.2799997       1.51666590E-09
  -13.2700005       1.56661297E-08
  -13.2600002       2.78405370E-08
  -13.2500000       3.44938336E-08
  -13.2399998       3.30303145E-08
  -13.2299995       2.26226629E-08
  -13.2200003       4.67055417E-09
  -13.2100000      -1.72671761E-08
  -13.1999998      -3.81134591E-08
  -13.1899996      -5.23877119E-08
  -13.1800003      -5.55587327E-08
  -13.1700001      -4.53127633E-08
  -13.1599998      -2.24004992E-08
  -13.1499996       9.19760801E-09
  -13.1400003       4.28993765E-08
  -13.1300001       7.08614323E-08
  -13.1199999       8.57630482E-08
  -13.1099997       8.26288939E-08
  -13.1000004       6.02430674E-08
  -13.0900002       2.17731433E-08
  -13.0799999      -2.56096655E-08
  -13.0699997      -7.20960145E-08
  -13.0600004      -1.07328447E-07
  -13.0500002      -1.22760341E-07
  -13.0400000      -1.13735723E-07
  -13.0299997      -8.07753793E-08
  -13.0200005      -2.97192084E-08
  -13.0100002       2.93708329E-08
  -13.0000000       8.43476613E-08
  -12.9899998       1.23697305E-07
  -12.9799995       1.39214421E-07
  -12.9700003       1.27990248E-07
  -12.9600000       9.31993327E-08
  -12.9499998       4.34345679E-08
  -12.9399996      -9.31836297E-09
  -12.9300003      -5.26379971E-08
  -12.9200001      -7.68678632E-08
  -12.9099998      -7.77648594E-08
  -12.8999996      -5.78782000E-08
  -12.8900003      -2.62030699E-08
  -12.8800001       3.94865296E-09
  -12.8699999       1.84706010E-08
  -12.8599997       6.59223387E-09
  -12.8500004      -3.54048808E-08
  -12.8400002      -1.01911901E-07
  -12.8299999      -1.77934950E-07
  -12.8199997      -2.41551447E-07
  -12.8100004      -2.68576457E-07
  -12.8000002      -2.38533545E-07
  -12.7900000      -1.40590700E-07
  -12.7799997       2.20267076E-08
  -12.7700005       2.30425741E-07
  -12.7600002       4.51963558E-07
  -12.7500000       6.45625335E-07
  -12.7399998       7.69939334E-07
  -12.7299995       7.91797561E-07
  -12.7200003       6.94185246E-07
  -12.7100000       4.80919539E-07
  -12.6999998       1.77084971E-07
  -12.6899996      -1.75200242E-07
  -12.6800003      -5.24936297E-07
  -12.6700001      -8.22561674E-07
  -12.6599998      -1.03006835E-06
  -12.6499996      -1.12846919E-06
  -12.6400003      -1.12072007E-06
  -12.6300001      -1.02924719E-06
  -12.6199999      -8.88550005E-07
  -12.6099997      -7.34612172E-07
  -12.6000004      -5.93749121E-07
  -12.5900002      -4.73789015E-07
  -12.5799999      -3.60052923E-07
  -12.5699997      -2.17522839E-07
  -12.5600004       8.70559569E-10
  -12.5500002       3.41423117E-07
  -12.5400000       8.35065350E-07
  -12.5299997       1.48434253E-06
  -12.5200005       2.25512531E-06
  -12.5100002       3.07524533E-06
  -12.5000000       3.84079567E-06
  -12.4899998       4.42913961E-06
  -12.4799995       4.71617523E-06
  -12.4700003       4.59444072E-06
  -12.4600000       3.98842030E-06
  -12.4499998       2.86403088E-06
  -12.4399996       1.23057771E-06
  -12.4300003      -8.64849483E-07
  -12.4200001      -3.34881520E-06
  -12.4099998      -6.13571774E-06
  -12.3999996      -9.14103475E-06
  -12.3900003      -1.22901229E-05
  -12.3800001      -1.55202524E-05
  -12.3699999      -1.87752921E-05
  -12.3599997      -2.19945086E-05
  -12.3500004      -2.50987832E-05
  -12.3400002      -2.79786691E-05
  -12.3299999      -3.04887781E-05
  -12.3199997      -3.24519133E-05
  -12.3100004      -3.36741941E-05
  -12.3000002      -3.39697435E-05
  -12.2900000      -3.31907286E-05
  -12.2799997      -3.12565426E-05
  -12.2700005      -2.81753964E-05
  -12.2600002      -2.40521586E-05
  -12.2500000      -1.90793180E-05
  -12.2399998      -1.35111486E-05
  -12.2299995      -7.62538184E-06
  -12.2200003      -1.67987696E-06
  -12.2100000       4.12651116E-06
  -12.1999998       9.67999404E-06
  -12.1899996       1.49586103E-05
  -12.1800003       2.00178456E-05
  -12.1700001       2.49580498E-05
  -12.1599998       2.98814721E-05
  -12.1499996       3.48491340E-05
  -12.1400003       3.98484008E-05
  -12.1300001       4.47795428E-05
  -12.1199999       4.94650158E-05
  -12.1099997       5.36795560E-05
  -12.1000004       5.71938872E-05
  -12.0900002       5.98211373E-05
  -12.0799999       6.14544115E-05
  -12.0699997       6.20859864E-05
  -12.0600004       6.18033155E-05
  -12.0500002       6.07629918E-05
  -12.0400000       5.91495154E-05
  -12.0299997       5.71294877E-05
  -12.0200005       5.48133503E-05
  -12.0100002       5.22342307E-05
  -12.0000000       4.93493317E-05
  -11.9899998       4.60629199E-05
  -11.9799995       4.22645571E-05
  -11.9700003       3.78719815E-05
  -11.9600000       3.28669885E-05
  -11.9499998       2.73144578E-05
  -11.9399996       2.13593721E-05
  -11.9300003       1.52020984E-05
  -11.9200001       9.05821616E-06
  -11.9099998       3.11285908E-06
  -11.8999996      -2.51912434E-06
  -11.8900003      -7.81723702E-06
  -11.8800001      -1.28579777E-05
  -11.8699999      -1.77954789E-05
  -11.8599997      -2.28247900E-05
  -11.8500004      -2.81363664E-05
  -11.8400002      -3.38718855E-05
  -11.8299999      -4.00906320E-05
  -11.8199997      -4.67528007E-05
  -11.8100004      -5.37218148E-05
  -11.8000002      -6.07836701E-05
  -11.7900000      -6.76778072E-05
  -11.7799997      -7.41323820E-05
  -11.7700005      -7.98968249E-05
  -11.7600002      -8.47660267E-05
  -11.7500000      -8.85935442E-05
  -11.7399998      -9.12933101E-05
  -11.7299995      -9.28324007E-05
  -11.7200003      -9.32185867E-05
  -11.7100000      -9.24865526E-05
  -11.6999998      -9.06866189E-05
  -11.6899996      -8.78783176E-05
  -11.6800003      -8.41290675E-05
  -11.6700001      -7.95175802E-05
  -11.6599998      -7.41395052E-05
  -11.6499996      -6.81125239E-05
  -11.6400003      -6.15779209E-05
  -11.6300001      -5.46962037E-05
  -11.6199999      -4.76356581E-05
  -11.6099997      -4.05543651E-05
  -11.6000004      -3.35781406E-05
  -11.5900002      -2.67786309E-05
  -11.5799999      -2.01568073E-05
  -11.5699997      -1.36371355E-05
  -11.5600004      -7.07639629E-06
  -11.5500002      -2.88346484E-07
  -11.5400000       6.91812693E-06
  -11.5299997       1.46933771E-05
  -11.5200005       2.31029408E-05
  -11.5100002       3.20952240E-05
  -11.5000000       4.14897768E-05
  -11.4899998       5.09916317E-05
  -11.4799995       6.02311884E-05
  -11.4700003       6.88236178E-05
  -11.4600000       7.64358774E-05
  -11.4499998       8.28471966E-05
  -11.4399996       8.79887812E-05
  -11.4300003       9.19530867E-05
  -11.4200001       9.49696187E-05
  -11.4099998       9.73519927E-05
  -11.3999996       9.94284637E-05
  -11.3900003       1.01472040E-04
  -11.3800001       1.03646918E-04
  -11.3699999       1.05983476E-04
  -11.3599997       1.08387234E-04
  -11.3500004       1.10677931E-04
  -11.3400002       1.12647394E-04
  -11.3299999       1.14119728E-04
  -11.3199997       1.14997369E-04
  -11.3100004       1.15280491E-04
  -11.3000002       1.15054798E-04
  -11.2900000       1.14452152E-04
  -11.2799997       1.13595743E-04
  -11.2700005       1.12546164E-04
  -11.2600002       1.11264941E-04
  -11.2500000       1.09606495E-04
  -11.2399998       1.07342588E-04
  -11.2299995       1.04213192E-04
  -11.2200003       9.99914773E-05
  -11.2100000       9.45457214E-05
  -11.1999998       8.78822320E-05
  -11.1899996       8.01582355E-05
  -11.1800003       7.16620707E-05
  -11.1700001       6.27657573E-05
  -11.1599998       5.38625973E-05
  -11.1499996       4.53052635E-05
  -11.1400003       3.73585463E-05
  -11.1300001       3.01766649E-05
  -11.1199999       2.38071243E-05
  -11.1099997       1.82168351E-05
  -11.1000004       1.33301392E-05
  -11.0900002       9.06727382E-06
  -11.0799999       5.37290816E-06
  -11.0699997       2.22891617E-06
  -11.0600004      -3.48570268E-07
  -11.0500002      -2.32341563E-06
  -11.0400000      -3.65742699E-06
  -11.0299997      -4.32455454E-06
  -11.0200005      -4.31677245E-06
  -11.0100002      -3.64049356E-06
  -11.0000000      -2.30691649E-06
  -10.9899998      -3.21372653E-07
  -10.9799995       2.32256593E-06
  -10.9700003       5.64098445E-06
  -10.9600000       9.64954233E-06
  -10.9499998       1.43484722E-05
  -10.9399996       1.97079826E-05
  -10.9300003       2.56588082E-05
  -10.9200001       3.20909530E-05
  -10.9099998       3.88598783E-05
  -10.8999996       4.57968672E-05
  -10.8900003       5.27185257E-05
  -10.8800001       5.94313460E-05
  -10.8699999       6.57300843E-05
  -10.8599997       7.13925328E-05
  -10.8500004       7.61763877E-05
  -10.8400002       7.98249312E-05
  -10.8299999       8.20866553E-05
  -10.8199997       8.27491604E-05
  -10.8100004       8.16821994E-05
  -10.8000002       7.88791876E-05
  -10.7900000       7.44851714E-05
  -10.7799997       6.87999200E-05
  -10.7700005       6.22513471E-05
  -10.7600002       5.53415666E-05
  -10.7500000       4.85765013E-05
  -10.7399998       4.23947240E-05
  -10.7299995       3.71118695E-05
  -10.7200003       3.28928436E-05
  -10.7100000       2.97558327E-05
  -10.6999998       2.76031369E-05
  -10.6899996       2.62664253E-05
  -10.6800003       2.55517334E-05
  -10.6700001       2.52710597E-05
  -10.6599998       2.52547488E-05
  -10.6499996       2.53468825E-05
  -10.6400003       2.53929429E-05
  -10.6300001       2.52320042E-05
  -10.6199999       2.47027547E-05
  -10.6099997       2.36667238E-05
  -10.6000004       2.20424936E-05
  -10.5900002       1.98386642E-05
  -10.5799999       1.71707670E-05
  -10.5699997       1.42513154E-05
  -10.5600004       1.13510187E-05
  -10.5500002       8.74039688E-06
  -10.5400000       6.62910725E-06
  -10.5299997       5.12397810E-06
  -10.5200005       4.22125549E-06
  -10.5100002       3.83846327E-06
  -10.5000000       3.87589398E-06
  -10.4899998       4.28687645E-06
  -10.4799995       5.12957104E-06
  -10.4700003       6.57764167E-06
  -10.4600000       8.87995520E-06
  -10.4499998       1.22764413E-05
  -10.4399996       1.68952611E-05
  -10.4300003       2.26648463E-05
  -10.4200001       2.92740406E-05
  -10.4099998       3.62001738E-05
  -10.3999996       4.28048479E-05
  -10.3900003       4.84743869E-05
  -10.3800001       5.27662960E-05
  -10.3699999       5.55184160E-05
  -10.3599997       5.68866308E-05
  -10.3500004       5.72981990E-05
  -10.3400002       5.73322031E-05
  -10.3299999       5.75622325E-05
  -10.3199997       5.84070622E-05
  -10.3100004       6.00331514E-05
  -10.3000002       6.23356318E-05
  -10.2900000       6.50003785E-05
  -10.2799997       6.76228738E-05
  -10.2700005       6.98441436E-05
  -10.2600002       7.14587222E-05
  -10.2500000       7.24609490E-05
  -10.2399998       7.30178581E-05
  -10.2299995       7.33809793E-05
  -10.2200003       7.37708906E-05
  -10.2100000       7.42757620E-05
  -10.1999998       7.48000602E-05
  -10.1899996       7.50815016E-05
  -10.1800003       7.47712766E-05
  -10.1700001       7.35502254E-05
  -10.1599998       7.12428155E-05
  -10.1499996       6.78912547E-05
  -10.1400003       6.37653575E-05
  -10.1300001       5.93067780E-05
  -10.1199999       5.50252371E-05
  -10.1099997       5.13815648E-05
  -10.1000004       4.86931858E-05
  -10.0900002       4.70890263E-05
  -10.0799999       4.65237281E-05
  -10.0699997       4.68394646E-05
  -10.0600004       4.78498368E-05
  -10.0500002       4.94139167E-05
  -10.0400000       5.14752064E-05
  -10.0299997       5.40543151E-05
  -10.0200005       5.72029930E-05
  -10.0100002       6.09410854E-05
  -10.0000000       6.52043746E-05
  -9.98999977       6.98268195E-05
  -9.97999954       7.45669386E-05
  -9.97000027       7.91707425E-05
  -9.96000004       8.34488019E-05
  -9.94999981       8.73380413E-05
  -9.93999958       9.09223163E-05
  -9.93000031       9.44008134E-05
  -9.92000008       9.80106852E-05
  -9.90999985       1.01928868E-04
  -9.89999962       1.06187894E-04
  -9.89000034       1.10637666E-04
  -9.88000011       1.14972674E-04
  -9.86999989       1.18822107E-04
  -9.85999966       1.21878598E-04
  -9.85000038       1.24025551E-04
  -9.84000015       1.25420687E-04
  -9.82999992       1.26503190E-04
  -9.81999969       1.27914333E-04
  -9.81000042       1.30350207E-04
  -9.80000019       1.34384230E-04
  -9.78999996       1.40314034E-04
  -9.77999973       1.48078907E-04
  -9.77000046       1.57276794E-04
  -9.76000023       1.67281090E-04
  -9.75000000       1.77426031E-04
  -9.73999977       1.87207756E-04
  -9.72999954       1.96442285E-04
  -9.72000027       2.05332341E-04
  -9.71000004       2.14419168E-04
  -9.69999981       2.24431977E-04
  -9.68999958       2.36074644E-04
  -9.68000031       2.49808567E-04
  -9.67000008       2.65692535E-04
  -9.65999985       2.83321890E-04
  -9.64999962       3.01881984E-04
  -9.64000034       3.20297113E-04
  -9.63000011       3.37433739E-04
  -9.61999989       3.52300849E-04
  -9.60999966       3.64200037E-04
  -9.60000038       3.72792769E-04
  -9.59000015       3.78081459E-04
  -9.57999992       3.80322803E-04
  -9.56999969       3.79909266E-04
  -9.56000042       3.77253862E-04
  -9.55000019       3.72707378E-04
  -9.53999996       3.66517721E-04
  -9.52999973       3.58824647E-04
  -9.52000046       3.49675451E-04
  -9.51000023       3.39042192E-04
  -9.50000000       3.26832203E-04
  -9.48999977       3.12892633E-04
  -9.47999954       2.97019869E-04
  -9.47000027       2.78989202E-04
  -9.46000004       2.58610555E-04
  -9.44999981       2.35808140E-04
  -9.43999958       2.10704631E-04
  -9.43000031       1.83682787E-04
  -9.42000008       1.55400601E-04
  -9.40999985       1.26744548E-04
  -9.39999962       9.87242820E-05
  -9.39000034       7.23323974E-05
  -9.38000011       4.84059638E-05
  -9.36999989       2.75249076E-05
  -9.35999966       9.97410734E-06
  -9.35000038      -4.22444373E-06
  -9.34000015      -1.52254715E-05
  -9.32999992      -2.32499515E-05
  -9.31999969      -2.84853395E-05
  -9.31000042      -3.10226751E-05
  -9.30000019      -3.08404997E-05
  -9.28999996      -2.78307398E-05
  -9.27999973      -2.18436071E-05
  -9.27000046      -1.27335734E-05
  -9.26000023      -3.91415938E-07
  -9.25000000       1.52394214E-05
  -9.23999977       3.41514169E-05
  -9.22999954       5.62538735E-05
  -9.22000027       8.13394581E-05
  -9.21000004       1.09044260E-04
  -9.19999981       1.38821983E-04
  -9.18999958       1.69958046E-04
  -9.18000031       2.01644216E-04
  -9.17000008       2.33111597E-04
  -9.15999985       2.63793510E-04
  -9.14999962       2.93468242E-04
  -9.14000034       3.22324253E-04
  -9.13000011       3.50905117E-04
  -9.11999989       3.79929203E-04
  -9.10999966       4.10020992E-04
  -9.10000038       4.41432872E-04
  -9.09000015       4.73849563E-04
  -9.07999992       5.06352517E-04
  -9.06999969       5.37575339E-04
  -9.06000042       5.66018512E-04
  -9.05000019       5.90433425E-04
  -9.03999996       6.10153307E-04
  -9.02999973       6.25259709E-04
  -9.02000046       6.36519399E-04
  -9.01000023       6.45105378E-04
  -9.00000000       6.52187678E-04
  -8.98999977       6.58531033E-04
  -8.97999954       6.64239342E-04
  -8.97000027       6.68735534E-04
  -8.96000004       6.70991198E-04
  -8.94999981       6.69924135E-04
  -8.93999958       6.64823980E-04
  -8.93000031       6.55652373E-04
  -8.92000008       6.43101986E-04
  -8.90999985       6.28389127E-04
  -8.89999962       6.12849195E-04
  -8.89000034       5.97479055E-04
  -8.88000011       5.82594483E-04
  -8.86999989       5.67732612E-04
  -8.85999966       5.51841455E-04
  -8.85000038       5.33690443E-04
  -8.84000015       5.12359838E-04
  -8.82999992       4.87622659E-04
  -8.81999969       4.60079289E-04
  -8.81000042       4.30988235E-04
  -8.80000019       4.01850935E-04
  -8.78999996       3.73901799E-04
  -8.77999973       3.47694673E-04
  -8.77000046       3.22946144E-04
  -8.76000023       2.98699801E-04
  -8.75000000       2.73762154E-04
  -8.73999977       2.47249176E-04
  -8.72999954       2.19043039E-04
  -8.72000027       1.89984014E-04
  -8.71000004       1.61714474E-04
  -8.69999981       1.36225033E-04
  -8.68999958       1.15264920E-04
  -8.68000031       9.98308315E-05
  -8.67000008       8.99277293E-05
  -8.65999985       8.46975090E-05
  -8.64999962       8.28697957E-05
  -8.64000034       8.33726735E-05
  -8.63000011       8.58655549E-05
  -8.61999989       9.09874652E-05
  -8.60999966       1.00204867E-04
  -8.60000038       1.15294759E-04
  -8.59000015       1.37637442E-04
  -8.57999992       1.67572813E-04
  -8.56999969       2.04065829E-04
  -8.56000042       2.44820199E-04
  -8.55000019       2.86830938E-04
  -8.53999996       3.27206420E-04
  -8.52999973       3.63983243E-04
  -8.52000046       3.96660587E-04
  -8.51000023       4.26261453E-04
  -8.50000000       4.54895839E-04
  -8.48999977       4.84962802E-04
  -8.47999954       5.18263550E-04
  -8.47000027       5.55323262E-04
  -8.46000004       5.95149468E-04
  -8.44999981       6.35508972E-04
  -8.43999958       6.73621602E-04
  -8.43000031       7.07032101E-04
  -8.42000008       7.34362868E-04
  -8.40999985       7.55691726E-04
  -8.39999962       7.72436615E-04
  -8.39000034       7.86795048E-04
  -8.38000011       8.00941547E-04
  -8.36999989       8.16263491E-04
  -8.35999966       8.32893245E-04
  -8.35000038       8.49690347E-04
  -8.34000015       8.64666246E-04
  -8.32999992       8.75691185E-04
  -8.31999969       8.81233311E-04
  -8.31000042       8.80874868E-04
  -8.30000019       8.75433907E-04
  -8.28999996       8.66663933E-04
  -8.27999973       8.56646046E-04
  -8.27000046       8.47097486E-04
  -8.26000023       8.38833686E-04
  -8.25000000       8.31570535E-04
  -8.23999977       8.24124669E-04
  -8.22999954       8.14933504E-04
  -8.22000027       8.02711293E-04
  -8.21000004       7.87013560E-04
  -8.19999981       7.68517843E-04
  -8.18999958       7.48933177E-04
  -8.18000031       7.30565866E-04
  -8.17000008       7.15689268E-04
  -8.15999985       7.05920160E-04
  -8.14999962       7.01794750E-04
  -8.14000034       7.02669320E-04
  -8.13000011       7.06961553E-04
  -8.11999989       7.12643901E-04
  -8.10999966       7.17828691E-04
  -8.10000038       7.21267425E-04
  -8.09000015       7.22619938E-04
  -8.07999992       7.22438272E-04
  -8.06999969       7.21889490E-04
  -8.06000042       7.22326629E-04
  -8.05000019       7.24847720E-04
  -8.03999996       7.29982334E-04
  -8.02999973       7.37584312E-04
  -8.02000046       7.46953243E-04
  -8.01000023       7.57122121E-04
  -8.00000000       7.67215737E-04
  -7.98999977       7.76756147E-04
  -7.98000002       7.85822922E-04
  -7.96999979       7.95026601E-04
  -7.96000004       8.05298332E-04
  -7.94999981       8.17580498E-04
  -7.94000006       8.32501450E-04
  -7.92999983       8.50146753E-04
  -7.92000008       8.69994401E-04
  -7.90999985       8.91044212E-04
  -7.90000010       9.12095129E-04
  -7.88999987       9.32102150E-04
  -7.88000011       9.50502639E-04
  -7.86999989       9.67408530E-04
  -7.86000013       9.83610633E-04
  -7.84999990       1.00037351E-03
  -7.84000015       1.01908471E-03
  -7.82999992       1.04085018E-03
  -7.82000017       1.06615084E-03
  -7.80999994       1.09466712E-03
  -7.80000019       1.12532347E-03
  -7.78999996       1.15654152E-03
  -7.78000021       1.18663337E-03
  -7.76999998       1.21421868E-03
  -7.76000023       1.23853923E-03
  -7.75000000       1.25958410E-03
  -7.73999977       1.27798866E-03
  -7.73000002       1.29474211E-03
  -7.71999979       1.31080172E-03
  -7.71000004       1.32674025E-03
  -7.69999981       1.34253735E-03
  -7.69000006       1.35758112E-03
  -7.67999983       1.37088716E-03
  -7.67000008       1.38145138E-03
  -7.65999985       1.38863141E-03
  -7.65000010       1.39243132E-03
  -7.63999987       1.39359152E-03
  -7.63000011       1.39346148E-03
  -7.61999989       1.39368256E-03
  -7.61000013       1.39577966E-03
  -7.59999990       1.40077888E-03
  -7.59000015       1.40895846E-03
  -7.57999992       1.41980231E-03
  -7.57000017       1.43215468E-03
  -7.55999994       1.44453137E-03
  -7.55000019       1.45548896E-03
  -7.53999996       1.46396121E-03
  -7.53000021       1.46947952E-03
  -7.51999998       1.47224136E-03
  -7.51000023       1.47302228E-03
  -7.50000000       1.47298758E-03
  -7.48999977       1.47344952E-03
  -7.48000002       1.47564407E-03
  -7.46999979       1.48055179E-03
  -7.46000004       1.48880482E-03
  -7.44999981       1.50066265E-03
  -7.44000006       1.51605974E-03