  -16.0000000       0.00000000    
  -15.9899998       0.00000000    
  -15.9799995       0.00000000    
  -15.9700003       0.00000000    
  -15.9600000       0.00000000    
  -15.9499998       0.00000000    
  -15.9399996       0.00000000    
  -15.9300003       0.00000000    
  -15.9200001       0.00000000    
  -15.9099998       0.00000000    
  -15.8999996       0.00000000    
  -15.8900003       0.00000000    
  -15.8800001       0.00000000    
  -15.8699999       0.00000000    
  -15.8599997      -1.40129846E-45
  -15.8500004      -1.82168800E-44
  -15.8400002      -1.83570099E-43
  -15.8299999      -1.42792314E-42
  -15.8199997      -9.02716471E-42
  -15.8100004      -4.83952438E-41
  -15.8000002      -2.25484337E-40
  -15.7900000      -9.29357957E-40
  -15.7799997      -3.43358341E-39
  -15.7700005      -1.14865696E-38
  -15.7600002      -3.50674941E-38
  -15.7500000      -9.82936548E-38
  -15.7399998      -2.54135947E-37
  -15.7299995      -6.08130216E-37
  -15.7200003      -1.34979310E-36
  -15.7100000      -2.78146885E-36
  -15.6999998      -5.31804363E-36
  -15.6899996      -9.40894908E-36
  -15.6800003      -1.53148102E-35
  -15.6700001      -2.26742400E-35
  -15.6599998      -2.98501953E-35
  -15.6499996      -3.31801389E-35
  -15.6400003      -2.64801540E-35
  -15.6300001      -1.43354815E-36
  -15.6199999       5.02912529E-35
  -15.6099997       1.32418601E-34
  -15.6000004       2.36812911E-34
  -15.5900002       3.34967447E-34
  -15.5799999       3.71986220E-34
  -15.5699997       2.69552059E-34
  -15.5600004      -5.39500422E-35
  -15.5500002      -6.39804999E-34
  -15.5400000      -1.42376004E-33
  -15.5299997      -2.16769993E-33
  -15.5200005      -2.42934954E-33
  -15.5100002      -1.63059911E-33
  -15.5000000       7.16843684E-34
  -15.4899998       4.61590073E-33
  -15.4799995       9.11186136E-33
  -15.4700003       1.19888566E-32
  -15.4600000       1.00163337E-32
  -15.4499998       1.27830878E-34
  -15.4399996      -1.83608221E-32
  -15.4300003      -4.10177440E-32
  -15.4200001      -5.64522875E-32
  -15.4099998      -4.75098200E-32
  -15.3999996       2.42519913E-33
  -15.3900003       9.75588959E-32
  -15.3800001       2.15232169E-31
  -15.3699999       2.96384067E-31
  -15.3599997       2.51876278E-31
  -15.3500004      -5.35684090E-33
  -15.3400002      -5.00924645E-31
  -15.3299999      -1.12776900E-30
  -15.3199997      -1.59932514E-30
  -15.3100004      -1.47763477E-30
  -15.3000002      -3.20485534E-31
  -15.2900000       2.04798180E-30
  -15.2799997       5.21200541E-30
  -15.2700005       7.93962363E-30
  -15.2600002       8.27071054E-30
  -15.2500000       4.10011715E-30
  -15.2399998      -5.72007062E-30
  -15.2299995      -2.00185778E-29
  -15.2200003      -3.42710025E-29
  -15.2100000      -4.06963803E-29
  -15.1999998      -3.01945461E-29
  -15.1899996       3.70696112E-30
  -15.1800003       5.96969371E-29
  -15.1700001       1.24249649E-28
  -15.1599998       1.70645867E-28
  -15.1499996       1.64023232E-28
  -15.1400003       7.34974589E-29
  -15.1300001      -1.10492864E-28
  -15.1199999      -3.58997771E-28
  -15.1099997      -5.95705539E-28
  -15.1000004      -7.05011934E-28
  -15.0900002      -5.62292147E-28
  -15.0799999      -8.44280984E-29
  -15.0699997       7.11090458E-28
  -15.0600004       1.65943478E-27
  -15.0500002       2.43979078E-27
  -15.0400000       2.62721612E-27
  -15.0299997       1.81392421E-27
  -15.0200005      -2.13789563E-28
  -15.0100002      -3.28474401E-27
  -15.0000000      -6.70577452E-27
  -14.9899998      -9.26013541E-27
  -14.9799995      -9.41520204E-27
  -14.9700003      -5.77371302E-27
  -14.9600000       2.27311021E-27
  -14.9499998       1.38389221E-26
  -14.9399996       2.60456911E-26
  -14.9300003       3.40809913E-26
  -14.9200001       3.21347882E-26
  -14.9099998       1.53603775E-26
  -14.8999996      -1.73739635E-26
  -14.8900003      -6.07094226E-26
  -14.8800001      -1.01294097E-25
  -14.8699999      -1.19104759E-25
  -14.8599997      -9.27893695E-26
  -14.8500004      -9.02226303E-27
  -14.8400002       1.26153379E-25
  -14.8299999       2.78348436E-25
  -14.8199997       3.84203142E-25
  -14.8100004       3.64723011E-25
  -14.8000002       1.54693923E-25
  -14.7900000      -2.56506234E-25
  -14.7799997      -7.86072726E-25
  -14.7700005      -1.24159015E-24
  -14.7600002      -1.34948739E-24
  -14.7500000      -8.41185753E-25
  -14.7399998       4.10889123E-25
  -14.7299995       2.24460904E-24
  -14.7200003       4.11219740E-24
  -14.7100000       5.11493703E-24
  -14.6999998       4.22814378E-24
  -14.6899996       7.18413999E-25
  -14.6800003      -5.33552147E-24
  -14.6700001      -1.26059286E-23
  -14.6599998      -1.84148518E-23
  -14.6499996      -1.92015623E-23
  -14.6400003      -1.16545782E-23
  -14.6300001       5.64851111E-24
  -14.6199999       3.05629169E-23
  -14.6099997       5.63896834E-23
  -14.6000004       7.23752113E-23
  -14.5900002       6.62382016E-23
  -14.5799999       2.86491467E-23
  -14.5699997      -4.12923088E-23
  -14.5600004      -1.31423356E-22
  -14.5500002      -2.15085109E-22
  -14.5400000      -2.55004677E-22
  -14.5299997      -2.13371022E-22
  -14.5200005      -6.68261806E-23
  -14.5100002       1.77474531E-22
  -14.5000000       4.70706158E-22
  -14.4899998       7.22691404E-22
  -14.4799995       8.18510514E-22
  -14.4700003       6.51813981E-22
  -14.4600000       1.68917662E-22
  -14.4499998      -5.88791340E-22
  -14.4399996      -1.46090527E-21
  -14.4300003      -2.17879313E-21
  -14.4200001      -2.42063360E-21
  -14.4099998      -1.90724464E-21
  -14.3999996      -5.18951276E-22
  -14.3900003       1.60113328E-21
  -14.3800001       3.99948692E-21
  -14.3699999       5.95696743E-21
  -14.3599997       6.64249175E-21
  -14.3500004       5.35918242E-21
  -14.3400002       1.82871862E-21
  -14.3299999      -3.57129938E-21
  -14.3199997      -9.71324670E-21
  -14.3100004      -1.48460664E-20
  -14.3000002      -1.69694035E-20
  -14.2900000      -1.44070257E-20
  -14.2799997      -6.45097642E-21
  -14.2700005       6.11281909E-21
  -14.2600002       2.08021416E-20
  -14.2500000       3.37162307E-20
  -14.2399998       4.03402575E-20
  -14.2299995       3.67678583E-20
  -14.2200003       2.10733551E-20
  -14.2100000      -5.55112387E-21
  -14.1999998      -3.83033770E-20
  -14.1899996      -6.92378607E-20
  -14.1800003      -8.87918675E-20
  -14.1700001      -8.81775373E-20
  -14.1599998      -6.21433911E-20
  -14.1499996      -1.13843131E-20
  -14.1400003       5.61799746E-20
  -14.1300001       1.25887467E-19
  -14.1199999       1.78840016E-19
  -14.1099997       1.96176649E-19
  -14.1000004       1.64311570E-19
  -14.0900002       7.98907644E-20
  -14.0799999      -4.69542774E-20
  -14.0699997      -1.92305353E-19
  -14.0600004      -3.21809473E-19
  -14.0500002      -3.97541529E-19
  -14.0400000      -3.87269161E-19
  -14.0299997      -2.74152238E-19
  -14.0200005      -6.44151134E-20
  -14.0100002       2.09422318E-19
  -14.0000000       4.91476909E-19
  -13.9899998       7.12042138E-19
  -13.9799995       8.02562839E-19
  -13.9700003       7.13243979E-19
  -13.9600000       4.29287945E-19
  -13.9499998      -1.86401742E-20
  -13.9399996      -5.53446902E-19
  -13.9300003      -1.06212234E-18
  -13.9200001      -1.41711507E-18
  -13.9099998      -1.50506826E-18
  -13.8999996      -1.25692317E-18
  -13.8900003      -6.72037874E-19
  -13.8800001       1.70696332E-19
  -13.8699999       1.11953147E-18
  -13.8599997       1.97527008E-18
  -13.8500004       2.53164293E-18
  -13.8400002       2.62256497E-18
  -13.8299999       2.16529022E-18
  -13.8199997       1.18833625E-18
  -13.8100004      -1.64248847E-19
  -13.8000002      -1.65533937E-18
  -13.7900000      -3.00016071E-18
  -13.7799997      -3.92463948E-18
  -13.7700005      -4.22267886E-18
  -13.7600002      -3.79812055E-18
  -13.7500000      -2.68118912E-18
  -13.7399998      -1.01661335E-18
  -13.7299995       9.70955873E-19
  -13.7200003       3.02165500E-18
  -13.7100000       4.88008768E-18
  -13.6999998       6.31784753E-18
  -13.6899996       7.13514581E-18
  -13.6800003       7.14866277E-18
  -13.6700001       6.18230075E-18
  -13.6599998       4.08099605E-18
  -13.6499996       7.62249209E-19
  -13.6400003      -3.69457946E-18
  -13.6300001      -8.94202343E-18
  -13.6199999      -1.42818556E-17
  -13.6099997      -1.86565574E-17
  -13.6000004      -2.07600910E-17
  -13.5900002      -1.92864538E-17
  -13.5799999      -1.32926642E-17
  -13.5699997      -2.60314773E-18
  -13.5600004       1.18566721E-17
  -13.5500002       2.79260840E-17
  -13.5400000       4.23793579E-17
  -13.5299997       5.14439273E-17
  -13.5200005       5.16168279E-17
  -13.5100002       4.06284647E-17
  -13.5000000       1.83222871E-17
  -13.4899998      -1.28111715E-17
  -13.4799995      -4.76667791E-17
  -13.4700003      -7.92338508E-17
  -13.4600000      -9.99256679E-17
  -13.4499998      -1.03295761E-16
  -13.4399996      -8.57633697E-17
  -13.4300003      -4.79078559E-17
  -13.4200001       5.05840011E-18
  -13.4099998       6.38693481E-17
  -13.3999996       1.16828144E-16
  -13.3900003       1.52194417E-16
  -13.3800001       1.60842398E-16
  -13.3699999       1.38577647E-16
  -13.3599997       8.75322061E-17
  -13.3500004       1.62338976E-17
  -13.3400002      -6.17698777E-17
  -13.3299999      -1.30531840E-16
  -13.3199997      -1.75070434E-16
  -13.3100004      -1.84794703E-16
  -13.3000002      -1.56251016E-16
  -13.2900000      -9.45526799E-17
  -13.2799997      -1.30639595E-17
  -13.2700005       6.87780231E-17
  -13.2600002       1.29296602E-16
  -13.2500000       1.49516615E-16
  -13.2399998       1.18377142E-16
  -13.2299995       3.71552988E-17
  -13.2200003      -7.80623844E-17
  -13.2100000      -1.96941526E-16
  -13.1999998      -2.79239208E-16
  -13.1899996      -2.83014248E-16
  -13.1800003      -1.75872998E-16
  -13.1700001       5.26944921E-17
  -13.1599998       3.80843166E-16
  -13.1499996       7.49304456E-16
  -13.1400003       1.06503371E-15
  -13.1300001       1.21559286E-15
  -13.1199999       1.09391330E-15
  -13.1099997       6.29940362E-16
  -13.1000004      -1.77515964E-16
  -13.0900002      -1.23766771E-15
  -13.0799999      -2.36267686E-15
  -13.0699997      -3.28762604E-15
  -13.0600004      -3.71749547E-15
  -13.0500002      -3.39599480E-15
  -13.0400000      -2.18349657E-15
  -13.0299997      -1.25249319E-16
  -13.0200005       2.51114331E-15
  -13.0100002       5.24693162E-15
  -13.0000000       7.46100755E-15
  -12.9899998       8.51168332E-15
  -12.9799995       7.89147986E-15
  -12.9700003       5.38174157E-15
  -12.9600000       1.16700218E-15
  -12.9499998      -4.12841444E-15
  -12.9399996      -9.50590094E-15
  -12.9300003      -1.37624355E-14
  -12.9200001      -1.57405301E-14
  -12.9099998      -1.46093464E-14
  -12.8999996      -1.01123791E-14
  -12.8900003      -2.71583073E-15
  -12.8800001       6.39269953E-15
  -12.8699999       1.54749667E-14
  -12.8599997       2.25626182E-14
  -12.8500004       2.58687640E-14
  -12.8400002       2.42033143E-14
  -12.8299999       1.72953421E-14
  -12.8199997       5.93960636E-15
  -12.8100004      -8.08004125E-15
  -12.8000002      -2.22877611E-14
  -12.7900000      -3.39783608E-14
  -12.7799997      -4.07487730E-14
  -12.7700005      -4.09822052E-14
  -12.7600002      -3.41770781E-14
  -12.7500000      -2.10482656E-14
  -12.7399998      -3.38153044E-15
  -12.7299995       1.63191485E-14
  -12.7200003       3.53039233E-14
  -12.7100000       5.10564627E-14
  -12.6999998       6.16727264E-14
  -12.6899996       6.60638401E-14
  -12.6800003       6.39590038E-14
  -12.6700001       5.57391386E-14
  -12.6599998       4.21746310E-14
  -12.6499996       2.41598818E-14
  -12.6400003       2.52757046E-15
  -12.6300001      -2.20076592E-14
  -12.6199999      -4.87732108E-14
  -12.6099997      -7.69705886E-14
  -12.6000004      -1.05482870E-13
  -12.5900002      -1.32726417E-13
  -12.5799999      -1.56593393E-13
  -12.5699997      -1.74493978E-13
  -12.5600004      -1.83469979E-13
  -12.5500002      -1.80331864E-13
  -12.5400000      -1.61777913E-13
  -12.5299997      -1.24485302E-13
  -12.5200005      -6.52179387E-14
  -12.5100002       1.89618320E-14
  -12.5000000       1.30267013E-13
  -12.4899998       2.69452402E-13
  -12.4799995       4.34752196E-13
  -12.4700003       6.20569676E-13
  -12.4600000       8.16115784E-13
  -12.4499998       1.00427815E-12
  -12.4399996       1.16104142E-12
  -12.4300003       1.25572664E-12
  -12.4200001       1.25219225E-12
  -12.4099998       1.11097145E-12
  -12.3999996       7.92106018E-13
  -12.3900003       2.58314637E-13
  -12.3800001      -5.21950864E-13
  -12.3699999      -1.57193160E-12
  -12.3599997      -2.90472290E-12
  -12.3500004      -4.52220162E-12
  -12.3400002      -6.41451128E-12
  -12.3299999      -8.55979697E-12
  -12.3199997      -1.09238365E-11
  -12.3100004      -1.34593300E-11
  -12.3000002      -1.61049125E-11
  -12.2900000      -1.87841687E-11
  -12.2799997      -2.14052526E-11
  -12.2700005      -2.38618066E-11
  -12.2600002      -2.60357777E-11
  -12.2500000      -2.78025051E-11
  -12.2399998      -2.90378416E-11
  -12.2299995      -2.96267004E-11
  -12.2200003      -2.94719388E-11
  -12.2100000      -2.85020844E-11
  -12.1999998      -2.66766435E-11
  -12.1899996      -2.39880407E-11
  -12.1800003      -2.04598196E-11
  -12.1700001      -1.61415360E-11
  -12.1599998      -1.11013889E-11
  -12.1499996      -5.41825439E-12
  -12.1400003       8.25352699E-13
  -12.1300001       7.54784256E-12
  -12.1199999       1.46701019E-11
  -12.1099997       2.21139461E-11
  -12.1000004       2.97984137E-11
  -12.0900002       3.76353740E-11
  -12.0799999       4.55259858E-11
  -12.0699997       5.33596431E-11
  -12.0600004       6.10160394E-11
  -12.0500002       6.83704482E-11
  -12.0400000       7.53014109E-11
  -12.0299997       8.16991752E-11
  -12.0200005       8.74732509E-11
  -12.0100002       9.25572674E-11
  -12.0000000       9.69101535E-11
  -11.9899998       1.00512952E-10
  -11.9799995       1.03362242E-10
  -11.9700003       1.05460807E-10
  -11.9600000       1.06807771E-10
  -11.9499998       1.07389410E-10
  -11.9399996       1.07172618E-10
  -11.9300003       1.06101711E-10
  -11.9200001       1.04098716E-10
  -11.9099998       1.01067620E-10
  -11.8999996       9.69010219E-11
  -11.8900003       9.14892814E-11
  -11.8800001       8.47301534E-11
  -11.8699999       7.65387892E-11
  -11.8599997       6.68569297E-11
  -11.8500004       5.56604589E-11
  -11.8400002       4.29650690E-11
  -11.8299999       2.88286443E-11
  -11.8199997       1.33509913E-11
  -11.8100004      -3.33014063E-12
  -11.8000002      -2.10461908E-11
  -11.7900000      -3.96069531E-11
  -11.7799997      -5.88116014E-11
  -11.7700005      -7.84589269E-11
  -11.7600002      -9.83559831E-11
  -11.7500000      -1.18323740E-10
  -11.7399998      -1.38198675E-10
  -11.7299995      -1.57830984E-10
  -11.7200003      -1.77079948E-10
  -11.7100000      -1.95808245E-10
  -11.6999998      -2.13877027E-10
  -11.6899996      -2.31143354E-10
  -11.6800003      -2.47460941E-10
  -11.6700001      -2.62683791E-10
  -11.6599998      -2.76672130E-10
  -11.6499996      -2.89298113E-10
  -11.6400003      -3.00449471E-10
  -11.6300001      -3.10029502E-10
  -11.6199999      -3.17952442E-10
  -11.6099997      -3.24133997E-10
  -11.6000004      -3.28480743E-10
  -11.5900002      -3.30879213E-10
  -11.5799999      -3.31188882E-10
  -11.5699997      -3.29242134E-10
  -11.5600004      -3.24851313E-10
  -11.5500002      -3.17824517E-10
  -11.5400000      -3.07985859E-10
  -11.5299997      -2.95198255E-10
  -11.5200005      -2.79383489E-10
  -11.5100002      -2.60535260E-10
  -11.5000000      -2.38722236E-10
  -11.4899998      -2.14078769E-10
  -11.4799995      -1.86785823E-10
  -11.4700003      -1.57044155E-10
  -11.4600000      -1.25042324E-10
  -11.4499998      -9.09298400E-11
  -11.4399996      -5.47948562E-11
  -11.4300003      -1.66554444E-11
  -11.4200001       2.35370282E-11
  -11.4099998       6.58811616E-11
  -11.3999996       1.10497424E-10
  -11.3900003       1.57495170E-10
  -11.3800001       2.06939216E-10
  -11.3699999       2.58820854E-10
  -11.3599997       3.13040621E-10
  -11.3500004       3.69404618E-10
  -11.3400002       4.27635094E-10
  -11.3299999       4.87396179E-10
  -11.3199997       5.48326107E-10
  -11.3100004       6.10075490E-10
  -11.3000002       6.72341738E-10
  -11.2900000       7.34893479E-10
  -11.2799997       7.97583832E-10
  -11.2700005       8.60345739E-10
  -11.2600002       9.23175092E-10
  -11.2500000       9.86100979E-10
  -11.2399998       1.04915365E-09
  -11.2299995       1.11233067E-09
  -11.2200003       1.17557364E-09
  -11.2100000       1.23875399E-09
  -11.1999998       1.30167310E-09
  -11.1899996       1.36407485E-09
  -11.1800003       1.42566670E-09
  -11.1700001       1.48614676E-09
  -11.1599998       1.54522795E-09
  -11.1499996       1.60266211E-09
  -11.1400003       1.65825509E-09
  -11.1300001       1.71187686E-09
  -11.1199999       1.76346582E-09
  -11.1099997       1.81302806E-09
  -11.1000004       1.86063687E-09
  -11.0900002       1.90642058E-09
  -11.0799999       1.95055905E-09
  -11.0699997       1.99326555E-09
  -11.0600004       2.03477479E-09
  -11.0500002       2.07532236E-09
  -11.0400000       2.11512030E-09
  -11.0299997       2.15434803E-09
  -11.0200005       2.19313345E-09
  -11.0100002       2.23155672E-09
  -11.0000000       2.26965091E-09
  -10.9899998       2.30742114E-09
  -10.9799995       2.34486430E-09
  -10.9700003       2.38197795E-09
  -10.9600000       2.41877740E-09
  -10.9499998       2.45528020E-09
  -10.9399996       2.49152010E-09
  -10.9300003       2.52750243E-09
  -10.9200001       2.56320787E-09
  -10.9099998       2.59857824E-09
  -10.8999996       2.63352407E-09
  -10.8900003       2.66794076E-09
  -10.8800001       2.70174016E-09
  -10.8699999       2.73488832E-09
  -10.8599997       2.76742540E-09
  -10.8500004       2.79948131E-09
  -10.8400002       2.83125035E-09
  -10.8299999       2.86295543E-09
  -10.8199997       2.89479174E-09
  -10.8100004       2.92687097E-09
  -10.8000002       2.95917046E-09
  -10.7900000       2.99151393E-09
  -10.7799997       3.02358583E-09
  -10.7700005       3.05498671E-09
  -10.7600002       3.08529535E-09
  -10.7500000       3.11415160E-09
  -10.7399998       3.14133430E-09
  -10.7299995       3.16678550E-09
  -10.7200003       3.19061910E-09
  -10.7100000       3.21308002E-09
  -10.6999998       3.23448290E-09
  -10.6899996       3.25512328E-09
  -10.6800003       3.27522032E-09
  -10.6700001       3.29485861E-09
  -10.6599998       3.31398464E-09
  -10.6499996       3.33242878E-09
  -10.6400003       3.34996364E-09
  -10.6300001       3.36635031E-09
  -10.6199999       3.38143047E-09
  -10.6099997       3.39512529E-09
  -10.6000004       3.40747519E-09
  -10.5900002       3.41862649E-09
  -10.5799999       3.42878104E-09
  -10.5699997       3.43817086E-09
  -10.5600004       3.44701889E-09
  -10.5500002       3.45552964E-09
  -10.5400000       3.46389206E-09
  -10.5299997       3.47228490E-09
  -10.5200005       3.48090068E-09
  -10.5100002       3.48998630E-09
  -10.5000000       3.49980556E-09
  -10.4899998       3.51066975E-09
  -10.4799995       3.52285223E-09
  -10.4700003       3.53658391E-09
  -10.4600000       3.55197738E-09
  -10.4499998       3.56900709E-09
  -10.4399996       3.58751606E-09
  -10.4300003       3.60722163E-09
  -10.4200001       3.62778141E-09
  -10.4099998       3.64885500E-09
  -10.3999996       3.67019570E-09
  -10.3900003       3.69168629E-09
  -10.3800001       3.71338560E-09
  -10.3699999       3.73549769E-09
  -10.3599997       3.75833897E-09
  -10.3500004       3.78227982E-09
  -10.3400002       3.80763776E-09
  -10.3299999       3.83461041E-09
  -10.3199997       3.86322663E-09
  -10.3100004       3.89335719E-09
  -10.3000002       3.92473565E-09
  -10.2900000       3.95701649E-09
  -10.2799997       3.98989419E-09
  -10.2700005       4.02316358E-09
  -10.2600002       4.05677092E-09
  -10.2500000       4.09084722E-09
  -10.2399998       4.12569667E-09
  -10.2299995       4.16173318E-09
  -10.2200003       4.19937152E-09
  -10.2100000       4.23899049E-09
  -10.1999998       4.28085256E-09
  -10.1899996       4.32504832E-09
  -10.1800003       4.37154091E-09
  -10.1700001       4.42017667E-09
  -10.1599998       4.47075355E-09
  -10.1499996       4.52308768E-09
  -10.1400003       4.57705251E-09
  -10.1300001       4.63261518E-09
  -10.1199999       4.68985561E-09
  -10.1099997       4.74892614E-09
  -10.1000004       4.81000439E-09
  -10.0900002       4.87329954E-09
  -10.0799999       4.93899144E-09
  -10.0699997       5.00723329E-09
  -10.0600004       5.07818054E-09
  -10.0500002       5.15194198E-09
  -10.0400000       5.22863663E-09
  -10.0299997       5.30839417E-09
  -10.0200005       5.39135137E-09
  -10.0100002       5.47761703E-09
  -10.0000000       5.56726798E-09
  -9.98999977       5.66035663E-09
  -9.97999954       5.75690118E-09
  -9.97000027       5.85688431E-09
  -9.96000004       5.96030025E-09
  -9.94999981       6.06718453E-09
  -9.93999958       6.17764595E-09
  -9.93000031       6.29186747E-09
  -9.92000008       6.41010711E-09
  -9.90999985       6.53264776E-09
  -9.89999962       6.65974298E-09
  -9.89000034       6.79159307E-09
  -9.88000011       6.92828284E-09
  -9.86999989       7.06974967E-09
  -9.85999966       7.21581817E-09
  -9.85000038       7.36625161E-09
  -9.84000015       7.52077511E-09
  -9.82999992       7.67918706E-09
  -9.81999969       7.84136400E-09
  -9.81000042       8.00735922E-09
  -9.80000019       8.17735391E-09
  -9.78999996       8.35164560E-09
  -9.77999973       8.53055759E-09
  -9.77000046       8.71443540E-09
  -9.76000023       8.90353125E-09
  -9.75000000       9.09802012E-09
  -9.73999977       9.29797928E-09
  -9.72999954       9.50344070E-09
  -9.72000027       9.71445946E-09
  -9.71000004       9.93117677E-09
  -9.69999981       1.01538404E-08
  -9.68999958       1.03828430E-08
  -9.68000031       1.06186837E-08
  -9.67000008       1.08618901E-08
  -9.65999985       1.11129612E-08
  -9.64999962       1.13722765E-08
  -9.64000034       1.16399690E-08
  -9.63000011       1.19159607E-08
  -9.61999989       1.21999060E-08
  -9.60999966       1.24912516E-08
  -9.60000038       1.27892310E-08
  -9.59000015       1.30929116E-08
  -9.57999992       1.34012756E-08
  -9.56999969       1.37131027E-08
  -9.56000042       1.40270071E-08
  -9.55000019       1.43414809E-08
  -9.53999996       1.46547556E-08
  -9.52999973       1.49650319E-08
  -9.52000046       1.52704160E-08
  -9.51000023       1.55691051E-08
  -9.50000000       1.58594009E-08
  -9.48999977       1.61398113E-08
  -9.47999954       1.64091798E-08
  -9.47000027       1.66664904E-08
  -9.46000004       1.69109899E-08
  -9.44999981       1.71420016E-08
  -9.43999958       1.73589196E-08
  -9.43000031       1.75611969E-08
  -9.42000008       1.77483894E-08
  -9.40999985       1.79202608E-08
  -9.39999962       1.80769160E-08
  -9.39000034       1.82188007E-08
  -9.38000011       1.83468831E-08
  -9.36999989       1.84625613E-08
  -9.35999966       1.85675813E-08
  -9.35000038       1.86639859E-08
  -9.34000015       1.87538856E-08
  -9.32999992       1.88395060E-08
  -9.31999969       1.89230267E-08
  -9.31000042       1.90067073E-08
  -9.30000019       1.90928819E-08
  -9.28999996       1.91840268E-08
  -9.27999973       1.92828402E-08
  -9.27000046       1.93922229E-08
  -9.26000023       1.95151326E-08
  -9.25000000       1.96545145E-08
  -9.23999977       1.98131413E-08
  -9.22999954       1.99935517E-08
  -9.22000027       2.01979358E-08
  -9.21000004       2.04282209E-08
  -9.19999981       2.06861284E-08
  -9.18999958       2.09731716E-08
  -9.18000031       2.12908020E-08
  -9.17000008       2.16402913E-08
  -9.15999985       2.20226486E-08
  -9.14999962       2.24385541E-08
  -9.14000034       2.28881465E-08
  -9.13000011       2.33711663E-08
  -9.11999989       2.38867024E-08
  -9.10999966       2.44335610E-08
  -9.10000038       2.50102978E-08
  -9.09000015       2.56154511E-08
  -9.07999992       2.62476405E-08
  -9.06999969       2.69055871E-08
  -9.06000042       2.75879959E-08
  -9.05000019       2.82934707E-08
  -9.03999996       2.90202404E-08
  -9.02999973       2.97659426E-08
  -9.02000046       3.05278256E-08
  -9.01000023       3.13025410E-08
  -9.00000000       3.20865041E-08
  -8.98999977       3.28760805E-08
  -8.97999954       3.36676749E-08
  -8.97000027       3.44578233E-08
  -8.96000004       3.52434988E-08
  -8.94999981       3.60216212E-08
  -8.93999958       3.67892135E-08
  -8.93000031       3.75430993E-08
  -8.92000008       3.82799357E-08
  -8.90999985       3.89963297E-08
  -8.89999962       3.96887998E-08
  -8.89000034       4.03542550E-08
  -8.88000011       4.09898995E-08
  -8.86999989       4.15935091E-08
  -8.85999966       4.21633075E-08
  -8.85000038       4.26979057E-08
  -8.84000015       4.31961382E-08
  -8.82999992       4.36569074E-08
  -8.81999969       4.40791439E-08
  -8.81000042       4.44618813E-08
  -8.80000019       4.48043558E-08
  -8.78999996       4.51059492E-08
  -8.77999973       4.53667930E-08
  -8.77000046       4.55873206E-08
  -8.76000023       4.57686085E-08
  -8.75000000       4.59117295E-08
  -8.73999977       4.60180374E-08
  -8.72999954       4.60886298E-08
  -8.72000027       4.61243985E-08
  -8.71000004       4.61259333E-08
  -8.69999981       4.60938239E-08
  -8.68999958       4.60286635E-08
  -8.68000031       4.59316318E-08
  -8.67000008       4.58041960E-08
  -8.65999985       4.56484699E-08
  -8.64999962       4.54668054E-08
  -8.64000034       4.52618210E-08
  -8.63000011       4.50359288E-08
  -8.61999989       4.47914559E-08
  -8.60999966       4.45302675E-08
  -8.60000038       4.42540298E-08
  -8.59000015       4.39643166E-08
  -8.57999992       4.36628085E-08
  -8.56999969       4.33513527E-08
  -8.56000042       4.30322480E-08
  -8.55000019       4.27078568E-08
  -8.53999996       4.23808082E-08
  -8.52999973       4.20536317E-08
  -8.52000046       4.17286117E-08
  -8.51000023       4.14078194E-08
  -8.50000000       4.10929495E-08
  -8.48999977       4.07857534E-08
  -8.47999954       4.04877447E-08
  -8.47000027       4.02005469E-08
  -8.46000004       3.99257623E-08
  -8.44999981       3.96647870E-08
  -8.43999958       3.94192483E-08
  -8.43000031       3.91901551E-08
  -8.42000008       3.89783672E-08
  -8.40999985       3.87840799E-08
  -8.39999962       3.86074426E-08
  -8.39000034       3.84481282E-08
  -8.38000011       3.83059806E-08
  -8.36999989       3.81810139E-08
  -8.35999966       3.80730434E-08
  -8.35000038       3.79823248E-08
  -8.34000015       3.79088476E-08
  -8.32999992       3.78527858E-08
  -8.31999969       3.78141820E-08
  -8.31000042       3.77926526E-08
  -8.30000019       3.77879026E-08
  -8.28999996       3.77993068E-08
  -8.27999973       3.78262222E-08
  -8.27000046       3.78679736E-08
  -8.26000023       3.79240532E-08
  -8.25000000       3.79939635E-08
  -8.23999977       3.80772676E-08
  -8.22999954       3.81737841E-08
  -8.22000027       3.82832610E-08
  -8.21000004       3.84054708E-08
  -8.19999981       3.85404384E-08
  -8.18999958       3.86883343E-08
  -8.18000031       3.88495636E-08
  -8.17000008       3.90247088E-08
  -8.15999985       3.92146084E-08
  -8.14999962       3.94202679E-08
  -8.14000034       3.96428099E-08
  -8.13000011       3.98836697E-08
  -8.11999989       4.01443572E-08
  -8.10999966       4.04265812E-08
  -8.10000038       4.07321643E-08
  -8.09000015       4.10629113E-08
  -8.07999992       4.14208365E-08
  -8.06999969       4.18080006E-08
  -8.06000042       4.22263611E-08
  -8.05000019       4.26778186E-08
  -8.03999996       4.31643059E-08
  -8.02999973       4.36874750E-08
  -8.02000046       4.42487575E-08
  -8.01000023       4.48497488E-08
  -8.00000000       4.54916425E-08
  -7.98999977       4.61755612E-08
  -7.98000002       4.69024641E-08
  -7.96999979       4.76728985E-08
  -7.96000004       4.84869069E-08
  -7.94999981       4.93441945E-08
  -7.94000006       5.02443029E-08
  -7.92999983       5.11859319E-08
  -7.92000008       5.21681152E-08
  -7.90999985       5.31893285E-08
  -7.90000010       5.42485452E-08
  -7.88999987       5.53443869E-08
  -7.88000011       5.64756668E-08
  -7.86999989       5.76409498E-08
  -7.86000013       5.88387152E-08
  -7.84999990       6.00675563E-08
  -7.84000015       6.13253519E-08
  -7.82999992       6.26099137E-08
  -7.82000017       6.39194226E-08
  -7.80999994       6.52516263E-08
  -7.80000019       6.66048479E-08
  -7.78999996       6.79773322E-08
  -7.78000021       6.93677720E-08
  -7.76999998       7.07746821E-08
  -7.76000023       7.21963573E-08
  -7.75000000       7.36313623E-08
  -7.73999977       7.50781552E-08
  -7.73000002       7.65346613E-08
  -7.71999979       7.79992178E-08
  -7.71000004       7.94701265E-08
  -7.69999981       8.09459806E-08
  -7.69000006       8.24255864E-08
  -7.67999983       8.39079561E-08
  -7.67000008       8.53921591E-08
  -7.65999985       8.68770229E-08
  -7.65000010       8.83614462E-08
  -7.63999987       8.98447183E-08
  -7.63000011       9.13254112E-08
  -7.61999989       9.28026154E-08
  -7.61000013       9.42754497E-08
  -7.59999990       9.57437578E-08
  -7.59000015       9.72071490E-08
  -7.57999992       9.86662272E-08
  -7.57000017       1.00121262E-07
  -7.55999994       1.01573150E-07
  -7.55000019       1.03022231E-07
  -7.53999996       1.04469187E-07
  -7.53000021       1.05914559E-07
  -7.51999998       1.07358758E-07
  -7.51000023       1.08802617E-07
  -7.50000000       1.10246887E-07
  -7.48999977       1.11692692E-07
  -7.48000002       1.13141546E-07
  -7.46999979       1.14594833E-07
  -7.46000004       1.16053968E-07
  -7.44999981       1.17520464E-07
  -7.44000006       1.18995828E-07