  -16.0000000       0.00000000    
  -15.9899998       0.00000000    
  -15.9799995       0.00000000    
  -15.9700003       0.00000000    
  -15.9600000       0.00000000    
  -15.9499998       0.00000000    
  -15.9399996       0.00000000    
  -15.9300003       0.00000000    
  -15.9200001       0.00000000    
  -15.9099998       0.00000000    
  -15.8999996       0.00000000    
  -15.8900003       0.00000000    
  -15.8800001      -5.45693648E-41
  -15.8699999      -1.24481827E-39
  -15.8599997      -2.17051113E-38
  -15.8500004      -2.90011363E-37
  -15.8400002      -2.84883718E-36
  -15.8299999      -2.12603091E-35
  -15.8199997      -1.26023739E-34
  -15.8100004      -6.15548260E-34
  -15.8000002      -2.54600744E-33
  -15.7900000      -9.09270668E-33
  -15.7799997      -2.84041635E-32
  -15.7700005      -7.81492625E-32
  -15.7600002      -1.89391042E-31
  -15.7500000      -4.00277126E-31
  -15.7399998      -7.15919694E-31
  -15.7299995      -9.91510489E-31
  -15.7200003      -6.85684051E-31
  -15.7100000       1.53103644E-30
  -15.6999998       8.17654837E-30
  -15.6899996       2.29021809E-29
  -15.6800003       4.90470621E-29
  -15.6700001       8.55430854E-29
  -15.6599998       1.19430515E-28
  -15.6499996       1.16593307E-28
  -15.6400003       1.70866082E-29
  -15.6300001      -2.52673775E-28
  -15.6199999      -7.36380711E-28
  -15.6099997      -1.36845238E-27
  -15.6000004      -1.88439476E-27
  -15.5900002      -1.79386546E-27
  -15.5799999      -5.26547562E-28
  -15.5699997       2.16958069E-27
  -15.5600004       5.66190278E-27
  -15.5500002       8.08942037E-27
  -15.5400000       6.93758716E-27
  -15.5299997       1.17440531E-27
  -15.5200005      -5.29874480E-27
  -15.5100002      -1.08240113E-27
  -15.5000000       2.98184862E-26
  -15.4899998       9.42928460E-26
  -15.4799995       1.64420356E-25
  -15.4700003       1.50223029E-25
  -15.4600000      -1.01057938E-25
  -15.4499998      -7.37464892E-25
  -15.4399996      -1.73476745E-24
  -15.4300003      -2.65266805E-24
  -15.4200001      -2.44713804E-24
  -15.4099998       4.01573983E-25
  -15.3999996       7.13524215E-24
  -15.3900003       1.71980655E-23
  -15.3800001       2.63216079E-23
  -15.3699999       2.53991770E-23
  -15.3599997       2.10747484E-24
  -15.3500004      -5.27459822E-23
  -15.3400002      -1.33788790E-22
  -15.3299999      -2.07976438E-22
  -15.3199997      -2.08482558E-22
  -15.3100004      -4.83970646E-23
  -15.3000002       3.34425426E-22
  -15.2900000       9.01911413E-22
  -15.2799997       1.43430887E-21
  -15.2700005       1.49779124E-21
  -15.2600002       5.36713697E-22
  -15.2500000      -1.84848917E-21
  -15.2399998      -5.45050995E-21
  -15.2299995      -8.98133241E-21
  -15.2200003      -9.88868250E-21
  -15.2100000      -4.87543403E-21
  -15.1999998       8.55924169E-21
  -15.1899996       2.96391480E-20
  -15.1800003       5.16869751E-20
  -15.1700001       6.09810408E-20
  -15.1599998       3.92080928E-20
  -15.1499996      -2.88369185E-20
  -15.1400003      -1.42597485E-19
  -15.1300001      -2.71877077E-19
  -15.1199999      -3.49459898E-19
  -15.1099997      -2.80456259E-19
  -15.1000004       2.31802697E-20
  -15.0900002       5.82967893E-19
  -15.0799999       1.28435269E-18
  -15.0699997       1.83097545E-18
  -15.0600004       1.76923262E-18
  -15.0500002       6.24995957E-19
  -15.0400000      -1.83830758E-18
  -15.0299997      -5.29403533E-18
  -15.0200005      -8.59257767E-18
  -15.0100002      -9.76445106E-18
  -15.0000000      -6.48274267E-18
  -14.9899998       2.92871154E-18
  -14.9799995       1.80920017E-17
  -14.9700003       3.52506426E-17
  -14.9600000       4.67923135E-17
  -14.9499998       4.24747021E-17
  -14.9399996       1.29034476E-17
  -14.9300003      -4.49919450E-17
  -14.9200001      -1.21948353E-16
  -14.9099998      -1.92544419E-16
  -14.8999996      -2.16966351E-16
  -14.8900003      -1.51173067E-16
  -14.8800001       3.41201117E-17
  -14.8699999       3.29327019E-16
  -14.8599997       6.65287470E-16
  -14.8500004       9.08182162E-16
  -14.8400002       8.82253318E-16
  -14.8299999       4.26618970E-16
  -14.8199997      -5.19943181E-16
  -14.8100004      -1.82919306E-15
  -14.8000002      -3.12740806E-15
  -14.7900000      -3.81885440E-15
  -14.7799997      -3.22420487E-15
  -14.7700005      -8.37098574E-16
  -14.7600002       3.34958925E-15
  -14.7500000       8.55432295E-15
  -14.7399998       1.31029585E-14
  -14.7299995       1.46575646E-14
  -14.7200003       1.08585499E-14
  -14.7100000       3.23633396E-16
  -14.6999998      -1.62361054E-14
  -14.6899996      -3.51969938E-14
  -14.6800003      -4.99997891E-14
  -14.6700001      -5.23392534E-14
  -14.6599998      -3.46836139E-14
  -14.6499996       6.25276249E-15
  -14.6400003       6.60359761E-14
  -14.6300001       1.30450555E-13
  -14.6199999       1.76360174E-13
  -14.6099997       1.76537238E-13
  -14.6000004       1.08407715E-13
  -14.5900002      -3.49216776E-14
  -14.5799999      -2.34624332E-13
  -14.5699997      -4.41456767E-13
  -14.5600004      -5.80610646E-13
  -14.5500002      -5.68484767E-13
  -14.5400000      -3.40211664E-13
  -14.5299997       1.17811509E-13
  -14.5200005       7.40451266E-13
  -14.5100002       1.37379474E-12
  -14.5000000       1.79351662E-12
  -14.4899998       1.75661428E-12
  -14.4799995       1.08122636E-12
  -14.4700003      -2.63086238E-13
  -14.4600000      -2.08290611E-12
  -14.4499998      -3.93925127E-12
  -14.4399996      -5.20394231E-12
  -14.4300003      -5.20406981E-12
  -14.4200001      -3.43730101E-12
  -14.4099998       1.90357102E-13
  -14.3999996       5.17816172E-12
  -14.3900003       1.03782209E-11
  -14.3800001       1.41431068E-11
  -14.3699999       1.46945303E-11
  -14.3599997       1.06666394E-11
  -14.3500004       1.70288642E-12
  -14.3400002      -1.10733818E-11
  -14.3299999      -2.49123378E-11
  -14.3199997      -3.57711222E-11
  -14.3100004      -3.91766376E-11
  -14.3000002      -3.15102250E-11
  -14.2900000      -1.14364195E-11
  -14.2799997       1.89354522E-11
  -14.2700005       5.36092386E-11
  -14.2600002       8.33407579E-11
  -14.2500000       9.74855335E-11
  -14.2399998       8.68415825E-11
  -14.2299995       4.69000290E-11
  -14.2200003      -1.93805128E-11
  -14.2100000      -1.00263499E-10
  -14.1999998      -1.76203982E-10
  -14.1899996      -2.23443458E-10
  -14.1800003      -2.19870580E-10
  -14.1700001      -1.52008059E-10
  -14.1599998      -2.13417149E-11
  -14.1499996       1.52061280E-10
  -14.1400003       3.30422245E-10
  -14.1300001       4.64508404E-10
  -14.1199999       5.04813746E-10
  -14.1099997       4.15638690E-10
  -14.1000004       1.88701776E-10
  -14.0900002      -1.47755516E-10
  -14.0799999      -5.28060207E-10
  -14.0699997      -8.58579818E-10
  -14.0600004      -1.03727638E-09
  -14.0500002      -9.80090231E-10
  -14.0400000      -6.48234133E-10
  -14.0299997      -6.89170665E-11
  -14.0200005       6.57719879E-10
  -14.0100002       1.37031941E-09
  -14.0000000       1.87729876E-09
  -13.9899998       2.00247086E-09
  -13.9799995       1.63562131E-09
  -13.9700003       7.75097819E-10
  -13.9600000      -4.50829318E-10
  -13.9499998      -1.79369175E-09
  -13.9399996      -2.92873525E-09
  -13.9300003      -3.52726293E-09
  -13.9200001      -3.34279915E-09
  -13.9099998      -2.29011254E-09
  -13.8999996      -4.94514263E-10
  -13.8900003       1.70682890E-09
  -13.8800001       3.81970366E-09
  -13.8699999       5.29791766E-09
  -13.8599997       5.67815128E-09
  -13.8500004       4.71286432E-09
  -13.8400002       2.46528153E-09
  -13.8299999      -6.64510613E-10
  -13.8199997      -3.99905620E-09
  -13.8100004      -6.72442191E-09
  -13.8000002      -8.08562817E-09
  -13.7900000      -7.59130092E-09
  -13.7799997      -5.17374588E-09
  -13.7700005      -1.25576483E-09
  -13.7600002       3.30529382E-09
  -13.7500000       7.39608819E-09
  -13.7399998       9.91485916E-09
  -13.7299995       1.00661959E-08
  -13.7200003       7.60633956E-09
  -13.7100000       2.96684166E-09
  -13.6999998      -2.79080115E-09
  -13.6899996      -8.19637780E-09
  -13.6800003      -1.17276375E-08
  -13.6700001      -1.22205970E-08
  -13.6599998      -9.22781584E-09
  -13.6499996      -3.22143534E-09
  -13.6400003       4.43157466E-09
  -13.6300001       1.17406911E-08
  -13.6199999       1.65637886E-08
  -13.6099997       1.71748002E-08
  -13.6000004       1.27851330E-08
  -13.5900002       3.87410770E-09
  -13.5799999      -7.78072895E-09
  -13.5699997      -1.94142462E-08
  -13.5600004      -2.78804020E-08
  -13.5500002      -3.04277030E-08
  -13.5400000      -2.54596078E-08
  -13.5299997      -1.30819391E-08
  -13.5200005       4.72410866E-09
  -13.5100002       2.43836027E-08
  -13.5000000       4.14354240E-08
  -13.4899998       5.15263601E-08
  -13.4799995       5.14684650E-08
  -13.4700003       4.01030462E-08
  -13.4600000       1.87438687E-08
  -13.4499998      -8.93884788E-09
  -13.4399996      -3.76016089E-08
  -13.4300003      -6.13456166E-08
  -13.4200001      -7.50208500E-08
  -13.4099998      -7.54082734E-08
  -13.3999996      -6.19872438E-08
  -13.3900003      -3.70868456E-08
  -13.3800001      -5.36722311E-09
  -13.3699999       2.72532912E-08
  -13.3599997       5.49627686E-08
  -13.3500004       7.33644256E-08
  -13.3400002       8.03862719E-08
  -13.3299999       7.65465060E-08
  -13.3199997       6.45005471E-08
  -13.3100004       4.79973714E-08
  -13.3000002       3.05519237E-08
  -13.2900000       1.42427030E-08
  -13.2799997      -9.65578062E-10
  -13.2700005      -1.71035932E-08
  -13.2600002      -3.72373172E-08
  -13.2500000      -6.38845492E-08
  -13.2399998      -9.72581446E-08
  -13.2299995      -1.33913730E-07
  -13.2200003      -1.66350674E-07
  -13.2100000      -1.83919838E-07
  -13.1999998      -1.75057849E-07
  -13.1899996      -1.30475811E-07
  -13.1800003      -4.65820129E-08
  -13.1700001       7.17868431E-08
  -13.1599998       2.10227441E-07
  -13.1499996       3.45855625E-07
  -13.1400003       4.50762911E-07
  -13.1300001       4.97393899E-07
  -13.1199999       4.64834415E-07
  -13.1099997       3.44618854E-07
  -13.1000004       1.44591155E-07
  -13.0900002      -1.10358975E-07
  -13.0799999      -3.81250970E-07
  -13.0699997      -6.21404070E-07
  -13.0600004      -7.85164730E-07
  -13.0500002      -8.37218010E-07
  -13.0400000      -7.60434375E-07
  -13.0299997      -5.60391186E-07
  -13.0200005      -2.65342720E-07
  -13.0100002       7.85996974E-08
  -13.0000000       4.16215556E-07
  -12.9899998       6.94026141E-07
  -12.9799995       8.70848226E-07
  -12.9700003       9.25629706E-07
  -12.9600000       8.60711850E-07
  -12.9499998       6.99714690E-07
  -12.9399996       4.80532890E-07
  -12.9300003       2.45169957E-07
  -12.9200001       2.89863475E-08
  -12.9099998      -1.47817573E-07
  -12.8999996      -2.84132881E-07
  -12.8900003      -3.96043845E-07
  -12.8800001      -5.09355914E-07
  -12.8699999      -6.48345861E-07
  -12.8599997      -8.23716334E-07
  -12.8500004      -1.02324236E-06
  -12.8400002      -1.20823427E-06
  -12.8299999      -1.31773118E-06
  -12.8199997      -1.28050795E-06
  -12.8100004      -1.03293053E-06
  -12.8000002      -5.38917959E-07
  -12.7900000       1.92766890E-07
  -12.7799997       1.09866869E-06
  -12.7700005       2.06182017E-06
  -12.7600002       2.92538584E-06
  -12.7500000       3.51748599E-06
  -12.7399998       3.68321048E-06
  -12.7299995       3.31778642E-06
  -12.7200003       2.39399378E-06
  -12.7100000       9.77505920E-07
  -12.6999998      -7.74128011E-07
  -12.6899996      -2.63003653E-06
  -12.6800003      -4.31972103E-06
  -12.6700001      -5.57625390E-06
  -12.6599998      -6.18112381E-06
  -12.6499996      -6.00228077E-06
  -12.6400003      -5.01806562E-06
  -12.6300001      -3.32245259E-06
  -12.6199999      -1.11078623E-06
  -12.6099997       1.35092012E-06
  -12.6000004       3.76681237E-06
  -12.5900002       5.85405269E-06
  -12.5799999       7.37967366E-06
  -12.5699997       8.18523949E-06
  -12.5600004       8.19635079E-06
  -12.5500002       7.41774875E-06
  -12.5400000       5.91811340E-06
  -12.5299997       3.81071095E-06
  -12.5200005       1.23630787E-06
  -12.5100002      -1.64684798E-06
  -12.5000000      -4.66420033E-06
  -12.4899998      -7.61910587E-06
  -12.4799995      -1.02851363E-05
  -12.4700003      -1.24032731E-05
  -12.4600000      -1.36904664E-05
  -12.4499998      -1.38635132E-05
  -12.4399996      -1.26780033E-05
  -12.4300003      -9.97727602E-06
  -12.4200001      -5.74192018E-06
  -12.4099998      -1.28115346E-07
  -12.3999996       6.51672053E-06
  -12.3900003       1.36691060E-05
  -12.3800001       2.06778932E-05
  -12.3699999       2.68412714E-05
  -12.3599997       3.15009165E-05
  -12.3500004       3.41372288E-05
  -12.3400002       3.44478867E-05
  -12.3299999       3.23945496E-05
  -12.3199997       2.82079563E-05
  -12.3100004       2.23502375E-05
  -12.3000002       1.54415848E-05
  -12.2900000       8.16573265E-06
  -12.2799997       1.17269531E-06
  -12.2700005      -5.00296619E-06
  -12.2600002      -9.99424174E-06
  -12.2500000      -1.36174749E-05
  -12.2399998      -1.58538278E-05
  -12.2299995      -1.68062343E-05
  -12.2200003      -1.66467016E-05
  -12.2100000      -1.55699381E-05
  -12.1999998      -1.37659645E-05
  -12.1899996      -1.14177546E-05
  -12.1800003      -8.72166584E-06
  -12.1700001      -5.92051219E-06
  -12.1599998      -3.33424373E-06
  -12.1499996      -1.37204540E-06
  -12.1400003      -5.13611269E-07
  -12.1300001      -1.25484189E-06
  -12.1199999      -4.02302658E-06
  -12.1099997      -9.07617141E-06
  -12.1000004      -1.64078574E-05
  -12.0900002      -2.56812691E-05
  -12.0799999      -3.62127103E-05
  -12.0699997      -4.70165396E-05
  -12.0600004      -5.69113145E-05
  -12.0500002      -6.46740882E-05
  -12.0400000      -6.92186441E-05
  -12.0299997      -6.97664509E-05
  -12.0200005      -6.59788275E-05
  -12.0100002      -5.80242049E-05
  -12.0000000      -4.65660924E-05
  -11.9899998      -3.26716545E-05
  -11.9799995      -1.76563826E-05
  -11.9700003      -2.89197442E-06
  -11.9600000       1.03878792E-05
  -11.9499998       2.12495197E-05
  -11.9399996       2.91613342E-05
  -11.9300003       3.40205370E-05
  -11.9200001       3.61046841E-05
  -11.9099998       3.59630940E-05
  -11.8999996       3.42746134E-05
  -11.8900003       3.17040540E-05
  -11.8800001       2.87878775E-05
  -11.8699999       2.58714372E-05
  -11.8599997       2.31070535E-05
  -11.8500004       2.05071246E-05
  -11.8400002       1.80333354E-05
  -11.8299999       1.56942770E-05
  -11.8199997       1.36222443E-05
  -11.8100004       1.21053663E-05
  -11.8000002       1.15627026E-05
  -11.7900000       1.24649705E-05
  -11.7799997       1.52180382E-05
  -11.7700005       2.00372178E-05
  -11.7600002       2.68446693E-05
  -11.7500000       3.52185489E-05
  -11.7399998       4.44120378E-05
  -11.7299995       5.34443061E-05
  -11.7200003       6.12492222E-05
  -11.7100000       6.68527791E-05
  -11.6999998       6.95427370E-05
  -11.6899996       6.89941153E-05
  -11.6800003       6.53226889E-05
  -11.6700001       5.90540294E-05
  -11.6599998       5.10141363E-05
  -11.6499996       4.21645927E-05
  -11.6400003       3.34178330E-05
  -11.6300001       2.54718962E-05
  -11.6199999       1.86994057E-05
  -11.6099997       1.31127144E-05
  -11.6000004       8.40959092E-06
  -11.5900002       4.08543565E-06
  -11.5799999      -4.16734309E-07
  -11.5699997      -5.55499810E-06
  -11.5600004      -1.15713437E-05
  -11.5500002      -1.84344353E-05
  -11.5400000      -2.58528744E-05
  -11.5299997      -3.33518437E-05
  -11.5200005      -4.03908634E-05
  -11.5100002      -4.64909899E-05
  -11.5000000      -5.13388513E-05
  -11.4899998      -5.48417702E-05
  -11.4799995      -5.71221099E-05
  -11.4700003      -5.84548507E-05
  -11.4600000      -5.91673488E-05
  -11.4499998      -5.95298843E-05
  -11.4399996      -5.96673344E-05
  -11.4300003      -5.95166275E-05
  -11.4200001      -5.88420007E-05
  -11.4099998      -5.73048565E-05
  -11.3999996      -5.45707735E-05
  -11.3900003      -5.04259988E-05
  -11.3800001      -4.48735009E-05
  -11.3699999      -3.81833015E-05
  -11.3599997      -3.08829331E-05
  -11.3500004      -2.36886499E-05
  -11.3400002      -1.73916578E-05
  -11.3299999      -1.27243566E-05
  -11.3199997      -1.02354052E-05
  -11.3100004      -1.01998321E-05
  -11.3000002      -1.25815241E-05
  -11.2900000      -1.70531803E-05
  -11.2799997      -2.30661262E-05
  -11.2700005      -2.99521580E-05
  -11.2600002      -3.70339076E-05
  -11.2500000      -4.37205526E-05
  -11.2399998      -4.95709537E-05
  -11.2299995      -5.43149654E-05
  -11.2200003      -5.78340077E-05
  -11.2100000      -6.01109750E-05
  -11.1999998      -6.11657597E-05
  -11.1899996      -6.09948147E-05
  -11.1800003      -5.95311358E-05
  -11.1700001      -5.66357921E-05
  -11.1599998      -5.21240981E-05
  -11.1499996      -4.58218419E-05
  -11.1400003      -3.76397002E-05
  -11.1300001      -2.76491810E-05
  -11.1199999      -1.61423595E-05
  -11.1099997      -3.65959181E-06
  -11.1000004       9.02507145E-06
  -11.0900002       2.09635091E-05
  -11.0799999       3.11320582E-05
  -11.0699997       3.85551575E-05
  -11.0600004       4.24345380E-05
  -11.0500002       4.22623561E-05
  -11.0400000       3.78985060E-05
  -11.0299997       2.95987647E-05
  -11.0200005       1.79884282E-05
  -11.0100002       3.98656539E-06
  -11.0000000      -1.13056858E-05
  -10.9899998      -2.67331216E-05
  -10.9799995      -4.12094414E-05
  -10.9700003      -5.38162349E-05
  -10.9600000      -6.38653146E-05
  -10.9499998      -7.09198866E-05
  -10.9399996      -7.47784288E-05
  -10.9300003      -7.54318753E-05
  -10.9200001      -7.30081738E-05
  -10.9099998      -6.77183998E-05
  -10.8999996      -5.98155384E-05
  -10.8900003      -4.95723943E-05
  -10.8800001      -3.72791837E-05
  -10.8699999      -2.32568091E-05
  -10.8599997      -7.87904537E-06
  -10.8500004       8.40503617E-06
  -10.8400002       2.50558696E-05
  -10.8299999       4.14418173E-05
  -10.8199997       5.68550786E-05
  -10.8100004       7.05466809E-05
  -10.8000002       8.17793334E-05
  -10.7900000       8.98946164E-05
  -10.7799997       9.43876075E-05
  -10.7700005       9.49799069E-05
  -10.7600002       9.16793288E-05
  -10.7500000       8.48147829E-05
  -10.7399998       7.50353574E-05
  -10.7299995       6.32675365E-05
  -10.7200003       5.06305041E-05
  -10.7100000       3.83172519E-05
  -10.6999998       2.74565082E-05
  -10.6899996       1.89761904E-05
  -10.6800003       1.34904585E-05
  -10.6700001       1.12299067E-05
  -10.6599998       1.20276300E-05
  -10.6499996       1.53639430E-05
  -10.6400003       2.04620228E-05
  -10.6300001       2.64176488E-05
  -10.6199999       3.23403910E-05
  -10.6099997       3.74826159E-05
  -10.6000004       4.13361231E-05
  -10.5900002       4.36829214E-05
  -10.5799999       4.45961632E-05
  -10.5699997       4.43956415E-05
  -10.5600004       4.35696784E-05
  -10.5500002       4.26798470E-05
  -10.5400000       4.22655357E-05
  -10.5299997       4.27642553E-05
  -10.5200005       4.44589095E-05
  -10.5100002       4.74576373E-05
  -10.5000000       5.17058106E-05
  -10.4899998       5.70235134E-05
  -10.4799995       6.31573057E-05
  -10.4700003       6.98326548E-05
  -10.4600000       7.67929669E-05
  -10.4499998       8.38150372E-05
  -10.4399996       9.06961068E-05
  -10.4300003       9.72158668E-05
  -10.4200001       1.03084640E-04
  -10.4099998       1.07895110E-04
  -10.3999996       1.11096924E-04
  -10.3900003       1.12010683E-04
  -10.3800001       1.09889319E-04
  -10.3699999       1.04023326E-04
  -10.3599997       9.38733210E-05
  -10.3500004       7.92030914E-05
  -10.3400002       6.01827378E-05
  -10.3299999       3.74338451E-05
  -10.3199997       1.20003033E-05
  -10.3100004      -1.47561896E-05
  -10.3000002      -4.13192320E-05
  -10.2900000      -6.62088205E-05
  -10.2799997      -8.81627639E-05
  -10.2700005      -1.06272659E-04
  -10.2600002      -1.20049444E-04
  -10.2500000      -1.29410269E-04
  -10.2399998      -1.34595888E-04
  -10.2299995      -1.36043760E-04
  -10.2200003      -1.34249611E-04
  -10.2100000      -1.29650594E-04
  -10.1999998      -1.22554862E-04
  -10.1899996      -1.13130176E-04
  -10.1800003      -1.01447920E-04
  -10.1700001      -8.75678088E-05
  -10.1599998      -7.16387513E-05
  -10.1499996      -5.39905996E-05
  -10.1400003      -3.51930939E-05
  -10.1300001      -1.60667496E-05
  -10.1199999       2.36104461E-06
  -10.1099997       1.89510301E-05
  -10.1000004       3.25858091E-05
  -10.0900002       4.23224446E-05
  -10.0799999       4.75392844E-05
  -10.0699997       4.80510207E-05
  -10.0600004       4.41682205E-05
  -10.0500002       3.66844652E-05
  -10.0400000       2.67857649E-05
  -10.0299997       1.58906169E-05
  -10.0200005       5.44395652E-06
  -10.0100002      -3.30020657E-06
  -10.0000000      -9.46748060E-06
  -9.98999977      -1.26862624E-05
  -9.97999954      -1.31210436E-05
  -9.97000027      -1.14099721E-05
  -9.96000004      -8.52177891E-06
  -9.94999981      -5.56461100E-06
  -9.93999958      -3.58853231E-06
  -9.93000031      -3.42193448E-06
  -9.92000008      -5.56985651E-06
  -9.90999985      -1.01839260E-05
  -9.89999962      -1.70938856E-05
  -9.89000034      -2.58764630E-05
  -9.88000011      -3.59321130E-05
  -9.86999989      -4.65459307E-05
  -9.85999966      -5.69219264E-05
  -9.85000038      -6.61957456E-05
  -9.84000015      -7.34432324E-05
  -9.82999992      -7.77063833E-05
  -9.81999969      -7.80522605E-05
  -9.81000042      -7.36670991E-05
  -9.80000019      -6.39712380E-05
  -9.78999996      -4.87278812E-05
  -9.77999973      -2.81150915E-05
  -9.77000046      -2.73629689E-06
  -9.76000023       2.64387018E-05
  -9.75000000       5.81914501E-05
  -9.73999977       9.12037940E-05
  -9.72999954       1.24202110E-04
  -9.72000027       1.56065449E-04
  -9.71000004       1.85879471E-04
  -9.69999981       2.12936560E-04
  -9.68999958       2.36700929E-04
  -9.68000031       2.56767205E-04
  -9.67000008       2.72838137E-04
  -9.65999985       2.84735928E-04
  -9.64999962       2.92444776E-04
  -9.64000034       2.96163082E-04
  -9.63000011       2.96335493E-04
  -9.61999989       2.93638470E-04
  -9.60999966       2.88902898E-04
  -9.60000038       2.82982073E-04
  -9.59000015       2.76589621E-04
  -9.57999992       2.70148565E-04
  -9.56999969       2.63692811E-04
  -9.56000042       2.56851170E-04
  -9.55000019       2.48923694E-04
  -9.53999996       2.39034882E-04
  -9.52999973       2.26328746E-04
  -9.52000046       2.10159415E-04
  -9.51000023       1.90232677E-04
  -9.50000000       1.66668106E-04
  -9.48999977       1.39970769E-04
  -9.47999954       1.10924637E-04
  -9.47000027       8.04360971E-05
  -9.46000004       4.93666012E-05
  -9.44999981       1.83917819E-05
  -9.43999958      -1.20833383E-05
  -9.43000031      -4.19386415E-05
  -9.42000008      -7.12843103E-05
  -9.40999985      -1.00353041E-04
  -9.39999962      -1.29365857E-04
  -9.39000034      -1.58402545E-04
  -9.38000011      -1.87305515E-04
  -9.36999989      -2.15638618E-04
  -9.35999966      -2.42709924E-04
  -9.35000038      -2.67651834E-04
  -9.34000015      -2.89539079E-04
  -9.32999992      -3.07515205E-04
  -9.31999969      -3.20895400E-04
  -9.31000042      -3.29221657E-04
  -9.30000019      -3.32258729E-04
  -9.28999996      -3.29939852E-04
  -9.27999973      -3.22286214E-04
  -9.27000046      -3.09335068E-04
  -9.26000023      -2.91107193E-04
  -9.25000000      -2.67631549E-04
  -9.23999977      -2.39022847E-04
  -9.22999954      -2.05582342E-04
  -9.22000027      -1.67881692E-04
  -9.21000004      -1.26786006E-04
  -9.19999981      -8.33915983E-05
  -9.18999958      -3.88805165E-05
  -9.18000031       5.67241068E-06
  -9.17000008       4.94852575E-05
  -9.15999985       9.21855171E-05
  -9.14999962       1.33816138E-04
  -9.14000034       1.74723973E-04
  -9.13000011       2.15362816E-04
  -9.11999989       2.56076077E-04
  -9.10999966       2.96931539E-04
  -9.10000038       3.37663776E-04
  -9.09000015       3.77739460E-04
  -9.07999992       4.16514551E-04
  -9.06999969       4.53413377E-04
  -9.06000042       4.88049700E-04
  -9.05000019       5.20229049E-04
  -9.03999996       5.49820601E-04
  -9.02999973       5.76544087E-04
  -9.02000046       5.99759573E-04
  -9.01000023       6.18366757E-04
  -9.00000000       6.30884839E-04
  -8.98999977       6.35727949E-04
  -8.97999954       6.31613540E-04
  -8.97000027       6.17978454E-04
  -8.96000004       5.95258025E-04
  -8.94999981       5.64914313E-04
  -8.93999958       5.29172074E-04
  -8.93000031       4.90526785E-04
  -8.92000008       4.51163854E-04
  -8.90999985       4.12476977E-04
  -8.89999962       3.74843657E-04
  -8.89000034       3.37737409E-04
  -8.88000011       3.00137093E-04
  -8.86999989       2.61091365E-04
  -8.85999966       2.20232294E-04
  -8.85000038       1.78046845E-04
  -8.84000015       1.35799331E-04
  -8.82999992       9.51235415E-05
  -8.81999969       5.74308251E-05
  -8.81000042       2.33575865E-05
  -8.80000019      -7.52836513E-06
  -8.78999996      -3.66281165E-05
  -8.77999973      -6.58259814E-05
  -8.77000046      -9.67727756E-05
  -8.76000023      -1.30189044E-04
  -8.75000000      -1.65449310E-04
  -8.73999977      -2.00620241E-04
  -8.72999954      -2.32968974E-04
  -8.72000027      -2.59786990E-04
  -8.71000004      -2.79251311E-04
  -8.69999981      -2.91017583E-04
  -8.68999958      -2.96322047E-04
  -8.68000031      -2.97537423E-04
  -8.67000008      -2.97322869E-04
  -8.65999985      -2.97657971E-04
  -8.64999962      -2.99105421E-04
  -8.64000034      -3.00574087E-04
  -8.63000011      -2.99684267E-04
  -8.61999989      -2.93622026E-04
  -8.60999966      -2.80192209E-04
  -8.60000038      -2.58699729E-04
  -8.59000015      -2.30340855E-04
  -8.57999992      -1.97956135E-04
  -8.56999969      -1.65218647E-04
  -8.56000042      -1.35536204E-04
  -8.55000019      -1.11049208E-04
  -8.53999996      -9.20745006E-05
  -8.52999973      -7.71900741E-05
  -8.52000046      -6.39229911E-05
  -8.51000023      -4.97878900E-05
  -8.50000000      -3.32959426E-05
  -8.48999977      -1.45651375E-05
  -8.47999954       4.69090719E-06
  -8.47000027       2.17908309E-05
  -8.46000004       3.40976876E-05
  -8.44999981       4.00402678E-05
  -8.43999958       3.97619333E-05
  -8.43000031       3.51517665E-05
  -8.42000008       2.92366276E-05
  -8.40999985       2.51487199E-05
  -8.39999962       2.50401226E-05
  -8.39000034       2.93362755E-05
  -8.38000011       3.65999877E-05
  -8.36999989       4.40545919E-05
  -8.35999966       4.85768869E-05
  -8.35000038       4.78006114E-05
  -8.34000015       4.09342101E-05
  -8.32999992       2.90047938E-05
  -8.31999969       1.44505311E-05
  -8.31000042       2.23328897E-07
  -8.30000019      -1.12615489E-05
  -8.28999996      -1.89423863E-05
  -8.27999973      -2.34007166E-05
  -8.27000046      -2.65292128E-05
  -8.26000023      -3.07149603E-05
  -8.25000000      -3.78520817E-05
  -8.23999977      -4.85536220E-05
  -8.22999954      -6.18530321E-05
  -8.22000027      -7.54974681E-05
  -8.21000004      -8.67151030E-05
  -8.19999981      -9.31642717E-05
  -8.18999958      -9.37134319E-05
  -8.18000031      -8.87706992E-05
  -8.17000008      -8.00559064E-05
  -8.15999985      -6.99172015E-05
  -8.14999962      -6.04574816E-05
  -8.14000034      -5.27968368E-05
  -8.13000011      -4.67339123E-05
  -8.11999989      -4.09088570E-05
  -8.10999966      -3.33799289E-05
  -8.10000038      -2.23756488E-05
  -8.09000015      -6.93186212E-06
  -8.07999992       1.28180163E-05
  -8.06999969       3.57823228E-05
  -8.06000042       6.03961635E-05
  -8.05000019       8.52357043E-05
  -8.03999996       1.09510387E-04
  -8.02999973       1.33246678E-04
  -8.02000046       1.57113056E-04
  -8.01000023       1.81988435E-04
  -8.00000000       2.08477431E-04
  -7.98999977       2.36589927E-04
  -7.98000002       2.65722250E-04
  -7.96999979       2.94940313E-04
  -7.96000004       3.23428889E-04
  -7.94999981       3.50895600E-04
  -7.94000006       3.77731340E-04
  -7.92999983       4.04835562E-04
  -7.92000008       4.33159090E-04
  -7.90999985       4.63148259E-04
  -7.90000010       4.94331529E-04
  -7.88999987       5.25243289E-04
  -7.88000011       5.53751132E-04
  -7.86999989       5.77686355E-04
  -7.86000013       5.95545222E-04
  -7.84999990       6.06984890E-04
  -7.84000015       6.12903736E-04
  -7.82999992       6.15053345E-04
  -7.82000017       6.15316327E-04
  -7.80999994       6.14924764E-04
  -7.80000019       6.13930635E-04
  -7.78999996       6.11157157E-04
  -7.78000021       6.04677072E-04
  -7.76999998       5.92654629E-04
  -7.76000023       5.74237376E-04
  -7.75000000       5.50139986E-04
  -7.73999977       5.22669114E-04
  -7.73000002       4.95134795E-04
  -7.71999979       4.70830360E-04
  -7.71000004       4.51936095E-04
  -7.69999981       4.38748364E-04
  -7.69000006       4.29532898E-04
  -7.67999983       4.21082601E-04
  -7.67000008       4.09804721E-04
  -7.65999985       3.92965856E-04
  -7.65000010       3.69657093E-04
  -7.63999987       3.41135572E-04
  -7.63000011       3.10419826E-04
  -7.61999989       2.81280401E-04
  -7.61000013       2.56985542E-04
  -7.59999990       2.39247151E-04
  -7.59000015       2.27734155E-04
  -7.57999992       2.20313261E-04
  -7.57000017       2.13914813E-04
  -7.55999994       2.05696066E-04
  -7.55000019       1.94072782E-04
  -7.53999996       1.79253970E-04
  -7.53000021       1.63096905E-04
  -7.51999998       1.48358915E-04
  -7.51000023       1.37637515E-04
  -7.50000000       1.32399568E-04
  -7.48999977       1.32456305E-04
  -7.48000002       1.36064773E-04
  -7.46999979       1.40607779E-04
  -7.46000004       1.43583587E-04
  -7.44999981       1.43535450E-04
  -7.44000006       1.40582139E-04