  -16.0000000       0.00000000    
  -15.9899998       0.00000000    
  -15.9799995       0.00000000    
  -15.9700003       0.00000000    
  -15.9600000       0.00000000    
  -15.9499998       0.00000000    
  -15.9399996       0.00000000    
  -15.9300003       0.00000000    
  -15.9200001       0.00000000    
  -15.9099998       0.00000000    
  -15.8999996       0.00000000    
  -15.8900003       0.00000000    
  -15.8800001       0.00000000    
  -15.8699999       0.00000000    
  -15.8599997       0.00000000    
  -15.8500004       1.40129846E-45
  -15.8400002       2.38220739E-44
  -15.8299999       2.07392173E-43
  -15.8199997       1.48958027E-42
  -15.8100004       8.93888290E-42
  -15.8000002       4.61839948E-41
  -15.7900000       2.09506732E-40
  -15.7799997       8.46898549E-40
  -15.7700005       3.08572508E-39
  -15.7600002       1.02253323E-38
  -15.7500000       3.10373064E-38
  -15.7399998       8.67807884E-38
  -15.7299995       2.24488844E-37
  -15.7200003       5.39011988E-37
  -15.7100000       1.20377654E-36
  -15.6999998       2.50276318E-36
  -15.6899996       4.84137364E-36
  -15.6800003       8.69139386E-36
  -15.6700001       1.44010901E-35
  -15.6599998       2.17921328E-35
  -15.6499996       2.95007240E-35
  -15.6400003       3.41397912E-35
  -15.6300001       2.95935208E-35
  -15.6199999       7.09036181E-36
  -15.6099997      -4.29720126E-35
  -15.6000004      -1.26405499E-34
  -15.5900002      -2.37343674E-34
  -15.5799999      -3.48246814E-34
  -15.5699997      -4.01802336E-34
  -15.5600004      -3.12219473E-34
  -15.5500002       1.41862495E-35
  -15.5400000       6.31014321E-34
  -15.5299997       1.47797733E-33
  -15.5200005       2.30252087E-33
  -15.5100002       2.62481680E-33
  -15.5000000       1.81594647E-33
  -15.4899998      -6.45693950E-34
  -15.4799995      -4.73231250E-33
  -15.4700003      -9.35689756E-33
  -15.4600000      -1.20863058E-32
  -15.4499998      -9.50905796E-33
  -15.4399996       1.34057894E-33
  -15.4300003       2.04599744E-32
  -15.4200001       4.19768856E-32
  -15.4099998       5.26003864E-32
  -15.3999996       3.39158038E-32
  -15.3900003      -2.92892579E-32
  -15.3800001      -1.34690200E-31
  -15.3699999      -2.46486260E-31
  -15.3599997      -2.87749403E-31
  -15.3500004      -1.54671265E-31
  -15.3400002       2.36081137E-31
  -15.3299999       8.68259342E-31
  -15.3199997       1.53990870E-30
  -15.3100004       1.82283119E-30
  -15.3000002       1.13756021E-30
  -15.2900000      -1.00060317E-30
  -15.2799997      -4.57318761E-30
  -15.2700005      -8.61092306E-30
  -15.2600002      -1.09623985E-29
  -15.2500000      -8.61362463E-30
  -15.2399998       1.17550827E-30
  -15.2299995       1.89451517E-29
  -15.2200003       4.08596480E-29
  -15.2100000       5.74079874E-29
  -15.1999998       5.44618382E-29
  -15.1899996       1.79038841E-29
  -15.1800003      -5.81599186E-29
  -15.1700001      -1.61692845E-28
  -15.1599998      -2.56030310E-28
  -15.1499996      -2.82238894E-28
  -15.1400003      -1.75721379E-28
  -15.1300001       1.02173701E-28
  -15.1199999       5.24697224E-28
  -15.1099997       9.68853407E-28
  -15.1000004       1.21594473E-27
  -15.0900002       1.00418035E-27
  -15.0799999       1.39135499E-28
  -15.0699997      -1.35979754E-27
  -15.0600004      -3.13221382E-27
  -15.0500002      -4.44855073E-27
  -15.0400000      -4.35779591E-27
  -15.0299997      -2.04199496E-27
  -15.0200005       2.68152099E-27
  -15.0100002       8.88246055E-27
  -15.0000000       1.43266970E-26
  -14.9899998       1.58409202E-26
  -14.9799995       1.03722775E-26
  -14.9700003      -3.39351052E-27
  -14.9600000      -2.33562886E-26
  -14.9499998      -4.30845042E-26
  -14.9399996      -5.25538026E-26
  -14.9300003      -4.11105370E-26
  -14.9200001      -2.43514004E-27
  -14.9099998       5.98397034E-26
  -14.8999996       1.28266984E-25
  -14.8900003       1.72351156E-25
  -14.8800001       1.56118815E-25
  -14.8699999       5.25533219E-26
  -14.8599997      -1.38312905E-25
  -14.8500004      -3.74307523E-25
  -14.8400002      -5.67778594E-25
  -14.8299999      -6.01823957E-25
  -14.8199997      -3.68865418E-25
  -14.8100004       1.74524481E-25
  -14.8000002       9.53141090E-25
  -14.7900000       1.74380168E-24
  -14.7799997       2.19699360E-24
  -14.7700005       1.92549745E-24
  -14.7600002       6.54350753E-25
  -14.7500000      -1.60282849E-24
  -14.7399998      -4.40400178E-24
  -14.7299995      -6.85207028E-24
  -14.7200003      -7.74583864E-24
  -14.7100000      -5.92828497E-24
  -14.6999998      -7.79386242E-25
  -14.6899996       7.28153325E-24
  -14.6800003       1.64814027E-23
  -14.6700001       2.37739737E-23
  -14.6599998       2.54534175E-23
  -14.6499996       1.82878942E-23
  -14.6400003       9.53638171E-25
  -14.6300001      -2.46528042E-23
  -14.6199999      -5.27668902E-23
  -14.6099997      -7.42762714E-23
  -14.6000004      -7.86709713E-23
  -14.5900002      -5.72585979E-23
  -14.5799999      -6.96055601E-24
  -14.5699997       6.64490546E-23
  -14.5600004       1.47002690E-22
  -14.5500002       2.10235521E-22
  -14.5400000       2.28386137E-22
  -14.5299997       1.78523022E-22
  -14.5200005       5.18365676E-23
  -14.5100002      -1.38611785E-22
  -14.5000000      -3.54721265E-22
  -14.4899998      -5.37225030E-22
  -14.4799995      -6.17518550E-22
  -14.4700003      -5.36085688E-22
  -14.4600000      -2.63707163E-22
  -14.4499998       1.80275884E-22
  -14.4399996       7.19011753E-22
  -14.4300003       1.22373839E-21
  -14.4200001       1.53620960E-21
  -14.4099998       1.50590624E-21
  -14.3999996       1.03525935E-21
  -14.3900003       1.22281897E-22
  -14.3800001      -1.11180981E-21
  -14.3699999      -2.42124065E-21
  -14.3599997      -3.46753022E-21
  -14.3500004      -3.88457385E-21
  -14.3400002      -3.36860742E-21
  -14.3299999      -1.77658786E-21
  -14.3199997       7.89525618E-22
  -14.3100004       3.93747261E-21
  -14.3000002       7.00064682E-21
  -14.2900000       9.12935251E-21
  -14.2799997       9.45760831E-21
  -14.2700005       7.32751726E-21
  -14.2600002       2.53272808E-21
  -14.2500000      -4.47612996E-21
  -14.2399998      -1.24925792E-20
  -14.2299995      -1.96282075E-20
  -14.2200003      -2.36038153E-20
  -14.2100000      -2.22579149E-20
  -14.1999998      -1.42086672E-20
  -14.1899996       4.66847076E-22
  -14.1800003       1.97338653E-20
  -14.1700001       3.95043980E-20
  -14.1599998       5.41310806E-20
  -14.1499996       5.75640029E-20
  -14.1400003       4.50601501E-20
  -14.1300001       1.51114589E-20
  -14.1199999      -2.89430852E-20
  -14.1099997      -7.82592282E-20
  -14.1000004      -1.19348411E-19
  -14.0900002      -1.36734312E-19
  -14.0799999      -1.17189043E-19
  -14.0699997      -5.47322341E-20
  -14.0600004       4.49732218E-20
  -14.0500002       1.62477608E-19
  -14.0400000       2.66137969E-19
  -14.0299997       3.18211444E-19
  -14.0200005       2.84985796E-19
  -14.0100002       1.48998635E-19
  -14.0000000      -7.99397554E-20
  -13.9899998      -3.58900355E-19
  -13.9799995      -6.14751532E-19
  -13.9700003      -7.57732183E-19
  -13.9600000      -7.04725829E-19
  -13.9499998      -4.07853860E-19
  -13.9399996       1.19061844E-19
  -13.9300003       7.85222548E-19
  -13.9200001       1.42701570E-18
  -13.9099998       1.83621068E-18
  -13.8999996       1.81060137E-18
  -13.8900003       1.21806750E-18
  -13.8800001       5.82819569E-20
  -13.8699999      -1.49747484E-18
  -13.8599997      -3.10670406E-18
  -13.8500004      -4.30750375E-18
  -13.8400002      -4.62060815E-18
  -13.8299999      -3.68518145E-18
  -13.8199997      -1.39757159E-18
  -13.8100004       1.98670689E-18
  -13.8000002       5.82694396E-18
  -13.7900000       9.17428333E-18
  -13.7799997       1.09562446E-17
  -13.7700005       1.02435681E-17
  -13.7600002       6.54495575E-18
  -13.7500000       5.44905293E-20
  -13.7399998      -8.22800443E-18
  -13.7299995      -1.65667667E-17
  -13.7200003      -2.27754007E-17
  -13.7100000      -2.46902097E-17
  -13.6999998      -2.07469917E-17
  -13.6899996      -1.05307677E-17
  -13.6800003       4.85336975E-18
  -13.6700001       2.27242462E-17
  -13.6599998       3.91652749E-17
  -13.6499996       4.97560686E-17
  -13.6400003       5.05859988E-17
  -13.6300001       3.93453488E-17
  -13.6199999       1.62298014E-17
  -13.6099997      -1.56094590E-17
  -13.6000004      -5.02714981E-17
  -13.5900002      -8.00381681E-17
  -13.5799999      -9.69310690E-17
  -13.5699997      -9.46124222E-17
  -13.5600004      -7.02116727E-17
  -13.5500002      -2.56066646E-17
  -13.5400000       3.22534298E-17
  -13.5299997       9.22194482E-17
  -13.5200005       1.40976815E-16
  -13.5100002       1.65911176E-16
  -13.5000000       1.58208933E-16
  -13.4899998       1.15448420E-16
  -13.4799995       4.29611306E-17
  -13.4700003      -4.65402385E-17
  -13.4600000      -1.35188788E-16
  -13.4499998      -2.03700359E-16
  -13.4399996      -2.35837504E-16
  -13.4300003      -2.22530696E-16
  -13.4200001      -1.64553448E-16
  -13.4099998      -7.29105778E-17
  -13.3999996       3.33748881E-17
  -13.3900003       1.31712419E-16
  -13.3800001       2.01610266E-16
  -13.3699999       2.30083556E-16
  -13.3599997       2.15246821E-16
  -13.3500004       1.66887738E-16
  -13.3400002       1.03567599E-16
  -13.3299999       4.67747376E-17
  -13.3199997       1.36143606E-17
  -13.3100004       1.01675411E-17
  -13.3000002       2.77585468E-17
  -13.2900000       4.38203165E-17
  -13.2799997       2.79041736E-17
  -13.2700005      -4.81131886E-17
  -13.2600002      -1.98045687E-16
  -13.2500000      -4.11067445E-16
  -13.2399998      -6.46666457E-16
  -13.2299995      -8.37698591E-16
  -13.2200003      -9.02595556E-16
  -13.2100000      -7.65391941E-16
  -13.1999998      -3.79761901E-16
  -13.1899996       2.48641995E-16
  -13.1800003       1.04801385E-15
  -13.1700001       1.88005400E-15
  -13.1599998       2.55672766E-15
  -13.1499996       2.87373397E-15
  -13.1400003       2.65605498E-15
  -13.1300001       1.80706178E-15
  -13.1199999       3.50131974E-16
  -13.1099997      -1.54867407E-15
  -13.1000004      -3.58605840E-15
  -13.0900002      -5.35947350E-15
  -13.0799999      -6.43543319E-15
  -13.0699997      -6.43855154E-15
  -13.0600004      -5.14527623E-15
  -13.0500002      -2.56222448E-15
  -13.0400000       1.03114096E-15
  -13.0299997       5.09148328E-15
  -13.0200005       8.87948789E-15
  -13.0100002       1.15821371E-14
  -13.0000000       1.24718986E-14
  -12.9899998       1.10741841E-14
  -12.9799995       7.30778014E-15
  -12.9700003       1.56322736E-15
  -12.9600000      -5.30770962E-15
  -12.9499998      -1.21025880E-14
  -12.9399996      -1.74693363E-14
  -12.9300003      -2.01666585E-14
  -12.9200001      -1.93350330E-14
  -12.9099998      -1.47204992E-14
  -12.8999996      -6.79669528E-15
  -12.8900003       3.25326064E-15
  -12.8800001       1.37064000E-14
  -12.8699999       2.25995319E-14
  -12.8599997       2.81058441E-14
  -12.8500004       2.89131986E-14
  -12.8400002       2.45219884E-14
  -12.8299999       1.53921794E-14
  -12.8199997       2.89866321E-15
  -12.8100004      -1.09047742E-14
  -12.8000002      -2.36684909E-14
  -12.7900000      -3.31971016E-14
  -12.7799997      -3.78680750E-14
  -12.7700005      -3.69252460E-14
  -12.7600002      -3.05820026E-14
  -12.7500000      -1.99141698E-14
  -12.7399998      -6.57449398E-15
  -12.7299995       7.59458465E-15
  -12.7200003       2.09475551E-14
  -12.7100000       3.23208122E-14
  -12.6999998       4.11435615E-14
  -12.6899996       4.73517438E-14
  -12.6800003       5.11392855E-14
  -12.6700001       5.26303176E-14
  -12.6599998       5.15829343E-14
  -12.6499996       4.72311094E-14
  -12.6400003       3.83361555E-14
  -12.6300001       2.34607645E-14
  -12.6199999       1.41375421E-15
  -12.6099997      -2.82402919E-14
  -12.6000004      -6.47388027E-14
  -12.5900002      -1.05868940E-13
  -12.5799999      -1.47982809E-13
  -12.5699997      -1.86290192E-13
  -12.5600004      -2.15365906E-13
  -12.5500002      -2.29756237E-13
  -12.5400000      -2.24548041E-13
  -12.5299997      -1.95788183E-13
  -12.5200005      -1.40703191E-13
  -12.5100002      -5.77491004E-14
  -12.5000000       5.33986951E-14
  -12.4899998       1.91761361E-13
  -12.4799995       3.54725499E-13
  -12.4700003       5.37371851E-13
  -12.4600000       7.31478680E-13
  -12.4499998       9.24338080E-13
  -12.4399996       1.09763836E-12
  -12.4300003       1.22673356E-12
  -12.4200001       1.28061472E-12
  -12.4099998       1.22281536E-12
  -12.3999996       1.01332668E-12
  -12.3900003       6.11428876E-13
  -12.3800001      -2.08464278E-14
  -12.3699999      -9.15019796E-13
  -12.3599997      -2.09268171E-12
  -12.3500004      -3.56262264E-12
  -12.3400002      -5.31883522E-12
  -12.3299999      -7.33950747E-12
  -12.3199997      -9.58694322E-12
  -12.3100004      -1.20082147E-11
  -12.3000002      -1.45363565E-11
  -12.2900000      -1.70918696E-11
  -12.2799997      -1.95845319E-11
  -12.2700005      -2.19155510E-11
  -12.2600002      -2.39801529E-11
  -12.2500000      -2.56709220E-11
  -12.2399998      -2.68819307E-11
  -12.2299995      -2.75135886E-11
  -12.2200003      -2.74780823E-11
  -12.2100000      -2.67047530E-11
  -12.1999998      -2.51449608E-11
  -12.1899996      -2.27756113E-11
  -12.1800003      -1.96009320E-11
  -12.1700001      -1.56520959E-11
  -12.1599998      -1.09847209E-11
  -12.1499996      -5.67474366E-12
  -12.1400003       1.86825937E-13
  -12.1300001       6.49934620E-12
  -12.1199999       1.31575471E-11
  -12.1099997       2.00555059E-11
  -12.1000004       2.70892510E-11
  -12.0900002       3.41582942E-11
  -12.0799999       4.11664036E-11
  -12.0699997       4.80221279E-11
  -12.0600004       5.46396470E-11
  -12.0500002       6.09401210E-11
  -12.0400000       6.68537586E-11
  -12.0299997       7.23219540E-11
  -12.0200005       7.72990214E-11
  -12.0100002       8.17529239E-11
  -12.0000000       8.56641563E-11
  -11.9899998       8.90226989E-11
  -11.9799995       9.18228341E-11
  -11.9700003       9.40569081E-11
  -11.9600000       9.57084204E-11
  -11.9499998       9.67459030E-11
  -11.9399996       9.71185701E-11
  -11.9300003       9.67547778E-11
  -11.9200001       9.55634669E-11
  -11.9099998       9.34387775E-11
  -11.8999996       9.02674185E-11
  -11.8900003       8.59375349E-11
  -11.8800001       8.03482073E-11
  -11.8699999       7.34185629E-11
  -11.8599997       6.50952070E-11
  -11.8500004       5.53574998E-11
  -11.8400002       4.42201033E-11
  -11.8299999       3.17329808E-11
  -11.8199997       1.79787053E-11
  -11.8100004       3.06816183E-12
  -11.8000002      -1.28652046E-11
  -11.7900000      -2.96713348E-11
  -11.7799997      -4.71895023E-11
  -11.7700005      -6.52532195E-11
  -11.7600002      -8.36937186E-11
  -11.7500000      -1.02342405E-10
  -11.7399998      -1.21031421E-10
  -11.7299995      -1.39593906E-10
  -11.7200003      -1.57863667E-10
  -11.7100000      -1.75675530E-10
  -11.6999998      -1.92866514E-10
  -11.6899996      -2.09278039E-10
  -11.6800003      -2.24759322E-10
  -11.6700001      -2.39170850E-10
  -11.6599998      -2.52387555E-10
  -11.6499996      -2.64300415E-10
  -11.6400003      -2.74815337E-10
  -11.6300001      -2.83850027E-10
  -11.6199999      -2.91328489E-10
  -11.6099997      -2.97173508E-10
  -11.6000004      -3.01300040E-10
  -11.5900002      -3.03610165E-10
  -11.5799999      -3.03991082E-10
  -11.5699997      -3.02317588E-10
  -11.5600004      -2.98457925E-10
  -11.5500002      -2.92284419E-10
  -11.5400000      -2.83684742E-10
  -11.5299997      -2.72572326E-10
  -11.5200005      -2.58895905E-10
  -11.5100002      -2.42642878E-10
  -11.5000000      -2.23839267E-10
  -11.4899998      -2.02543149E-10
  -11.4799995      -1.78835141E-10
  -11.4700003      -1.52806018E-10
  -11.4600000      -1.24543334E-10
  -11.4499998      -9.41208222E-11
  -11.4399996      -6.15907256E-11
  -11.4300003      -2.69803676E-11
  -11.4200001       9.70604586E-12
  -11.4099998       4.84804696E-11
  -11.3999996       8.93606786E-11
  -11.3900003       1.32357375E-10
  -11.3800001       1.77461032E-10
  -11.3699999       2.24629718E-10
  -11.3599997       2.73780248E-10
  -11.3500004       3.24784505E-10
  -11.3400002       3.77471304E-10
  -11.3299999       4.31634645E-10
  -11.3199997       4.87046070E-10
  -11.3100004       5.43470768E-10
  -11.3000002       6.00683225E-10
  -11.2900000       6.58481436E-10
  -11.2799997       7.16693982E-10
  -11.2700005       7.75182363E-10
  -11.2600002       8.33835057E-10
  -11.2500000       8.92556695E-10
  -11.2399998       9.51254076E-10
  -11.2299995       1.00982334E-09
  -11.2200003       1.06813902E-09
  -11.2100000       1.12605192E-09
  -11.1999998       1.18339105E-09
  -11.1899996       1.23997290E-09
  -11.1800003       1.29561273E-09
  -11.1700001       1.35013889E-09
  -11.1599998       1.40340273E-09
  -11.1499996       1.45528434E-09
  -11.1400003       1.50569601E-09
  -11.1300001       1.55457891E-09
  -11.1199999       1.60189917E-09
  -11.1099997       1.64764857E-09
  -11.1000004       1.69183778E-09
  -11.0900002       1.73450110E-09
  -11.0799999       1.77569759E-09
  -11.0699997       1.81551463E-09
  -11.0600004       1.85406357E-09
  -11.0500002       1.89148164E-09
  -11.0400000       1.92792005E-09
  -11.0299997       1.96353245E-09
  -11.0200005       1.99846650E-09
  -11.0100002       2.03285389E-09
  -11.0000000       2.06680340E-09
  -10.9899998       2.10040585E-09
  -10.9799995       2.13372986E-09
  -10.9700003       2.16683493E-09
  -10.9600000       2.19977014E-09
  -10.9499998       2.23257546E-09
  -10.9399996       2.26528241E-09
  -10.9300003       2.29790165E-09
  -10.9200001       2.33041919E-09
  -10.9099998       2.36279751E-09
  -10.8999996       2.39497999E-09
  -10.8900003       2.42689957E-09
  -10.8800001       2.45850540E-09
  -10.8699999       2.48977083E-09
  -10.8599997       2.52071453E-09
  -10.8500004       2.55140686E-09
  -10.8400002       2.58194399E-09
  -10.8299999       2.61242761E-09
  -10.8199997       2.64293232E-09
  -10.8100004       2.67347100E-09
  -10.8000002       2.70397171E-09
  -10.7900000       2.73427436E-09
  -10.7799997       2.76414180E-09
  -10.7700005       2.79329782E-09
  -10.7600002       2.82147994E-09
  -10.7500000       2.84847967E-09
  -10.7399998       2.87417845E-09
  -10.7299995       2.89857827E-09
  -10.7200003       2.92177726E-09
  -10.7100000       2.94394153E-09
  -10.6999998       2.96525871E-09
  -10.6899996       2.98589220E-09
  -10.6800003       3.00593905E-09
  -10.6700001       3.02541103E-09
  -10.6599998       3.04422842E-09
  -10.6499996       3.06225356E-09
  -10.6400003       3.07933035E-09
  -10.6300001       3.09532155E-09
  -10.6199999       3.11015436E-09
  -10.6099997       3.12383830E-09
  -10.6000004       3.13646820E-09
  -10.5900002       3.14821302E-09
  -10.5799999       3.15929527E-09
  -10.5699997       3.16995430E-09
  -10.5600004       3.18042992E-09
  -10.5500002       3.19093085E-09
  -10.5400000       3.20162963E-09
  -10.5299997       3.21265747E-09
  -10.5200005       3.22409877E-09
  -10.5100002       3.23602256E-09
  -10.5000000       3.24845995E-09
  -10.4899998       3.26145000E-09
  -10.4799995       3.27500449E-09
  -10.4700003       3.28913963E-09
  -10.4600000       3.30385674E-09
  -10.4499998       3.31915162E-09
  -10.4399996       3.33501649E-09
  -10.4300003       3.35142891E-09
  -10.4200001       3.36836203E-09
  -10.4099998       3.38579986E-09
  -10.3999996       3.40374195E-09
  -10.3900003       3.42222450E-09
  -10.3800001       3.44133366E-09
  -10.3699999       3.46120155E-09
  -10.3599997       3.48201312E-09
  -10.3500004       3.50398444E-09
  -10.3400002       3.52733820E-09
  -10.3299999       3.55225471E-09
  -10.3199997       3.57883390E-09
  -10.3100004       3.60708707E-09
  -10.3000002       3.63689701E-09
  -10.2900000       3.66805297E-09
  -10.2799997       3.70028852E-09
  -10.2700005       3.73335585E-09
  -10.2600002       3.76706577E-09
  -10.2500000       3.80135745E-09
  -10.2399998       3.83633614E-09
  -10.2299995       3.87224430E-09
  -10.2200003       3.90943899E-09
  -10.2100000       3.94831989E-09
  -10.1999998       3.98925293E-09
  -10.1899996       4.03248990E-09
  -10.1800003       4.07814138E-09
  -10.1700001       4.12616874E-09
  -10.1599998       4.17640100E-09
  -10.1499996       4.22861035E-09
  -10.1400003       4.28255742E-09
  -10.1300001       4.33804948E-09
  -10.1199999       4.39497860E-09
  -10.1099997       4.45331994E-09
  -10.1000004       4.51313031E-09
  -10.0900002       4.57450433E-09
  -10.0799999       4.63757521E-09
  -10.0699997       4.70249795E-09
  -10.0600004       4.76942130E-09
  -10.0500002       4.83855978E-09
  -10.0400000       4.91014518E-09
  -10.0299997       4.98449282E-09
  -10.0200005       5.06194775E-09
  -10.0100002       5.14290699E-09
  -10.0000000       5.22773380E-09
  -9.98999977       5.31671018E-09
  -9.97999954       5.41002931E-09
  -9.97000027       5.50774404E-09
  -9.96000004       5.60978908E-09
  -9.94999981       5.71603476E-09
  -9.93999958       5.82632076E-09
  -9.93000031       5.94049920E-09
  -9.92000008       6.05847550E-09
  -9.90999985       6.18017681E-09
  -9.89999962       6.30554275E-09
  -9.89000034       6.43451870E-09
  -9.88000011       6.56697674E-09
  -9.86999989       6.70272637E-09
  -9.85999966       6.84150114E-09
  -9.85000038       6.98304881E-09
  -9.84000015       7.12716286E-09
  -9.82999992       7.27377181E-09
  -9.81999969       7.42296447E-09
  -9.81000042       7.57505259E-09
  -9.80000019       7.73046960E-09
  -9.78999996       7.88976173E-09
  -9.77999973       8.05349032E-09
  -9.77000046       8.22213053E-09
  -9.76000023       8.39601633E-09
  -9.75000000       8.57535287E-09
  -9.73999977       8.76020412E-09
  -9.72999954       8.95059049E-09
  -9.72000027       9.14655995E-09
  -9.71000004       9.34822797E-09
  -9.69999981       9.55583168E-09
  -9.68999958       9.76972547E-09
  -9.68000031       9.99032324E-09
  -9.67000008       1.02180486E-08
  -9.65999985       1.04532276E-08
  -9.64999962       1.06960432E-08
  -9.64000034       1.09465086E-08
  -9.63000011       1.12044383E-08
  -9.61999989       1.14695524E-08
  -9.60999966       1.17414478E-08
  -9.60000038       1.20196617E-08
  -9.59000015       1.23036852E-08
  -9.57999992       1.25928921E-08
  -9.56999969       1.28865505E-08
  -9.56000042       1.31836977E-08
  -9.55000019       1.34831151E-08
  -9.53999996       1.37833309E-08
  -9.52999973       1.40825769E-08
  -9.52000046       1.43789611E-08
  -9.51000023       1.46704719E-08
  -9.50000000       1.49552282E-08
  -9.48999977       1.52314694E-08
  -9.47999954       1.54977098E-08
  -9.47000027       1.57526951E-08
  -9.46000004       1.59954521E-08
  -9.44999981       1.62251848E-08
  -9.43999958       1.64412821E-08
  -9.43000031       1.66432486E-08
  -9.42000008       1.68308443E-08
  -9.40999985       1.70040018E-08
  -9.39999962       1.71629235E-08
  -9.39000034       1.73082331E-08
  -9.38000011       1.74408576E-08
  -9.36999989       1.75621206E-08
  -9.35999966       1.76736155E-08
  -9.35000038       1.77771486E-08
  -9.34000015       1.78746067E-08
  -9.32999992       1.79678441E-08
  -9.31999969       1.80587563E-08
  -9.31000042       1.81492457E-08
  -9.30000019       1.82412556E-08
  -9.28999996       1.83368787E-08
  -9.27999973       1.84383637E-08
  -9.27000046       1.85481479E-08
  -9.26000023       1.86687394E-08
  -9.25000000       1.88026519E-08
  -9.23999977       1.89522744E-08
  -9.22999954       1.91197689E-08
  -9.22000027       1.93070253E-08
  -9.21000004       1.95157490E-08
  -9.19999981       1.97474428E-08
  -9.18999958       2.00035242E-08
  -9.18000031       2.02854018E-08
  -9.17000008       2.05944453E-08
  -9.15999985       2.09319797E-08
  -9.14999962       2.12989963E-08
  -9.14000034       2.16962235E-08
  -9.13000011       2.21239542E-08
  -9.11999989       2.25819097E-08
  -9.10999966       2.30694113E-08
  -9.10000038       2.35854642E-08
  -9.09000015       2.41288998E-08
  -9.07999992       2.46985685E-08
  -9.06999969       2.52933177E-08
  -9.06000042       2.59119552E-08
  -9.05000019       2.65531828E-08
  -9.03999996       2.72153748E-08
  -9.02999973       2.78964372E-08
  -9.02000046       2.85938047E-08
  -9.01000023       2.93044362E-08
  -9.00000000       3.00249674E-08
  -8.98999977       3.07519450E-08
  -8.97999954       3.14821236E-08
  -8.97000027       3.22124833E-08
  -8.96000004       3.29403314E-08
  -8.94999981       3.36631345E-08
  -8.93999958       3.43784876E-08
  -8.93000031       3.50837404E-08
  -8.92000008       3.57758942E-08
  -8.90999985       3.64516985E-08
  -8.89999962       3.71075792E-08
  -8.89000034       3.77399765E-08
  -8.88000011       3.83456324E-08
  -8.86999989       3.89216339E-08
  -8.85999966       3.94656965E-08
  -8.85000038       3.99759728E-08
  -8.84000015       4.04509670E-08
  -8.82999992       4.08894465E-08
  -8.81999969       4.12900825E-08
  -8.81000042       4.16517416E-08
  -8.80000019       4.19732125E-08
  -8.78999996       4.22535997E-08
  -8.77999973       4.24926370E-08
  -8.77000046       4.26905267E-08
  -8.76000023       4.28482210E-08
  -8.75000000       4.29673150E-08
  -8.73999977       4.30495462E-08
  -8.72999954       4.30967511E-08
  -8.72000027       4.31105569E-08
  -8.71000004       4.30922427E-08
  -8.69999981       4.30427072E-08
  -8.68999958       4.29629452E-08
  -8.68000031       4.28539941E-08
  -8.67000008       4.27174207E-08
  -8.65999985       4.25551931E-08
  -8.64999962       4.23699085E-08
  -8.64000034       4.21643271E-08
  -8.63000011       4.19411670E-08
  -8.61999989       4.17028438E-08
  -8.60999966       4.14510701E-08
  -8.60000038       4.11872776E-08
  -8.59000015       4.09123651E-08
  -8.57999992       4.06272882E-08
  -8.56999969       4.03333580E-08
  -8.56000042       4.00321767E-08
  -8.55000019       3.97259221E-08
  -8.53999996       3.94172375E-08
  -8.52999973       3.91089330E-08
  -8.52000046       3.88034778E-08
  -8.51000023       3.85029821E-08
  -8.50000000       3.82088245E-08
  -8.48999977       3.79221206E-08
  -8.47999954       3.76437477E-08
  -8.47000027       3.73743774E-08
  -8.46000004       3.71149156E-08
  -8.44999981       3.68666164E-08
  -8.43999958       3.66306239E-08
  -8.43000031       3.64082275E-08
  -8.42000008       3.62004222E-08
  -8.40999985       3.60076307E-08
  -8.39999962       3.58298173E-08
  -8.39000034       3.56665382E-08
  -8.38000011       3.55171714E-08
  -8.36999989       3.53811700E-08
  -8.35999966       3.52581750E-08
  -8.35000038       3.51483358E-08
  -8.34000015       3.50523557E-08
  -8.32999992       3.49709985E-08
  -8.31999969       3.49051383E-08
  -8.31000042       3.48554536E-08
  -8.30000019       3.48222535E-08
  -8.28999996       3.48052076E-08
  -8.27999973       3.48039748E-08
  -8.27000046       3.48180045E-08
  -8.26000023       3.48465576E-08
  -8.25000000       3.48893465E-08
  -8.23999977       3.49461722E-08
  -8.22999954       3.50169422E-08
  -8.22000027       3.51016851E-08
  -8.21000004       3.52004044E-08
  -8.19999981       3.53130325E-08
  -8.18999958       3.54393030E-08
  -8.18000031       3.55792302E-08
  -8.17000008       3.57326400E-08
  -8.15999985       3.59000545E-08
  -8.14999962       3.60819499E-08
  -8.14000034       3.62793102E-08
  -8.13000011       3.64935460E-08
  -8.11999989       3.67261457E-08
  -8.10999966       3.69790456E-08
  -8.10000038       3.72538409E-08
  -8.09000015       3.75524820E-08
  -8.07999992       3.78765606E-08
  -8.06999969       3.82281726E-08
  -8.06000042       3.86089951E-08
  -8.05000019       3.90208612E-08
  -8.03999996       3.94656396E-08
  -8.02999973       3.99450606E-08
  -8.02000046       4.04605665E-08
  -8.01000023       4.10137844E-08
  -8.00000000       4.16057446E-08
  -7.98999977       4.22373958E-08
  -7.98000002       4.29095515E-08
  -7.96999979       4.36226379E-08
  -7.96000004       4.43769252E-08
  -7.94999981       4.51725519E-08
  -7.94000006       4.60091769E-08
  -7.92999983       4.68864343E-08
  -7.92000008       4.78035993E-08
  -7.90999985       4.87599294E-08
  -7.90000010       4.97545258E-08
  -7.88999987       5.07865145E-08
  -7.88000011       5.18547694E-08
  -7.86999989       5.29582103E-08
  -7.86000013       5.40956044E-08
  -7.84999990       5.52656054E-08
  -7.84000015       5.64663019E-08
  -7.82999992       5.76956722E-08
  -7.82000017       5.89513895E-08
  -7.80999994       6.02310166E-08
  -7.80000019       6.15321483E-08
  -7.78999996       6.28525711E-08
  -7.78000021       6.41903952E-08
  -7.76999998       6.55439791E-08
  -7.76000023       6.69114684E-08
  -7.75000000       6.82916337E-08
  -7.73999977       6.96826490E-08
  -7.73000002       7.10827237E-08
  -7.71999979       7.24898825E-08
  -7.71000004       7.39021075E-08
  -7.69999981       7.53178782E-08
  -7.69000006       7.67356454E-08
  -7.67999983       7.81545353E-08
  -7.67000008       7.95734820E-08
  -7.65999985       8.09917609E-08
  -7.65000010       8.24089881E-08
  -7.63999987       8.38242897E-08
  -7.63000011       8.52371116E-08
  -7.61999989       8.66462315E-08
  -7.61000013       8.80507827E-08
  -7.59999990       8.94497845E-08
  -7.59000015       9.08428817E-08
  -7.57999992       9.22296692E-08
  -7.57000017       9.36107298E-08
  -7.55999994       9.49864472E-08
  -7.55000019       9.63574465E-08
  -7.53999996       9.77246799E-08
  -7.53000021       9.90884388E-08
  -7.51999998       1.00449441E-07
  -7.51000023       1.01807828E-07
  -7.50000000       1.03164368E-07
  -7.48999977       1.04519764E-07
  -7.48000002       1.05875053E-07
  -7.46999979       1.07231557E-07
  -7.46000004       1.08591038E-07
  -7.44999981       1.09955003E-07
  -7.44000006       1.11325186E-07