  -16.0000000       0.00000000    
  -15.9899998       0.00000000    
  -15.9799995       0.00000000    
  -15.9700003       0.00000000    
  -15.9600000       0.00000000    
  -15.9499998       0.00000000    
  -15.9399996       0.00000000    
  -15.9300003       0.00000000    
  -15.9200001       0.00000000    
  -15.9099998       0.00000000    
  -15.8999996       0.00000000    
  -15.8900003       4.73372634E-41
  -15.8800001       6.29927100E-40
  -15.8699999       2.65102548E-39
  -15.8599997      -1.24131698E-38
  -15.8500004      -2.63363643E-37
  -15.8400002      -2.21842757E-36
  -15.8299999      -1.34014549E-35
  -15.8199997      -6.61183602E-35
  -15.8100004      -2.80974787E-34
  -15.8000002      -1.05408048E-33
  -15.7900000      -3.52885020E-33
  -15.7799997      -1.05805534E-32
  -15.7700005      -2.83934048E-32
  -15.7600002      -6.79047645E-32
  -15.7500000      -1.43371073E-31
  -15.7399998      -2.62070917E-31
  -15.7299995      -3.96603613E-31
  -15.7200003      -4.34517772E-31
  -15.7100000      -1.16656283E-31
  -15.6999998       9.90322958E-31
  -15.6899996       3.40136381E-30
  -15.6800003       7.40444456E-30
  -15.6700001       1.25162290E-29
  -15.6599998       1.68777471E-29
  -15.6499996       1.70182874E-29
  -15.6400003       8.51234253E-30
  -15.6300001      -1.23011064E-29
  -15.6199999      -4.62834068E-29
  -15.6099997      -9.08779415E-29
  -15.6000004      -1.42408051E-28
  -15.5900002      -1.99822105E-28
  -15.5799999      -2.62710639E-28
  -15.5699997      -3.11807456E-28
  -15.5600004      -2.65187698E-28
  -15.5500002       7.25893468E-29
  -15.5400000       1.00801074E-27
  -15.5299997       2.80314924E-27
  -15.5200005       5.28418092E-27
  -15.5100002       7.26668313E-27
  -15.5000000       6.12715044E-27
  -15.4899998      -1.82857804E-27
  -15.4799995      -1.94467648E-26
  -15.4700003      -4.49954088E-26
  -15.4600000      -6.77054971E-26
  -15.4499998      -6.56378434E-26
  -15.4399996      -1.04767877E-26
  -15.4300003       1.16842786E-25
  -15.4200001       3.00521591E-25
  -15.4099998       4.64211560E-25
  -15.3999996       4.65508102E-25
  -15.3900003       1.35382706E-25
  -15.3800001      -6.23151995E-25
  -15.3699999      -1.69425609E-24
  -15.3599997      -2.63092567E-24
  -15.3500004      -2.66576965E-24
  -15.3400002      -9.58277758E-25
  -15.3299999       2.89060882E-24
  -15.3199997       8.18888974E-24
  -15.3100004       1.27049733E-23
  -15.3000002       1.28896827E-23
  -15.2900000       5.15280591E-24
  -15.2799997      -1.18353811E-23
  -15.2700005      -3.45541966E-23
  -15.2600002      -5.32308887E-23
  -15.2500000      -5.34067857E-23
  -15.2399998      -2.16063922E-23
  -15.2299995       4.55867413E-23
  -15.2200003       1.32388089E-22
  -15.2100000       2.00251243E-22
  -15.1999998       1.95822805E-22
  -15.1899996       7.31321328E-23
  -15.1800003      -1.74194927E-22
  -15.1700001      -4.83583044E-22
  -15.1599998      -7.16108290E-22
  -15.1499996      -6.88679559E-22
  -15.1400003      -2.50785748E-22
  -15.1300001       6.11875506E-22
  -15.1199999       1.68949247E-21
  -15.1099997       2.53260671E-21
  -15.1000004       2.55527441E-21
  -15.0900002       1.26244432E-21
  -15.0799999      -1.45569692E-21
  -15.0699997      -5.07956791E-21
  -15.0600004      -8.40644673E-21
  -15.0500002      -9.78652812E-21
  -15.0400000      -7.64230795E-21
  -15.0299997      -1.12998183E-21
  -15.0200005       9.29643572E-21
  -15.0100002       2.16526174E-20
  -15.0000000       3.26272765E-20
  -14.9899998       3.81250323E-20
  -14.9799995       3.39100592E-20
  -14.9700003       1.61700837E-20
  -14.9600000      -1.78720772E-20
  -14.9499998      -6.87563834E-20
  -14.9399996      -1.32283409E-19
  -14.9300003      -1.95525218E-19
  -14.9200001      -2.32608746E-19
  -14.9099998      -2.03589854E-19
  -14.8999996      -6.13345442E-20
  -14.8900003       2.29202080E-19
  -14.8800001       6.59095289E-19
  -14.8699999       1.13893392E-18
  -14.8599997       1.47570748E-18
  -14.8500004       1.38829765E-18
  -14.8400002       5.84382940E-19
  -14.8299999      -1.09596975E-18
  -14.8199997      -3.49809966E-18
  -14.8100004      -6.00127434E-18
  -14.8000002      -7.49891090E-18
  -14.7900000      -6.61003047E-18
  -14.7799997      -2.16686827E-18
  -14.7700005       6.08848192E-18
  -14.7600002       1.68115956E-17
  -14.7500000       2.67065203E-17
  -14.7399998       3.08898126E-17
  -14.7299995       2.42051311E-17
  -14.7200003       3.40540952E-18
  -14.7100000      -3.03346652E-17
  -14.6999998      -6.95531311E-17
  -14.6899996      -1.00470396E-16
  -14.6800003      -1.05749496E-16
  -14.6700001      -7.02156300E-17
  -14.6599998       1.15432269E-17
  -14.6499996       1.28128861E-16
  -14.6400003       2.48175783E-16
  -14.6300001       3.24259644E-16
  -14.6199999       3.05412393E-16
  -14.6099997       1.56753254E-16
  -14.6000004      -1.18964322E-16
  -14.5900002      -4.66150395E-16
  -14.5799999      -7.76596493E-16
  -14.5699997      -9.11488237E-16
  -14.5600004      -7.45089250E-16
  -14.5500002      -2.20906510E-16
  -14.5400000       5.97672853E-16
  -14.5299997       1.50511264E-15
  -14.5200005       2.17993204E-15
  -14.5100002       2.26751736E-15
  -14.5000000       1.50789335E-15
  -14.4899998      -1.25574209E-16
  -14.4799995      -2.32752054E-15
  -14.4700003      -4.45564784E-15
  -14.4600000      -5.65570972E-15
  -14.4499998      -5.11468182E-15
  -14.4399996      -2.39000129E-15
  -14.4300003       2.28482775E-15
  -14.4200001       7.84340312E-15
  -14.4099998       1.24900014E-14
  -14.3999996       1.41148054E-14
  -14.3900003       1.09729222E-14
  -14.3800001       2.46542471E-15
  -14.3699999      -1.02302590E-14
  -14.3599997      -2.39614542E-14
  -14.3500004      -3.40492676E-14
  -14.3400002      -3.54406446E-14
  -14.3299999      -2.43870611E-14
  -14.3199997      -2.33142828E-16
  -14.3100004       3.32721115E-14
  -14.3000002       6.77496118E-14
  -14.2900000       9.14802766E-14
  -14.2799997       9.22650560E-14
  -14.2700005       6.14031937E-14
  -14.2600002      -2.17332179E-15
  -14.2500000      -8.89215120E-14
  -14.2399998      -1.78211097E-13
  -14.2299995      -2.41311257E-13
  -14.2200003      -2.47995634E-13
  -14.2100000      -1.75822505E-13
  -14.1999998      -2.00065794E-14
  -14.1899996       1.99047335E-13
  -14.1800003       4.33678673E-13
  -14.1700001       6.14806383E-13
  -14.1599998       6.66426007E-13
  -14.1499996       5.27093668E-13
  -14.1400003       1.74017227E-13
  -14.1300001      -3.56863058E-13
  -14.1199999      -9.62338499E-13
  -14.1099997      -1.48138424E-12
  -14.1000004      -1.72557856E-12
  -14.0900002      -1.52796536E-12
  -14.0799999      -8.01297017E-13
  -14.0699997       4.09267672E-13
  -14.0600004       1.89703982E-12
  -14.0500002       3.30479134E-12
  -14.0400000       4.18524633E-12
  -14.0299997       4.10808887E-12
  -14.0200005       2.79517598E-12
  -14.0100002       2.51222437E-13
  -14.0000000      -3.15138952E-12
  -13.9899998      -6.67339795E-12
  -13.9799995      -9.32022862E-12
  -13.9700003      -1.00629045E-11
  -13.9600000      -8.13291795E-12
  -13.9499998      -3.32300073E-12
  -13.9399996       3.79507233E-12
  -13.9300003       1.18237659E-11
  -13.9200001       1.87242027E-11
  -13.9099998       2.22379094E-11
  -13.8999996       2.04824144E-11
  -13.8900003       1.25889880E-11
  -13.8800001      -7.94468929E-13
  -13.8699999      -1.73155570E-11
  -13.8599997      -3.31744146E-11
  -13.8500004      -4.38551105E-11
  -13.8400002      -4.52284807E-11
  -13.8299999      -3.47924189E-11
  -13.8199997      -1.27250814E-11
  -13.8100004       1.75884116E-11
  -13.8000002       4.98139620E-11
  -13.7900000       7.57969729E-11
  -13.7799997       8.74164491E-11
  -13.7700005       7.87869076E-11
  -13.7600002       4.82622067E-11
  -13.7500000      -3.47361815E-13
  -13.7399998      -5.78170289E-11
  -13.7299995      -1.11012151E-10
  -13.7200003      -1.45688114E-10
  -13.7100000      -1.50036372E-10
  -13.6999998      -1.18137236E-10
  -13.6899996      -5.23807733E-11
  -13.6800003       3.59397789E-11
  -13.6700001       1.28275723E-10
  -13.6599998       2.02577830E-10
  -13.6499996       2.38443182E-10
  -13.6400003       2.22475732E-10
  -13.6300001       1.52483082E-10
  -13.6199999       3.92781849E-11
  -13.6099997      -9.46484141E-11
  -13.6000004      -2.19573471E-10
  -13.5900002      -3.05265674E-10
  -13.5799999      -3.28465533E-10
  -13.5699997      -2.79247847E-10
  -13.5600004      -1.64512043E-10
  -13.5500002      -7.44355012E-12
  -13.5400000       1.57243510E-10
  -13.5299997       2.91369345E-10
  -13.5200005       3.62782915E-10
  -13.5100002       3.53872764E-10
  -13.5000000       2.66745959E-10
  -13.4899998       1.23434457E-10
  -13.4799995      -3.92836284E-11
  -13.4700003      -1.79416329E-10
  -13.4600000      -2.61305172E-10
  -13.4499998      -2.66079409E-10
  -13.4399996      -1.97924246E-10
  -13.4300003      -8.39678604E-11
  -13.4200001       3.27941042E-11
  -13.4099998       1.06153010E-10
  -13.3999996       1.01738097E-10
  -13.3900003       1.01819473E-11
  -13.3800001      -1.45890910E-10
  -13.3699999      -3.14084259E-10
  -13.3599997      -4.24403679E-10
  -13.3500004      -4.09251411E-10
  -13.3400002      -2.26460614E-10
  -13.3299999       1.21100713E-10
  -13.3199997       5.75900327E-10
  -13.3100004       1.03079256E-09
  -13.3000002       1.34998057E-09
  -13.2900000       1.40272916E-09
  -13.2799997       1.10239573E-09
  -13.2700005       4.40577269E-10
  -13.2600002      -4.94242369E-10
  -13.2500000      -1.52157409E-09
  -13.2399998      -2.40010967E-09
  -13.2299995      -2.88113045E-09
  -13.2200003      -2.77317080E-09
  -13.2100000      -2.00211869E-09
  -13.1999998      -6.49683529E-10
  -13.1899996       1.04354725E-09
  -13.1800003       2.71663159E-09
  -13.1700001       3.96418232E-09
  -13.1599998       4.43457804E-09
  -13.1499996       3.92738997E-09
  -13.1400003       2.46383625E-09
  -13.1300001       3.07969178E-10
  -13.1199999      -2.07331663E-09
  -13.1099997      -4.10833101E-09
  -13.1000004      -5.25751220E-09
  -13.0900002      -5.15721732E-09
  -13.0799999      -3.73276698E-09
  -13.0699997      -1.24717514E-09
  -13.0600004       1.73437986E-09
  -13.0500002       4.46365078E-09
  -13.0400000       6.18859186E-09
  -13.0299997       6.35081054E-09
  -13.0200005       4.75015094E-09
  -13.0100002       1.62945957E-09
  -13.0000000      -2.35006659E-09
  -12.9899998      -6.24543528E-09
  -12.9799995      -9.05269992E-09
  -12.9700003      -9.95933647E-09
  -12.9600000      -8.56304183E-09
  -12.9499998      -4.99643082E-09
  -12.9399996       8.09414480E-11
  -12.9300003       5.62754066E-09
  -12.9200001       1.04683862E-08
  -12.9099998       1.35831204E-08
  -12.8999996       1.43554004E-08
  -12.8900003       1.27132216E-08
  -12.8800001       9.11849174E-09
  -12.8699999       4.40706316E-09
  -12.8599997      -4.74470019E-10
  -12.8500004      -4.75517181E-09
  -12.8400002      -8.05810707E-09
  -12.8299999      -1.04757349E-08
  -12.8199997      -1.24690969E-08
  -12.8100004      -1.46132351E-08
  -12.8000002      -1.72652186E-08
  -12.7900000      -2.02657446E-08
  -12.7799997      -2.27883863E-08
  -12.7700005      -2.34165594E-08
  -12.7600002      -2.04654125E-08
  -12.7500000      -1.24886137E-08
  -12.7399998       1.15763632E-09
  -12.7299995       1.98578451E-08
  -12.7200003       4.15440979E-08
  -12.7100000       6.28654035E-08
  -12.6999998       7.97257300E-08
  -12.6899996       8.80920439E-08
  -12.6800003       8.48864090E-08
  -12.6700001       6.87350408E-08
  -12.6599998       4.03688212E-08
  -12.6499996       2.55237853E-09
  -12.6400003      -4.04556353E-08
  -12.6300001      -8.37734504E-08
  -12.6199999      -1.22857742E-07
  -12.6099997      -1.54275014E-07
  -12.6000004      -1.76045390E-07
  -12.5900002      -1.87440605E-07
  -12.5799999      -1.88285938E-07
  -12.5699997      -1.77986053E-07
  -12.5600004      -1.54617297E-07
  -12.5500002      -1.14464598E-07
  -12.5400000      -5.23043404E-08
  -12.5299997       3.74343507E-08
  -12.5200005       1.58732107E-07
  -12.5100002       3.11599734E-07
  -12.5000000       4.89766933E-07
  -12.4899998       6.79015614E-07
  -12.4799995       8.56664201E-07
  -12.4700003       9.92517585E-07
  -12.4600000       1.05132472E-06
  -12.4499998       9.96481504E-07
  -12.4399996       7.94468804E-07
  -12.4300003       4.19358599E-07
  -12.4200001      -1.43306295E-07
  -12.4099998      -8.93845311E-07
  -12.3999996      -1.81736868E-06
  -12.3900003      -2.88442720E-06
  -12.3800001      -4.05324772E-06
  -12.3699999      -5.27319798E-06
  -12.3599997      -6.48896548E-06
  -12.3500004      -7.64489778E-06
  -12.3400002      -8.68893039E-06
  -12.3299999      -9.57563316E-06
  -12.3199997      -1.02680251E-05
  -12.3100004      -1.07380383E-05
  -12.3000002      -1.09656512E-05
  -12.2900000      -1.09370303E-05
  -12.2799997      -1.06421803E-05
  -12.2700005      -1.00727602E-05
  -12.2600002      -9.22078834E-06
  -12.2500000      -8.07884771E-06
  -12.2399998      -6.64208346E-06
  -12.2299995      -4.91194351E-06
  -12.2200003      -2.90103594E-06
  -12.2100000      -6.38086533E-07
  -12.1999998       1.82834310E-06
  -12.1899996       4.42872852E-06
  -12.1800003       7.07502522E-06
  -12.1700001       9.66707739E-06
  -12.1599998       1.21024850E-05
  -12.1499996       1.42885474E-05
  -12.1400003       1.61542375E-05
  -12.1300001       1.76598696E-05
  -12.1199999       1.88022586E-05
  -12.1099997       1.96140172E-05
  -12.1000004       2.01566163E-05
  -12.0900002       2.05082470E-05
  -12.0799999       2.07485446E-05
  -12.0699997       2.09430327E-05
  -12.0600004       2.11303541E-05
  -12.0500002       2.13147559E-05
  -12.0400000       2.14652955E-05
  -12.0299997       2.15219025E-05
  -12.0200005       2.14069132E-05
  -12.0100002       2.10396993E-05
  -12.0000000       2.03512809E-05
  -11.9899998       1.92960706E-05
  -11.9799995       1.78584323E-05
  -11.9700003       1.60529980E-05
  -11.9600000       1.39191252E-05
  -11.9499998       1.15110715E-05
  -11.9399996       8.88643081E-06
  -11.9300003       6.09568633E-06
  -11.9200001       3.17539957E-06
  -11.9099998       1.46676356E-07
  -11.8999996      -2.98080704E-06
  -11.8900003      -6.20026867E-06
  -11.8800001      -9.49704645E-06
  -11.8699999      -1.28385227E-05
  -11.8599997      -1.61676980E-05
  -11.8500004      -1.94026379E-05
  -11.8400002      -2.24426331E-05
  -11.8299999      -2.51804413E-05
  -11.8199997      -2.75181610E-05
  -11.8100004      -2.93834510E-05
  -11.8000002      -3.07422524E-05
  -11.7900000      -3.16048427E-05
  -11.7799997      -3.20234831E-05
  -11.7700005      -3.20817089E-05
  -11.7600002      -3.18774764E-05
  -11.7500000      -3.15037651E-05
  -11.7399998      -3.10310206E-05
  -11.7299995      -3.04953264E-05
  -11.7200003      -2.98949017E-05
  -11.7100000      -2.91954002E-05
  -11.6999998      -2.83423760E-05
  -11.6899996      -2.72776306E-05
  -11.6800003      -2.59552471E-05
  -11.6700001      -2.43535706E-05
  -11.6599998      -2.24805390E-05
  -11.6499996      -2.03715990E-05
  -11.6400003      -1.80813822E-05
  -11.6300001      -1.56714195E-05
  -11.6199999      -1.31970628E-05
  -11.6099997      -1.06962298E-05
  -11.6000004      -8.18180160E-06
  -11.5900002      -5.63846834E-06
  -11.5799999      -3.02391800E-06
  -11.5699997      -2.73834729E-07
  -11.5600004       2.68966141E-06
  -11.5500002       5.94641051E-06
  -11.5400000       9.56341955E-06
  -11.5299997       1.35775590E-05
  -11.5200005       1.79771814E-05
  -11.5100002       2.26857028E-05
  -11.5000000       2.75513776E-05
  -11.4899998       3.23477507E-05
  -11.4799995       3.67886169E-05
  -11.4700003       4.05584979E-05
  -11.4600000       4.33562163E-05
  -11.4499998       4.49451181E-05
  -11.4399996       4.52004242E-05
  -11.4300003       4.41429438E-05
  -11.4200001       4.19501994E-05
  -11.4099998       3.89397501E-05
  -11.3999996       3.55256307E-05
  -11.3900003       3.21549305E-05
  -11.3800001       2.92364603E-05
  -11.3699999       2.70756736E-05
  -11.3599997       2.58288219E-05
  -11.3500004       2.54853221E-05
  -11.3400002       2.58806576E-05
  -11.3299999       2.67360610E-05
  -11.3199997       2.77156323E-05
  -11.3100004       2.84888683E-05
  -11.3000002       2.87870007E-05
  -11.2900000       2.84439029E-05
  -11.2799997       2.74167342E-05
  -11.2700005       2.57854936E-05
  -11.2600002       2.37339864E-05
  -11.2500000       2.15165783E-05
  -11.2399998       1.94156346E-05
  -11.2299995       1.76945741E-05
  -11.2200003       1.65516321E-05
  -11.2100000       1.60797445E-05
  -11.1999998       1.62389115E-05
  -11.1899996       1.68475890E-05
  -11.1800003       1.75984933E-05
  -11.1700001       1.81009109E-05
  -11.1599998       1.79462895E-05
  -11.1499996       1.67875423E-05
  -11.1400003       1.44169790E-05
  -11.1300001       1.08248832E-05
  -11.1199999       6.22283233E-06
  -11.1099997       1.02198794E-06
  -11.1000004      -4.23265283E-06
  -11.0900002      -8.96014899E-06
  -11.0799999      -1.26519271E-05
  -11.0699997      -1.49652869E-05
  -11.0600004      -1.57790691E-05
  -11.0500002      -1.51981676E-05
  -11.0400000      -1.35067985E-05
  -11.0299997      -1.10842375E-05
  -11.0200005      -8.30671888E-06
  -11.0100002      -5.46213050E-06
  -11.0000000      -2.69948123E-06
  -10.9899998      -2.38703439E-08
  -10.9799995       2.66612869E-06
  -10.9700003       5.51407993E-06
  -10.9600000       8.63638979E-06
  -10.9499998       1.20696568E-05
  -10.9399996       1.57485501E-05
  -10.9300003       1.95168723E-05
  -10.9200001       2.31632239E-05
  -10.9099998       2.64657647E-05
  -10.8999996       2.92301120E-05
  -10.8900003       3.13100027E-05
  -10.8800001       3.26095105E-05
  -10.8699999       3.30743096E-05
  -10.8599997       3.26839254E-05
  -10.8500004       3.14550816E-05
  -10.8400002       2.94588535E-05
  -10.8299999       2.68444910E-05
  -10.8199997       2.38548546E-05
  -10.8100004       2.08166512E-05
  -10.8000002       1.80947645E-05
  -10.7900000       1.60129257E-05
  -10.7799997       1.47581713E-05
  -10.7700005       1.42982153E-05
  -10.7600002       1.43437719E-05
  -10.7500000       1.43790576E-05
  -10.7399998       1.37647885E-05
  -10.7299995       1.18943708E-05
  -10.7200003       8.36344589E-06
  -10.7100000       3.10330233E-06
  -10.6999998      -3.56561554E-06
  -10.6899996      -1.09830144E-05
  -10.6800003      -1.82934218E-05
  -10.6700001      -2.46485833E-05
  -10.6599998      -2.94098736E-05
  -10.6499996      -3.22905398E-05
  -10.6400003      -3.33948665E-05
  -10.6300001      -3.31432857E-05
  -10.6199999      -3.21091393E-05
  -10.6099997      -3.08221752E-05
  -10.6000004      -2.96053622E-05
  -10.5900002      -2.85007736E-05
  -10.5799999      -2.73097448E-05
  -10.5699997      -2.57323027E-05
  -10.5600004      -2.35541684E-05
  -10.5500002      -2.08099009E-05
  -10.5400000      -1.78551436E-05
  -10.5299997      -1.53096389E-05
  -10.5200005      -1.38767800E-05
  -10.5100002      -1.40905013E-05
  -10.5000000      -1.60710642E-05
  -10.4899998      -1.93763190E-05
  -10.4799995      -2.30111582E-05
  -10.4700003      -2.56117473E-05
  -10.4600000      -2.57665124E-05
  -10.4499998      -2.23903808E-05
  -10.4399996      -1.50470742E-05
  -10.4300003      -4.12453255E-06
  -10.4200001       9.19252943E-06
  -10.4099998       2.31519334E-05
  -10.3999996       3.58073012E-05
  -10.3900003       4.54375368E-05
  -10.3800001       5.09039710E-05
  -10.3699999       5.18570778E-05
  -10.3599997       4.87499747E-05
  -10.3500004       4.26704391E-05
  -10.3400002       3.50506052E-05
  -10.3299999       2.73399601E-05
  -10.3199997       2.07261965E-05
  -10.3100004       1.59630854E-05
  -10.3000002       1.33248959E-05
  -10.2900000       1.26678860E-05
  -10.2799997       1.35530718E-05
  -10.2700005       1.53786641E-05
  -10.2600002       1.74839315E-05
  -10.2500000       1.92114712E-05
  -10.2399998       1.99400292E-05
  -10.2299995       1.91146100E-05
  -10.2200003       1.62986835E-05
  -10.2100000       1.12564894E-05
  -10.1999998       4.04885304E-06
  -10.1899996      -4.89420427E-06
  -10.1800003      -1.47673109E-05
  -10.1700001      -2.44804196E-05
  -10.1599998      -3.28475980E-05
  -10.1499996      -3.88389235E-05
  -10.1400003      -4.18307536E-05
  -10.1300001      -4.17785013E-05
  -10.1199999      -3.92502261E-05
  -10.1099997      -3.52964234E-05
  -10.1000004      -3.11813128E-05
  -10.0900002      -2.80469103E-05
  -10.0799999      -2.66075822E-05
  -10.0699997      -2.69692737E-05
  -10.0600004      -2.86324666E-05
  -10.0500002      -3.06819675E-05
  -10.0400000      -3.21063417E-05
  -10.0299997      -3.21456464E-05
  -10.0200005      -3.05534013E-05
  -10.0100002      -2.76835381E-05
  -10.0000000      -2.43682225E-05
  -9.98999977      -2.16219250E-05
  -9.97999954      -2.02670599E-05
  -9.97000027      -2.06074528E-05
  -9.96000004      -2.22653525E-05
  -9.94999981      -2.42476181E-05
  -9.93999958      -2.52322970E-05
  -9.93000031      -2.39914152E-05
  -9.92000008      -1.98154376E-05
  -9.90999985      -1.27970334E-05
  -9.89999962      -3.87144291E-06
  -9.89000034       5.41360805E-06
  -9.88000011       1.33370731E-05
  -9.86999989       1.85200679E-05
  -9.85999966       2.03542240E-05
  -9.85000038       1.92021962E-05
  -9.84000015       1.62994347E-05
  -9.82999992       1.33819231E-05
  -9.81999969       1.21548392E-05
  -9.81000042       1.37712641E-05
  -9.80000019       1.84891342E-05
  -9.78999996       2.56176736E-05
  -9.77999973       3.37689635E-05
  -9.77000046       4.13283778E-05
  -9.76000023       4.69835795E-05
  -9.75000000       5.01318136E-05
  -9.73999977       5.10271275E-05
  -9.72999954       5.06197794E-05
  -9.72000027       5.01480499E-05
  -9.71000004       5.06306897E-05
  -9.69999981       5.24446914E-05
  -9.68999958       5.51436096E-05
  -9.68000031       5.75860031E-05
  -9.67000008       5.83311448E-05
  -9.65999985       5.61600900E-05
  -9.64999962       5.05316748E-05
  -9.64000034       4.18033123E-05
  -9.63000011       3.11304757E-05
  -9.61999989       2.00774302E-05
  -9.60999966       1.00809830E-05
  -9.60000038       1.96870246E-06
  -9.59000015      -4.28230169E-06
  -9.57999992      -9.44666408E-06
  -9.56999969      -1.46411139E-05
  -9.56000042      -2.07563698E-05
  -9.55000019      -2.79530686E-05
  -9.53999996      -3.54325057E-05
  -9.52999973      -4.15981740E-05
  -9.52000046      -4.45782498E-05
  -9.51000023      -4.29349820E-05
  -9.50000000      -3.62991996E-05
  -9.48999977      -2.56746916E-05
  -9.47999954      -1.32609457E-05
  -9.47000027      -1.81242888E-06
  -9.46000004       6.27207191E-06
  -9.44999981       9.82036727E-06
  -9.43999958       9.39804522E-06
  -9.43000031       7.24726351E-06
  -9.42000008       6.63177934E-06
  -9.40999985       1.07786354E-05
  -9.39999962       2.17619345E-05
  -9.39000034       3.97135045E-05
  -9.38000011       6.26489345E-05
  -9.36999989       8.69934156E-05
  -9.35999966       1.08649452E-04
  -9.35000038       1.24253056E-04
  -9.34000015       1.32189089E-04
  -9.32999992       1.33011519E-04
  -9.31999969       1.29117703E-04
  -9.31000042       1.23789199E-04
  -9.30000019       1.19939468E-04
  -9.28999996       1.19019780E-04
  -9.27999973       1.20483848E-04
  -9.27000046       1.22013320E-04
  -9.26000023       1.20431592E-04
  -9.25000000       1.12977839E-04
  -9.23999977       9.84730068E-05
  -9.22999954       7.79389811E-05
  -9.22000027       5.44223731E-05
  -9.21000004       3.20621912E-05
  -9.19999981       1.47191104E-05
  -9.18999958       4.65355697E-06
  -9.18000031       1.73320063E-06
  -9.17000008       3.46739216E-06
  -9.15999985       5.87094428E-06
  -9.14999962       4.85679266E-06
  -9.14000034      -2.33955166E-06
  -9.13000011      -1.62190299E-05
  -9.11999989      -3.49055990E-05
  -9.10999966      -5.49040014E-05
  -9.10000038      -7.24527054E-05
  -9.09000015      -8.49721109E-05
  -9.07999992      -9.20691600E-05
  -9.06999969      -9.57162192E-05
  -9.06000042      -9.95259034E-05
  -9.05000019      -1.07378954E-04
  -9.03999996      -1.21906793E-04
  -9.02999973      -1.43394253E-04
  -9.02000046      -1.69519364E-04
  -9.01000023      -1.96045192E-04
  -9.00000000      -2.18226094E-04
  -8.98999977      -2.32424209E-04
  -8.97999954      -2.37346292E-04
  -8.97000027      -2.34444102E-04
  -8.96000004      -2.27324141E-04
  -8.94999981      -2.20376387E-04
  -8.93999958      -2.17121196E-04
  -8.93000031      -2.18882764E-04
  -8.92000008      -2.24280346E-04
  -8.90999985      -2.29731202E-04
  -8.89999962      -2.30785678E-04
  -8.89000034      -2.23805226E-04
  -8.88000011      -2.07362362E-04
  -8.86999989      -1.82840071E-04
  -8.85999966      -1.53998248E-04
  -8.85000038      -1.25656486E-04
  -8.84000015      -1.01970043E-04
  -8.82999992      -8.49318894E-05
  -8.81999969      -7.36576621E-05
  -8.81000042      -6.47280540E-05
  -8.80000019      -5.34794890E-05
  -8.78999996      -3.57854333E-05
  -8.77999973      -9.68788481E-06
  -8.77000046       2.37127988E-05
  -8.76000023       6.04380621E-05
  -8.75000000       9.48275920E-05
  -8.73999977       1.21334917E-04
  -8.72999954       1.36292918E-04
  -8.72000027       1.39034368E-04
  -8.71000004       1.31986788E-04
  -8.69999981       1.19727389E-04
  -8.68999958       1.07353182E-04
  -8.68000031       9.87549065E-05
  -8.67000008       9.54061616E-05
  -8.65999985       9.60807083E-05
  -8.64999962       9.75698204E-05
  -8.64000034       9.61128462E-05
  -8.63000011       8.90048395E-05
  -8.61999989       7.57939997E-05
  -8.60999966       5.86417409E-05
  -8.60000038       4.17266310E-05
  -8.59000015       2.99161311E-05
  -8.57999992       2.71843219E-05
  -8.56999969       3.53313808E-05
  -8.56000042       5.34394494E-05
  -8.55000019       7.82296629E-05
  -8.53999996       1.05168379E-04
  -8.52999973       1.29917666E-04
  -8.52000046       1.49628162E-04
  -8.51000023       1.63649835E-04
  -8.50000000       1.73461376E-04
  -8.48999977       1.81898446E-04
  -8.47999954       1.91995030E-04
  -8.47000027       2.05863747E-04
  -8.46000004       2.23996176E-04
  -8.44999981       2.45188392E-04
  -8.43999958       2.67064577E-04
  -8.43000031       2.86965864E-04
  -8.42000008       3.02861707E-04
  -8.40999985       3.13964585E-04
  -8.39999962       3.20858962E-04
  -8.39000034       3.25142231E-04
  -8.38000011       3.28746770E-04
  -8.36999989       3.33208212E-04
  -8.35999966       3.39138409E-04
  -8.35000038       3.46066139E-04
  -8.34000015       3.52664414E-04
  -8.32999992       3.57249548E-04
  -8.31999969       3.58356134E-04
  -8.31000042       3.55189200E-04
  -8.30000019       3.47820082E-04
  -8.28999996       3.37093748E-04
  -8.27999973       3.24313994E-04
  -8.27000046       3.10835050E-04
  -8.26000023       2.97696126E-04
  -8.25000000       2.85399641E-04
  -8.23999977       2.73871905E-04
  -8.22999954       2.62586080E-04
  -8.22000027       2.50785029E-04
  -8.21000004       2.37732776E-04
  -8.19999981       2.22933915E-04
  -8.18999958       2.06280121E-04
  -8.18000031       1.88104968E-04
  -8.17000008       1.69140825E-04
  -8.15999985       1.50380351E-04
  -8.14999962       1.32856425E-04
  -8.14000034       1.17371412E-04
  -8.13000011       1.04230210E-04
  -8.11999989       9.30503666E-05
  -8.10999966       8.27237673E-05
  -8.10000038       7.15790447E-05
  -8.09000015       5.77405262E-05
  -8.07999992       3.96120449E-05
  -8.06999969       1.63561108E-05
  -8.06000042      -1.17844556E-05
  -8.05000019      -4.34471840E-05
  -8.03999996      -7.64395227E-05
  -8.02999973      -1.08298875E-04
  -8.02000046      -1.36964984E-04
  -8.01000023      -1.61355681E-04
  -8.00000000      -1.81651194E-04
  -7.98999977      -1.99181304E-04
  -7.98000002      -2.15938504E-04
  -7.96999979      -2.33870727E-04
  -7.96000004      -2.54189450E-04
  -7.94999981      -2.76929262E-04
  -7.94000006      -3.00912652E-04
  -7.92999983      -3.24132008E-04
  -7.92000008      -3.44413187E-04
  -7.90999985      -3.60123086E-04
  -7.90000010      -3.70666181E-04
  -7.88999987      -3.76592361E-04
  -7.88000011      -3.79280536E-04
  -7.86999989      -3.80320300E-04
  -7.86000013      -3.80826154E-04
  -7.84999990      -3.80947720E-04
  -7.84000015      -3.79764067E-04
  -7.82999992      -3.75611387E-04
  -7.82000017      -3.66725260E-04
  -7.80999994      -3.51961527E-04
  -7.80000019      -3.31323245E-04
  -7.78999996      -3.06090777E-04
  -7.78000021      -2.78495310E-04
  -7.76999998      -2.51046760E-04
  -7.76000023      -2.25755386E-04
  -7.75000000      -2.03530028E-04
  -7.73999977      -1.83973854E-04
  -7.73000002      -1.65655350E-04
  -7.71999979      -1.46757782E-04
  -7.71000004      -1.25870822E-04
  -7.69999981      -1.02633523E-04
  -7.69000006      -7.79882321E-05
  -7.67999983      -5.39437642E-05
  -7.67000008      -3.29222967E-05
  -7.65999985      -1.69148298E-05
  -7.65000010      -6.74132934E-06
  -7.63999987      -1.67837027E-06
  -7.63000011       4.08846802E-07
  -7.61999989       2.46648506E-06
  -7.61000013       7.37957953E-06
  -7.59999990       1.71145930E-05
  -7.59000015       3.21557745E-05
  -7.57999992       5.14120075E-05
  -7.57000017       7.26120998E-05
  -7.55999994       9.30447495E-05
  -7.55000019       1.10392131E-04
  -7.53999996       1.23385355E-04
  -7.53000021       1.32080590E-04
  -7.51999998       1.37688607E-04
  -7.51000023       1.42041652E-04
  -7.50000000       1.46896127E-04
  -7.48999977       1.53314642E-04
  -7.48000002       1.61331453E-04
  -7.46999979       1.70000829E-04
  -7.46000004       1.77794864E-04
  -7.44999981       1.83201148E-04
  -7.44000006       1.85309225E-04