  -16.0000000       0.00000000    
  -15.9899998       0.00000000    
  -15.9799995       0.00000000    
  -15.9700003       0.00000000    
  -15.9600000       0.00000000    
  -15.9499998       0.00000000    
  -15.9399996       0.00000000    
  -15.9300003       0.00000000    
  -15.9200001       0.00000000    
  -15.9099998       0.00000000    
  -15.8999996       0.00000000    
  -15.8900003       0.00000000    
  -15.8800001      -0.00000000    
  -15.8699999      -1.40129846E-45
  -15.8599997      -4.06376555E-44
  -15.8500004      -5.42302506E-43
  -15.8400002      -5.21142899E-42
  -15.8299999      -3.86688311E-41
  -15.8199997      -2.34702078E-40
  -15.8100004      -1.20898987E-39
  -15.8000002      -5.42141917E-39
  -15.7900000      -2.15532834E-38
  -15.7799997      -7.69967151E-38
  -15.7700005      -2.49674773E-37
  -15.7600002      -7.40500367E-37
  -15.7500000      -2.02019348E-36
  -15.7399998      -5.09049787E-36
  -15.7299995      -1.18796324E-35
  -15.7200003      -2.57100531E-35
  -15.7100000      -5.15923495E-35
  -15.6999998      -9.57953911E-35
  -15.6899996      -1.63782948E-34
  -15.6800003      -2.55406821E-34
  -15.6700001      -3.56608413E-34
  -15.6599998      -4.28339121E-34
  -15.6499996      -3.96354241E-34
  -15.6400003      -1.49765683E-34
  -15.6300001       4.39654724E-34
  -15.6199999       1.46443913E-33
  -15.6099997       2.88813250E-33
  -15.6000004       4.42334116E-33
  -15.5900002       5.42362147E-33
  -15.5799999       4.86926017E-33
  -15.5699997       1.55400041E-33
  -15.5600004      -5.43286930E-33
  -15.5500002      -1.59210630E-32
  -15.5400000      -2.77440794E-32
  -15.5299997      -3.61234380E-32
  -15.5200005      -3.40153535E-32
  -15.5100002      -1.41109927E-32
  -15.5000000       2.72271205E-32
  -15.4899998       8.48114472E-32
  -15.4799995       1.40450193E-31
  -15.4700003       1.63283406E-31
  -15.4600000       1.18301798E-31
  -15.4499998      -1.56327583E-32
  -15.4399996      -2.22343369E-31
  -15.4300003      -4.30767663E-31
  -15.4200001      -5.19831861E-31
  -15.4099998      -3.59977230E-31
  -15.3999996       1.09248129E-31
  -15.3900003       7.92565499E-31
  -15.3800001       1.39758605E-30
  -15.3699999       1.50013768E-30
  -15.3599997       7.42378661E-31
  -15.3500004      -8.94477098E-31
  -15.3400002      -2.90399522E-30
  -15.3299999      -4.36431486E-30
  -15.3199997      -4.45390032E-30
  -15.3100004      -3.19068438E-30
  -15.3000002      -1.81414927E-30
  -15.2900000      -2.00472004E-30
  -15.2799997      -3.48546526E-30
  -15.2700005      -7.71176298E-31
  -15.2600002       1.82833510E-29
  -15.2500000       6.79709548E-29
  -15.2399998       1.50791395E-28
  -15.2299995       2.35418912E-28
  -15.2200003       2.37172952E-28
  -15.2100000       2.22457563E-29
  -15.1999998      -5.38477494E-28
  -15.1899996      -1.45200317E-27
  -15.1800003      -2.44433135E-27
  -15.1700001      -2.83953545E-27
  -15.1599998      -1.61241243E-27
  -15.1499996       2.23817326E-27
  -15.1400003       8.93334978E-27
  -15.1300001       1.69276007E-26
  -15.1199999       2.21550722E-26
  -15.1099997       1.82564076E-26
  -15.1000004      -1.43041003E-27
  -15.0900002      -3.97893305E-26
  -15.0799999      -9.05100546E-26
  -15.0699997      -1.33625013E-25
  -15.0600004      -1.35671725E-25
  -15.0500002      -5.83818268E-26
  -15.0400000       1.22219169E-25
  -15.0299997       3.89240709E-25
  -15.0200005       6.60734659E-25
  -15.0100002       7.84177192E-25
  -15.0000000       5.67700743E-25
  -14.9899998      -1.41334058E-25
  -14.9799995      -1.33912955E-24
  -14.9700003      -2.74696868E-24
  -14.9600000      -3.75717844E-24
  -14.9499998      -3.52113903E-24
  -14.9399996      -1.23387657E-24
  -14.9300003       3.39963078E-24
  -14.9200001       9.64077877E-24
  -14.9099998       1.53775654E-23
  -14.8999996       1.72761690E-23
  -14.8900003       1.16775332E-23
  -14.8800001      -3.73076146E-24
  -14.8699999      -2.78220260E-23
  -14.8599997      -5.43197566E-23
  -14.8500004      -7.15894806E-23
  -14.8400002      -6.49983268E-23
  -14.8299999      -2.22758400E-23
  -14.8199997       5.89271397E-23
  -14.8100004       1.63670362E-22
  -14.8000002       2.56284979E-22
  -14.7900000       2.84909043E-22
  -14.7799997       1.96553303E-22
  -14.7700005      -3.83396781E-23
  -14.7600002      -3.98032101E-22
  -14.7500000      -7.89615637E-22
  -14.7399998      -1.05102546E-21
  -14.7299995      -9.86343410E-22
  -14.7200003      -4.36578748E-22
  -14.7100000       6.27079140E-22
  -14.6999998       2.01788974E-21
  -14.6899996       3.29905316E-21
  -14.6800003       3.84274024E-21
  -14.6700001       3.00560943E-21
  -14.6599998       4.03659469E-22
  -14.6499996      -3.78351241E-21
  -14.6400003      -8.59724596E-21
  -14.6300001      -1.23116108E-20
  -14.6199999      -1.27808250E-20
  -14.6099997      -8.13895559E-21
  -14.6000004       2.27406794E-21
  -14.5900002       1.70422810E-20
  -14.5799999       3.22513650E-20
  -14.5699997       4.19014640E-20
  -14.5600004       3.93731671E-20
  -14.5500002       1.98296244E-20
  -14.5400000      -1.70001206E-20
  -14.5299997      -6.46134106E-20
  -14.5200005      -1.09247088E-19
  -14.5100002      -1.32062655E-19
  -14.5000000      -1.14295423E-19
  -14.4899998      -4.46080927E-20
  -14.4799995       7.32994855E-20
  -14.4700003       2.15678724E-19
  -14.4600000       3.39332157E-19
  -14.4499998       3.89885688E-19
  -14.4399996       3.17673131E-19
  -14.4300003       9.82450362E-20
  -14.4200001      -2.48400503E-19
  -14.4099998      -6.47552862E-19
  -14.3999996      -9.75739355E-19
  -14.3900003      -1.08683405E-18
  -14.3800001      -8.56274106E-19
  -14.3699999      -2.33955396E-19
  -14.3599997       7.10183411E-19
  -14.3500004       1.76689356E-18
  -14.3400002       2.61086325E-18
  -14.3299999       2.87306938E-18
  -14.3199997       2.25361863E-18
  -14.3100004       6.49301109E-19
  -14.3000002      -1.74362580E-18
  -14.2900000      -4.39512575E-18
  -14.2799997      -6.50958675E-18
  -14.2700005      -7.20611626E-18
  -14.2600002      -5.78510103E-18
  -14.2500000      -2.01806923E-18
  -14.2399998       3.62912714E-18
  -14.2299995       9.93412896E-18
  -14.2200003       1.50852581E-17
  -14.2100000       1.70901454E-17
  -14.1999998       1.43617993E-17
  -14.1899996       6.34230850E-18
  -14.1800003      -6.02650542E-18
  -14.1700001      -2.01778816E-17
  -14.1599998      -3.22733383E-17
  -14.1499996      -3.80489086E-17
  -14.1400003      -3.40166248E-17
  -14.1300001      -1.87369958E-17
  -14.1199999       6.21482880E-18
  -14.1099997       3.59621470E-17
  -14.1000004       6.29709505E-17
  -14.0900002       7.86498547E-17
  -14.0799999       7.56438869E-17
  -14.0699997       5.02902850E-17
  -14.0600004       4.53943444E-18
  -14.0500002      -5.33467537E-17
  -14.0400000      -1.09786415E-16
  -14.0299997      -1.48623088E-16
  -14.0200005      -1.55183927E-16
  -14.0100002      -1.20739478E-16
  -14.0000000      -4.61597156E-17
  -13.9899998       5.64333914E-17
  -13.9799995       1.64860921E-16
  -13.9700003       2.51110752E-16
  -13.9600000       2.87941968E-16
  -13.9499998       2.56436657E-16
  -13.9399996       1.52562386E-16
  -13.9300003      -9.23037942E-18
  -13.9200001      -1.96835819E-16
  -13.9099998      -3.66204372E-16
  -13.8999996      -4.71120413E-16
  -13.8900003      -4.74993419E-16
  -13.8800001      -3.61777407E-16
  -13.8699999      -1.42976303E-16
  -13.8599997       1.41643907E-16
  -13.8500004       4.30621201E-16
  -13.8400002       6.53794398E-16
  -13.8299999       7.49059346E-16
  -13.8199997       6.78913636E-16
  -13.8100004       4.42441651E-16
  -13.8000002       7.91539385E-17
  -13.7900000      -3.37104396E-16
  -13.7799997      -7.13498997E-16
  -13.7700005      -9.59612837E-16
  -13.7600002      -1.00985280E-15
  -13.7500000      -8.41110122E-16
  -13.7399998      -4.80760178E-16
  -13.7299995      -2.30398338E-18
  -13.7200003       4.90913456E-16
  -13.7100000       8.90233957E-16
  -13.6999998       1.10833658E-15
  -13.6899996       1.10095352E-15
  -13.6800003       8.77595537E-16
  -13.6700001       4.98015086E-16
  -13.6599998       5.50308637E-17
  -13.6499996      -3.51674024E-16
  -13.6400003      -6.43284995E-16
  -13.6300001      -7.82777716E-16
  -13.6199999      -7.82319683E-16
  -13.6099997      -6.94296549E-16
  -13.6000004      -5.88200960E-16
  -13.5900002      -5.20501640E-16
  -13.5799999      -5.07696143E-16
  -13.5699997      -5.12866803E-16
  -13.5600004      -4.52755363E-16
  -13.5500002      -2.26246365E-16
  -13.5400000       2.42198272E-16
  -13.5299997       9.57072056E-16
  -13.5200005       1.82046354E-15
  -13.5100002       2.62947868E-15
  -13.5000000       3.11051822E-15
  -13.4899998       2.98804255E-15
  -13.4799995       2.07368150E-15
  -13.4700003       3.51993462E-16
  -13.4600000      -1.96485852E-15
  -13.4499998      -4.43753107E-15
  -13.4399996      -6.46727570E-15
  -13.4300003      -7.42564054E-15
  -13.4200001      -6.82137274E-15
  -13.4099998      -4.46421007E-15
  -13.3999996      -5.78588883E-16
  -13.3900003       4.17390223E-15
  -13.3800001       8.78609150E-15
  -13.3699999       1.21056983E-14
  -13.3599997       1.31086497E-14
  -13.3500004       1.11835911E-14
  -13.3400002       6.35335231E-15
  -13.3299999      -6.34878193E-16
  -13.3199997      -8.39339347E-15
  -13.3100004      -1.51543342E-14
  -13.3000002      -1.91625517E-14
  -13.2900000      -1.91163833E-14
  -13.2799997      -1.45487057E-14
  -13.2700005      -6.04312819E-15
  -13.2600002       4.78916325E-15
  -13.2500000       1.55931058E-14
  -13.2399998       2.37703330E-14
  -13.2299995       2.70929655E-14
  -13.2200003       2.42875212E-14
  -13.2100000       1.54395167E-14
  -13.1999998       2.10065569E-15
  -13.1899996      -1.29551385E-14
  -13.1800003      -2.62971797E-14
  -13.1700001      -3.46120430E-14
  -13.1599998      -3.55122426E-14
  -13.1499996      -2.81832595E-14
  -13.1400003      -1.36979559E-14
  -13.1300001       5.10246125E-15
  -13.1199999       2.41622992E-14
  -13.1099997       3.90939858E-14
  -13.1000004       4.61963502E-14
  -13.0900002       4.33700114E-14
  -13.0799999       3.07024202E-14
  -13.0699997       1.05626033E-14
  -13.0600004      -1.28433251E-14
  -13.0500002      -3.43761986E-14
  -13.0400000      -4.91316514E-14
  -13.0299997      -5.36021761E-14
  -13.0200005      -4.65523006E-14
  -13.0100002      -2.93825328E-14
  -13.0000000      -5.87278859E-15
  -12.9899998       1.86572237E-14
  -12.9799995       3.85879920E-14
  -12.9700003       4.93523306E-14
  -12.9600000       4.85696315E-14
  -12.9499998       3.66733011E-14
  -12.9399996       1.68547817E-14
  -12.9300003      -5.68940172E-15
  -12.9200001      -2.50457275E-14
  -12.9099998      -3.61026347E-14
  -12.8999996      -3.59216509E-14
  -12.8900003      -2.45998155E-14
  -12.8800001      -5.37219424E-15
  -12.8699999       1.61149814E-14
  -12.8599997       3.32197987E-14
  -12.8500004       4.00807893E-14
  -12.8400002       3.33094046E-14
  -12.8299999       1.31444995E-14
  -12.8199997      -1.62768375E-14
  -12.8100004      -4.76741110E-14
  -12.8000002      -7.22874655E-14
  -12.7900000      -8.20877790E-14
  -12.7799997      -7.19975227E-14
  -12.7700005      -4.15396341E-14
  -12.7600002       4.56614540E-15
  -12.7500000       5.71064734E-14
  -12.7399998       1.04304965E-13
  -12.7299995       1.34581081E-13
  -12.7200003       1.39490849E-13
  -12.7100000       1.16100502E-13
  -12.6999998       6.81281813E-14
  -12.6899996       5.45813335E-15
  -12.6800003      -5.79807808E-14
  -12.6700001      -1.07549373E-13
  -12.6599998      -1.31672532E-13
  -12.6499996      -1.25097090E-13
  -12.6400003      -9.07311335E-14
  -12.6300001      -3.94488146E-14
  -12.6199999       1.22737920E-14
  -12.6099997       4.64843076E-14
  -12.6000004       4.87293718E-14
  -12.5900002       1.26723413E-14
  -12.5799999      -5.68778220E-14
  -12.5699997      -1.43472636E-13
  -12.5600004      -2.21465018E-13
  -12.5500002      -2.61086346E-13
  -12.5400000      -2.35200423E-13
  -12.5299997      -1.26280090E-13
  -12.5200005       6.80154853E-14
  -12.5100002       3.32073128E-13
  -12.5000000       6.33215702E-13
  -12.4899998       9.26298968E-13
  -12.4799995       1.16121533E-12
  -12.4700003       1.29177983E-12
  -12.4600000       1.28408926E-12
  -12.4499998       1.12247202E-12
  -12.4399996       8.11623934E-13
  -12.4300003       3.74322996E-13
  -12.4200001      -1.54883322E-13
  -12.4099998      -7.38706134E-13
  -12.3999996      -1.34688083E-12
  -12.3900003      -1.96446592E-12
  -12.3800001      -2.59671061E-12
  -12.3699999      -3.26921411E-12
  -12.3599997      -4.02321362E-12
  -12.3500004      -4.90664193E-12
  -12.3400002      -5.96284220E-12
  -12.3299999      -7.21910856E-12
  -12.3199997      -8.67737653E-12
  -12.3100004      -1.03090106E-11
  -12.3000002      -1.20546281E-11
  -12.2900000      -1.38290247E-11
  -12.2799997      -1.55301657E-11
  -12.2700005      -1.70504218E-11
  -12.2600002      -1.82877238E-11
  -12.2500000      -1.91548270E-11
  -12.2399998      -1.95849448E-11
  -12.2299995      -1.95330176E-11
  -12.2200003      -1.89732795E-11
  -12.2100000      -1.78939780E-11
  -12.1999998      -1.62910692E-11
  -12.1899996      -1.41628115E-11
  -12.1800003      -1.15066732E-11
  -12.1700001      -8.31954297E-12
  -12.1599998      -4.60120657E-12
  -12.1499996      -3.60188089E-13
  -12.1400003       4.37925651E-12
  -12.1300001       9.57103754E-12
  -12.1199999       1.51437231E-11
  -12.1099997       2.10005745E-11
  -12.1000004       2.70237617E-11
  -12.0900002       3.30820857E-11
  -12.0799999       3.90410967E-11
  -12.0699997       4.47740109E-11
  -12.0600004       5.01709785E-11
  -12.0500002       5.51453466E-11
  -12.0400000       5.96359490E-11
  -12.0299997       6.36048714E-11
  -12.0200005       6.70315123E-11
  -12.0100002       6.99044711E-11
  -12.0000000       7.22130827E-11
  -11.9899998       7.39400902E-11
  -11.9799995       7.50584594E-11
  -11.9700003       7.55309218E-11
  -11.9600000       7.53141716E-11
  -11.9499998       7.43654444E-11
  -11.9399996       7.26497890E-11
  -11.9300003       7.01468328E-11
  -11.9200001       6.68542027E-11
  -11.9099998       6.27871921E-11
  -11.8999996       5.79734906E-11
  -11.8900003       5.24456902E-11
  -11.8800001       4.62315637E-11
  -11.8699999       3.93459501E-11
  -11.8599997       3.17851023E-11
  -11.8500004       2.35274352E-11
  -11.8400002       1.45391321E-11
  -11.8299999       4.78455687E-12
  -11.8199997      -5.76008642E-12
  -11.8100004      -1.70933632E-11
  -11.8000002      -2.91783923E-11
  -11.7900000      -4.19366764E-11
  -11.7799997      -5.52504778E-11
  -11.7700005      -6.89709886E-11
  -11.7600002      -8.29310370E-11
  -11.7500000      -9.69604466E-11
  -11.7399998      -1.10900254E-10
  -11.7299995      -1.24612279E-10
  -11.7200003      -1.37982403E-10
  -11.7100000      -1.50917209E-10
  -11.6999998      -1.63334832E-10
  -11.6899996      -1.75152448E-10
  -11.6800003      -1.86274149E-10
  -11.6700001      -1.96582431E-10
  -11.6599998      -2.05935657E-10
  -11.6499996      -2.14173027E-10
  -11.6400003      -2.21125604E-10
  -11.6300001      -2.26632504E-10
  -11.6199999      -2.30556060E-10
  -11.6099997      -2.32795644E-10
  -11.6000004      -2.33293773E-10
  -11.5900002      -2.32034267E-10
  -11.5799999      -2.29032959E-10
  -11.5699997      -2.24320340E-10
  -11.5600004      -2.17924706E-10
  -11.5500002      -2.09855341E-10
  -11.5400000      -2.00091971E-10
  -11.5299997      -1.88584925E-10
  -11.5200005      -1.75261972E-10
  -11.5100002      -1.60044450E-10
  -11.5000000      -1.42868134E-10
  -11.4899998      -1.23700730E-10
  -11.4799995      -1.02555825E-10
  -11.4700003      -7.94969854E-11
  -11.4600000      -5.46306958E-11
  -11.4499998      -2.80915378E-11
  -11.4399996      -2.01292145E-14
  -11.4300003       2.94573567E-11
  -11.4200001       6.02474737E-11
  -11.4099998       9.22956087E-11
  -11.3999996       1.25586389E-10
  -11.3900003       1.60130312E-10
  -11.3800001       1.95946467E-10
  -11.3699999       2.33042169E-10
  -11.3599997       2.71398404E-10
  -11.3500004       3.10957621E-10
  -11.3400002       3.51625035E-10
  -11.3299999       3.93274052E-10
  -11.3199997       4.35757930E-10
  -11.3100004       4.78921014E-10
  -11.3000002       5.22608012E-10
  -11.2900000       5.66666603E-10
  -11.2799997       6.10944906E-10
  -11.2700005       6.55284715E-10
  -11.2600002       6.99512837E-10
  -11.2500000       7.43438755E-10
  -11.2399998       7.86858134E-10
  -11.2299995       8.29561586E-10
  -11.2200003       8.71357597E-10
  -11.2100000       9.12093512E-10
  -11.1999998       9.51677404E-10
  -11.1899996       9.90093674E-10
  -11.1800003       1.02740361E-09
  -11.1700001       1.06373166E-09
  -11.1599998       1.09924425E-09
  -11.1499996       1.13410892E-09
  -11.1400003       1.16846022E-09
  -11.1300001       1.20235910E-09
  -11.1199999       1.23577404E-09
  -11.1099997       1.26856792E-09
  -11.1000004       1.30052413E-09
  -11.0900002       1.33136646E-09
  -11.0799999       1.36081602E-09
  -11.0699997       1.38863743E-09
  -11.0600004       1.41468293E-09
  -11.0500002       1.43893442E-09
  -11.0400000       1.46151447E-09
  -11.0299997       1.48267709E-09
  -11.0200005       1.50278512E-09
  -11.0100002       1.52225788E-09
  -11.0000000       1.54152391E-09
  -10.9899998       1.56096713E-09
  -10.9799995       1.58087765E-09
  -10.9700003       1.60142155E-09
  -10.9600000       1.62263325E-09
  -10.9499998       1.64440972E-09
  -10.9399996       1.66653902E-09
  -10.9300003       1.68871894E-09
  -10.9200001       1.71060699E-09
  -10.9099998       1.73185877E-09
  -10.8999996       1.75215942E-09
  -10.8900003       1.77126158E-09
  -10.8800001       1.78902149E-09
  -10.8699999       1.80538817E-09
  -10.8599997       1.82043347E-09
  -10.8500004       1.83432436E-09
  -10.8400002       1.84731985E-09
  -10.8299999       1.85970639E-09
  -10.8199997       1.87178140E-09
  -10.8100004       1.88379645E-09
  -10.8000002       1.89595473E-09
  -10.7900000       1.90836880E-09
  -10.7799997       1.92108884E-09
  -10.7700005       1.93408956E-09
  -10.7600002       1.94730965E-09
  -10.7500000       1.96067651E-09
  -10.7399998       1.97411176E-09
  -10.7299995       1.98751660E-09
  -10.7200003       2.00079242E-09
  -10.7100000       2.01376338E-09
  -10.6999998       2.02616768E-09
  -10.6899996       2.03765604E-09
  -10.6800003       2.04778616E-09
  -10.6700001       2.05606132E-09
  -10.6599998       2.06203499E-09
  -10.6499996       2.06531725E-09
  -10.6400003       2.06575068E-09
  -10.6300001       2.06340056E-09
  -10.6199999       2.05857931E-09
  -10.6099997       2.05182160E-09
  -10.6000004       2.04382711E-09
  -10.5900002       2.03535699E-09
  -10.5799999       2.02710737E-09
  -10.5699997       2.01962469E-09
  -10.5600004       2.01328909E-09
  -10.5500002       2.00824268E-09
  -10.5400000       2.00446437E-09
  -10.5299997       2.00179406E-09
  -10.5200005       2.00003059E-09
  -10.5100002       1.99894679E-09
  -10.5000000       1.99836858E-09
  -10.4899998       1.99816297E-09
  -10.4799995       1.99821781E-09
  -10.4700003       1.99847805E-09
  -10.4600000       1.99883488E-09
  -10.4499998       1.99916483E-09
  -10.4399996       1.99935313E-09
  -10.4300003       1.99925720E-09
  -10.4200001       1.99875494E-09
  -10.4099998       1.99779815E-09
  -10.3999996       1.99640504E-09
  -10.3900003       1.99464711E-09
  -10.3800001       1.99272598E-09
  -10.3699999       1.99083505E-09
  -10.3599997       1.98925987E-09
  -10.3500004       1.98827954E-09
  -10.3400002       1.98814809E-09
  -10.3299999       1.98908001E-09
  -10.3199997       1.99125627E-09
  -10.3100004       1.99478878E-09
  -10.3000002       1.99969774E-09
  -10.2900000       2.00584371E-09
  -10.2799997       2.01297445E-09
  -10.2700005       2.02073580E-09
  -10.2600002       2.02861394E-09
  -10.2500000       2.03610639E-09
  -10.2399998       2.04272155E-09
  -10.2299995       2.04810457E-09
  -10.2200003       2.05209916E-09
  -10.2100000       2.05480633E-09
  -10.1999998       2.05662753E-09
  -10.1899996       2.05817807E-09
  -10.1800003       2.06031436E-09
  -10.1700001       2.06391793E-09
  -10.1599998       2.06985162E-09
  -10.1499996       2.07875628E-09
  -10.1400003       2.09104578E-09
  -10.1300001       2.10683671E-09
  -10.1199999       2.12597051E-09
  -10.1099997       2.14809526E-09
  -10.1000004       2.17267493E-09
  -10.0900002       2.19917928E-09
  -10.0799999       2.22714269E-09
  -10.0699997       2.25622121E-09
  -10.0600004       2.28621411E-09
  -10.0500002       2.31702812E-09
  -10.0400000       2.34873587E-09
  -10.0299997       2.38144571E-09
  -10.0200005       2.41532372E-09
  -10.0100002       2.45049869E-09
  -10.0000000       2.48709853E-09
  -9.98999977       2.52526644E-09
  -9.97999954       2.56507637E-09
  -9.97000027       2.60671440E-09
  -9.96000004       2.65032374E-09
  -9.94999981       2.69608580E-09
  -9.93999958       2.74417555E-09
  -9.93000031       2.79471046E-09
  -9.92000008       2.84776469E-09
  -9.90999985       2.90338020E-09
  -9.89999962       2.96150104E-09
  -9.89000034       3.02213699E-09
  -9.88000011       3.08529402E-09
  -9.86999989       3.15110804E-09
  -9.85999966       3.21976512E-09
  -9.85000038       3.29155680E-09
  -9.84000015       3.36679240E-09
  -9.82999992       3.44575235E-09
  -9.81999969       3.52867668E-09
  -9.81000042       3.61557517E-09
  -9.80000019       3.70631059E-09
  -9.78999996       3.80063314E-09
  -9.77999973       3.89825905E-09
  -9.77000046       3.99884570E-09
  -9.76000023       4.10225809E-09
  -9.75000000       4.20852375E-09
  -9.73999977       4.31789671E-09
  -9.72999954       4.43082993E-09
  -9.72000027       4.54787674E-09
  -9.71000004       4.66954386E-09
  -9.69999981       4.79631446E-09
  -9.68999958       4.92837060E-09
  -9.68000031       5.06558617E-09
  -9.67000008       5.20769428E-09
  -9.65999985       5.35422950E-09
  -9.64999962       5.50456969E-09
  -9.64000034       5.65822322E-09
  -9.63000011       5.81468429E-09
  -9.61999989       5.97359895E-09
  -9.60999966       6.13471318E-09
  -9.60000038       6.29769970E-09
  -9.59000015       6.46214060E-09
  -9.57999992       6.62742528E-09
  -9.56999969       6.79274459E-09
  -9.56000042       6.95701141E-09
  -9.55000019       7.11903381E-09
  -9.53999996       7.27756788E-09
  -9.52999973       7.43147899E-09
  -9.52000046       7.57985230E-09
  -9.51000023       7.72207187E-09
  -9.50000000       7.85778376E-09
  -9.48999977       7.98687250E-09
  -9.47999954       8.10939316E-09
  -9.47000027       8.22538482E-09
  -9.46000004       8.33485014E-09
  -9.44999981       8.43758841E-09
  -9.43999958       8.53323456E-09
  -9.43000031       8.62143956E-09
  -9.42000008       8.70172556E-09
  -9.40999985       8.77397621E-09
  -9.39999962       8.83835849E-09
  -9.39000034       8.89536533E-09
  -9.38000011       8.94604657E-09
  -9.36999989       8.99175490E-09
  -9.35999966       9.03415298E-09
  -9.35000038       9.07491682E-09
  -9.34000015       9.11570552E-09
  -9.32999992       9.15798282E-09
  -9.31999969       9.20298593E-09
  -9.31000042       9.25169363E-09
  -9.30000019       9.30477295E-09
  -9.28999996       9.36285449E-09
  -9.27999973       9.42662304E-09
  -9.27000046       9.49682999E-09
  -9.26000023       9.57444612E-09
  -9.25000000       9.66041114E-09
  -9.23999977       9.75601466E-09
  -9.22999954       9.86255699E-09
  -9.22000027       9.98136596E-09
  -9.21000004       1.01136788E-08
  -9.19999981       1.02607336E-08
  -9.18999958       1.04233440E-08
  -9.18000031       1.06022950E-08
  -9.17000008       1.07980176E-08
  -9.15999985       1.10105169E-08
  -9.14999962       1.12397087E-08
  -9.14000034       1.14851382E-08
  -9.13000011       1.17459837E-08
  -9.11999989       1.20213537E-08
  -9.10999966       1.23101573E-08
  -9.10000038       1.26113164E-08
  -9.09000015       1.29238344E-08
  -9.07999992       1.32467513E-08
  -9.06999969       1.35792035E-08
  -9.06000042       1.39203964E-08
  -9.05000019       1.42694354E-08
  -9.03999996       1.46253969E-08
  -9.02999973       1.49870072E-08
  -9.02000046       1.53529101E-08
  -9.01000023       1.57214810E-08
  -9.00000000       1.60908691E-08
  -8.98999977       1.64592464E-08
  -8.97999954       1.68248881E-08
  -8.97000027       1.71861085E-08
  -8.96000004       1.75412360E-08
  -8.94999981       1.78887767E-08
  -8.93999958       1.82273574E-08
  -8.93000031       1.85555891E-08
  -8.92000008       1.88719866E-08
  -8.90999985       1.91749603E-08
  -8.89999962       1.94630001E-08
  -8.89000034       1.97346637E-08
  -8.88000011       1.99883754E-08
  -8.86999989       2.02230517E-08
  -8.85999966       2.04376178E-08
  -8.85000038       2.06311022E-08
  -8.84000015       2.08029576E-08
  -8.82999992       2.09526565E-08
  -8.81999969       2.10796749E-08
  -8.81000042       2.11836770E-08
  -8.80000019       2.12644409E-08
  -8.78999996       2.13217657E-08
  -8.77999973       2.13558700E-08
  -8.77000046       2.13671427E-08
  -8.76000023       2.13561204E-08
  -8.75000000       2.13233715E-08
  -8.73999977       2.12699369E-08
  -8.72999954       2.11965023E-08
  -8.72000027       2.11039826E-08
  -8.71000004       2.09933244E-08
  -8.69999981       2.08652935E-08
  -8.68999958       2.07211510E-08
  -8.68000031       2.05620410E-08
  -8.67000008       2.03895709E-08
  -8.65999985       2.02054267E-08
  -8.64999962       2.00115924E-08
  -8.64000034       1.98099936E-08
  -8.63000011       1.96022452E-08
  -8.61999989       1.93898391E-08
  -8.60999966       1.91739655E-08
  -8.60000038       1.89553528E-08
  -8.59000015       1.87348927E-08
  -8.57999992       1.85131910E-08
  -8.56999969       1.82911197E-08
  -8.56000042       1.80698230E-08
  -8.55000019       1.78506063E-08
  -8.53999996       1.76352657E-08
  -8.52999973       1.74256947E-08
  -8.52000046       1.72233481E-08
  -8.51000023       1.70298389E-08
  -8.50000000       1.68461671E-08
  -8.48999977       1.66731287E-08
  -8.47999954       1.65110059E-08
  -8.47000027       1.63601204E-08
  -8.46000004       1.62201488E-08
  -8.44999981       1.60913523E-08
  -8.43999958       1.59734483E-08
  -8.43000031       1.58665525E-08
  -8.42000008       1.57703930E-08
  -8.40999985       1.56845577E-08
  -8.39999962       1.56087285E-08
  -8.39000034       1.55423177E-08
  -8.38000011       1.54849555E-08
  -8.36999989       1.54364415E-08
  -8.35999966       1.53964184E-08
  -8.35000038       1.53650035E-08
  -8.34000015       1.53421720E-08
  -8.32999992       1.53282507E-08
  -8.31999969       1.53233390E-08
  -8.31000042       1.53271564E-08
  -8.30000019       1.53394186E-08
  -8.28999996       1.53595057E-08
  -8.27999973       1.53865756E-08
  -8.27000046       1.54200528E-08
  -8.26000023       1.54595394E-08
  -8.25000000       1.55049662E-08
  -8.23999977       1.55566759E-08
  -8.22999954       1.56149387E-08
  -8.22000027       1.56804596E-08
  -8.21000004       1.57539510E-08
  -8.19999981       1.58356279E-08
  -8.18999958       1.59255844E-08
  -8.18000031       1.60240674E-08
  -8.17000008       1.61313736E-08
  -8.15999985       1.62478653E-08
  -8.14999962       1.63740879E-08
  -8.14000034       1.65111089E-08
  -8.13000011       1.66598664E-08
  -8.11999989       1.68213852E-08
  -8.10999966       1.69963865E-08
  -8.10000038       1.71852879E-08
  -8.09000015       1.73880075E-08
  -8.07999992       1.76044210E-08
  -8.06999969       1.78339263E-08
  -8.06000042       1.80765358E-08
  -8.05000019       1.83325852E-08
  -8.03999996       1.86022842E-08
  -8.02999973       1.88869667E-08
  -8.02000046       1.91876754E-08
  -8.01000023       1.95055367E-08
  -8.00000000       1.98413517E-08
  -7.98999977       2.01956247E-08
  -7.98000002       2.05684358E-08
  -7.96999979       2.09590070E-08
  -7.96000004       2.13672191E-08
  -7.94999981       2.17922036E-08
  -7.94000006       2.22341043E-08
  -7.92999983       2.26920296E-08
  -7.92000008       2.31670132E-08
  -7.90999985       2.36584494E-08
  -7.90000010       2.41661038E-08
  -7.88999987       2.46899496E-08
  -7.88000011       2.52288235E-08
  -7.86999989       2.57817110E-08
  -7.86000013       2.63477649E-08
  -7.84999990       2.69254468E-08
  -7.84000015       2.75144050E-08
  -7.82999992       2.81135453E-08
  -7.82000017       2.87224378E-08
  -7.80999994       2.93409173E-08
  -7.80000019       2.99682625E-08
  -7.78999996       3.06036618E-08
  -7.78000021       3.12456763E-08
  -7.76999998       3.18932010E-08
  -7.76000023       3.25441754E-08
  -7.75000000       3.31976260E-08
  -7.73999977       3.38522419E-08
  -7.73000002       3.45074014E-08
  -7.71999979       3.51631435E-08
  -7.71000004       3.58185268E-08
  -7.69999981       3.64742974E-08
  -7.69000006       3.71299151E-08
  -7.67999983       3.77856040E-08
  -7.67000008       3.84411223E-08
  -7.65999985       3.90959976E-08
  -7.65000010       3.97501445E-08
  -7.63999987       4.04025293E-08
  -7.63000011       4.10541254E-08
  -7.61999989       4.17046415E-08
  -7.61000013       4.23546993E-08
  -7.59999990       4.30048850E-08
  -7.59000015       4.36555609E-08
  -7.57999992       4.43063861E-08
  -7.57000017       4.49579929E-08
  -7.55999994       4.56094540E-08
  -7.55000019       4.62613201E-08
  -7.53999996       4.69128985E-08
  -7.53000021       4.75647361E-08
  -7.51999998       4.82167231E-08
  -7.51000023       4.88694987E-08
  -7.50000000       4.95236527E-08
  -7.48999977       5.01796933E-08
  -7.48000002       5.08382776E-08
  -7.46999979       5.15002405E-08
  -7.46000004       5.21661327E-08
  -7.44999981       5.28372546E-08
  -7.44000006       5.35141353E-08