  -16.0000000       0.00000000    
  -15.9899998       0.00000000    
  -15.9799995       0.00000000    
  -15.9700003       0.00000000    
  -15.9600000       0.00000000    
  -15.9499998       0.00000000    
  -15.9399996       0.00000000    
  -15.9300003       0.00000000    
  -15.9200001       0.00000000    
  -15.9099998       0.00000000    
  -15.8999996       0.00000000    
  -15.8900003       0.00000000    
  -15.8800001      -2.64182596E-40
  -15.8699999      -3.08180004E-39
  -15.8599997      -1.12831207E-38
  -15.8500004       4.59432097E-38
  -15.8400002       8.46379071E-37
  -15.8299999       6.26716062E-36
  -15.8199997       3.40415645E-35
  -15.8100004       1.55544397E-34
  -15.8000002       6.29423042E-34
  -15.7900000       2.28905613E-33
  -15.7799997       7.46356922E-33
  -15.7700005       2.16178554E-32
  -15.7600002       5.48863350E-32
  -15.7500000       1.19523654E-31
  -15.7399998       2.13138520E-31
  -15.7299995       2.70654988E-31
  -15.7200003       7.00917835E-32
  -15.7100000      -8.91515040E-31
  -15.6999998      -3.45251869E-30
  -15.6899996      -8.53972083E-30
  -15.6800003      -1.62838686E-29
  -15.6700001      -2.42762522E-29
  -15.6599998      -2.53451568E-29
  -15.6499996      -6.44938718E-30
  -15.6400003       4.82696243E-29
  -15.6300001       1.46874331E-28
  -15.6199999       2.70903617E-28
  -15.6099997       3.55774800E-28
  -15.6000004       2.89016988E-28
  -15.5900002      -4.71121705E-29
  -15.5799999      -6.71713520E-28
  -15.5699997      -1.36484386E-27
  -15.5600004      -1.58942463E-27
  -15.5500002      -6.46355523E-28
  -15.5400000       1.77576904E-27
  -15.5299997       4.68939752E-27
  -15.5200005       4.99941908E-27
  -15.5100002      -2.19022069E-27
  -15.5000000      -2.08707481E-26
  -15.4899998      -4.83808270E-26
  -15.4799995      -6.80945042E-26
  -15.4700003      -4.55141219E-26
  -15.4600000       6.39107865E-26
  -15.4499998       2.86919386E-25
  -15.4399996       5.83598262E-25
  -15.4300003       7.93777974E-25
  -15.4200001       6.18496433E-25
  -15.4099998      -3.05713380E-25
  -15.3999996      -2.19085448E-24
  -15.3900003      -4.74846381E-24
  -15.3800001      -6.82959642E-24
  -15.3699999      -6.31622270E-24
  -15.3599997      -6.15838219E-25
  -15.3500004       1.19672992E-23
  -15.3400002       3.00666382E-23
  -15.3299999       4.70209820E-23
  -15.3199997       5.00617284E-23
  -15.3100004       2.28587451E-23
  -15.3000002      -4.70719613E-23
  -15.2900000      -1.56435434E-22
  -15.2799997      -2.73295724E-22
  -15.2700005      -3.30709677E-22
  -15.2600002      -2.36689977E-22
  -15.2500000       9.13075511E-23
  -15.2399998       6.67317407E-22
  -15.2299995       1.36801052E-21
  -15.2200003       1.88703748E-21
  -15.2100000       1.75893495E-21
  -15.1999998       4.95927644E-22
  -15.1899996      -2.14923515E-21
  -15.1800003      -5.84276239E-21
  -15.1700001      -9.38154970E-21
  -15.1599998      -1.06594880E-20
  -15.1499996      -7.10648716E-21
  -15.1400003       3.27165826E-21
  -15.1300001       2.03519696E-20
  -15.1199999       4.02951342E-20
  -15.1099997       5.46983391E-20
  -15.1000004       5.15218298E-20
  -15.0900002       1.86455913E-20
  -15.0799999      -4.98222418E-20
  -15.0699997      -1.45705681E-19
  -15.0600004      -2.40314941E-19
  -15.0500002      -2.83780982E-19
  -15.0400000      -2.14824492E-19
  -15.0299997       1.62923868E-20
  -15.0200005       4.13646736E-19
  -15.0100002       8.99598414E-19
  -15.0000000       1.29384448E-18
  -14.9899998       1.32939577E-18
  -14.9799995       7.24395253E-19
  -14.9700003      -6.86114058E-19
  -14.9600000      -2.78205138E-18
  -14.9499998      -5.01293247E-18
  -14.9399996      -6.36544267E-18
  -14.9300003      -5.54099010E-18
  -14.9200001      -1.40256000E-18
  -14.9099998       6.34465356E-18
  -14.8999996       1.64174589E-17
  -14.8900003       2.54944543E-17
  -14.8800001       2.84514562E-17
  -14.8699999       1.96510932E-17
  -14.8599997      -4.63900548E-18
  -14.8500004      -4.31367344E-17
  -14.8400002      -8.68184286E-17
  -14.8299999      -1.18164087E-16
  -14.8199997      -1.14039937E-16
  -14.8100004      -5.31721425E-17
  -14.8000002       7.24525381E-17
  -14.7900000       2.45268660E-16
  -14.7799997       4.14221796E-16
  -14.7700005       4.97818733E-16
  -14.7600002       4.03470618E-16
  -14.7500000       6.39679083E-17
  -14.7399998      -5.15664076E-16
  -14.7299995      -1.21664308E-15
  -14.7200003      -1.79275159E-15
  -14.7100000      -1.90727912E-15
  -14.6999998      -1.23311575E-15
  -14.6899996       3.93323508E-16
  -14.6800003       2.80365640E-15
  -14.6700001       5.38264789E-15
  -14.6599998       7.08862307E-15
  -14.6499996       6.67522356E-15
  -14.6400003       3.12647061E-15
  -14.6300001      -3.77139853E-15
  -14.6199999      -1.28989193E-14
  -14.6099997      -2.15673121E-14
  -14.6000004      -2.58351351E-14
  -14.5900002      -2.15291838E-14
  -14.5799999      -5.89559326E-15
  -14.5699997       2.05021818E-14
  -14.5600004       5.23168850E-14
  -14.5500002       7.92166829E-14
  -14.5400000       8.76590670E-14
  -14.5299997       6.48675043E-14
  -14.5200005       4.43076158E-15
  -14.5100002      -8.79947699E-14
  -14.5000000      -1.91163667E-13
  -14.4899998      -2.69342084E-13
  -14.4799995      -2.79728524E-13
  -14.4700003      -1.86106556E-13
  -14.4600000       2.38823074E-14
  -14.4499998       3.23057688E-13
  -14.4399996       6.37477538E-13
  -14.4300003       8.54169220E-13
  -14.4200001       8.47270062E-13
  -14.4099998       5.20343100E-13
  -14.3999996      -1.44533650E-13
  -14.3900003      -1.04676597E-12
  -14.3800001      -1.95516173E-12
  -14.3699999      -2.53964731E-12
  -14.3599997      -2.45247420E-12
  -14.3500004      -1.44835489E-12
  -14.3400002       4.85524164E-13
  -14.3299999       3.03340794E-12
  -14.3199997       5.53669307E-12
  -14.3100004       7.09730495E-12
  -14.3000002       6.80526815E-12
  -14.2900000       4.05448765E-12
  -14.2799997      -1.13321570E-12
  -14.2700005      -7.88737912E-12
  -14.2600002      -1.44848014E-11
  -14.2500000      -1.86388491E-11
  -14.2399998      -1.80820463E-11
  -14.2299995      -1.13405214E-11
  -14.2200003       1.50076360E-12
  -14.2100000       1.83043442E-11
  -14.1999998       3.49132875E-11
  -14.1899996       4.58665085E-11
  -14.1800003       4.57719453E-11
  -14.1700001       3.10862551E-11
  -14.1599998       1.83775261E-12
  -14.1499996      -3.72874752E-11
  -14.1400003      -7.70386255E-11
  -14.1300001      -1.05182557E-10
  -14.1199999      -1.09496981E-10
  -14.1099997      -8.16104267E-11
  -14.1000004      -2.07082494E-11
  -14.0900002       6.41031256E-11
  -14.0799999       1.53878355E-10
  -14.0699997       2.22977761E-10
  -14.0600004       2.45097304E-10
  -14.0500002       2.01063305E-10
  -14.0400000       8.64391614E-11
  -14.0299997      -8.34153788E-11
  -14.0200005      -2.72990353E-10
  -14.0100002      -4.32207492E-10
  -14.0000000      -5.07655917E-10
  -13.9899998      -4.57443194E-10
  -13.9799995      -2.66062478E-10
  -13.9700003       4.50929433E-11
  -13.9600000       4.15630502E-10
  -13.9499998       7.54885376E-10
  -13.9399996       9.61244861E-10
  -13.9300003       9.48677359E-10
  -13.9200001       6.74296508E-10
  -13.9099998       1.59258093E-10
  -13.8999996      -5.04299769E-10
  -13.8900003      -1.16498111E-09
  -13.8800001      -1.64276037E-09
  -13.8699999      -1.77343185E-09
  -13.8599997      -1.45692847E-09
  -13.8500004      -6.96639746E-10
  -13.8400002       3.82928300E-10
  -13.8299999       1.54887814E-09
  -13.8199997       2.50486587E-09
  -13.8100004       2.96127345E-09
  -13.8000002       2.71542322E-09
  -13.7900000       1.72119863E-09
  -13.7799997       1.27032107E-10
  -13.7700005      -1.73356807E-09
  -13.7600002      -3.40403927E-09
  -13.7500000      -4.41067405E-09
  -13.7399998      -4.38994974E-09
  -13.7299995      -3.20537619E-09
  -13.7200003      -1.01939290E-09
  -13.7100000       1.70682712E-09
  -13.6999998       4.29718972E-09
  -13.6899996       6.01784000E-09
  -13.6800003       6.27513108E-09
  -13.6700001       4.80495332E-09
  -13.6599998       1.79813586E-09
  -13.6499996      -2.08413620E-09
  -13.6400003      -5.82749582E-09
  -13.6300001      -8.30271674E-09
  -13.6199999      -8.57701288E-09
  -13.6099997      -6.22107654E-09
  -13.6000004      -1.52236435E-09
  -13.5900002       4.47384485E-09
  -13.5799999       1.01378568E-08
  -13.5699997       1.36322820E-08
  -13.5600004       1.34196823E-08
  -13.5500002       8.77848727E-09
  -13.5400000       1.79088619E-10
  -13.5299997      -1.06145457E-08
  -13.5200005      -2.07995647E-08
  -13.5100002      -2.71397109E-08
  -13.5000000      -2.68163181E-08
  -13.4899998      -1.83296436E-08
  -13.4799995      -2.20487895E-09
  -13.4700003       1.87329370E-08
  -13.4600000       3.96744753E-08
  -13.4499998       5.47565868E-08
  -13.4399996       5.84656448E-08
  -13.4300003       4.72175046E-08
  -13.4200001       2.07151309E-08
  -13.4099998      -1.73241119E-08
  -13.3999996      -5.93803300E-08
  -13.3900003      -9.53917976E-08
  -13.3800001      -1.14912126E-07
  -13.3699999      -1.09748427E-07
  -13.3599997      -7.64689929E-08
  -13.3500004      -1.81084427E-08
  -13.3400002       5.55026389E-08
  -13.3299999       1.29085024E-07
  -13.3199997       1.84844367E-07
  -13.3100004       2.06490071E-07
  -13.3000002       1.83475322E-07
  -13.2900000       1.14428545E-07
  -13.2799997       8.79879369E-09
  -13.2700005      -1.13934107E-07
  -13.2600002      -2.27610613E-07
  -13.2500000      -3.04805639E-07
  -13.2399998      -3.23226288E-07
  -13.2299995      -2.71644780E-07
  -13.2200003      -1.53852838E-07
  -13.2100000       1.05468327E-08
  -13.1999998       1.89068260E-07
  -13.1899996       3.42662247E-07
  -13.1800003       4.34266212E-07
  -13.1700001       4.37725447E-07
  -13.1599998       3.44962785E-07
  -13.1499996       1.69499742E-07
  -13.1400003      -5.48796208E-08
  -13.1300001      -2.80422682E-07
  -13.1199999      -4.55590310E-07
  -13.1099997      -5.36986818E-07
  -13.1000004      -5.00292799E-07
  -13.0900002      -3.47467392E-07
  -13.0799999      -1.08158659E-07
  -13.0699997       1.65467682E-07
  -13.0600004       4.09759537E-07
  -13.0500002       5.64204583E-07
  -13.0400000       5.86366014E-07
  -13.0299997       4.63484383E-07
  -13.0200005       2.17659220E-07
  -13.0100002      -9.71570344E-08
  -13.0000000      -4.06194317E-07
  -12.9899998      -6.30833654E-07
  -12.9799995      -7.07750473E-07
  -12.9700003      -6.05691071E-07
  -12.9600000      -3.35580609E-07
  -12.9499998       4.90135186E-08
  -12.9399996       4.61849083E-07
  -12.9300003       8.02723719E-07
  -12.9200001       9.80952677E-07
  -12.9099998       9.38186929E-07
  -12.8999996       6.64969377E-07
  -12.8900003       2.06544442E-07
  -12.8800001      -3.44186645E-07
  -12.8699999      -8.65703157E-07
  -12.8599997      -1.23501547E-06
  -12.8500004      -1.35686173E-06
  -12.8400002      -1.18799460E-06
  -12.8299999      -7.50430274E-07
  -12.8199997      -1.29811525E-07
  -12.8100004       5.41526731E-07
  -12.8000002       1.11350164E-06
  -12.7900000       1.45290778E-06
  -12.7799997       1.47565493E-06
  -12.7700005       1.16875083E-06
  -12.7600002       5.96283598E-07
  -12.7500000      -1.12772248E-07
  -12.7399998      -7.92728713E-07
  -12.7299995      -1.27927331E-06
  -12.7200003      -1.44865294E-06
  -12.7100000      -1.24860298E-06
  -12.6999998      -7.13268264E-07
  -12.6899996       4.20137560E-08
  -12.6800003       8.45501745E-07
  -12.6700001       1.50800247E-06
  -12.6599998       1.86700504E-06
  -12.6499996       1.82545352E-06
  -12.6400003       1.37559107E-06
  -12.6300001       6.01683212E-07
  -12.6199999      -3.39534552E-07
  -12.6099997      -1.25637484E-06
  -12.6000004      -1.96873793E-06
  -12.5900002      -2.35218204E-06
  -12.5799999      -2.36819096E-06
  -12.5699997      -2.07234302E-06
  -12.5600004      -1.59732986E-06
  -12.5500002      -1.11396832E-06
  -12.5400000      -7.79237837E-07
  -12.5299997      -6.84140389E-07
  -12.5200005      -8.15272642E-07
  -12.5100002      -1.04155117E-06
  -12.5000000      -1.13222666E-06
  -12.4899998      -8.05330217E-07
  -12.4799995       2.01900335E-07
  -12.4700003       2.05470064E-06
  -12.4600000       4.75180059E-06
  -12.4499998       8.08241566E-06
  -12.4399996       1.16207721E-05
  -12.4300003       1.47629580E-05
  -12.4200001       1.68013721E-05
  -12.4099998       1.70243202E-05
  -12.3999996       1.48220861E-05
  -12.3900003       9.77852505E-06
  -12.3800001       1.73077262E-06
  -12.3699999      -9.21525952E-06
  -12.3599997      -2.27154906E-05
  -12.3500004      -3.82565740E-05
  -12.3400002      -5.52468882E-05
  -12.3299999      -7.31074324E-05
  -12.3199997      -9.13419281E-05
  -12.3100004      -1.09569701E-04
  -12.3000002      -1.27511783E-04
  -12.2900000      -1.44935679E-04
  -12.2799997      -1.61575270E-04
  -12.2700005      -1.77042559E-04
  -12.2600002      -1.90762818E-04
  -12.2500000      -2.01951101E-04
  -12.2399998      -2.09642749E-04
  -12.2299995      -2.12778687E-04
  -12.2200003      -2.10332699E-04
  -12.2100000      -2.01452873E-04
  -12.1999998      -1.85590790E-04
  -12.1899996      -1.62585260E-04
  -12.1800003      -1.32685134E-04
  -12.1700001      -9.65002691E-05
  -12.1599998      -5.48933822E-05
  -12.1499996      -8.83495977E-06
  -12.1400003       4.07446823E-05
  -12.1300001       9.30717360E-05
  -12.1199999       1.47588755E-04
  -12.1099997       2.03943229E-04
  -12.1000004       2.61907233E-04
  -12.0900002       3.21258151E-04
  -12.0799999       3.81639082E-04
  -12.0699997       4.42450342E-04
  -12.0600004       5.02795039E-04
  -12.0500002       5.61493856E-04
  -12.0400000       6.17175887E-04
  -12.0299997       6.68418303E-04
  -12.0200005       7.13906367E-04
  -12.0100002       7.52574706E-04
  -12.0000000       7.83694559E-04
  -11.9899998       8.06887168E-04
  -11.9799995       8.22061964E-04
  -11.9700003       8.29294615E-04
  -11.9600000       8.28675693E-04
  -11.9499998       8.20175454E-04
  -11.9399996       8.03551520E-04
  -11.9300003       7.78326590E-04
  -11.9200001       7.43846642E-04
  -11.9099998       6.99392462E-04
  -11.8999996       6.44335116E-04
  -11.8900003       5.78274776E-04
  -11.8800001       5.01148112E-04
  -11.8699999       4.13266767E-04
  -11.8599997       3.15275422E-04
  -11.8500004       2.08063211E-04
  -11.8400002       9.26219800E-05
  -11.8299999      -3.00821976E-05
  -11.8199997      -1.59209929E-04
  -11.8100004      -2.94084370E-04
  -11.8000002      -4.34164074E-04
  -11.7900000      -5.78941661E-04
  -11.7799997      -7.27819977E-04
  -11.7700005      -8.79970670E-04
  -11.7600002      -1.03423791E-03
  -11.7500000      -1.18909078E-03
  -11.7399998      -1.34265586E-03
  -11.7299995      -1.49281940E-03
  -11.7200003      -1.63737126E-03
  -11.7100000      -1.77417905E-03
  -11.6999998      -1.90134346E-03
  -11.6899996      -2.01730221E-03
  -11.6800003      -2.12088809E-03
  -11.6700001      -2.21129879E-03
  -11.6599998      -2.28802930E-03
  -11.6499996      -2.35074898E-03
  -11.6400003      -2.39917426E-03
  -11.6300001      -2.43295263E-03
  -11.6199999      -2.45158165E-03
  -11.6099997      -2.45435769E-03
  -11.6000004      -2.44038133E-03
  -11.5900002      -2.40858085E-03
  -11.5799999      -2.35778396E-03
  -11.5699997      -2.28678389E-03
  -11.5600004      -2.19443045E-03
  -11.5500002      -2.07972340E-03
  -11.5400000      -1.94190105E-03
  -11.5299997      -1.78054022E-03
  -11.5200005      -1.59563799E-03
  -11.5100002      -1.38768763E-03
  -11.5000000      -1.15770486E-03
  -11.4899998      -9.07226698E-04
  -11.4799995      -6.38231460E-04
  -11.4700003      -3.53007927E-04
  -11.4600000      -5.39667781E-05
  -11.4499998       2.56580650E-04
  -11.4399996       5.76633727E-04
  -11.4300003       9.04672779E-04
  -11.4200001       1.23975694E-03
  -11.4099998       1.58150378E-03
  -11.3999996       1.92997465E-03
  -11.3900003       2.28546071E-03
  -11.3800001       2.64821528E-03
  -11.3699999       3.01818829E-03
  -11.3599997       3.39480722E-03
  -11.3500004       3.77686997E-03
  -11.3400002       4.16255929E-03
  -11.3299999       4.54959506E-03
  -11.3199997       4.93550766E-03
  -11.3100004       5.31795062E-03
  -11.3000002       5.69504360E-03
  -11.2900000       6.06562197E-03
  -11.2799997       6.42937375E-03
  -11.2700005       6.78681722E-03
  -11.2600002       7.13912910E-03
  -11.2500000       7.48781906E-03
  -11.2399998       7.83434510E-03
  -11.2299995       8.17971677E-03
  -11.2200003       8.52417201E-03
  -11.2100000       8.86696950E-03
  -11.1999998       9.20638535E-03
  -11.1899996       9.53986682E-03
  -11.1800003       9.86434799E-03
  -11.1700001       1.01766642E-02
  -11.1599998       1.04739852E-02
  -11.1499996       1.07541922E-02
  -11.1400003       1.10161044E-02
  -11.1300001       1.12595689E-02
  -11.1199999       1.14853606E-02
  -11.1099997       1.16949109E-02
  -11.1000004       1.18899755E-02
  -11.0900002       1.20723061E-02
  -11.0799999       1.22433212E-02
  -11.0699997       1.24039762E-02
  -11.0600004       1.25547163E-02
  -11.0500002       1.26955919E-02
  -11.0400000       1.28264837E-02
  -11.0299997       1.29473060E-02
  -11.0200005       1.30582461E-02
  -11.0100002       1.31598590E-02
  -11.0000000       1.32530825E-02
  -10.9899998       1.33390985E-02
  -10.9799995       1.34191765E-02
  -10.9700003       1.34943863E-02
  -10.9600000       1.35654546E-02
  -10.9499998       1.36325844E-02
  -10.9399996       1.36954756E-02
  -10.9300003       1.37533937E-02
  -10.9200001       1.38053587E-02
  -10.9099998       1.38503639E-02
  -10.8999996       1.38875889E-02
  -10.8900003       1.39165372E-02
  -10.8800001       1.39370961E-02
  -10.8699999       1.39494473E-02
  -10.8599997       1.39538720E-02
  -10.8500004       1.39504941E-02
  -10.8400002       1.39389709E-02
  -10.8299999       1.39182527E-02
  -10.8199997       1.38864340E-02
  -10.8100004       1.38407778E-02
  -10.8000002       1.37779210E-02
  -10.7900000       1.36943022E-02
  -10.7799997       1.35866506E-02
  -10.7700005       1.34525914E-02
  -10.7600002       1.32910945E-02
  -10.7500000       1.31028201E-02
  -10.7399998       1.28900865E-02
  -10.7299995       1.26565928E-02
  -10.7200003       1.24067767E-02
  -10.7100000       1.21450284E-02
  -10.6999998       1.18748555E-02
  -10.6899996       1.15981568E-02
  -10.6800003       1.13148605E-02
  -10.6700001       1.10229366E-02
  -10.6599998       1.07188746E-02
  -10.6499996       1.03984820E-02
  -10.6400003       1.00579150E-02
  -10.6300001       9.69462190E-03
  -10.6199999       9.30811744E-03
  -10.6099997       8.90028756E-03
  -10.6000004       8.47525150E-03
  -10.5900002       8.03880580E-03
  -10.5799999       7.59753119E-03
  -10.5699997       7.15779746E-03
  -10.5600004       6.72488939E-03
  -10.5500002       6.30240049E-03
  -10.5400000       5.89194056E-03
  -10.5299997       5.49327908E-03
  -10.5200005       5.10478113E-03
  -10.5100002       4.72401874E-03
  -10.5000000       4.34841588E-03
  -10.4899998       3.97588033E-03
  -10.4799995       3.60519951E-03
  -10.4700003       3.23631405E-03
  -10.4600000       2.87035084E-03
  -10.4499998       2.50946335E-03
  -10.4399996       2.15661339E-03
  -10.4300003       1.81516865E-03
  -10.4200001       1.48846954E-03
  -10.4099998       1.17937964E-03
  -10.3999996       8.89836636E-04
  -10.3900003       6.20495994E-04
  -10.3800001       3.70557624E-04
  -10.3699999       1.37749419E-04
  -10.3599997      -8.13937222E-05
  -10.3500004      -2.91063159E-04
  -10.3400002      -4.95583867E-04
  -10.3299999      -6.98744727E-04
  -10.3199997      -9.03258042E-04
  -10.3100004      -1.11045502E-03
  -10.3000002      -1.32020668E-03
  -10.2900000      -1.53122714E-03
  -10.2799997      -1.74153526E-03
  -10.2700005      -1.94902916E-03
  -10.2600002      -2.15206668E-03
  -10.2500000      -2.34982162E-03
  -10.2399998      -2.54246546E-03
  -10.2299995      -2.73106154E-03
  -10.2200003      -2.91726086E-03
  -10.2100000      -3.10297753E-03
  -10.1999998      -3.28997872E-03
  -10.1899996      -3.47969658E-03
  -10.1800003      -3.67310038E-03
  -10.1700001      -3.87072796E-03
  -10.1599998      -4.07285290E-03
  -10.1499996      -4.27951524E-03
  -10.1400003      -4.49063303E-03
  -10.1300001      -4.70592547E-03
  -10.1199999      -4.92474902E-03
  -10.1099997      -5.14590787E-03
  -10.1000004      -5.36749326E-03
  -10.0900002      -5.58685418E-03
  -10.0799999      -5.80069609E-03
  -10.0699997      -6.00541197E-03
  -10.0600004      -6.19745906E-03
  -10.0500002      -6.37385156E-03
  -10.0400000      -6.53258199E-03
  -10.0299997      -6.67286338E-03
  -10.0200005      -6.79518888E-03
  -10.0100002      -6.90117525E-03
  -10.0000000      -6.99319458E-03
  -9.98999977      -7.07391044E-03
  -9.97999954      -7.14571914E-03
  -9.97000027      -7.21033989E-03
  -9.96000004      -7.26846932E-03
  -9.94999981      -7.31955236E-03
  -9.93999958      -7.36185536E-03
  -9.93000031      -7.39254011E-03
  -9.92000008      -7.40794232E-03
  -9.90999985      -7.40393018E-03
  -9.89999962      -7.37629505E-03
  -9.89000034      -7.32124923E-03
  -9.88000011      -7.23583018E-03
  -9.86999989      -7.11845793E-03
  -9.85999966      -6.96917204E-03
  -9.85000038      -6.78988360E-03
  -9.84000015      -6.58422895E-03
  -9.82999992      -6.35717623E-03
  -9.81999969      -6.11429662E-03
  -9.81000042      -5.86081808E-03
  -9.80000019      -5.60055021E-03
  -9.78999996      -5.33516053E-03
  -9.77999973      -5.06361993E-03
  -9.77000046      -4.78236191E-03
  -9.76000023      -4.48599318E-03
  -9.75000000      -4.16847598E-03
  -9.73999977      -3.82454484E-03
  -9.72999954      -3.45109450E-03
  -9.72000027      -3.04805883E-03
  -9.71000004      -2.61862599E-03
  -9.69999981      -2.16875481E-03
  -9.68999958      -1.70598854E-03
  -9.68000031      -1.23805681E-03
  -9.67000008      -7.71484454E-04
  -9.65999985      -3.10640695E-04
  -9.64999962       1.42486606E-04
  -9.64000034       5.87889808E-04
  -9.63000011       1.02668372E-03
  -9.61999989       1.46004918E-03
  -9.60999966       1.88836257E-03
  -9.60000038       2.31088651E-03
  -9.59000015       2.72600912E-03
  -9.57999992       3.13194399E-03
  -9.56999969       3.52755422E-03
  -9.56000042       3.91307706E-03
  -9.55000019       4.29035816E-03
  -9.53999996       4.66245925E-03
  -9.52999973       5.03283972E-03
  -9.52000046       5.40437968E-03
  -9.51000023       5.77847706E-03
  -9.50000000       6.15458796E-03
  -9.48999977       6.53048186E-03
  -9.47999954       6.90289680E-03
  -9.47000027       7.26851635E-03
  -9.46000004       7.62491301E-03
  -9.44999981       7.97100272E-03
  -9.43999958       8.30718875E-03
  -9.43000031       8.63474887E-03
  -9.42000008       8.95530917E-03
  -9.40999985       9.27016139E-03
  -9.39999962       9.57998913E-03
  -9.39000034       9.88508854E-03
  -9.38000011       1.01858033E-02
  -9.36999989       1.04831271E-02
  -9.35999966       1.07789906E-02
  -9.35000038       1.10760070E-02
  -9.34000015       1.13767860E-02
  -9.32999992       1.16828373E-02
  -9.31999969       1.19935265E-02
  -9.31000042       1.23054758E-02
  -9.30000019       1.26127098E-02
  -9.28999996       1.29075497E-02
  -9.27999973       1.31819155E-02
  -9.27000046       1.34288101E-02
  -9.26000023       1.36430683E-02
  -9.25000000       1.38216903E-02
  -9.23999977       1.39627904E-02
  -9.22999954       1.40643390E-02
  -9.22000027       1.41226370E-02
  -9.21000004       1.41314426E-02
  -9.19999981       1.40821822E-02
  -9.18999958       1.39650535E-02
  -9.18000031       1.37711903E-02
  -9.17000008       1.34947598E-02
  -9.15999985       1.31345615E-02
  -9.14999962       1.26943802E-02
  -9.14000034       1.21820029E-02
  -9.13000011       1.16070416E-02
  -9.11999989       1.09783327E-02
  -9.10999966       1.03017353E-02
  -9.10000038       9.57910623E-03
  -9.09000015       8.80868360E-03
  -9.07999992       7.98688177E-03
  -9.06999969       7.11083645E-03
  -9.06000042       6.18072972E-03
  -9.05000019       5.20120934E-03
  -9.03999996       4.18141065E-03
  -9.02999973       3.13361688E-03
  -9.02000046       2.07090192E-03
  -9.01000023       1.00495981E-03
  -9.00000000      -5.55984589E-05
  -8.98999977      -1.10551831E-03
  -8.97999954      -2.14194180E-03
  -8.97000027      -3.16268462E-03
  -8.96000004      -4.16421611E-03
  -8.94999981      -5.14039397E-03
  -8.93999958      -6.08225912E-03
  -8.93000031      -6.97901985E-03
  -8.92000008      -7.81971402E-03
  -8.90999985      -8.59505497E-03
  -8.89999962      -9.29863285E-03
  -8.89000034      -9.92710236E-03
  -8.88000011      -1.04793319E-02
  -8.86999989      -1.09548029E-02
  -8.85999966      -1.13520185E-02
  -8.85000038      -1.16675869E-02
  -8.84000015      -1.18959723E-02
  -8.82999992      -1.20305344E-02
  -8.81999969      -1.20648425E-02
  -8.81000042      -1.19939949E-02
  -8.80000019      -1.18152620E-02
  -8.78999996      -1.15278279E-02
  -8.77999973      -1.11316936E-02
  -8.77000046      -1.06261326E-02
  -8.76000023      -1.00086182E-02
  -8.75000000      -9.27446969E-03
  -8.73999977      -8.41766875E-03
  -8.72999954      -7.43235694E-03
  -8.72000027      -6.31498825E-03
  -8.71000004      -5.06557804E-03
  -8.69999981      -3.68841155E-03
  -8.68999958      -2.19097640E-03
  -8.68000031      -5.82297333E-04
  -8.67000008       1.12928357E-03
  -8.65999985       2.93811667E-03
  -8.64999962       4.84186364E-03
  -8.64000034       6.84114825E-03
  -8.63000011       8.93789437E-03
  -8.61999989       1.11332862E-02
  -8.60999966       1.34261632E-02
  -8.60000038       1.58121381E-02
  -8.59000015       1.82842873E-02
  -8.57999992       2.08345763E-02
  -8.56999969       2.34558433E-02
  -8.56000042       2.61434000E-02
  -8.55000019       2.88955159E-02
  -8.53999996       3.17129530E-02
  -8.52999973       3.45971733E-02
  -8.52000046       3.75486650E-02
  -8.51000023       4.05652858E-02
  -8.50000000       4.36419919E-02
  -8.48999977       4.67713401E-02
  -8.47999954       4.99452837E-02
  -8.47000027       5.31568229E-02
  -8.46000004       5.64012602E-02
  -8.44999981       5.96763566E-02
  -8.43999958       6.29813150E-02
  -8.43000031       6.63148761E-02
  -8.42000008       6.96734786E-02
  -8.40999985       7.30501711E-02
  -8.39999962       7.64347166E-02
  -8.39000034       7.98147395E-02
  -8.38000011       8.31781477E-02
  -8.36999989       8.65150169E-02
  -8.35999966       8.98188576E-02
  -8.35000038       9.30863246E-02
  -8.34000015       9.63156968E-02
  -8.32999992       9.95044038E-02
  -8.31999969      0.102646708    
  -8.31000042      0.105732307    
  -8.30000019      0.108746834    
  -8.28999996      0.111673452    
  -8.27999973      0.114495873    
  -8.27000046      0.117201194    
  -8.26000023      0.119781390    
  -8.25000000      0.122233480    
  -8.23999977      0.124557689    
  -8.22999954      0.126754358    
  -8.22000027      0.128821403    
  -8.21000004      0.130751908    
  -8.19999981      0.132533967    
  -8.18999958      0.134152234    
  -8.18000031      0.135590732    
  -8.17000008      0.136835873    
  -8.15999985      0.137878612    
  -8.14999962      0.138714790    
  -8.14000034      0.139343902    
  -8.13000011      0.139766693    
  -8.11999989      0.139982224    
  -8.10999966      0.139986262    
  -8.10000038      0.139770925    
  -8.09000015      0.139326274    
  -8.07999992      0.138643369    
  -8.06999969      0.137716994    
  -8.06000042      0.136548206    
  -8.05000019      0.135144293    
  -8.03999996      0.133517489    
  -8.02999973      0.131682366    
  -8.02000046      0.129652247    
  -8.01000023      0.127436787    
  -8.00000000      0.125041842    
  -7.98999977      0.122470222    
  -7.98000002      0.119724274    
  -7.96999979      0.116809368    
  -7.96000004      0.113735728    
  -7.94999981      0.110519357    
  -7.94000006      0.107180730    
  -7.92999983      0.103741869    
  -7.92000008      0.100223012    
  -7.90999985       9.66399685E-02
  -7.90000010       9.30029303E-02
  -7.88999987       8.93172994E-02
  -7.88000011       8.55858922E-02
  -7.86999989       8.18121508E-02
  -7.86000013       7.80026615E-02
  -7.84999990       7.41685927E-02
  -7.84000015       7.03252703E-02
  -7.82999992       6.64897040E-02
  -7.82000017       6.26780316E-02
  -7.80999994       5.89031503E-02
  -7.80000019       5.51728718E-02
  -7.78999996       5.14906272E-02
  -7.78000021       4.78571653E-02
  -7.76999998       4.42729779E-02
  -7.76000023       4.07409221E-02
  -7.75000000       3.72677222E-02
  -7.73999977       3.38636488E-02
  -7.73000002       3.05414218E-02
  -7.71999979       2.73138005E-02
  -7.71000004       2.41916087E-02
  -7.69999981       2.11823247E-02
  -7.69000006       1.82903279E-02
  -7.67999983       1.55181158E-02
  -7.67000008       1.28683383E-02
  -7.65999985       1.03457849E-02
  -7.65000010       7.95840099E-03
  -7.63999987       5.71696553E-03
  -7.63000011       3.63407796E-03
  -7.61999989       1.72211090E-03
  -7.61000013      -9.26637040E-06
  -7.59999990      -1.55360985E-03
  -7.59000015      -2.90888874E-03
  -7.57999992      -4.07612603E-03
  -7.57000017      -5.05795935E-03
  -7.55999994      -5.85770747E-03
  -7.55000019      -6.47756271E-03
  -7.53999996      -6.91945478E-03
  -7.53000021      -7.18495762E-03
  -7.51999998      -7.27675483E-03
  -7.51000023      -7.19956215E-03
  -7.50000000      -6.96039293E-03
  -7.48999977      -6.56798901E-03
  -7.48000002      -6.03200216E-03
  -7.46999979      -5.36137028E-03
  -7.46000004      -4.56353743E-03
  -7.44999981      -3.64391599E-03
  -7.44000006      -2.60623032E-03