  -16.0000000       0.00000000    
  -15.9899998       0.00000000    
  -15.9799995       0.00000000    
  -15.9700003       0.00000000    
  -15.9600000       0.00000000    
  -15.9499998       0.00000000    
  -15.9399996       0.00000000    
  -15.9300003       0.00000000    
  -15.9200001       0.00000000    
  -15.9099998       0.00000000    
  -15.8999996       0.00000000    
  -15.8900003       0.00000000    
  -15.8800001       0.00000000    
  -15.8699999       0.00000000    
  -15.8599997       0.00000000    
  -15.8500004       9.80908925E-45
  -15.8400002       1.16307773E-43
  -15.8299999       1.03555957E-42
  -15.8199997       7.36102083E-42
  -15.8100004       4.36924861E-41
  -15.8000002       2.22884929E-40
  -15.7900000       9.97619409E-40
  -15.7799997       3.97860163E-39
  -15.7700005       1.43049452E-38
  -15.7600002       4.67963874E-38
  -15.7500000       1.40290928E-37
  -15.7399998       3.87589469E-37
  -15.7299995       9.91044909E-37
  -15.7200003       2.35247134E-36
  -15.7100000       5.19377406E-36
  -15.6999998       1.06718041E-35
  -15.6899996       2.03890213E-35
  -15.6800003       3.61142342E-35
  -15.6700001       5.89458358E-35
  -15.6599998       8.76486814E-35
  -15.6499996       1.16096471E-34
  -15.6400003       1.30284803E-34
  -15.6300001       1.06304156E-34
  -15.6199999       1.18037361E-35
  -15.6099997      -1.85705780E-34
  -15.6000004      -5.00842557E-34
  -15.5900002      -9.02732274E-34
  -15.5799999      -1.28408983E-33
  -15.5699997      -1.44214973E-33
  -15.5600004      -1.09490081E-33
  -15.5500002       4.21954201E-35
  -15.5400000       2.10634959E-33
  -15.5299997       4.88429731E-33
  -15.5200005       7.62593732E-33
  -15.5100002       8.99674667E-33
  -15.5000000       7.31280472E-33
  -15.4899998       1.15386480E-33
  -15.4799995      -9.69772260E-33
  -15.4700003      -2.32794034E-32
  -15.4600000      -3.49633897E-32
  -15.4499998      -3.80993765E-32
  -15.4399996      -2.62087163E-32
  -15.4300003       3.48006976E-33
  -15.4200001       4.63315456E-32
  -15.4099998       8.85372765E-32
  -15.3999996       1.09621090E-31
  -15.3900003       9.04504758E-32
  -15.3800001       2.52896824E-32
  -15.3699999      -6.72377185E-32
  -15.3599997      -1.42296459E-31
  -15.3500004      -1.43700282E-31
  -15.3400002      -3.72103765E-32
  -15.3299999       1.47435768E-31
  -15.3199997       2.88878230E-31
  -15.3100004       1.91867879E-31
  -15.3000002      -3.25600251E-31
  -15.2900000      -1.27997821E-30
  -15.2799997      -2.35572980E-30
  -15.2700005      -2.82486565E-30
  -15.2600002      -1.67485808E-30
  -15.2500000       1.96966567E-30
  -15.2399998       8.16115071E-30
  -15.2299995       1.53878161E-29
  -15.2200003       2.01686017E-29
  -15.2100000       1.74656568E-29
  -15.1999998       2.28494303E-30
  -15.1899996      -2.75397811E-29
  -15.1800003      -6.79941321E-29
  -15.1700001      -1.06263558E-28
  -15.1599998      -1.20644489E-28
  -15.1499996      -8.47627046E-29
  -15.1400003       2.29337707E-29
  -15.1300001       2.05154367E-28
  -15.1199999       4.30439709E-28
  -15.1099997       6.22521273E-28
  -15.1000004       6.62564438E-28
  -15.0900002       4.12882691E-28
  -15.0799999      -2.32311424E-28
  -15.0699997      -1.27153265E-27
  -15.0600004      -2.51208249E-27
  -15.0500002      -3.51130116E-27
  -15.0400000      -3.59313662E-27
  -15.0299997      -1.99487593E-27
  -15.0200005       1.82162254E-27
  -15.0100002       7.71757261E-27
  -15.0000000       1.44032319E-26
  -14.9899998       1.91752010E-26
  -14.9799995       1.81790715E-26
  -14.9700003       7.48522457E-27
  -14.9600000      -1.49439714E-26
  -14.9499998      -4.67413121E-26
  -14.9399996      -7.89935297E-26
  -14.9300003      -9.59022208E-26
  -14.9200001      -7.77974933E-26
  -14.9099998      -8.41453507E-27
  -14.8999996       1.14272258E-25
  -14.8900003       2.66785017E-25
  -14.8800001       3.94057247E-25
  -14.8699999       4.15379492E-25
  -14.8599997       2.47679324E-25
  -14.8500004      -1.53989864E-25
  -14.8400002      -7.47946339E-25
  -14.8299999      -1.36889998E-24
  -14.8199997      -1.72905827E-24
  -14.8100004      -1.48175037E-24
  -14.8000002      -3.55896224E-25
  -14.7900000       1.66099338E-24
  -14.7799997       4.15224471E-24
  -14.7700005       6.20675090E-24
  -14.7600002       6.55680201E-24
  -14.7500000       3.97588066E-24
  -14.7399998      -2.10064232E-24
  -14.7299995      -1.09005013E-23
  -14.7200003      -1.98804860E-23
  -14.7100000      -2.48850874E-23
  -14.6999998      -2.11686296E-23
  -14.6899996      -5.29389328E-24
  -14.6800003       2.24895724E-23
  -14.6700001       5.62348963E-23
  -14.6599998       8.38032246E-23
  -14.6499996       8.89595540E-23
  -14.6400003       5.65213348E-23
  -14.6300001      -2.01345102E-23
  -14.6199999      -1.31352232E-22
  -14.6099997      -2.46646185E-22
  -14.6000004      -3.17044864E-22
  -14.5900002      -2.86902375E-22
  -14.5799999      -1.14857239E-22
  -14.5699997       2.00587676E-22
  -14.5600004       5.99697866E-22
  -14.5500002       9.55746310E-22
  -14.5400000       1.09511110E-21
  -14.5299997       8.47357882E-22
  -14.5200005       1.18625583E-22
  -14.5100002      -1.03142506E-21
  -14.5000000      -2.33962200E-21
  -14.4899998      -3.34973433E-21
  -14.4799995      -3.50715169E-21
  -14.4700003      -2.33771278E-21
  -14.4600000       3.23862970E-22
  -14.4499998       4.12598053E-21
  -14.4399996       8.10511146E-21
  -14.4300003       1.07910404E-20
  -14.4200001       1.05575235E-20
  -14.4099998       6.18559361E-21
  -14.3999996      -2.49033386E-21
  -14.3900003      -1.40692695E-20
  -14.3800001      -2.54554995E-20
  -14.3699999      -3.23210808E-20
  -14.3599997      -3.02208918E-20
  -14.3500004      -1.61989623E-20
  -14.3400002       9.52242889E-21
  -14.3299999       4.23666012E-20
  -14.3199997       7.33688007E-20
  -14.3100004       9.07279290E-20
  -14.3000002       8.29675467E-20
  -14.2900000       4.31533857E-20
  -14.2799997      -2.69653626E-20
  -14.2700005      -1.14395318E-19
  -14.2600002      -1.95382995E-19
  -14.2500000      -2.39830834E-19
  -14.2399998      -2.19448483E-19
  -14.2299995      -1.18070236E-19
  -14.2200003       5.86995409E-20
  -14.2100000       2.78038746E-19
  -14.1999998       4.81871584E-19
  -14.1899996       5.97948082E-19
  -14.1800003       5.59186088E-19
  -14.1700001       3.27385498E-19
  -14.1599998      -8.52091868E-20
  -14.1499996      -6.04242513E-19
  -14.1400003      -1.09823384E-18
  -14.1300001      -1.40346535E-18
  -14.1199999      -1.36647507E-18
  -14.1099997      -8.95530340E-19
  -14.1000004      -7.20343209E-21
  -14.0900002       1.14802153E-18
  -14.0799999       2.29483580E-18
  -14.0699997       3.08331801E-18
  -14.0600004       3.17549571E-18
  -14.0500002       2.35102328E-18
  -14.0400000       6.04534973E-19
  -14.0299997      -1.79696385E-18
  -14.0200005      -4.32382568E-18
  -14.0100002      -6.27395153E-18
  -14.0000000      -6.93581183E-18
  -13.9899998      -5.79323138E-18
  -13.9799995      -2.72144531E-18
  -13.9700003       1.88460633E-18
  -13.9600000       7.10209498E-18
  -13.9499998       1.16208693E-17
  -13.9399996       1.40247894E-17
  -13.9300003       1.31638888E-17
  -13.9200001       8.53149865E-18
  -13.9099998       5.41751654E-19
  -13.8999996      -9.38970929E-18
  -13.8900003      -1.90232681E-17
  -13.8800001      -2.57326426E-17
  -13.8699999      -2.71325994E-17
  -13.8599997      -2.17629019E-17
  -13.8500004      -9.65454026E-18
  -13.8400002       7.39473660E-18
  -13.8299999       2.59610106E-17
  -13.8199997       4.15870744E-17
  -13.8100004       4.97496993E-17
  -13.8000002       4.70119896E-17
  -13.7900000       3.20912858E-17
  -13.7799997       6.55208150E-18
  -13.7700005      -2.51152697E-17
  -13.7600002      -5.61478685E-17
  -13.7500000      -7.88421311E-17
  -13.7399998      -8.63282943E-17
  -13.7299995      -7.44035064E-17
  -13.7200003      -4.29678175E-17
  -13.7100000       3.35639183E-18
  -13.6999998       5.56922575E-17
  -13.6899996       1.02494851E-16
  -13.6800003       1.32009542E-16
  -13.6700001       1.35099558E-16
  -13.6599998       1.07783129E-16
  -13.6499996       5.28087919E-17
  -13.6400003      -2.02407109E-17
  -13.6300001      -9.65137200E-17
  -13.6199999      -1.58920639E-16
  -13.6099997      -1.92029119E-16
  -13.6000004      -1.85931951E-16
  -13.5900002      -1.39106580E-16
  -13.5799999      -5.94410400E-17
  -13.5699997       3.70086297E-17
  -13.5600004       1.29414127E-16
  -13.5500002       1.97027182E-16
  -13.5400000       2.24337788E-16
  -13.5299997       2.05193056E-16
  -13.5200005       1.44686370E-16
  -13.5100002       5.81278279E-17
  -13.5000000      -3.28455587E-17
  -13.4899998      -1.06144041E-16
  -13.4799995      -1.45551111E-16
  -13.4700003      -1.45675161E-16
  -13.4600000      -1.13905775E-16
  -13.4499998      -6.84631916E-17
  -13.4399996      -3.27035947E-17
  -13.4300003      -2.70165394E-17
  -13.4200001      -6.05896829E-17
  -13.4099998      -1.25706201E-16
  -13.3999996      -1.96880632E-16
  -13.3900003      -2.36018557E-16
  -13.3800001      -2.03114583E-16
  -13.3699999      -7.01918270E-17
  -13.3599997       1.65254805E-16
  -13.3500004       4.71631968E-16
  -13.3400002       7.83159251E-16
  -13.3299999       1.01022803E-15
  -13.3199997       1.05942625E-15
  -13.3100004       8.59477291E-16
  -13.3000002       3.86923009E-16
  -13.2900000      -3.15731955E-16
  -13.2799997      -1.13594763E-15
  -13.2700005      -1.90499616E-15
  -13.2600002      -2.42935656E-15
  -13.2500000      -2.53449389E-15
  -13.2399998      -2.11167961E-15
  -13.2299995      -1.15621840E-15
  -13.2200003       2.14094685E-16
  -13.2100000       1.76795777E-15
  -13.1999998       3.19863315E-15
  -13.1899996       4.18548668E-15
  -13.1800003       4.46660378E-15
  -13.1700001       3.90575532E-15
  -13.1599998       2.53645477E-15
  -13.1499996       5.69801499E-16
  -13.1400003      -1.63940326E-15
  -13.1300001      -3.66363010E-15
  -13.1199999      -5.09616229E-15
  -13.1099997      -5.64550678E-15
  -13.1000004      -5.20695293E-15
  -13.0900002      -3.89152855E-15
  -13.0799999      -2.00216693E-15
  -13.0699997       3.98879826E-17
  -13.0600004       1.80194952E-15
  -13.0500002       2.95320705E-15
  -13.0400000       3.35403448E-15
  -13.0299997       3.09488665E-15
  -13.0200005       2.47030616E-15
  -13.0100002       1.89051549E-15
  -13.0000000       1.75094532E-15
  -12.9899998       2.29384103E-15
  -12.9799995       3.50172166E-15
  -12.9700003       5.05750456E-15
  -12.9600000       6.39074288E-15
  -12.9499998       6.80721628E-15
  -12.9399996       5.67532700E-15
  -12.9300003       2.62399076E-15
  -12.9200001      -2.30125680E-15
  -12.9099998      -8.57119839E-15
  -12.8999996      -1.52225136E-14
  -12.8900003      -2.10224768E-14
  -12.8800001      -2.47160809E-14
  -12.8699999      -2.52980044E-14
  -12.8599997      -2.22413030E-14
  -12.8500004      -1.56220489E-14
  -12.8400002      -6.10463040E-15
  -12.8299999       5.21068708E-15
  -12.8199997       1.70365346E-14
  -12.8100004       2.81722735E-14
  -12.8000002       3.77205455E-14
  -12.7900000       4.51766784E-14
  -12.7799997       5.03578976E-14
  -12.7700005       5.31891358E-14
  -12.7600002       5.34142839E-14
  -12.7500000       5.03384091E-14
  -12.7399998       4.27156920E-14
  -12.7299995       2.88727206E-14
  -12.7200003       7.09942359E-15
  -12.7100000      -2.37369870E-14
  -12.6999998      -6.34778688E-14
  -12.6899996      -1.10038159E-13
  -12.6800003      -1.59046956E-13
  -12.6700001      -2.03927207E-13
  -12.6599998      -2.36497725E-13
  -12.6499996      -2.48068195E-13
  -12.6400003      -2.30878711E-13
  -12.6300001      -1.79638056E-13
  -12.6199999      -9.28662393E-14
  -12.6099997       2.62376265E-14
  -12.6000004       1.69600513E-13
  -12.5900002       3.24824071E-13
  -12.5799999       4.76399736E-13
  -12.5699997       6.07376942E-13
  -12.5600004       7.01192685E-13
  -12.5500002       7.43346628E-13
  -12.5400000       7.22674741E-13
  -12.5299997       6.32085150E-13
  -12.5200005       4.68773891E-13
  -12.5100002       2.34077731E-13
  -12.5000000      -6.67831879E-14
  -12.4899998      -4.24798895E-13
  -12.4799995      -8.26881315E-13
  -12.4700003      -1.25510973E-12
  -12.4600000      -1.68559990E-12
  -12.4499998      -2.08726417E-12
  -12.4399996      -2.42086451E-12
  -12.4300003      -2.63881863E-12
  -12.4200001      -2.68618678E-12
  -12.4099998      -2.50311816E-12
  -12.3999996      -2.02882633E-12
  -12.3900003      -1.20687553E-12
  -12.3800001       8.66741117E-15
  -12.3699999       1.64694094E-12
  -12.3599997       3.71462973E-12
  -12.3500004       6.19178363E-12
  -12.3400002       9.02978907E-12
  -12.3299999       1.21518759E-11
  -12.3199997       1.54563289E-11
  -12.3100004       1.88220255E-11
  -12.3000002       2.21157398E-11
  -12.2900000       2.52001874E-11
  -12.2799997       2.79419318E-11
  -12.2700005       3.02181023E-11
  -12.2600002       3.19212157E-11
  -12.2500000       3.29616993E-11
  -12.2399998       3.32683325E-11
  -12.2299995       3.27869919E-11
  -12.2200003       3.14784553E-11
  -12.2100000       2.93164243E-11
  -12.1999998       2.62863412E-11
  -12.1899996       2.23856836E-11
  -12.1800003       1.76256960E-11
  -12.1700001       1.20342044E-11
  -12.1599998       5.65861073E-12
  -12.1499996      -1.43194354E-12
  -12.1400003      -9.14624973E-12
  -12.1300001      -1.73731828E-11
  -12.1199999      -2.59864005E-11
  -12.1099997      -3.48511428E-11
  -12.1000004      -4.38319624E-11
  -12.0900002      -5.28000560E-11
  -12.0799999      -6.16388607E-11
  -12.0699997      -7.02466280E-11
  -12.0600004      -7.85357612E-11
  -12.0500002      -8.64292110E-11
  -12.0400000      -9.38548544E-11
  -12.0299997      -1.00739327E-10
  -12.0200005      -1.07003115E-10
  -12.0100002      -1.12557866E-10
  -12.0000000      -1.17306942E-10
  -11.9899998      -1.21148452E-10
  -11.9799995      -1.23980617E-10
  -11.9700003      -1.25707236E-10
  -11.9600000      -1.26242253E-10
  -11.9499998      -1.25512115E-10
  -11.9399996      -1.23454663E-10
  -11.9300003      -1.20016289E-10
  -11.9200001      -1.15147190E-10
  -11.9099998      -1.08797166E-10
  -11.8999996      -1.00913736E-10
  -11.8900003      -9.14435194E-11
  -11.8800001      -8.03379932E-11
  -11.8699999      -6.75627471E-11
  -11.8599997      -5.31085453E-11
  -11.8500004      -3.70025399E-11
  -11.8400002      -1.93165310E-11
  -11.8299999      -1.71084880E-13
  -11.8199997       2.02663875E-11
  -11.8100004       4.17889230E-11
  -11.8000002       6.41618980E-11
  -11.7900000       8.71369851E-11
  -11.7799997       1.10466393E-10
  -11.7700005       1.33914282E-10
  -11.7600002       1.57264479E-10
  -11.7500000       1.80323312E-10
  -11.7399998       2.02918599E-10
  -11.7299995       2.24894853E-10
  -11.7200003       2.46107745E-10
  -11.7100000       2.66417804E-10
  -11.6999998       2.85685503E-10
  -11.6899996       3.03767511E-10
  -11.6800003       3.20514920E-10
  -11.6700001       3.35771244E-10
  -11.6599998       3.49371587E-10
  -11.6499996       3.61141728E-10
  -11.6400003       3.70896397E-10
  -11.6300001       3.78440196E-10
  -11.6199999       3.83568816E-10
  -11.6099997       3.86073756E-10
  -11.6000004       3.85750182E-10
  -11.5900002       3.82408133E-10
  -11.5799999       3.75884268E-10
  -11.5699997       3.66054353E-10
  -11.5600004       3.52842811E-10
  -11.5500002       3.36227129E-10
  -11.5400000       3.16236565E-10
  -11.5299997       2.92944335E-10
  -11.5200005       2.66454331E-10
  -11.5100002       2.36885650E-10
  -11.5000000       2.04356712E-10
  -11.4899998       1.68972406E-10
  -11.4799995       1.30818356E-10
  -11.4700003       8.99611496E-11
  -11.4600000       4.64560682E-11
  -11.4499998       3.60310712E-13
  -11.4399996      -4.82511947E-11
  -11.4300003      -9.92714314E-11
  -11.4200001      -1.52550889E-10
  -11.4099998      -2.07894021E-10
  -11.3999996      -2.65062750E-10
  -11.3900003      -3.23788107E-10
  -11.3800001      -3.83786114E-10
  -11.3699999      -4.44776910E-10
  -11.3599997      -5.06500841E-10
  -11.3500004      -5.68733172E-10
  -11.3400002      -6.31289798E-10
  -11.3299999      -6.94027558E-10
  -11.3199997      -7.56838259E-10
  -11.3100004      -8.19637413E-10
  -11.3000002      -8.82351914E-10
  -11.2900000      -9.44907708E-10
  -11.2799997      -1.00722275E-09
  -11.2700005      -1.06919984E-09
  -11.2600002      -1.13073051E-09
  -11.2500000      -1.19169663E-09
  -11.2399998      -1.25197619E-09
  -11.2299995      -1.31145106E-09
  -11.2200003      -1.37000777E-09
  -11.2100000      -1.42754020E-09
  -11.1999998      -1.48394486E-09
  -11.1899996      -1.53911794E-09
  -11.1800003      -1.59294977E-09
  -11.1700001      -1.64532077E-09
  -11.1599998      -1.69610337E-09
  -11.1499996      -1.74516734E-09
  -11.1400003      -1.79238568E-09
  -11.1300001      -1.83765059E-09
  -11.1199999      -1.88088323E-09
  -11.1099997      -1.92204230E-09
  -11.1000004      -1.96113081E-09
  -11.0900002      -1.99819428E-09
  -11.0799999      -2.03330863E-09
  -11.0699997      -2.06656603E-09
  -11.0600004      -2.09805928E-09
  -11.0500002      -2.12785589E-09
  -11.0400000      -2.15598583E-09
  -11.0299997      -2.18242668E-09
  -11.0200005      -2.20709939E-09
  -11.0100002      -2.22987340E-09
  -11.0000000      -2.25057351E-09
  -10.9899998      -2.26900232E-09
  -10.9799995      -2.28495645E-09
  -10.9700003      -2.29825425E-09
  -10.9600000      -2.30874786E-09
  -10.9499998      -2.31634356E-09
  -10.9399996      -2.32101005E-09
  -10.9300003      -2.32277575E-09
  -10.9200001      -2.32172304E-09
  -10.9099998      -2.31797426E-09
  -10.8999996      -2.31166863E-09
  -10.8900003      -2.30294228E-09
  -10.8800001      -2.29190600E-09
  -10.8699999      -2.27863506E-09
  -10.8599997      -2.26315500E-09
  -10.8500004      -2.24544561E-09
  -10.8400002      -2.22544094E-09
  -10.8299999      -2.20304996E-09
  -10.8199997      -2.17816609E-09
  -10.8100004      -2.15067830E-09
  -10.8000002      -2.12048912E-09
  -10.7900000      -2.08751438E-09
  -10.7799997      -2.05168682E-09
  -10.7700005      -2.01296002E-09
  -10.7600002      -1.97130712E-09
  -10.7500000      -1.92671901E-09
  -10.7399998      -1.87922344E-09
  -10.7299995      -1.82888038E-09
  -10.7200003      -1.77579618E-09
  -10.7100000      -1.72011783E-09
  -10.6999998      -1.66203185E-09
  -10.6899996      -1.60174518E-09
  -10.6800003      -1.53946833E-09
  -10.6700001      -1.47538182E-09
  -10.6599998      -1.40962830E-09
  -10.6499996      -1.34229816E-09
  -10.6400003      -1.27343647E-09
  -10.6300001      -1.20306665E-09
  -10.6199999      -1.13122056E-09
  -10.6099997      -1.05797449E-09
  -10.6000004      -9.83479076E-10
  -10.5900002      -9.07967090E-10
  -10.5799999      -8.31745284E-10
  -10.5699997      -7.55165153E-10
  -10.5600004      -6.78571421E-10
  -10.5500002      -6.02259187E-10
  -10.5400000      -5.26420574E-10
  -10.5299997      -4.51134796E-10
  -10.5200005      -3.76363052E-10
  -10.5100002      -3.01982411E-10
  -10.5000000      -2.27840205E-10
  -10.4899998      -1.53806953E-10
  -10.4799995      -7.98332511E-11
  -10.4700003      -5.99063637E-12
  -10.4600000       6.75146952E-11
  -10.4499998       1.40363485E-10
  -10.4399996       2.12135268E-10
  -10.4300003       2.82373541E-10
  -10.4200001       3.50617951E-10
  -10.4099998       4.16444518E-10
  -10.3999996       4.79503270E-10
  -10.3900003       5.39521205E-10
  -10.3800001       5.96309835E-10
  -10.3699999       6.49757859E-10
  -10.3599997       6.99816760E-10
  -10.3500004       7.46495865E-10
  -10.3400002       7.89843357E-10
  -10.3299999       8.29932845E-10
  -10.3199997       8.66846206E-10
  -10.3100004       9.00667041E-10
  -10.3000002       9.31457356E-10
  -10.2900000       9.59257118E-10
  -10.2799997       9.84080928E-10
  -10.2700005       1.00592379E-09
  -10.2600002       1.02478093E-09
  -10.2500000       1.04066322E-09
  -10.2399998       1.05361586E-09
  -10.2299995       1.06372833E-09
  -10.2200003       1.07113718E-09
  -10.2100000       1.07601494E-09
  -10.1999998       1.07855136E-09
  -10.1899996       1.07893927E-09
  -10.1800003       1.07736220E-09
  -10.1700001       1.07399378E-09
  -10.1599998       1.06900999E-09
  -10.1499996       1.06260767E-09
  -10.1400003       1.05502784E-09
  -10.1300001       1.04656606E-09
  -10.1199999       1.03757269E-09
  -10.1099997       1.02843067E-09
  -10.1000004       1.01951925E-09
  -10.0900002       1.01116948E-09
  -10.0799999       1.00363229E-09
  -10.0699997       9.97050775E-10
  -10.0600004       9.91464799E-10
  -10.0500002       9.86837057E-10
  -10.0400000       9.83095938E-10
  -10.0299997       9.80184822E-10
  -10.0200005       9.78102488E-10
  -10.0100002       9.76925429E-10
  -10.0000000       9.76803527E-10
  -9.98999977       9.77931625E-10
  -9.97999954       9.80508230E-10
  -9.97000027       9.84691884E-10
  -9.96000004       9.90570515E-10
  -9.94999981       9.98151006E-10
  -9.93999958       1.00737485E-09
  -9.93000031       1.01815389E-09
  -9.92000008       1.03041509E-09
  -9.90999985       1.04414033E-09
  -9.89999962       1.05939102E-09
  -9.89000034       1.07630993E-09
  -9.88000011       1.09509768E-09
  -9.86999989       1.11597487E-09
  -9.85999966       1.13913878E-09
  -9.85000038       1.16472532E-09
  -9.84000015       1.19278987E-09
  -9.82999992       1.22330956E-09
  -9.81999969       1.25620281E-09
  -9.81000042       1.29136335E-09
  -9.80000019       1.32869749E-09
  -9.78999996       1.36815304E-09
  -9.77999973       1.40973710E-09
  -9.77000046       1.45351742E-09
  -9.76000023       1.49961266E-09
  -9.75000000       1.54817814E-09
  -9.73999977       1.59939106E-09
  -9.72999954       1.65344116E-09
  -9.72000027       1.71053183E-09
  -9.71000004       1.77088255E-09
  -9.69999981       1.83473081E-09
  -9.68999958       1.90233207E-09
  -9.68000031       1.97394123E-09
  -9.67000008       2.04979234E-09
  -9.65999985       2.13006146E-09
  -9.64999962       2.21483099E-09
  -9.64000034       2.30405495E-09
  -9.63000011       2.39753861E-09
  -9.61999989       2.49492760E-09
  -9.60999966       2.59570987E-09
  -9.60000038       2.69922107E-09
  -9.59000015       2.80465584E-09
  -9.57999992       2.91107383E-09
  -9.56999969       3.01739167E-09
  -9.56000042       3.12238946E-09
  -9.55000019       3.22470606E-09
  -9.53999996       3.32286088E-09
  -9.52999973       3.41528250E-09
  -9.52000046       3.50037643E-09
  -9.51000023       3.57658858E-09
  -9.50000000       3.64249320E-09
  -9.48999977       3.69685749E-09
  -9.47999954       3.73868891E-09
  -9.47000027       3.76724074E-09
  -9.46000004       3.78200138E-09
  -9.44999981       3.78263776E-09
  -9.43999958       3.76894738E-09
  -9.43000031       3.74080544E-09
  -9.42000008       3.69815734E-09
  -9.40999985       3.64103037E-09
  -9.39999962       3.56957508E-09
  -9.39000034       3.48414120E-09
  -9.38000011       3.38534001E-09
  -9.36999989       3.27409300E-09
  -9.35999966       3.15164739E-09
  -9.35000038       3.01955949E-09
  -9.34000015       2.87964785E-09
  -9.32999992       2.73393508E-09
  -9.31999969       2.58458854E-09
  -9.31000042       2.43388198E-09
  -9.30000019       2.28417463E-09
  -9.28999996       2.13792273E-09
  -9.27999973       1.99766625E-09
  -9.27000046       1.86603089E-09
  -9.26000023       1.74570514E-09
  -9.25000000       1.63937819E-09
  -9.23999977       1.54966395E-09
  -9.22999954       1.47902790E-09
  -9.22000027       1.42969958E-09
  -9.21000004       1.40364131E-09
  -9.19999981       1.40252199E-09
  -9.18999958       1.42772316E-09
  -9.18000031       1.48036983E-09
  -9.17000008       1.56133573E-09
  -9.15999985       1.67126757E-09
  -9.14999962       1.81054083E-09
  -9.14000034       1.97924011E-09
  -9.13000011       2.17711560E-09
  -9.11999989       2.40357290E-09
  -9.10999966       2.65764455E-09
  -9.10000038       2.93804669E-09
  -9.09000015       3.24322791E-09
  -9.07999992       3.57144581E-09
  -9.06999969       3.92082145E-09
  -9.06000042       4.28937019E-09
  -9.05000019       4.67500838E-09
  -9.03999996       5.07549869E-09
  -9.02999973       5.48841772E-09
  -9.02000046       5.91112093E-09
  -9.01000023       6.34071906E-09
  -9.00000000       6.77412837E-09
  -8.98999977       7.20811766E-09
  -8.97999954       7.63940555E-09
  -8.97000027       8.06474443E-09
  -8.96000004       8.48098036E-09
  -8.94999981       8.88507934E-09
  -8.93999958       9.27410415E-09
  -8.93000031       9.64517621E-09
  -8.92000008       9.99541783E-09
  -8.90999985       1.03219442E-08
  -8.89999962       1.06218492E-08
  -8.89000034       1.08922666E-08
  -8.88000011       1.11304335E-08
  -8.86999989       1.13337641E-08
  -8.85999966       1.14999308E-08
  -8.85000038       1.16268692E-08
  -8.84000015       1.17128280E-08
  -8.82999992       1.17562529E-08
  -8.81999969       1.17558212E-08
  -8.81000042       1.17103607E-08
  -8.80000019       1.16189023E-08
  -8.78999996       1.14806333E-08
  -8.77999973       1.12950103E-08
  -8.77000046       1.10617604E-08
  -8.76000023       1.07809699E-08
  -8.75000000       1.04530429E-08
  -8.73999977       1.00786979E-08
  -8.72999954       9.65890035E-09
  -8.72000027       9.19481202E-09
  -8.71000004       8.68774475E-09
  -8.69999981       8.13909740E-09
  -8.68999958       7.55040208E-09
  -8.68000031       6.92336322E-09
  -8.67000008       6.25987262E-09
  -8.65999985       5.56205038E-09
  -8.64999962       4.83227325E-09
  -8.64000034       4.07311651E-09
  -8.63000011       3.28730709E-09
  -8.61999989       2.47763876E-09
  -8.60999966       1.64688729E-09
  -8.60000038       7.97770350E-10
  -8.59000015      -6.70950656E-11
  -8.57999992      -9.45204803E-10
  -8.56999969      -1.83412385E-09
  -8.56000042      -2.73150613E-09
  -8.55000019      -3.63509933E-09
  -8.53999996      -4.54276083E-09
  -8.52999973      -5.45248513E-09
  -8.52000046      -6.36251585E-09
  -8.51000023      -7.27132843E-09
  -8.50000000      -8.17769408E-09
  -8.48999977      -9.08066422E-09
  -8.47999954      -9.97951588E-09
  -8.47000027      -1.08737161E-08
  -8.46000004      -1.17628609E-08
  -8.44999981      -1.26465762E-08
  -8.43999958      -1.35245610E-08
  -8.43000031      -1.43964849E-08
  -8.42000008      -1.52620849E-08
  -8.40999985      -1.61211187E-08
  -8.39999962      -1.69733934E-08
  -8.39000034      -1.78187545E-08
  -8.38000011      -1.86570599E-08
  -8.36999989      -1.94881462E-08
  -8.35999966      -2.03117718E-08
  -8.35000038      -2.11275726E-08
  -8.34000015      -2.19350529E-08
  -8.32999992      -2.27335377E-08
  -8.31999969      -2.35222348E-08
  -8.31000042      -2.43002116E-08
  -8.30000019      -2.50664414E-08
  -8.28999996      -2.58198174E-08
  -8.27999973      -2.65591833E-08
  -8.27000046      -2.72833258E-08
  -8.26000023      -2.79909855E-08
  -8.25000000      -2.86808337E-08
  -8.23999977      -2.93514617E-08
  -8.22999954      -3.00014023E-08
  -8.22000027      -3.06291028E-08
  -8.21000004      -3.12329718E-08
  -8.19999981      -3.18114104E-08
  -8.18999958      -3.23628093E-08
  -8.18000031      -3.28856231E-08
  -8.17000008      -3.33783738E-08
  -8.15999985      -3.38396866E-08
  -8.14999962      -3.42682824E-08
  -8.14000034      -3.46629960E-08
  -8.13000011      -3.50227793E-08
  -8.11999989      -3.53466589E-08
  -8.10999966      -3.56337395E-08
  -8.10000038      -3.58831791E-08
  -8.09000015      -3.60941854E-08
  -8.07999992      -3.62660302E-08
  -8.06999969      -3.63980170E-08
  -8.06000042      -3.64895349E-08
  -8.05000019      -3.65400368E-08
  -8.03999996      -3.65490749E-08
  -8.02999973      -3.65163011E-08
  -8.02000046      -3.64415236E-08
  -8.01000023      -3.63246393E-08
  -8.00000000      -3.61656944E-08
  -7.98999977      -3.59648773E-08
  -7.98000002      -3.57224934E-08
  -7.96999979      -3.54389833E-08
  -7.96000004      -3.51149190E-08
  -7.94999981      -3.47510110E-08
  -7.94000006      -3.43480622E-08
  -7.92999983      -3.39070283E-08
  -7.92000008      -3.34289751E-08
  -7.90999985      -3.29151284E-08
  -7.90000010      -3.23668452E-08
  -7.88999987      -3.17856568E-08
  -7.88000011      -3.11733004E-08
  -7.86999989      -3.05316767E-08
  -7.86000013      -2.98629033E-08
  -7.84999990      -2.91692572E-08
  -7.84000015      -2.84531989E-08
  -7.82999992      -2.77172880E-08
  -7.82000017      -2.69642175E-08
  -7.80999994      -2.61967408E-08
  -7.80000019      -2.54176697E-08
  -7.78999996      -2.46298431E-08
  -7.78000021      -2.38361508E-08
  -7.76999998      -2.30394779E-08
  -7.76000023      -2.22427250E-08
  -7.75000000      -2.14487716E-08
  -7.73999977      -2.06604671E-08
  -7.73000002      -1.98805949E-08
  -7.71999979      -1.91118570E-08
  -7.71000004      -1.83568538E-08
  -7.69999981      -1.76180439E-08
  -7.69000006      -1.68977490E-08
  -7.67999983      -1.61981379E-08
  -7.67000008      -1.55211950E-08
  -7.65999985      -1.48687036E-08
  -7.65000010      -1.42422225E-08
  -7.63999987      -1.36430671E-08
  -7.63000011      -1.30722970E-08
  -7.61999989      -1.25307063E-08
  -7.61000013      -1.20188535E-08
  -7.59999990      -1.15370655E-08
  -7.59000015      -1.10854774E-08
  -7.57999992      -1.06640563E-08
  -7.57000017      -1.02726201E-08
  -7.55999994      -9.91085525E-09
  -7.55000019      -9.57830615E-09
  -7.53999996      -9.27439636E-09
  -7.53000021      -8.99842245E-09
  -7.51999998      -8.74956552E-09
  -7.51000023      -8.52692938E-09
  -7.50000000      -8.32954861E-09
  -7.48999977      -8.15643464E-09
  -7.48000002      -8.00656785E-09
  -7.46999979      -7.87890286E-09
  -7.46000004      -7.77234632E-09
  -7.44999981      -7.68572583E-09
  -7.44000006      -7.61777308E-09