  -16.0000000       0.00000000    
  -15.9899998       0.00000000    
  -15.9799995       0.00000000    
  -15.9700003       0.00000000    
  -15.9600000       0.00000000    
  -15.9499998       0.00000000    
  -15.9399996       0.00000000    
  -15.9300003       0.00000000    
  -15.9200001       0.00000000    
  -15.9099998       0.00000000    
  -15.8999996       0.00000000    
  -15.8900003      -0.00000000    
  -15.8800001      -0.00000000    
  -15.8699999      -0.00000000    
  -15.8599997      -1.40129846E-45
  -15.8500004      -7.00649232E-45
  -15.8400002      -5.32493416E-44
  -15.8299999      -3.53127213E-43
  -15.8199997      -1.84270748E-42
  -15.8100004      -7.54318963E-42
  -15.8000002      -2.34325129E-41
  -15.7900000      -4.68089739E-41
  -15.7799997       6.67718718E-42
  -15.7700005       5.75391366E-40
  -15.7600002       3.20882915E-39
  -15.7500000       1.22041676E-38
  -15.7399998       3.72755117E-38
  -15.7299995       9.62662786E-38
  -15.7200003       2.14424830E-37
  -15.7100000       4.13504254E-37
  -15.6999998       6.82703464E-37
  -15.6899996       9.29443380E-37
  -15.6800003       9.25981523E-37
  -15.6700001       2.95916479E-37
  -15.6599998      -1.39261284E-36
  -15.6499996      -4.36932018E-36
  -15.6400003      -8.24261030E-36
  -15.6300001      -1.15196014E-35
  -15.6199999      -1.12511246E-35
  -15.6099997      -3.03863927E-36
  -15.6000004       1.82184434E-35
  -15.5900002       5.59410128E-35
  -15.5799999       1.05996312E-34
  -15.5699997       1.45114135E-34
  -15.5600004       1.14722819E-34
  -15.5500002      -8.71555421E-35
  -15.5400000      -5.72511713E-34
  -15.5299997      -1.33661128E-33
  -15.5200005      -2.00369220E-33
  -15.5100002      -1.51579969E-33
  -15.5000000       1.94089123E-33
  -15.4899998       1.02014667E-32
  -15.4799995       2.29318494E-32
  -15.4700003       3.39051862E-32
  -15.4600000       2.73193880E-32
  -15.4499998      -2.16328518E-32
  -15.4399996      -1.35451873E-31
  -15.4300003      -3.06869101E-31
  -15.4200001      -4.58203560E-31
  -15.4099998      -4.08311160E-31
  -15.3999996       1.09132155E-31
  -15.3900003       1.31932003E-30
  -15.3800001       3.13823909E-30
  -15.3699999       4.81407555E-30
  -15.3599997       4.67909758E-30
  -15.3500004       3.75435686E-31
  -15.3400002      -1.00336203E-29
  -15.3299999      -2.59009772E-29
  -15.3199997      -4.12965301E-29
  -15.3100004      -4.33407844E-29
  -15.3000002      -1.41317698E-29
  -15.2900000       6.11164016E-29
  -15.2799997       1.79052202E-28
  -15.2700005       3.00205967E-28
  -15.2600002       3.38480406E-28
  -15.2500000       1.74013103E-28
  -15.2399998      -2.95428746E-28
  -15.2299995      -1.06202479E-27
  -15.2200003      -1.89914893E-27
  -15.2100000      -2.29730027E-27
  -15.1999998      -1.53408072E-27
  -15.1899996       1.03957760E-27
  -15.1800003       5.48564051E-27
  -15.1700001       1.06710894E-26
  -15.1599998       1.38866713E-26
  -15.1499996       1.11550009E-26
  -15.1400003      -1.34683208E-27
  -15.1300001      -2.46748927E-26
  -15.1199999      -5.39444534E-26
  -15.1099997      -7.61271728E-26
  -15.1000004      -7.10513151E-26
  -15.0900002      -1.77170594E-26
  -15.0799999       9.34945927E-26
  -15.0699997       2.45284860E-25
  -15.0600004       3.81259261E-25
  -15.0500002       4.07161386E-25
  -15.0400000       2.15580031E-25
  -15.0299997      -2.61757706E-25
  -15.0200005      -9.82939226E-25
  -15.0100002      -1.73255825E-24
  -15.0000000      -2.10832602E-24
  -14.9899998      -1.60308990E-24
  -14.9799995       1.92223845E-25
  -14.9700003       3.28795726E-24
  -14.9600000       6.99138864E-24
  -14.9499998       9.76217658E-24
  -14.9399996       9.42011150E-24
  -14.9300003       3.84319780E-24
  -14.9200001      -7.87142451E-24
  -14.9099998      -2.40742425E-23
  -14.8999996      -3.96345586E-23
  -14.8900003      -4.61686461E-23
  -14.8800001      -3.40799239E-23
  -14.8699999       3.42827748E-24
  -14.8599997       6.50980136E-23
  -14.8500004       1.36936913E-22
  -14.8400002       1.90788055E-22
  -14.8299999       1.88891658E-22
  -14.8199997       9.59498082E-23
  -14.8100004      -1.02500768E-22
  -14.8000002      -3.80338090E-22
  -14.7900000      -6.58232406E-22
  -14.7799997      -8.08285614E-22
  -14.7700005      -6.83875459E-22
  -14.7600002      -1.75525186E-22
  -14.7500000       7.17864333E-22
  -14.7399998       1.82602907E-21
  -14.7299995       2.78550224E-21
  -14.7200003       3.09131713E-21
  -14.7100000       2.23939380E-21
  -14.6999998      -5.41001503E-23
  -14.6899996      -3.61099194E-21
  -14.6800003      -7.61955402E-21
  -14.6700001      -1.06430058E-20
  -14.6599998      -1.08965883E-20
  -14.6499996      -6.81212638E-21
  -14.6400003       2.20251399E-21
  -14.6300001       1.50281899E-20
  -14.6199999       2.84381302E-20
  -14.6099997       3.73653412E-20
  -14.6000004       3.60406050E-20
  -14.5900002       1.99513427E-20
  -14.5799999      -1.17809688E-20
  -14.5699997      -5.43557441E-20
  -14.5600004      -9.65353314E-20
  -14.5500002      -1.22043494E-19
  -14.5400000      -1.13527321E-19
  -14.5299997      -5.86726188E-20
  -14.5200005       4.29385417E-20
  -14.5100002       1.74511160E-19
  -14.5000000       3.00904861E-19
  -14.4899998       3.73831431E-19
  -14.4799995       3.44032172E-19
  -14.4700003       1.78760400E-19
  -14.4600000      -1.19708725E-19
  -14.4499998      -5.00841576E-19
  -14.4399996      -8.64670092E-19
  -14.4300003      -1.07767830E-18
  -14.4200001      -1.00652247E-18
  -14.4099998      -5.64334874E-19
  -14.3999996       2.41946736E-19
  -14.3900003       1.27922406E-18
  -14.3800001       2.28727206E-18
  -14.3699999       2.92044408E-18
  -14.3599997       2.83264651E-18
  -14.3500004       1.79176109E-18
  -14.3400002      -2.04730265E-19
  -14.3299999      -2.85069559E-18
  -14.3199997      -5.52665630E-18
  -14.3100004      -7.39476058E-18
  -14.3000002      -7.59418639E-18
  -14.2900000      -5.50567280E-18
  -14.2799997      -1.02228284E-18
  -14.2700005       5.25696151E-18
  -14.2600002       1.19939882E-17
  -14.2500000       1.72963234E-17
  -14.2399998       1.91254233E-17
  -14.2299995       1.58676336E-17
  -14.2200003       6.94044239E-18
  -14.2100000      -6.73825256E-18
  -14.1999998      -2.25947461E-17
  -14.1899996      -3.66879152E-17
  -14.1800003      -4.44738983E-17
  -14.1700001      -4.19483770E-17
  -14.1599998      -2.69337766E-17
  -14.1499996      -1.79523383E-19
  -14.1400003       3.40838316E-17
  -14.1300001       6.84272456E-17
  -14.1199999       9.34666116E-17
  -14.1099997       9.99517076E-17
  -14.1000004       8.13247913E-17
  -14.0900002       3.61582549E-17
  -14.0799999      -3.02201437E-17
  -14.0699997      -1.05539167E-16
  -14.0600004      -1.72207992E-16
  -14.0500002      -2.10723626E-16
  -14.0400000      -2.04352694E-16
  -14.0299997      -1.44130160E-16
  -14.0200005      -3.29321017E-17
  -14.0100002       1.12639738E-16
  -14.0000000       2.63515364E-16
  -13.9899998       3.82890047E-16
  -13.9799995       4.33935826E-16
  -13.9700003       3.89122277E-16
  -13.9600000       2.39089158E-16
  -13.9499998      -1.28388212E-18
  -13.9399996      -2.91707056E-16
  -13.9300003      -5.71471001E-16
  -13.9200001      -7.70522896E-16
  -13.9099998      -8.24993891E-16
  -13.8999996      -6.94107078E-16
  -13.8900003      -3.74467231E-16
  -13.8800001       9.23279412E-17
  -13.8699999       6.21850668E-16
  -13.8599997       1.09995519E-15
  -13.8500004       1.40544312E-15
  -13.8400002       1.43823727E-15
  -13.8299999       1.14695196E-15
  -13.8199997       5.48904878E-16
  -13.8100004      -2.63585165E-16
  -13.8000002      -1.13426733E-15
  -13.7900000      -1.87123575E-15
  -13.7799997      -2.28787284E-15
  -13.7700005      -2.24809320E-15
  -13.7600002      -1.70527331E-15
  -13.7500000      -7.24379294E-16
  -13.7399998       5.20316564E-16
  -13.7299995       1.77437976E-15
  -13.7200003       2.75519192E-15
  -13.7100000       3.21649877E-15
  -13.6999998       3.01088322E-15
  -13.6899996       2.13439936E-15
  -13.6800003       7.40360477E-16
  -13.6700001      -8.84297738E-16
  -13.6599998      -2.37786564E-15
  -13.6499996      -3.38653026E-15
  -13.6400003      -3.65227435E-15
  -13.6300001      -3.08423691E-15
  -13.6199999      -1.79386692E-15
  -13.6099997      -8.15453243E-17
  -13.6000004       1.62642195E-15
  -13.5900002       2.87892226E-15
  -13.5799999       3.31682474E-15
  -13.5699997       2.77679465E-15
  -13.5600004       1.35391853E-15
  -13.5500002      -5.97347328E-16
  -13.5400000      -2.53078622E-15
  -13.5299997      -3.83464817E-15
  -13.5200005      -3.99062167E-15
  -13.5100002      -2.72850043E-15
  -13.5000000      -1.36449252E-16
  -13.4899998       3.30667475E-15
  -13.4799995       6.79497708E-15
  -13.4700003       9.35161897E-15
  -13.4600000       1.00507481E-14
  -13.4499998       8.25956819E-15
  -13.4399996       3.84453686E-15
  -13.4300003      -2.71229669E-15
  -13.4200001      -1.03259711E-14
  -13.4099998      -1.74637848E-14
  -13.3999996      -2.24250075E-14
  -13.3900003      -2.36965090E-14
  -13.3800001      -2.03133205E-14
  -13.3699999      -1.21444450E-14
  -13.3599997      -3.30462890E-17
  -13.3500004       1.42547192E-14
  -13.3400002       2.82798738E-14
  -13.3299999       3.93449718E-14
  -13.3199997       4.49996824E-14
  -13.3100004       4.35398211E-14
  -13.3000002       3.43970119E-14
  -13.2900000       1.83334742E-14
  -13.2799997      -2.60715704E-15
  -13.2700005      -2.53931211E-14
  -13.2600002      -4.64921409E-14
  -13.2500000      -6.24621882E-14
  -13.2399998      -7.05331382E-14
  -13.2299995      -6.90692417E-14
  -13.2200003      -5.78284775E-14
  -13.2100000      -3.79786941E-14
  -13.1999998      -1.18817250E-14
  -13.1899996       1.72973665E-14
  -13.1800003       4.60678892E-14
  -13.1700001       7.10816971E-14
  -13.1599998       8.95105523E-14
  -13.1499996       9.92846484E-14
  -13.1400003       9.91859250E-14
  -13.1300001       8.88283587E-14
  -13.1199999       6.85812897E-14
  -13.1099997       3.94961299E-14
  -13.1000004       3.27851662E-15
  -13.0900002      -3.76861729E-14
  -13.0799999      -8.02847236E-14
  -13.0699997      -1.20668978E-13
  -13.0600004      -1.54367364E-13
  -13.0500002      -1.76581067E-13
  -13.0400000      -1.82693514E-13
  -13.0299997      -1.68966241E-13
  -13.0200005      -1.33331090E-13
  -13.0100002      -7.61363357E-14
  -13.0000000      -6.76620453E-16
  -12.9899998       8.66559632E-14
  -12.9799995       1.76714071E-13
  -12.9700003       2.58464257E-13
  -12.9600000       3.20315416E-13
  -12.9499998       3.51738983E-13
  -12.9399996       3.44934340E-13
  -12.9300003       2.96258515E-13
  -12.9200001       2.07155392E-13
  -12.9099998       8.43918373E-14
  -12.8999996      -6.04775832E-14
  -12.8900003      -2.12361446E-13
  -12.8800001      -3.54413764E-13
  -12.8699999      -4.70070760E-13
  -12.8599997      -5.45031251E-13
  -12.8500004      -5.68889554E-13
  -12.8400002      -5.36224114E-13
  -12.8299999      -4.47052578E-13
  -12.8199997      -3.06697891E-13
  -12.8100004      -1.25200753E-13
  -12.8000002       8.35369304E-14
  -12.7900000       3.02713854E-13
  -12.7799997       5.13600881E-13
  -12.7700005       6.96523134E-13
  -12.7600002       8.31946653E-13
  -12.7500000       9.01801203E-13
  -12.7399998       8.91146098E-13
  -12.7299995       7.90179283E-13
  -12.7200003       5.96428668E-13
  -12.7100000       3.16788208E-13
  -12.6999998      -3.10723195E-14
  -12.6899996      -4.18445579E-13
  -12.6800003      -8.06906625E-13
  -12.6700001      -1.15143864E-12
  -12.6599998      -1.40526284E-12
  -12.6499996      -1.52591286E-12
  -12.6400003      -1.48175125E-12
  -12.6300001      -1.25791402E-12
  -12.6199999      -8.60610953E-13
  -12.6099997      -3.18871801E-13
  -12.6000004       3.16835425E-13
  -12.5900002       9.79207817E-13
  -12.5799999       1.59150080E-12
  -12.5699997       2.07680292E-12
  -12.5600004       2.36792855E-12
  -12.5500002       2.41653377E-12
  -12.5400000       2.20013873E-12
  -12.5299997       1.72603208E-12
  -12.5200005       1.03148132E-12
  -12.5100002       1.80202465E-13
  -12.5000000      -7.44438799E-13
  -12.4899998      -1.64860779E-12
  -12.4799995      -2.43840581E-12
  -12.4700003      -3.03024272E-12
  -12.4600000      -3.36002276E-12
  -12.4499998      -3.39020869E-12
  -12.4399996      -3.11415173E-12
  -12.4300003      -2.55742454E-12
  -12.4200001      -1.77619714E-12
  -12.4099998      -8.52965268E-13
  -12.3999996       1.09909762E-13
  -12.3900003       9.98309508E-13
  -12.3800001       1.69552165E-12
  -12.3699999       2.09189393E-12
  -12.3599997       2.09438846E-12
  -12.3500004       1.63541966E-12
  -12.3400002       6.80350904E-13
  -12.3299999      -7.67027988E-13
  -12.3199997      -2.66166429E-12
  -12.3100004      -4.91758544E-12
  -12.3000002      -7.41172661E-12
  -12.2900000      -9.99124741E-12
  -12.2799997      -1.24839600E-11
  -12.2700005      -1.47110952E-11
  -12.2600002      -1.65012622E-11
  -12.2500000      -1.77042929E-11
  -12.2399998      -1.82035827E-11
  -12.2299995      -1.79256453E-11
  -12.2200003      -1.68459378E-11
  -12.2100000      -1.49904568E-11
  -12.1999998      -1.24329609E-11
  -12.1899996      -9.28824292E-12
  -12.1800003      -5.70208160E-12
  -12.1700001      -1.83896474E-12
  -12.1599998       2.13147880E-12
  -12.1499996       6.04812207E-12
  -12.1400003       9.77107371E-12
  -12.1300001       1.31924827E-11
  -12.1199999       1.62446098E-11
  -12.1099997       1.89045116E-11
  -12.1000004       2.11947716E-11
  -12.0900002       2.31801106E-11
  -12.0799999       2.49598727E-11
  -12.0699997       2.66567671E-11
  -12.0600004       2.84027090E-11
  -12.0500002       3.03228311E-11
  -12.0400000       3.25192130E-11
  -12.0299997       3.50559720E-11
  -12.0200005       3.79474438E-11
  -12.0100002       4.11509611E-11
  -12.0000000       4.45654590E-11
  -11.9899998       4.80364915E-11
  -11.9799995       5.13674069E-11
  -11.9700003       5.43358240E-11
  -11.9600000       5.67135609E-11
  -11.9499998       5.82876872E-11
  -11.9399996       5.88800675E-11
  -11.9300003       5.83628007E-11
  -11.9200001       5.66674589E-11
  -11.9099998       5.37870894E-11
  -11.8999996       4.97707049E-11
  -11.8900003       4.47116129E-11
  -11.8800001       3.87318268E-11
  -11.8699999       3.19649515E-11
  -11.8599997       2.45409613E-11
  -11.8500004       1.65747069E-11
  -11.8400002       8.15990851E-12
  -11.8299999      -6.31231504E-13
  -11.8199997      -9.74385763E-12
  -11.8100004      -1.91336304E-11
  -11.8000002      -2.87594011E-11
  -11.7900000      -3.85774572E-11
  -11.7799997      -4.85387980E-11
  -11.7700005      -5.85894736E-11
  -11.7600002      -6.86734211E-11
  -11.7500000      -7.87361218E-11
  -11.7399998      -8.87271090E-11
  -11.7299995      -9.85997672E-11
  -11.7200003      -1.08307495E-10
  -11.7100000      -1.17796606E-10
  -11.6999998      -1.26997107E-10
  -11.6899996      -1.35813721E-10
  -11.6800003      -1.44119675E-10
  -11.6700001      -1.51755358E-10
  -11.6599998      -1.58533783E-10
  -11.6499996      -1.64252251E-10
  -11.6400003      -1.68709421E-10
  -11.6300001      -1.71725467E-10
  -11.6199999      -1.73161596E-10
  -11.6099997      -1.72935402E-10
  -11.6000004      -1.71030023E-10
  -11.5900002      -1.67493699E-10
  -11.5799999      -1.62430916E-10
  -11.5699997      -1.55985336E-10
  -11.5600004      -1.48317844E-10
  -11.5500002      -1.39582818E-10
  -11.5400000      -1.29906794E-10
  -11.5299997      -1.19372512E-10
  -11.5200005      -1.08010850E-10
  -11.5100002      -9.58008395E-11
  -11.5000000      -8.26776841E-11
  -11.4899998      -6.85451487E-11
  -11.4799995      -5.32912672E-11
  -11.4700003      -3.68027692E-11
  -11.4600000      -1.89767403E-11
  -11.4499998       2.71364664E-13
  -11.4399996       2.10041221E-11
  -11.4300003       4.32608394E-11
  -11.4200001       6.70574013E-11
  -11.4099998       9.23849955E-11
  -11.3999996       1.19207172E-10
  -11.3900003       1.47454132E-10
  -11.3800001       1.77016402E-10
  -11.3699999       2.07738368E-10
  -11.3599997       2.39414766E-10
  -11.3500004       2.71791589E-10
  -11.3400002       3.04571729E-10
  -11.3299999       3.37427392E-10
  -11.3199997       3.70015657E-10
  -11.3100004       4.01997713E-10
  -11.3000002       4.33058422E-10
  -11.2900000       4.62924865E-10
  -11.2799997       4.91381602E-10
  -11.2700005       5.18281640E-10
  -11.2600002       5.43552814E-10
  -11.2500000       5.67199121E-10
  -11.2399998       5.89296056E-10
  -11.2299995       6.09981510E-10
  -11.2200003       6.29442221E-10
  -11.2100000       6.47896237E-10
  -11.1999998       6.65572819E-10
  -11.1899996       6.82693679E-10
  -11.1800003       6.99454494E-10
  -11.1700001       7.16011361E-10
  -11.1599998       7.32471528E-10
  -11.1499996       7.48891615E-10
  -11.1400003       7.65279062E-10
  -11.1300001       7.81599230E-10
  -11.1199999       7.97781619E-10
  -11.1099997       8.13728251E-10
  -11.1000004       8.29319002E-10
  -11.0900002       8.44414372E-10
  -11.0799999       8.58859706E-10
  -11.0699997       8.72488914E-10
  -11.0600004       8.85130969E-10
  -11.0500002       8.96621721E-10
  -11.0400000       9.06818065E-10
  -11.0299997       9.15616860E-10
  -11.0200005       9.22973642E-10
  -11.0100002       9.28916111E-10
  -11.0000000       9.33554123E-10
  -10.9899998       9.37077860E-10
  -10.9799995       9.39747946E-10
  -10.9700003       9.41876577E-10
  -10.9600000       9.43802037E-10
  -10.9499998       9.45863388E-10
  -10.9399996       9.48373713E-10
  -10.9300003       9.51599688E-10
  -10.9200001       9.55749924E-10
  -10.9099998       9.60971192E-10
  -10.8999996       9.67349978E-10
  -10.8900003       9.74922365E-10
  -10.8800001       9.83682247E-10
  -10.8699999       9.93598093E-10
  -10.8599997       1.00461928E-09
  -10.8500004       1.01668474E-09
  -10.8400002       1.02972397E-09
  -10.8299999       1.04365594E-09
  -10.8199997       1.05838660E-09
  -10.8100004       1.07380405E-09
  -10.8000002       1.08977949E-09
  -10.7900000       1.10616438E-09
  -10.7799997       1.12279785E-09
  -10.7700005       1.13951537E-09
  -10.7600002       1.15615661E-09
  -10.7500000       1.17257726E-09
  -10.7399998       1.18865506E-09
  -10.7299995       1.20429333E-09
  -10.7200003       1.21941912E-09
  -10.7100000       1.23397315E-09
  -10.6999998       1.24789856E-09
  -10.6899996       1.26112532E-09
  -10.6800003       1.27356148E-09
  -10.6700001       1.28508515E-09
  -10.6599998       1.29554723E-09
  -10.6499996       1.30478062E-09
  -10.6400003       1.31261380E-09
  -10.6300001       1.31888966E-09
  -10.6199999       1.32349409E-09
  -10.6099997       1.32637501E-09
  -10.6000004       1.32756217E-09
  -10.5900002       1.32718792E-09
  -10.5799999       1.32548983E-09
  -10.5699997       1.32280908E-09
  -10.5600004       1.31958688E-09
  -10.5500002       1.31633293E-09
  -10.5400000       1.31359845E-09
  -10.5299997       1.31192879E-09
  -10.5200005       1.31181799E-09
  -10.5100002       1.31366318E-09
  -10.5000000       1.31772759E-09
  -10.4899998       1.32411238E-09
  -10.4799995       1.33275546E-09
  -10.4700003       1.34344669E-09
  -10.4600000       1.35586553E-09
  -10.4499998       1.36962164E-09
  -10.4399996       1.38430545E-09
  -10.4300003       1.39952705E-09
  -10.4200001       1.41493917E-09
  -10.4099998       1.43023504E-09
  -10.3999996       1.44513812E-09
  -10.3900003       1.45937085E-09
  -10.3800001       1.47262535E-09
  -10.3699999       1.48454560E-09
  -10.3599997       1.49473089E-09
  -10.3500004       1.50276458E-09
  -10.3400002       1.50826007E-09
  -10.3299999       1.51092250E-09
  -10.3199997       1.51060497E-09
  -10.3100004       1.50735247E-09
  -10.3000002       1.50141721E-09
  -10.2900000       1.49322499E-09
  -10.2799997       1.48332868E-09
  -10.2700005       1.47231438E-09
  -10.2600002       1.46072077E-09
  -10.2500000       1.44894963E-09
  -10.2399998       1.43720968E-09
  -10.2299995       1.42550205E-09
  -10.2200003       1.41363732E-09
  -10.2100000       1.40129097E-09
  -10.1999998       1.38808054E-09
  -10.1899996       1.37365364E-09
  -10.1800003       1.35775879E-09
  -10.1700001       1.34029432E-09
  -10.1599998       1.32132205E-09
  -10.1499996       1.30105482E-09
  -10.1400003       1.27981092E-09
  -10.1300001       1.25795963E-09
  -10.1199999       1.23586130E-09
  -10.1099997       1.21381682E-09
  -10.1000004       1.19204768E-09
  -10.0900002       1.17068544E-09
  -10.0799999       1.14978782E-09
  -10.0699997       1.12936782E-09
  -10.0600004       1.10942544E-09
  -10.0500002       1.08997966E-09
  -10.0400000       1.07108011E-09
  -10.0299997       1.05282039E-09
  -10.0200005       1.03532283E-09
  -10.0100002       1.01871378E-09
  -10.0000000       1.00310527E-09
  -9.98999977       9.88566673E-10
  -9.97999954       9.75105330E-10
  -9.97000027       9.62663727E-10
  -9.96000004       9.51128731E-10
  -9.94999981       9.40347356E-10
  -9.93999958       9.30157729E-10
  -9.93000031       9.20421683E-10
  -9.92000008       9.11057729E-10
  -9.90999985       9.02067476E-10
  -9.89999962       8.93542296E-10
  -9.89000034       8.85663376E-10
  -9.88000011       8.78684403E-10
  -9.86999989       8.72898032E-10
  -9.85999966       8.68594641E-10
  -9.85000038       8.66035577E-10
  -9.84000015       8.65413852E-10
  -9.82999992       8.66852423E-10
  -9.81999969       8.70407191E-10
  -9.81000042       8.76092310E-10
  -9.80000019       8.83922213E-10
  -9.78999996       8.93955854E-10
  -9.77999973       9.06332231E-10
  -9.77000046       9.21292653E-10
  -9.76000023       9.39183731E-10
  -9.75000000       9.60429625E-10
  -9.73999977       9.85482251E-10
  -9.72999954       1.01476005E-09
  -9.72000027       1.04857922E-09
  -9.71000004       1.08709364E-09
  -9.69999981       1.13024612E-09
  -9.68999958       1.17775389E-09
  -9.68000031       1.22910915E-09
  -9.67000008       1.28361066E-09
  -9.65999985       1.34041411E-09
  -9.64999962       1.39859657E-09
  -9.64000034       1.45722134E-09
  -9.63000011       1.51540336E-09
  -9.61999989       1.57236080E-09
  -9.60999966       1.62744995E-09
  -9.60000038       1.68018199E-09
  -9.59000015       1.73021131E-09
  -9.57999992       1.77731974E-09
  -9.56999969       1.82137339E-09
  -9.56000042       1.86228544E-09
  -9.55000019       1.89998350E-09
  -9.53999996       1.93438465E-09
  -9.52999973       1.96539429E-09
  -9.52000046       1.99292050E-09
  -9.51000023       2.01689954E-09
  -9.50000000       2.03733341E-09
  -9.48999977       2.05430983E-09
  -9.47999954       2.06801642E-09
  -9.47000027       2.07872741E-09
  -9.46000004       2.08677098E-09
  -9.44999981       2.09247997E-09
  -9.43999958       2.09614548E-09
  -9.43000031       2.09798312E-09
  -9.42000008       2.09811701E-09
  -9.40999985       2.09659423E-09
  -9.39999962       2.09342277E-09
  -9.39000034       2.08862017E-09
  -9.38000011       2.08225726E-09
  -9.36999989       2.07448814E-09
  -9.35999966       2.06554707E-09
  -9.35000038       2.05572692E-09
  -9.34000015       2.04532458E-09
  -9.32999992       2.03459116E-09
  -9.31999969       2.02368700E-09
  -9.31000042       2.01266293E-09
  -9.30000019       2.00146077E-09
  -9.28999996       1.98994554E-09
  -9.27999973       1.97795025E-09
  -9.27000046       1.96530969E-09
  -9.26000023       1.95188754E-09
  -9.25000000       1.93757321E-09
  -9.23999977       1.92225924E-09
  -9.22999954       1.90580596E-09
  -9.22000027       1.88802085E-09
  -9.21000004       1.86863525E-09
  -9.19999981       1.84732929E-09
  -9.18999958       1.82375703E-09
  -9.18000031       1.79759907E-09
  -9.17000008       1.76861803E-09
  -9.15999985       1.73669112E-09
  -9.14999962       1.70182268E-09
  -9.14000034       1.66413050E-09
  -9.13000011       1.62382763E-09
  -9.11999989       1.58118796E-09
  -9.10999966       1.53654300E-09
  -9.10000038       1.49028745E-09
  -9.09000015       1.44292089E-09
  -9.07999992       1.39507816E-09
  -9.06999969       1.34755029E-09
  -9.06000042       1.30128142E-09
  -9.05000019       1.25732347E-09
  -9.03999996       1.21673893E-09
  -9.02999973       1.18048515E-09
  -9.02000046       1.14930243E-09
  -9.01000023       1.12362686E-09
  -9.00000000       1.10356790E-09
  -8.98999977       1.08894715E-09
  -8.97999954       1.07938813E-09
  -8.97000027       1.07446441E-09
  -8.96000004       1.07383102E-09
  -8.94999981       1.07733622E-09
  -8.93999958       1.08507325E-09
  -8.93000031       1.09738651E-09
  -8.92000008       1.11481269E-09
  -8.90999985       1.13799570E-09
  -8.89999962       1.16759069E-09
  -8.89000034       1.20418919E-09
  -8.88000011       1.24827360E-09
  -8.86999989       1.30019762E-09
  -8.85999966       1.36019662E-09
  -8.85000038       1.42838763E-09
  -8.84000015       1.50479851E-09
  -8.82999992       1.58936642E-09
  -8.81999969       1.68193981E-09
  -8.81000042       1.78229609E-09
  -8.80000019       1.89016802E-09
  -8.78999996       2.00528394E-09
  -8.77999973       2.12743401E-09
  -8.77000046       2.25652785E-09
  -8.76000023       2.39264741E-09
  -8.75000000       2.53605137E-09
  -8.73999977       2.68716249E-09
  -8.72999954       2.84649904E-09
  -8.72000027       3.01460568E-09
  -8.71000004       3.19196647E-09
  -8.69999981       3.37896244E-09
  -8.68999958       3.57584806E-09
  -8.68000031       3.78278298E-09
  -8.67000008       3.99985689E-09
  -8.65999985       4.22715374E-09
  -8.64999962       4.46477033E-09
  -8.64000034       4.71282213E-09
  -8.63000011       4.97142105E-09
  -8.61999989       5.24062749E-09
  -8.60999966       5.52041479E-09
  -8.60000038       5.81063375E-09
  -8.59000015       6.11101658E-09
  -8.57999992       6.42122444E-09
  -8.56999969       6.74088119E-09
  -8.56000042       7.06960668E-09
  -8.55000019       7.40705008E-09
  -8.53999996       7.75285347E-09
  -8.52999973       8.10661227E-09
  -8.52000046       8.46779802E-09
  -8.51000023       8.83571172E-09
  -8.50000000       9.20945897E-09
  -8.48999977       9.58797486E-09
  -8.47999954       9.97008343E-09
  -8.47000027       1.03546132E-08
  -8.46000004       1.07404556E-08
  -8.44999981       1.11266543E-08
  -8.43999958       1.15124079E-08
  -8.43000031       1.18970300E-08
  -8.42000008       1.22798749E-08
  -8.40999985       1.26602426E-08
  -8.39999962       1.30373126E-08
  -8.39000034       1.34101095E-08
  -8.38000011       1.37775142E-08
  -8.36999989       1.41383083E-08
  -8.35999966       1.44912793E-08
  -8.35000038       1.48352974E-08
  -8.34000015       1.51693431E-08
  -8.32999992       1.54925495E-08
  -8.31999969       1.58041775E-08
  -8.31000042       1.61035540E-08
  -8.30000019       1.63900253E-08
  -8.28999996       1.66628897E-08
  -8.27999973       1.69214047E-08
  -8.27000046       1.71647514E-08
  -8.26000023       1.73920558E-08
  -8.25000000       1.76024280E-08
  -8.23999977       1.77950259E-08
  -8.22999954       1.79690378E-08
  -8.22000027       1.81237603E-08
  -8.21000004       1.82585769E-08
  -8.19999981       1.83729938E-08
  -8.18999958       1.84666096E-08
  -8.18000031       1.85390778E-08
  -8.17000008       1.85900770E-08
  -8.15999985       1.86192981E-08
  -8.14999962       1.86263804E-08
  -8.14000034       1.86109101E-08
  -8.13000011       1.85724272E-08
  -8.11999989       1.85105158E-08
  -8.10999966       1.84248101E-08
  -8.10000038       1.83151343E-08
  -8.09000015       1.81815594E-08
  -8.07999992       1.80244459E-08
  -8.06999969       1.78444122E-08
  -8.06000042       1.76422965E-08
  -8.05000019       1.74190475E-08
  -8.03999996       1.71756440E-08
  -8.02999973       1.69130487E-08
  -8.02000046       1.66321747E-08
  -8.01000023       1.63339067E-08
  -8.00000000       1.60191966E-08
  -7.98999977       1.56891353E-08
  -7.98000002       1.53450728E-08
  -7.96999979       1.49885686E-08
  -7.96000004       1.46213859E-08
  -7.94999981       1.42454324E-08
  -7.94000006       1.38626159E-08
  -7.92999983       1.34747822E-08
  -7.92000008       1.30837021E-08
  -7.90999985       1.26911219E-08
  -7.90000010       1.22987878E-08
  -7.88999987       1.19085364E-08
  -7.88000011       1.15223511E-08
  -7.86999989       1.11423013E-08
  -7.86000013       1.07704938E-08
  -7.84999990       1.04088747E-08
  -7.84000015       1.00591251E-08
  -7.82999992       9.72248682E-09
  -7.82000017       9.39976808E-09
  -7.80999994       9.09144404E-09
  -7.80000019       8.79772788E-09
  -7.78999996       8.51886917E-09
  -7.78000021       8.25523738E-09
  -7.76999998       8.00739208E-09
  -7.76000023       7.77618503E-09
  -7.75000000       7.56254170E-09
  -7.73999977       7.36736938E-09
  -7.73000002       7.19137949E-09
  -7.71999979       7.03500680E-09
  -7.71000004       6.89837210E-09
  -7.69999981       6.78130441E-09
  -7.69000006       6.68353151E-09
  -7.67999983       6.60472743E-09
  -7.67000008       6.54461907E-09
  -7.65999985       6.50304388E-09
  -7.65000010       6.47988330E-09
  -7.63999987       6.47509557E-09
  -7.63000011       6.48860343E-09
  -7.61999989       6.52032028E-09
  -7.61000013       6.57021060E-09
  -7.59999990       6.63830146E-09
  -7.59000015       6.72478295E-09
  -7.57999992       6.82995616E-09
  -7.57000017       6.95427405E-09
  -7.55999994       7.09817005E-09
  -7.55000019       7.26191463E-09
  -7.53999996       7.44551221E-09
  -7.53000021       7.64860264E-09
  -7.51999998       7.87050158E-09
  -7.51000023       8.11026712E-09
  -7.50000000       8.36688674E-09
  -7.48999977       8.63934524E-09
  -7.48000002       8.92681395E-09
  -7.46999979       9.22863030E-09
  -7.46000004       9.54425339E-09
  -7.44999981       9.87310678E-09
  -7.44000006       1.02145679E-08