  -16.0000000       0.00000000    
  -15.9899998       0.00000000    
  -15.9799995       0.00000000    
  -15.9700003       0.00000000    
  -15.9600000       0.00000000    
  -15.9499998       0.00000000    
  -15.9399996       0.00000000    
  -15.9300003       0.00000000    
  -15.9200001       0.00000000    
  -15.9099998       0.00000000    
  -15.8999996       0.00000000    
  -15.8900003      -0.00000000    
  -15.8800001      -4.76441478E-44
  -15.8699999       7.58382729E-42
  -15.8599997       4.00000647E-40
  -15.8500004       9.47410605E-39
  -15.8400002       1.39717685E-37
  -15.8299999       1.45966109E-36
  -15.8199997       1.17246708E-35
  -15.8100004       7.63354380E-35
  -15.8000002       4.17805177E-34
  -15.7900000       1.97311300E-33
  -15.7799997       8.19410810E-33
  -15.7700005       3.03491453E-32
  -15.7600002       1.01309616E-31
  -15.7500000       3.07165231E-31
  -15.7399998       8.50497058E-31
  -15.7299995       2.15787210E-30
  -15.7200003       5.02350050E-30
  -15.7100000       1.07191378E-29
  -15.6999998       2.08752013E-29
  -15.6899996       3.67557170E-29
  -15.6800003       5.73896309E-29
  -15.6700001       7.60975907E-29
  -15.6599998       7.56087355E-29
  -15.6499996       2.35569218E-29
  -15.6400003      -1.27309181E-28
  -15.6300001      -4.27239151E-28
  -15.6199999      -8.98418586E-28
  -15.6099997      -1.48212770E-27
  -15.6000004      -1.97475323E-27
  -15.5900002      -1.98426848E-27
  -15.5799999      -9.59810203E-28
  -15.5699997       1.64817984E-27
  -15.5600004       6.07157851E-27
  -15.5500002       1.18054259E-26
  -15.5400000       1.72497734E-26
  -15.5299997       1.96622764E-26
  -15.5200005       1.56479574E-26
  -15.5100002       2.21963330E-27
  -15.5000000      -2.18649609E-26
  -15.4899998      -5.50552743E-26
  -15.4799995      -9.27239742E-26
  -15.4700003      -1.27450426E-25
  -15.4600000      -1.48628051E-25
  -15.4499998      -1.39613059E-25
  -15.4399996      -7.20454770E-26
  -15.4300003       9.85826284E-26
  -15.4200001       4.25372388E-25
  -15.4099998       9.35196279E-25
  -15.3999996       1.55658468E-24
  -15.3900003       2.02324935E-24
  -15.3800001       1.80754598E-24
  -15.3699999       1.83042822E-25
  -15.3599997      -3.47133272E-24
  -15.3500004      -9.07814898E-24
  -15.3400002      -1.51074373E-23
  -15.3299999      -1.80527663E-23
  -15.3199997      -1.27647752E-23
  -15.3100004       5.72620247E-24
  -15.3000002       3.87160468E-23
  -15.2900000       7.94772944E-23
  -15.2799997       1.10199009E-22
  -15.2700005       1.03382468E-22
  -15.2600002       3.06122775E-23
  -15.2500000      -1.20767410E-22
  -15.2399998      -3.27194765E-22
  -15.2299995      -5.14395320E-22
  -15.2200003      -5.62284705E-22
  -15.2100000      -3.40671665E-22
  -15.1999998       2.23428834E-22
  -15.1899996       1.06448623E-21
  -15.1800003       1.92107608E-21
  -15.1700001       2.35122252E-21
  -15.1599998       1.85822065E-21
  -15.1499996       1.24495075E-22
  -15.1400003      -2.71175412E-21
  -15.1300001      -5.86414791E-21
  -15.1199999      -7.94129577E-21
  -15.1099997      -7.32866594E-21
  -15.1000004      -2.88242272E-21
  -15.0900002       5.27104366E-21
  -15.0799999       1.51849778E-20
  -15.0699997       2.31691916E-20
  -15.0600004       2.46999524E-20
  -15.0500002       1.60287650E-20
  -15.0400000      -4.01849188E-21
  -15.0299997      -3.27519772E-20
  -15.0200005      -6.33788306E-20
  -15.0100002      -8.58526234E-20
  -15.0000000      -8.82976336E-20
  -14.9899998      -5.83874677E-20
  -14.9799995       1.52044133E-20
  -14.9700003       1.39677692E-19
  -14.9600000       3.10474488E-19
  -14.9499998       4.97069529E-19
  -14.9399996       6.24575543E-19
  -14.9300003       5.61831464E-19
  -14.9200001       1.35811903E-19
  -14.9099998      -8.04616004E-19
  -14.8999996      -2.26386719E-18
  -14.8900003      -3.93434603E-18
  -14.8800001      -5.06119722E-18
  -14.8699999      -4.45741452E-18
  -14.8599997      -8.05031818E-19
  -14.8500004       6.68041444E-18
  -14.8400002       1.73027506E-17
  -14.8299999       2.79782361E-17
  -14.8199997       3.29362971E-17
  -14.8100004       2.47004022E-17
  -14.8000002      -3.18226163E-18
  -14.7900000      -5.18229679E-17
  -14.7799997      -1.12251665E-16
  -14.7700005      -1.62512138E-16
  -14.7600002      -1.69493384E-16
  -14.7500000      -9.79142161E-17
  -14.7399998       7.32137693E-17
  -14.7299995       3.30003322E-16
  -14.7200003       6.06721971E-16
  -14.7100000       7.83410238E-16
  -14.6999998       7.08808764E-16
  -14.6899996       2.53449384E-16
  -14.6800003      -6.14113233E-16
  -14.6700001      -1.75064018E-15
  -14.6599998      -2.79783495E-15
  -14.6499996      -3.21941871E-15
  -14.6400003      -2.44399393E-15
  -14.6300001      -1.08437634E-16
  -14.6199999       3.65395063E-15
  -14.6099997       7.98840754E-15
  -14.6000004       1.12957968E-14
  -14.5900002       1.15341247E-14
  -14.5799999       6.88502346E-15
  -14.5699997      -3.31777384E-15
  -14.5600004      -1.76732289E-14
  -14.5500002      -3.22245655E-14
  -14.5400000      -4.08344182E-14
  -14.5299997      -3.67028219E-14
  -14.5200005      -1.49470229E-14
  -14.5100002       2.43390530E-14
  -14.5000000       7.36222132E-14
  -14.4899998       1.17406749E-13
  -14.4799995       1.34810579E-13
  -14.4700003       1.05638852E-13
  -14.4600000       1.90708638E-14
  -14.4499998      -1.17434423E-13
  -14.4399996      -2.72583497E-13
  -14.4300003      -3.92859437E-13
  -14.4200001      -4.13875233E-13
  -14.4099998      -2.81227190E-13
  -14.3999996       2.33548295E-14
  -14.3900003       4.58698834E-13
  -14.3800001       9.14201115E-13
  -14.3699999       1.22277557E-12
  -14.3599997       1.20133233E-12
  -14.3500004       7.14466409E-13
  -14.3400002      -2.53706100E-13
  -14.3299999      -1.54386725E-12
  -14.3199997      -2.80968890E-12
  -14.3100004      -3.57176354E-12
  -14.3000002      -3.34268832E-12
  -14.2900000      -1.80398036E-12
  -14.2799997       1.01098340E-12
  -14.2700005       4.59345886E-12
  -14.2600002       7.96231917E-12
  -14.2500000       9.83907834E-12
  -14.2399998       8.99374932E-12
  -14.2299995       4.69836062E-12
  -14.2200003      -2.83564014E-12
  -14.2100000      -1.21966387E-11
  -14.1999998      -2.08409869E-11
  -14.1899996      -2.55769086E-11
  -14.1800003      -2.34349536E-11
  -14.1700001      -1.27510068E-11
  -14.1599998       5.84000773E-12
  -14.1499996       2.88654135E-11
  -14.1400003       5.02563442E-11
  -14.1300001       6.25279759E-11
  -14.1199999       5.87907570E-11
  -14.1099997       3.51753800E-11
  -14.1000004      -7.00438926E-12
  -14.0900002      -6.01317468E-11
  -14.0799999      -1.10868301E-10
  -14.0699997      -1.42728898E-10
  -14.0600004      -1.40367315E-10
  -14.0500002      -9.46805898E-11
  -14.0400000      -7.33611435E-12
  -14.0299997       1.06846455E-10
  -14.0200005       2.20950230E-10
  -14.0100002       3.00985015E-10
  -14.0000000       3.14330229E-10
  -13.9899998       2.39828907E-10
  -13.9799995       7.68941993E-11
  -13.9700003      -1.49362869E-10
  -13.9600000      -3.89415805E-10
  -13.9499998      -5.78077086E-10
  -13.9399996      -6.49785892E-10
  -13.9300003      -5.57366986E-10
  -13.9200001      -2.89512636E-10
  -13.9099998       1.18300578E-10
  -13.8999996       5.83971427E-10
  -13.8900003       9.92148363E-10
  -13.8800001       1.21961730E-09
  -13.8699999       1.16785370E-09
  -13.8599997       7.94923793E-10
  -13.8500004       1.37736933E-10
  -13.8400002      -6.83270773E-10
  -13.8299999      -1.48147283E-09
  -13.8199997      -2.04245820E-09
  -13.8100004      -2.17664575E-09
  -13.8000002      -1.77421244E-09
  -13.7900000      -8.47782178E-10
  -13.7799997       4.50581072E-10
  -13.7700005       1.84681370E-09
  -13.7600002       2.99752800E-09
  -13.7500000       3.56934371E-09
  -13.7399998       3.32787620E-09
  -13.7299995       2.21413821E-09
  -13.7200003       3.86193383E-10
  -13.7100000      -1.79025961E-09
  -13.6999998      -3.80749521E-09
  -13.6899996      -5.12842480E-09
  -13.6800003      -5.32333555E-09
  -13.6700001      -4.19786561E-09
  -13.6599998      -1.87682381E-09
  -13.6499996       1.18510446E-09
  -13.6400003       4.27916413E-09
  -13.6300001       6.59729382E-09
  -13.6199999       7.43555439E-09
  -13.6099997       6.39839337E-09
  -13.6000004       3.54810314E-09
  -13.5900002      -5.49407297E-10
  -13.5799999      -4.91084462E-09
  -13.5699997      -8.34985592E-09
  -13.5600004      -9.77980985E-09
  -13.5500002      -8.53406945E-09
  -13.5400000      -4.61708671E-09
  -13.5299997       1.19519872E-09
  -13.5200005       7.45825979E-09
  -13.5100002       1.23687638E-08
  -13.5000000       1.42274326E-08
  -13.4899998       1.19484138E-08
  -13.4799995       5.47842660E-09
  -13.4700003      -4.00895006E-09
  -13.4600000      -1.42373491E-08
  -13.4499998      -2.22885355E-08
  -13.4399996      -2.53270365E-08
  -13.4300003      -2.14280522E-08
  -13.4200001      -1.02927631E-08
  -13.4099998       6.36958797E-09
  -13.3999996       2.49565382E-08
  -13.3900003       4.06356158E-08
  -13.3800001       4.84631641E-08
  -13.3699999       4.47252262E-08
  -13.3599997       2.81687722E-08
  -13.3500004       7.67036379E-10
  -13.3400002      -3.22600613E-08
  -13.3299999      -6.32948485E-08
  -13.3199997      -8.39427088E-08
  -13.3100004      -8.71125749E-08
  -13.3000002      -6.90666084E-08
  -13.2900000      -3.08995318E-08
  -13.2799997       2.10237747E-08
  -13.2700005       7.59292504E-08
  -13.2600002       1.20744417E-07
  -13.2500000       1.43077202E-07
  -13.2399998       1.34412147E-07
  -13.2299995       9.27331456E-08
  -13.2200003       2.38378295E-08
  -13.2100000      -5.91412821E-08
  -13.1999998      -1.38098287E-07
  -13.1899996      -1.93814273E-07
  -13.1800003      -2.10522217E-07
  -13.1700001      -1.80111471E-07
  -13.1599998      -1.04902654E-07
  -13.1499996       1.84627413E-09
  -13.1400003       1.18045961E-07
  -13.1300001       2.17236689E-07
  -13.1199999       2.74540270E-07
  -13.1099997       2.72787020E-07
  -13.1000004       2.07350936E-07
  -13.0900002       8.83965257E-08
  -13.0799999      -6.02444814E-08
  -13.0699997      -2.05591590E-07
  -13.0600004      -3.12646279E-07
  -13.0500002      -3.52647419E-07
  -13.0400000      -3.10556828E-07
  -13.0299997      -1.89911887E-07
  -13.0200005      -1.36338247E-08
  -13.0100002       1.79757819E-07
  -13.0000000       3.44034817E-07
  -12.9899998       4.35733995E-07
  -12.9799995       4.24947984E-07
  -12.9700003       3.03879318E-07
  -12.9600000       9.09205369E-08
  -12.9499998      -1.71128463E-07
  -12.9399996      -4.22828322E-07
  -12.9300003      -6.00563226E-07
  -12.9200001      -6.51196387E-07
  -12.9099998      -5.45685850E-07
  -12.8999996      -2.88367374E-07
  -12.8900003       8.06248011E-08
  -12.8800001       4.90967807E-07
  -12.8699999       8.55147448E-07
  -12.8599997       1.08646600E-06
  -12.8500004       1.11831355E-06
  -12.8400002       9.20383627E-07
  -12.8299999       5.07960863E-07
  -12.8199997      -5.82939315E-08
  -12.8100004      -6.82524160E-07
  -12.8000002      -1.25204087E-06
  -12.7900000      -1.66004838E-06
  -12.7799997      -1.82769725E-06
  -12.7700005      -1.72037437E-06
  -12.7600002      -1.35429730E-06
  -12.7500000      -7.91650336E-07
  -12.7399998      -1.25274681E-07
  -12.7299995       5.43483395E-07
  -12.7200003       1.12827570E-06
  -12.7100000       1.57653540E-06
  -12.6999998       1.87844932E-06
  -12.6899996       2.06331174E-06
  -12.6800003       2.18369610E-06
  -12.6700001       2.29123157E-06
  -12.6599998       2.41029807E-06
  -12.6499996       2.51725760E-06
  -12.6400003       2.53200187E-06
  -12.6300001       2.32613115E-06
  -12.6199999       1.74831155E-06
  -12.6099997       6.62704281E-07
  -12.6000004      -1.00701413E-06
  -12.5900002      -3.23814925E-06
  -12.5799999      -5.88394369E-06
  -12.5699997      -8.67070503E-06
  -12.5600004      -1.12205116E-05
  -12.5500002      -1.30975168E-05
  -12.5400000      -1.38707746E-05
  -12.5299997      -1.31824845E-05
  -12.5200005      -1.08092490E-05
  -12.5100002      -6.70499821E-06
  -12.5000000      -1.01836542E-06
  -12.4899998       5.91761091E-06
  -12.4799995       1.36189528E-05
  -12.4700003       2.14985703E-05
  -12.4600000       2.89167328E-05
  -12.4499998       3.52226671E-05
  -12.4399996       3.97792210E-05
  -12.4300003       4.19687167E-05
  -12.4200001       4.11839319E-05
  -12.4099998       3.68128131E-05
  -12.3999996       2.82321107E-05
  -12.3900003       1.48202107E-05
  -12.3800001      -4.00097406E-06
  -12.3699999      -2.86937648E-05
  -12.3599997      -5.95096317E-05
  -12.3500004      -9.63851999E-05
  -12.3400002      -1.38850359E-04
  -12.3299999      -1.85969984E-04
  -12.3199997      -2.36334672E-04
  -12.3100004      -2.88113399E-04
  -12.3000002      -3.39163147E-04
  -12.2900000      -3.87180655E-04
  -12.2799997      -4.29880864E-04
  -12.2700005      -4.65164980E-04
  -12.2600002      -4.91261249E-04
  -12.2500000      -5.06803975E-04
  -12.2399998      -5.10862097E-04
  -12.2299995      -5.02893294E-04
  -12.2200003      -4.82668518E-04
  -12.2100000      -4.50163818E-04
  -12.1999998      -4.05464612E-04
  -12.1899996      -3.48692323E-04
  -12.1800003      -2.79987609E-04
  -12.1700001      -1.99522663E-04
  -12.1599998      -1.07575441E-04
  -12.1499996      -4.60358206E-06
  -12.1400003       1.08662141E-04
  -12.1300001       2.31154161E-04
  -12.1199999       3.61446000E-04
  -12.1099997       4.97772242E-04
  -12.1000004       6.38091180E-04
  -12.0900002       7.80184404E-04
  -12.0799999       9.21762956E-04
  -12.0699997       1.06058118E-03
  -12.0600004       1.19452015E-03
  -12.0500002       1.32164417E-03
  -12.0400000       1.44021888E-03
  -12.0299997       1.54870481E-03
  -12.0200005       1.64571695E-03
  -12.0100002       1.72998325E-03
  -12.0000000       1.80029671E-03
  -11.9899998       1.85549061E-03
  -11.9799995       1.89442199E-03
  -11.9700003       1.91598455E-03
  -11.9600000       1.91913894E-03
  -11.9499998       1.90295652E-03
  -11.9399996       1.86666497E-03
  -11.9300003       1.80969376E-03
  -11.9200001       1.73168839E-03
  -11.9099998       1.63252023E-03
  -11.8999996       1.51223911E-03
  -11.8900003       1.37104071E-03
  -11.8800001       1.20917999E-03
  -11.8699999       1.02692388E-03
  -11.8599997       8.24488525E-04
  -11.8500004       6.02054701E-04
  -11.8400002       3.59788479E-04
  -11.8299999       9.79597535E-05
  -11.8199997      -1.82934949E-04
  -11.8100004      -4.82026982E-04
  -11.8000002      -7.97903922E-04
  -11.7900000      -1.12853723E-03
  -11.7799997      -1.47123146E-03
  -11.7700005      -1.82267325E-03
  -11.7600002      -2.17907364E-03
  -11.7500000      -2.53634574E-03
  -11.7399998      -2.89033609E-03
  -11.7299995      -3.23703513E-03
  -11.7200003      -3.57275037E-03
  -11.7100000      -3.89419845E-03
  -11.6999998      -4.19852091E-03
  -11.6899996      -4.48323181E-03
  -11.6800003      -4.74610226E-03
  -11.6700001      -4.98502003E-03
  -11.6599998      -5.19788172E-03
  -11.6499996      -5.38248802E-03
  -11.6400003      -5.53653017E-03
  -11.6300001      -5.65759884E-03
  -11.6199999      -5.74323116E-03
  -11.6099997      -5.79100382E-03
  -11.6000004      -5.79862529E-03
  -11.5900002      -5.76398754E-03
  -11.5799999      -5.68526285E-03
  -11.5699997      -5.56091871E-03
  -11.5600004      -5.38977236E-03
  -11.5500002      -5.17102424E-03
  -11.5400000      -4.90425760E-03
  -11.5299997      -4.58948174E-03
  -11.5200005      -4.22709854E-03
  -11.5100002      -3.81788146E-03
  -11.5000000      -3.36290500E-03
  -11.4899998      -2.86341342E-03
  -11.4799995      -2.32074386E-03
  -11.4700003      -1.73616339E-03
  -11.4600000      -1.11083884E-03
  -11.4499998      -4.45760525E-04
  -11.4399996       2.58157146E-04
  -11.4300003       1.00000366E-03
  -11.4200001       1.77866395E-03
  -11.4099998       2.59267399E-03
  -11.3999996       3.44005763E-03
  -11.3900003       4.31826431E-03
  -11.3800001       5.22420974E-03
  -11.3699999       6.15439983E-03
  -11.3599997       7.10514374E-03
  -11.3500004       8.07280466E-03
  -11.3400002       9.05404799E-03
  -11.3299999       1.00459708E-02
  -11.3199997       1.10461852E-02
  -11.3100004       1.20527633E-02
  -11.3000002       1.30640529E-02
  -11.2900000       1.40784793E-02
  -11.2799997       1.50943110E-02
  -11.2700005       1.61094815E-02
  -11.2600002       1.71215199E-02
  -11.2500000       1.81275252E-02
  -11.2399998       1.91243421E-02
  -11.2299995       2.01086998E-02
  -11.2200003       2.10774373E-02
  -11.2100000       2.20276918E-02
  -11.1999998       2.29570493E-02
  -11.1899996       2.38635559E-02
  -11.1800003       2.47457549E-02
  -11.1700001       2.56025624E-02
  -11.1599998       2.64332257E-02
  -11.1499996       2.72371434E-02
  -11.1400003       2.80137826E-02
  -11.1300001       2.87626050E-02
  -11.1199999       2.94829886E-02
  -11.1099997       3.01742759E-02
  -11.1000004       3.08357291E-02
  -11.0900002       3.14666256E-02
  -11.0799999       3.20663638E-02
  -11.0699997       3.26346084E-02
  -11.0600004       3.31714526E-02
  -11.0500002       3.36775556E-02
  -11.0400000       3.41542028E-02
  -11.0299997       3.46033871E-02
  -11.0200005       3.50275412E-02
  -11.0100002       3.54294181E-02
  -11.0000000       3.58116813E-02
  -10.9899998       3.61765474E-02
  -10.9799995       3.65255028E-02
  -10.9700003       3.68591771E-02
  -10.9600000       3.71773057E-02
  -10.9499998       3.74790132E-02
  -10.9399996       3.77631560E-02
  -10.9300003       3.80287506E-02
  -10.9200001       3.82753909E-02
  -10.9099998       3.85033190E-02
  -10.8999996       3.87134813E-02
  -10.8900003       3.89071479E-02
  -10.8800001       3.90855595E-02
  -10.8699999       3.92493233E-02
  -10.8599997       3.93981375E-02
  -10.8500004       3.95305455E-02
  -10.8400002       3.96441184E-02
  -10.8299999       3.97357792E-02
  -10.8199997       3.98024209E-02
  -10.8100004       3.98413315E-02
  -10.8000002       3.98507454E-02
  -10.7900000       3.98299135E-02
  -10.7799997       3.97791080E-02
  -10.7700005       3.96992341E-02
  -10.7600002       3.95913422E-02
  -10.7500000       3.94562557E-02
  -10.7399998       3.92942727E-02
  -10.7299995       3.91049907E-02
  -10.7200003       3.88875082E-02
  -10.7100000       3.86406370E-02
  -10.6999998       3.83631662E-02
  -10.6899996       3.80541869E-02
  -10.6800003       3.77130955E-02
  -10.6700001       3.73396724E-02
  -10.6599998       3.69340852E-02
  -10.6499996       3.64966951E-02
  -10.6400003       3.60283554E-02
  -10.6300001       3.55304405E-02
  -10.6199999       3.50052007E-02
  -10.6099997       3.44560333E-02
  -10.6000004       3.38874869E-02
  -10.5900002       3.33052054E-02
  -10.5799999       3.27154212E-02
  -10.5699997       3.21242809E-02
  -10.5600004       3.15370224E-02
  -10.5500002       3.09573170E-02
  -10.5400000       3.03869657E-02
  -10.5299997       2.98257675E-02
  -10.5200005       2.92721819E-02
  -10.5100002       2.87240036E-02
  -10.5000000       2.81793866E-02
  -10.4899998       2.76375450E-02
  -10.4799995       2.70992853E-02
  -10.4700003       2.65670102E-02
  -10.4600000       2.60442719E-02
  -10.4499998       2.55352277E-02
  -10.4399996       2.50437707E-02
  -10.4300003       2.45731100E-02
  -10.4200001       2.41254363E-02
  -10.4099998       2.37019714E-02
  -10.3999996       2.33033411E-02
  -10.3900003       2.29300298E-02
  -10.3800001       2.25824900E-02
  -10.3699999       2.22614966E-02
  -10.3599997       2.19677873E-02
  -10.3500004       2.17017829E-02
  -10.3400002       2.14631073E-02
  -10.3299999       2.12504100E-02
  -10.3199997       2.10613720E-02
  -10.3100004       2.08930802E-02
  -10.3000002       2.07426213E-02
  -10.2900000       2.06077062E-02
  -10.2799997       2.04873532E-02
  -10.2700005       2.03820542E-02
  -10.2600002       2.02936213E-02
  -10.2500000       2.02248208E-02
  -10.2399998       2.01785304E-02
  -10.2299995       2.01570783E-02
  -10.2200003       2.01618839E-02
  -10.2100000       2.01931987E-02
  -10.1999998       2.02502999E-02
  -10.1899996       2.03319695E-02
  -10.1800003       2.04369444E-02
  -10.1700001       2.05642134E-02
  -10.1599998       2.07132455E-02
  -10.1499996       2.08838545E-02
  -10.1400003       2.10756101E-02
  -10.1300001       2.12880056E-02
  -10.1199999       2.15197671E-02
  -10.1099997       2.17693113E-02
  -10.1000004       2.20350288E-02
  -10.0900002       2.23157424E-02
  -10.0799999       2.26112101E-02
  -10.0699997       2.29226891E-02
  -10.0600004       2.32525002E-02
  -10.0500002       2.36038994E-02
  -10.0400000       2.39802543E-02
  -10.0299997       2.43841689E-02
  -10.0200005       2.48170067E-02
  -10.0100002       2.52786577E-02
  -10.0000000       2.57675238E-02
  -9.98999977       2.62812693E-02
  -9.97999954       2.68175937E-02
  -9.97000027       2.73750406E-02
  -9.96000004       2.79533006E-02
  -9.94999981       2.85536144E-02
  -9.93999958       2.91782543E-02
  -9.93000031       2.98300292E-02
  -9.92000008       3.05115990E-02
  -9.90999985       3.12250182E-02
  -9.89999962       3.19715850E-02
  -9.89000034       3.27519178E-02
  -9.88000011       3.35665494E-02
  -9.86999989       3.44163254E-02
  -9.85999966       3.53023857E-02
  -9.85000038       3.62268351E-02
  -9.84000015       3.71919423E-02
  -9.82999992       3.81993726E-02
  -9.81999969       3.92499901E-02
  -9.81000042       4.03433405E-02
  -9.80000019       4.14773896E-02
  -9.78999996       4.26489674E-02
  -9.77999973       4.38548476E-02
  -9.77000046       4.50925417E-02
  -9.76000023       4.63609919E-02
  -9.75000000       4.76607755E-02
  -9.73999977       4.89943363E-02
  -9.72999954       5.03648147E-02
  -9.72000027       5.17754778E-02
  -9.71000004       5.32283820E-02
  -9.69999981       5.47239445E-02
  -9.68999958       5.62607236E-02
  -9.68000031       5.78359291E-02
  -9.67000008       5.94461150E-02
  -9.65999985       6.10885061E-02
  -9.64999962       6.27612993E-02
  -9.64000034       6.44641370E-02
  -9.63000011       6.61976412E-02
  -9.61999989       6.79623410E-02
  -9.60999966       6.97580203E-02
  -9.60000038       7.15823770E-02
  -9.59000015       7.34312758E-02
  -9.57999992       7.52982199E-02
  -9.56999969       7.71758929E-02
  -9.56000042       7.90571123E-02
  -9.55000019       8.09357986E-02
  -9.53999996       8.28079656E-02
  -9.52999973       8.46712217E-02
  -9.52000046       8.65243673E-02
  -9.51000023       8.83657634E-02
  -9.50000000       9.01922584E-02
  -9.48999977       9.19981003E-02
  -9.47999954       9.37751010E-02
  -9.47000027       9.55132023E-02
  -9.46000004       9.72020552E-02
  -9.44999981       9.88325700E-02
  -9.43999958      0.100398265    
  -9.43000031      0.101896584    
  -9.42000008      0.103328235    
  -9.40999985      0.104696147    
  -9.39999962      0.106004238    
  -9.39000034      0.107256286    
  -9.38000011      0.108454093    
  -9.36999989      0.109598987    
  -9.35999966      0.110691324    
  -9.35000038      0.111732967    
  -9.34000015      0.112728238    
  -9.32999992      0.113684766    
  -9.31999969      0.114613950    
  -9.31000042      0.115529649    
  -9.30000019      0.116446637    
  -9.28999996      0.117378578    
  -9.27999973      0.118337013    
  -9.27000046      0.119330257    
  -9.26000023      0.120364830    
  -9.25000000      0.121446073    
  -9.23999977      0.122580215    
  -9.22999954      0.123775646    
  -9.22000027      0.125043094    
  -9.21000004      0.126395538    
  -9.19999981      0.127845615    
  -9.18999958      0.129404321    
  -9.18000031      0.131078571    
  -9.17000008      0.132870421    
  -9.15999985      0.134777427    
  -9.14999962      0.136793673    
  -9.14000034      0.138912231    
  -9.13000011      0.141126826    
  -9.11999989      0.143433094    
  -9.10999966      0.145829007    
  -9.10000038      0.148313358    
  -9.09000015      0.150884211    
  -9.07999992      0.153537184    
  -9.06999969      0.156263843    
  -9.06000042      0.159052357    
  -9.05000019      0.161888182    
  -9.03999996      0.164756328    
  -9.02999973      0.167644113    
  -9.02000046      0.170542732    
  -9.01000023      0.173447490    
  -9.00000000      0.176357150    
  -8.98999977      0.179271802    
  -8.97999954      0.182191074    
  -8.97000027      0.185111254    
  -8.96000004      0.188025951    
  -8.94999981      0.190925211    
  -8.93999958      0.193797678    
  -8.93000031      0.196632937    
  -8.92000008      0.199423969    
  -8.90999985      0.202166125    
  -8.89999962      0.204858214    
  -8.89000034      0.207501531    
  -8.88000011      0.210096329    
  -8.86999989      0.212640762    
  -8.85999966      0.215130642    
  -8.85000038      0.217558503    
  -8.84000015      0.219916552    
  -8.82999992      0.222196132    
  -8.81999969      0.224391997    
  -8.81000042      0.226501629    
  -8.80000019      0.228524372    
  -8.78999996      0.230461419    
  -8.77999973      0.232313380    
  -8.77000046      0.234078705    
  -8.76000023      0.235752702    
  -8.75000000      0.237329558    
  -8.73999977      0.238802835    
  -8.72999954      0.240167916    
  -8.72000027      0.241424933    
  -8.71000004      0.242578328    
  -8.69999981      0.243638083    
  -8.68999958      0.244616568    
  -8.68000031      0.245527819    
  -8.67000008      0.246384531    
  -8.65999985      0.247197583    
  -8.64999962      0.247975349    
  -8.64000034      0.248725280    
  -8.63000011      0.249455169    
  -8.61999989      0.250175595    
  -8.60999966      0.250899762    
  -8.60000038      0.251643598    
  -8.59000015      0.252425373    
  -8.57999992      0.253261834    
  -8.56999969      0.254167736    
  -8.56000042      0.255155206    
  -8.55000019      0.256231785    
  -8.53999996      0.257402778    
  -8.52999973      0.258672863    
  -8.52000046      0.260046422    
  -8.51000023      0.261529654    
  -8.50000000      0.263128519    
  -8.48999977      0.264848739    
  -8.47999954      0.266694427    
  -8.47000027      0.268665969    
  -8.46000004      0.270758778    
  -8.44999981      0.272966117    
  -8.43999958      0.275278836    
  -8.43000031      0.277687937    
  -8.42000008      0.280184925    
  -8.40999985      0.282765061    
  -8.39999962      0.285424024    
  -8.39000034      0.288159668    
  -8.38000011      0.290967494    
  -8.36999989      0.293842047    
  -8.35999966      0.296774417    
  -8.35000038      0.299753845    
  -8.34000015      0.302767813    
  -8.32999992      0.305805564    
  -8.31999969      0.308858424    
  -8.31000042      0.311919451    
  -8.30000019      0.314985961    
  -8.28999996      0.318055272    
  -8.27999973      0.321125090    
  -8.27000046      0.324192673    
  -8.26000023      0.327254444    
  -8.25000000      0.330306828    
  -8.23999977      0.333346248    
  -8.22999954      0.336372048    
  -8.22000027      0.339385957    
  -8.21000004      0.342391223    
  -8.19999981      0.345392615    
  -8.18999958      0.348393291    
  -8.18000031      0.351393670    
  -8.17000008      0.354391038    
  -8.15999985      0.357379526    
  -8.14999962      0.360353023    
  -8.14000034      0.363305837    
  -8.13000011      0.366235554    
  -8.11999989      0.369143456    
  -8.10999966      0.372035950    
  -8.10000038      0.374919802    
  -8.09000015      0.377802670    
  -8.07999992      0.380690008    
  -8.06999969      0.383582681    
  -8.06000042      0.386478543    
  -8.05000019      0.389373809    
  -8.03999996      0.392263979    
  -8.02999973      0.395147383    
  -8.02000046      0.398026764    
  -8.01000023      0.400908530    
  -8.00000000      0.403803080    
  -7.98999977      0.406720042    
  -7.98000002      0.409669310    
  -7.96999979      0.412658185    
  -7.96000004      0.415691704    
  -7.94999981      0.418772817    
  -7.94000006      0.421907753    
  -7.92999983      0.425103277    
  -7.92000008      0.428370655    
  -7.90999985      0.431724012    
  -7.90000010      0.435177803    
  -7.88999987      0.438747406    
  -7.88000011      0.442440987    
  -7.86999989      0.446265638    
  -7.86000013      0.450222343    
  -7.84999990      0.454309404    
  -7.84000015      0.458524317    
  -7.82999992      0.462866873    
  -7.82000017      0.467341900    
  -7.80999994      0.471955001    
  -7.80000019      0.476715773    
  -7.78999996      0.481629521    
  -7.78000021      0.486700833    
  -7.76999998      0.491924614    
  -7.76000023      0.497294337    
  -7.75000000      0.502794564    
  -7.73999977      0.508409977    
  -7.73000002      0.514125884    
  -7.71999979      0.519930661    
  -7.71000004      0.525816977    
  -7.69999981      0.531782091    
  -7.69000006      0.537822962    
  -7.67999983      0.543939114    
  -7.67000008      0.550126076    
  -7.65999985      0.556379139    
  -7.65000010      0.562688649    
  -7.63999987      0.569047511    
  -7.63000011      0.575449407    
  -7.61999989      0.581889391    
  -7.61000013      0.588371873    
  -7.59999990      0.594900787    
  -7.59000015      0.601484299    
  -7.57999992      0.608132303    
  -7.57000017      0.614853621    
  -7.55999994      0.621656060    
  -7.55000019      0.628544509    
  -7.53999996      0.635522962    
  -7.53000021      0.642594993    
  -7.51999998      0.649763107    
  -7.51000023      0.657033503    
  -7.50000000      0.664409161    
  -7.48999977      0.671897829    
  -7.48000002      0.679504335    
  -7.46999979      0.687233806    
  -7.46000004      0.695090234    
  -7.44999981      0.703075707    
  -7.44000006      0.711191356    