  -16.0000000       0.00000000    
  -15.9899998       0.00000000    
  -15.9799995       0.00000000    
  -15.9700003       0.00000000    
  -15.9600000       0.00000000    
  -15.9499998       0.00000000    
  -15.9399996       0.00000000    
  -15.9300003       0.00000000    
  -15.9200001       0.00000000    
  -15.9099998       0.00000000    
  -15.8999996      -4.68033687E-43
  -15.8900003      -1.68923727E-40
  -15.8800001      -1.67669565E-40
  -15.8699999       4.51447106E-38
  -15.8599997       7.64447190E-37
  -15.8500004       7.30256566E-36
  -15.8400002       5.04040383E-35
  -15.8299999       2.77093130E-34
  -15.8199997       1.27870202E-33
  -15.8100004       5.11352018E-33
  -15.8000002       1.80757897E-32
  -15.7900000       5.71593591E-32
  -15.7799997       1.62711270E-31
  -15.7700005       4.17721416E-31
  -15.7600002       9.64950241E-31
  -15.7500000       1.99123101E-30
  -15.7399998       3.61473917E-30
  -15.7299995       5.58760952E-30
  -15.7200003       6.77015909E-30
  -15.7100000       4.52834692E-30
  -15.6999998      -5.40099932E-30
  -15.6899996      -2.75694705E-29
  -15.6800003      -6.29032975E-29
  -15.6700001      -1.02132631E-28
  -15.6599998      -1.19174535E-28
  -15.6499996      -7.09517527E-29
  -15.6400003       8.73908647E-29
  -15.6300001       3.66402490E-28
  -15.6199999       6.93514229E-28
  -15.6099997       8.81954388E-28
  -15.6000004       6.66498920E-28
  -15.5900002      -1.53194691E-28
  -15.5799999      -1.47891843E-27
  -15.5699997      -2.71249033E-27
  -15.5600004      -2.80951868E-27
  -15.5500002      -8.03782722E-28
  -15.5400000       3.20174201E-27
  -15.5299997       7.01753020E-27
  -15.5200005       6.22429705E-27
  -15.5100002      -4.10275348E-27
  -15.5000000      -2.54822919E-26
  -15.4899998      -5.10966902E-26
  -15.4799995      -6.27003103E-26
  -15.4700003      -3.29132676E-26
  -15.4600000       6.49152345E-26
  -15.4499998       2.40290877E-25
  -15.4399996       4.66576121E-25
  -15.4300003       6.63309058E-25
  -15.4200001       6.80578998E-25
  -15.4099998       2.86320295E-25
  -15.3999996      -8.26854369E-25
  -15.3900003      -2.95905413E-24
  -15.3800001      -6.14100960E-24
  -15.3699999      -9.59283970E-24
  -15.3599997      -1.09569782E-23
  -15.3500004      -5.73639968E-24
  -15.3400002       1.20919858E-23
  -15.3299999       4.69558126E-23
  -15.3199997       9.51746293E-23
  -15.3100004       1.36142032E-22
  -15.3000002       1.25964060E-22
  -15.2900000       2.54807456E-24
  -15.2799997      -2.87134111E-22
  -15.2700005      -7.32211150E-22
  -15.2600002      -1.18634825E-21
  -15.2500000      -1.31667342E-21
  -15.2399998      -6.37101384E-22
  -15.2299995       1.30364907E-21
  -15.2200003       4.54950185E-21
  -15.2100000       8.25564622E-21
  -15.1999998       1.03328163E-20
  -15.1899996       7.60115167E-21
  -15.1800003      -3.13815159E-21
  -15.1700001      -2.29433083E-20
  -15.1599998      -4.78959191E-20
  -15.1499996      -6.68447949E-20
  -15.1400003      -6.17641546E-20
  -15.1300001      -1.28979615E-20
  -15.1199999       9.02923732E-20
  -15.1099997       2.34167981E-19
  -15.1000004       3.67806221E-19
  -15.0900002       4.01442771E-19
  -15.0799999       2.27168870E-19
  -15.0699997      -2.32105070E-19
  -15.0600004      -9.51481043E-19
  -15.0500002      -1.73474705E-18
  -15.0400000      -2.18873582E-18
  -15.0299997      -1.79026059E-18
  -15.0200005      -7.87715309E-20
  -15.0100002       3.03848730E-18
  -15.0000000       6.95482375E-18
  -14.9899998       1.01694023E-17
  -14.9799995       1.04352763E-17
  -14.9700003       5.41565445E-18
  -14.9600000      -6.14375951E-18
  -14.9499998      -2.29879150E-17
  -14.9399996      -4.02447919E-17
  -14.9300003      -4.94291403E-17
  -14.9200001      -4.02991509E-17
  -14.9099998      -4.84247454E-18
  -14.8999996       5.72352405E-17
  -14.8900003       1.33301651E-16
  -14.8800001       1.95631563E-16
  -14.8699999       2.05255909E-16
  -14.8599997       1.23671350E-16
  -14.8500004      -6.84477266E-17
  -14.8400002      -3.50277214E-16
  -14.8299999      -6.46232987E-16
  -14.8199997      -8.28349306E-16
  -14.8100004      -7.44411782E-16
  -14.8000002      -2.73590451E-16
  -14.7900000       6.00404164E-16
  -14.7799997       1.72218368E-15
  -14.7700005       2.73726384E-15
  -14.7600002       3.13839069E-15
  -14.7500000       2.40484385E-15
  -14.7399998       2.22818502E-16
  -14.7299995      -3.26690126E-15
  -14.7200003      -7.28745135E-15
  -14.7100000      -1.04229877E-14
  -14.6999998      -1.08865189E-14
  -14.6899996      -7.08089898E-15
  -14.6800003       1.63777897E-15
  -14.6700001       1.42143818E-14
  -14.6599998       2.74847419E-14
  -14.6499996       3.64315782E-14
  -14.6400003       3.53174961E-14
  -14.6300001       1.96461957E-14
  -14.6199999      -1.14546468E-14
  -14.6099997      -5.31887360E-14
  -14.6000004      -9.43492788E-14
  -14.5900002      -1.18754494E-13
  -14.5799999      -1.09261639E-13
  -14.5699997      -5.39264779E-14
  -14.5600004       4.71384067E-14
  -14.5500002       1.76531695E-13
  -14.5400000       2.98628960E-13
  -14.5299997       3.65087219E-13
  -14.5200005       3.27378180E-13
  -14.5100002       1.54553440E-13
  -14.5000000      -1.48204000E-13
  -14.4899998      -5.26717504E-13
  -14.4799995      -8.77545432E-13
  -14.4700003      -1.06527504E-12
  -14.4600000      -9.57916906E-13
  -14.4499998      -4.74665554E-13
  -14.4399996       3.66195409E-13
  -14.4300003       1.41596251E-12
  -14.4200001       2.39768969E-12
  -14.4099998       2.95318392E-12
  -14.3999996       2.73467425E-12
  -14.3900003       1.52567152E-12
  -14.3800001      -6.39641985E-13
  -14.3699999      -3.39901544E-12
  -14.3599997      -6.06670963E-12
  -14.3500004      -7.74596706E-12
  -14.3400002      -7.54814874E-12
  -14.3299999      -4.88201190E-12
  -14.3199997       2.57821461E-13
  -14.3100004       7.09605985E-12
  -14.3000002       1.40672326E-11
  -14.2900000       1.90521141E-11
  -14.2799997       1.98613400E-11
  -14.2700005       1.48902002E-11
  -14.2600002       3.79294903E-12
  -14.2500000      -1.20253937E-11
  -14.2399998      -2.93036220E-11
  -14.2299995      -4.33492860E-11
  -14.2200003      -4.90173353E-11
  -14.2100000      -4.21054580E-11
  -14.1999998      -2.08666400E-11
  -14.1899996       1.27767241E-11
  -14.1800003       5.27559663E-11
  -14.1700001       8.94551377E-11
  -14.1599998       1.11498581E-10
  -14.1499996       1.08523940E-10
  -14.1400003       7.44008188E-11
  -14.1300001       1.00900729E-11
  -14.1199999      -7.47600801E-11
  -14.1099997      -1.62250408E-10
  -14.1000004      -2.29083613E-10
  -14.0900002      -2.51630689E-10
  -14.0799999      -2.12340812E-10
  -14.0699997      -1.06043299E-10
  -14.0600004       5.56193355E-11
  -14.0500002       2.43283310E-10
  -14.0400000       4.13545392E-10
  -14.0299997       5.17290377E-10
  -14.0200005       5.11462095E-10
  -14.0100002       3.71878417E-10
  -14.0000000       1.03882104E-10
  -13.9899998      -2.52492388E-10
  -13.9799995      -6.25395402E-10
  -13.9700003      -9.23027321E-10
  -13.9600000      -1.05324105E-09
  -13.9499998      -9.47314782E-10
  -13.9399996      -5.82498494E-10
  -13.9300003       2.81497113E-12
  -13.9200001       7.06720460E-10
  -13.9099998       1.37733902E-09
  -13.8999996       1.84180360E-09
  -13.8900003       1.94609440E-09
  -13.8800001       1.59744329E-09
  -13.8699999       7.98843547E-10
  -13.8599997      -3.34635125E-10
  -13.8500004      -1.58511260E-09
  -13.8400002      -2.66879652E-09
  -13.8299999      -3.29575855E-09
  -13.8199997      -3.24112626E-09
  -13.8100004      -2.41138065E-09
  -13.8000002      -8.88081053E-10
  -13.7900000       1.06566700E-09
  -13.7799997       3.04338266E-09
  -13.7700005       4.57506344E-09
  -13.7600002       5.23456256E-09
  -13.7500000       4.75121498E-09
  -13.7399998       3.09789927E-09
  -13.7299995       5.29845168E-10
  -13.7200003      -2.44247111E-09
  -13.7100000      -5.14833998E-09
  -13.6999998      -6.90454005E-09
  -13.6899996      -7.18494686E-09
  -13.6800003      -5.77144332E-09
  -13.6700001      -2.84511037E-09
  -13.6599998       1.01333564E-09
  -13.6499996       4.92535568E-09
  -13.6400003       7.90523647E-09
  -13.6300001       9.10143605E-09
  -13.6199999       8.03253819E-09
  -13.6099997       4.75601558E-09
  -13.6000004      -8.23782917E-11
  -13.5900002      -5.34648681E-09
  -13.5799999      -9.64813029E-09
  -13.5699997      -1.16820678E-08
  -13.5600004      -1.05829914E-08
  -13.5500002      -6.21485308E-09
  -13.5400000       6.91350532E-10
  -13.5299997       8.60704308E-09
  -13.5200005       1.54926294E-08
  -13.5100002       1.92569338E-08
  -13.5000000       1.82955748E-08
  -13.4899998       1.19821388E-08
  -13.4799995       9.81605019E-10
  -13.4700003      -1.27169981E-08
  -13.4600000      -2.60950461E-08
  -13.4499998      -3.56971270E-08
  -13.4399996      -3.84164025E-08
  -13.4300003      -3.23062288E-08
  -13.4200001      -1.72247017E-08
  -13.4099998       4.86451768E-09
  -13.3999996       3.00505185E-08
  -13.3900003       5.31121032E-08
  -13.3800001       6.85413610E-08
  -13.3699999       7.17603967E-08
  -13.3599997       6.02709633E-08
  -13.3500004       3.44646160E-08
  -13.3400002      -2.12828999E-09
  -13.3299999      -4.32644853E-08
  -13.3199997      -8.10579976E-08
  -13.3100004      -1.07513010E-07
  -13.3000002      -1.16215723E-07
  -13.2900000      -1.03820312E-07
  -13.2799997      -7.09819474E-08
  -13.2700005      -2.24905321E-08
  -13.2600002       3.34764572E-08
  -13.2500000       8.68676295E-08
  -13.2399998       1.27742027E-07
  -13.2299995       1.48304551E-07
  -13.2200003       1.44540849E-07
  -13.2100000       1.17072254E-07
  -13.1999998       7.10182846E-08
  -13.1899996       1.48786894E-08
  -13.1800003      -4.13207246E-08
  -13.1700001      -8.81925999E-08
  -13.1599998      -1.18951888E-07
  -13.1499996      -1.30706056E-07
  -13.1400003      -1.24758131E-07
  -13.1300001      -1.05851136E-07
  -13.1199999      -8.05547984E-08
  -13.1099997      -5.52258967E-08
  -13.1000004      -3.41000295E-08
  -13.0900002      -1.80598239E-08
  -13.0799999      -4.46315429E-09
  -13.0699997       1.18583898E-08
  -13.0600004       3.66415769E-08
  -13.0500002       7.37745651E-08
  -13.0400000       1.23094281E-07
  -13.0299997       1.79083187E-07
  -13.0200005       2.30973910E-07
  -13.0100002       2.64445049E-07
  -13.0000000       2.64685553E-07
  -12.9899998       2.20215369E-07
  -12.9799995       1.26582037E-07
  -12.9700003      -1.10220704E-08
  -12.9600000      -1.77017498E-07
  -12.9499998      -3.46994256E-07
  -12.9399996      -4.91486446E-07
  -12.9300003      -5.81345944E-07
  -12.9200001      -5.93668915E-07
  -12.9099998      -5.17010392E-07
  -12.8999996      -3.54683550E-07
  -12.8900003      -1.25290455E-07
  -12.8800001       1.39804214E-07
  -12.8699999       4.01673276E-07
  -12.8599997       6.20705634E-07
  -12.8500004       7.63750847E-07
  -12.8400002       8.10015365E-07
  -12.8299999       7.54438815E-07
  -12.8199997       6.07841173E-07
  -12.8100004       3.93861967E-07
  -12.8000002       1.43484556E-07
  -12.7900000      -1.11491026E-07
  -12.7799997      -3.44400604E-07
  -12.7700005      -5.37621531E-07
  -12.7600002      -6.83511189E-07
  -12.7500000      -7.82265658E-07
  -12.7399998      -8.37473863E-07
  -12.7299995      -8.50861113E-07
  -12.7200003      -8.18057913E-07
  -12.7100000      -7.27069164E-07
  -12.6999998      -5.60462524E-07
  -12.6899996      -3.01253408E-07
  -12.6800003       5.86939244E-08
  -12.6700001       5.09904055E-07
  -12.6599998       1.01883563E-06
  -12.6499996       1.52624045E-06
  -12.6400003       1.95197777E-06
  -12.6300001       2.20649986E-06
  -12.6199999       2.20751963E-06
  -12.6099997       1.89884224E-06
  -12.6000004       1.26731618E-06
  -12.5900002       3.53729433E-07
  -12.5799999      -7.45680097E-07
  -12.5699997      -1.88872900E-06
  -12.5600004      -2.90713683E-06
  -12.5500002      -3.63374488E-06
  -12.5400000      -3.93224445E-06
  -12.5299997      -3.72364889E-06
  -12.5200005      -3.00401985E-06
  -12.5100002      -1.84946691E-06
  -12.5000000      -4.06867912E-07
  -12.4899998       1.12834948E-06
  -12.4799995       2.54335032E-06
  -12.4700003       3.64202515E-06
  -12.4600000       4.27552368E-06
  -12.4499998       4.36334039E-06
  -12.4399996       3.90110199E-06
  -12.4300003       2.95404584E-06
  -12.4200001       1.63827315E-06
  -12.4099998       9.44039513E-08
  -12.3999996      -1.54019096E-06
  -12.3900003      -3.15430339E-06
  -12.3800001      -4.67601467E-06
  -12.3699999      -6.07358379E-06
  -12.3599997      -7.34471860E-06
  -12.3500004      -8.49776643E-06
  -12.3400002      -9.53041399E-06
  -12.3299999      -1.04122355E-05
  -12.3199997      -1.10765368E-05
  -12.3100004      -1.14247114E-05
  -12.3000002      -1.13431206E-05
  -12.2900000      -1.07292581E-05
  -12.2799997      -9.52121536E-06
  -12.2700005      -7.72314979E-06
  -12.2600002      -5.41984127E-06
  -12.2500000      -2.77548065E-06
  -12.2399998      -1.52383208E-08
  -12.2299995       2.60790193E-06
  -12.2200003       4.85503961E-06
  -12.2100000       6.54358109E-06
  -12.1999998       7.58091028E-06
  -12.1899996       7.98206929E-06
  -12.1800003       7.86726105E-06
  -12.1700001       7.43920555E-06
  -12.1599998       6.94469145E-06
  -12.1499996       6.62812863E-06
  -12.1400003       6.68656776E-06
  -12.1300001       7.23530684E-06
  -12.1199999       8.29081455E-06
  -12.1099997       9.77386935E-06
  -12.1000004       1.15313123E-05
  -12.0900002       1.33709564E-05
  -12.0799999       1.51014283E-05
  -12.0699997       1.65680194E-05
  -12.0600004       1.76769863E-05
  -12.0500002       1.84036217E-05
  -12.0400000       1.87834266E-05
  -12.0299997       1.88896574E-05
  -12.0200005       1.88035247E-05
  -12.0100002       1.85849040E-05
  -12.0000000       1.82508684E-05
  -11.9899998       1.77672682E-05
  -11.9799995       1.70551957E-05
  -11.9700003       1.60104719E-05
  -11.9600000       1.45310632E-05
  -11.9499998       1.25454844E-05
  -11.9399996       1.00349916E-05
  -11.9300003       7.04409968E-06
  -11.9200001       3.67682014E-06
  -11.9099998       7.96941819E-08
  -11.8999996      -3.58401917E-06
  -11.8900003      -7.16242221E-06
  -11.8800001      -1.05382178E-05
  -11.8699999      -1.36413719E-05
  -11.8599997      -1.64483736E-05
  -11.8500004      -1.89688817E-05
  -11.8400002      -2.12241612E-05
  -11.8299999      -2.32240764E-05
  -11.8199997      -2.49499408E-05
  -11.8100004      -2.63491256E-05
  -11.8000002      -2.73439946E-05
  -11.7900000      -2.78536008E-05
  -11.7799997      -2.78226453E-05
  -11.7700005      -2.72493817E-05
  -11.7600002      -2.62038120E-05
  -11.7500000      -2.48292163E-05
  -11.7399998      -2.33241681E-05
  -11.7299995      -2.19072026E-05
  -11.7200003      -2.07712001E-05
  -11.7100000      -2.00379600E-05
  -11.6999998      -1.97243517E-05
  -11.6899996      -1.97293957E-05
  -11.6800003      -1.98471844E-05
  -11.6700001      -1.98045855E-05
  -11.6599998      -1.93165906E-05
  -11.6499996      -1.81476353E-05
  -11.6400003      -1.61652897E-05
  -11.6300001      -1.33738349E-05
  -11.6199999      -9.91954585E-06
  -11.6099997      -6.06559070E-06
  -11.6000004      -2.14137549E-06
  -11.5900002       1.52305358E-06
  -11.5799999       4.66336314E-06
  -11.5699997       7.13346617E-06
  -11.5600004       8.93258311E-06
  -11.5500002       1.02006752E-05
  -11.5400000       1.11830796E-05
  -11.5299997       1.21721259E-05
  -11.5200005       1.34385982E-05
  -11.5100002       1.51685399E-05
  -11.5000000       1.74197212E-05
  -11.4899998       2.01078856E-05
  -11.4799995       2.30261612E-05
  -11.4700003       2.58934233E-05
  -11.4600000       2.84204707E-05
  -11.4499998       3.03784855E-05
  -11.4399996       3.16531223E-05
  -11.4300003       3.22708875E-05
  -11.4200001       3.23904133E-05
  -11.4099998       3.22599190E-05
  -11.3999996       3.21503539E-05
  -11.3900003       3.22801025E-05
  -11.3800001       3.27498710E-05
  -11.3699999       3.35045261E-05
  -11.3599997       3.43326683E-05
  -11.3500004       3.49057846E-05
  -11.3400002       3.48492831E-05
  -11.3299999       3.38297250E-05
  -11.3199997       3.16383084E-05
  -11.3100004       2.82511119E-05
  -11.3000002       2.38518442E-05
  -11.2900000       1.88113245E-05
  -11.2799997       1.36277158E-05
  -11.2700005       8.84038673E-06
  -11.2600002       4.93555945E-06
  -11.2500000       2.26330735E-06
  -11.2399998       9.82157758E-07
  -11.2299995       1.04099763E-06
  -11.2200003       2.19987396E-06
  -11.2100000       4.08332880E-06
  -11.1999998       6.25404437E-06
  -11.1899996       8.29167493E-06
  -11.1800003       9.86193754E-06
  -11.1700001       1.07641308E-05
  -11.1599998       1.09499779E-05
  -11.1499996       1.05121972E-05
  -11.1400003       9.64675928E-06
  -11.1300001       8.59696956E-06
  -11.1199999       7.59075829E-06
  -11.1099997       6.78368679E-06
  -11.1000004       6.21941763E-06
  -11.0900002       5.81661425E-06
  -11.0799999       5.38639779E-06
  -11.0699997       4.67841483E-06
  -11.0600004       3.44716432E-06
  -11.0500002       1.52477423E-06
  -11.0400000      -1.11644920E-06
  -11.0299997      -4.32767320E-06
  -11.0200005      -7.78466074E-06
  -11.0100002      -1.10297124E-05
  -11.0000000      -1.35479204E-05
  -10.9899998      -1.48625641E-05
  -10.9799995      -1.46287284E-05
  -10.9700003      -1.27034737E-05
  -10.9600000      -9.17577745E-06
  -10.9499998      -4.34879348E-06
  -10.9399996       1.32164212E-06
  -10.9300003       7.31756882E-06
  -10.9200001       1.31571169E-05
  -10.9099998       1.84775417E-05
  -10.8999996       2.30848564E-05
  -10.8900003       2.69608026E-05
  -10.8800001       3.02288136E-05
  -10.8699999       3.30903786E-05
  -10.8599997       3.57493082E-05
  -10.8500004       3.83427978E-05
  -10.8400002       4.08943270E-05
  -10.8299999       4.32971938E-05
  -10.8199997       4.53290959E-05
  -10.8100004       4.66919446E-05
  -10.8000002       4.70664963E-05
  -10.7900000       4.61704076E-05
  -10.7799997       4.38095522E-05
  -10.7700005       3.99149721E-05
  -10.7600002       3.45610169E-05
  -10.7500000       2.79629276E-05
  -10.7399998       2.04543430E-05
  -10.7299995       1.24474882E-05
  -10.7200003       4.38103052E-06
  -10.7100000      -3.33686830E-06
  -10.6999998      -1.03807124E-05
  -10.6899996      -1.65447818E-05
  -10.6800003      -2.17564466E-05
  -10.6700001      -2.60613360E-05
  -10.6599998      -2.95824775E-05
  -10.6499996      -3.24627072E-05
  -10.6400003      -3.48053036E-05
  -10.6300001      -3.66297318E-05
  -10.6199999      -3.78564800E-05
  -10.6099997      -3.83273582E-05
  -10.6000004      -3.78574150E-05
  -10.5900002      -3.63042491E-05
  -10.5799999      -3.36344056E-05
  -10.5699997      -2.99654475E-05
  -10.5600004      -2.55685791E-05
  -10.5500002      -2.08274942E-05
  -10.5400000      -1.61619337E-05
  -10.5299997      -1.19352380E-05
  -10.5200005      -8.37030984E-06
  -10.5100002      -5.49675997E-06
  -10.5000000      -3.14351337E-06
  -10.4899998      -9.79108677E-07
  -10.4799995       1.41038834E-06
  -10.4700003       4.42475994E-06
  -10.4600000       8.35612173E-06
  -10.4499998       1.33174690E-05
  -10.4399996       1.92049738E-05
  -10.4300003       2.56970688E-05
  -10.4200001       3.22863380E-05
  -10.4099998       3.83363113E-05
  -10.3999996       4.31548106E-05
  -10.3900003       4.60770607E-05
  -10.3800001       4.65531411E-05
  -10.3699999       4.42339224E-05
  -10.3599997       3.90464957E-05
  -10.3500004       3.12466764E-05
  -10.3400002       2.14329666E-05
  -10.3299999       1.05085519E-05
  -10.3199997      -4.15254732E-07
  -10.3100004      -1.01680425E-05
  -10.3000002      -1.77009515E-05
  -10.2900000      -2.22656108E-05
  -10.2799997      -2.35521966E-05
  -10.2700005      -2.17520956E-05
  -10.2600002      -1.75251716E-05
  -10.2500000      -1.18737080E-05
  -10.2399998      -5.94833591E-06
  -10.2299995      -8.29205703E-07
  -10.2200003       2.66753523E-06
  -10.2100000       4.11422889E-06
  -10.1999998       3.50197797E-06
  -10.1899996       1.17638740E-06
  -10.1800003      -2.29703483E-06
  -10.1700001      -6.29712576E-06
  -10.1599998      -1.02957201E-05
  -10.1499996      -1.39542981E-05
  -10.1400003      -1.71505271E-05
  -10.1300001      -1.99383558E-05
  -10.1199999      -2.24642336E-05
  -10.1099997      -2.48715514E-05
  -10.1000004      -2.72247598E-05
  -10.0900002      -2.94739166E-05
  -10.0799999      -3.14649005E-05
  -10.0699997      -3.29855393E-05
  -10.0600004      -3.38279060E-05
  -10.0500002      -3.38453647E-05
  -10.0400000      -3.29881223E-05
  -10.0299997      -3.13110759E-05
  -10.0200005      -2.89575928E-05
  -10.0100002      -2.61296555E-05
  -10.0000000      -2.30558544E-05
  -9.98999977      -1.99652841E-05
  -9.97999954      -1.70693038E-05
  -9.97000027      -1.45476533E-05
  -9.96000004      -1.25336828E-05
  -9.94999981      -1.10953988E-05
  -9.93999958      -1.02143740E-05
  -9.93000031      -9.77030777E-06
  -9.92000008      -9.54168263E-06
  -9.90999985      -9.23135394E-06
  -9.89999962      -8.51885034E-06
  -9.89000034      -7.13149029E-06
  -9.88000011      -4.91715855E-06
  -9.86999989      -1.89664411E-06
  -9.85999966       1.72442424E-06
  -9.85000038       5.59474711E-06
  -9.84000015       9.30411352E-06
  -9.82999992       1.24989838E-05
  -9.81999969       1.49972002E-05
  -9.81000042       1.68689603E-05
  -9.80000019       1.84575529E-05
  -9.78999996       2.03279069E-05
  -9.77999973       2.31500162E-05
  -9.77000046       2.75420680E-05
  -9.76000023       3.39102480E-05
  -9.75000000       4.23244710E-05
  -9.73999977       5.24612478E-05
  -9.72999954       6.36292752E-05
  -9.72000027       7.48732054E-05
  -9.71000004       8.51325531E-05
  -9.69999981       9.34209529E-05
  -9.68999958       9.89868931E-05
  -9.68000031       1.01423604E-04
  -9.67000008       1.00708923E-04
  -9.65999985       9.71724876E-05
  -9.64999962       9.14037810E-05
  -9.64000034       8.41254077E-05
  -9.63000011       7.60607581E-05
  -9.61999989       6.78223732E-05
  -9.60999966       5.98391453E-05
  -9.60000038       5.23304043E-05
  -9.59000015       4.53237190E-05
  -9.57999992       3.87063737E-05
  -9.56999969       3.22960150E-05
  -9.56000042       2.59158951E-05
  -9.55000019       1.94623844E-05
  -9.53999996       1.29549180E-05
  -9.52999973       6.56183693E-06
  -9.52000046       5.97260623E-07
  -9.51000023      -4.51316282E-06
  -9.50000000      -8.29696273E-06
  -9.48999977      -1.03236825E-05
  -9.47999954      -1.03046441E-05
  -9.47000027      -8.18384251E-06
  -9.46000004      -4.19547314E-06
  -9.44999981       1.13478814E-06
  -9.43999958       7.05864250E-06
  -9.43000031       1.27419489E-05
  -9.42000008       1.74468005E-05
  -9.40999985       2.07179364E-05
  -9.39999962       2.25222684E-05
  -9.39000034       2.32941129E-05
  -9.38000011       2.38577504E-05
  -9.36999989       2.52309528E-05
  -9.35999966       2.83488644E-05
  -9.35000038       3.37774727E-05
  -9.34000015       4.14980568E-05
  -9.32999992       5.08328485E-05
  -9.31999969       6.05476234E-05
  -9.31000042       6.91176538E-05
  -9.30000019       7.50930922E-05
  -9.28999996       7.74652799E-05
  -9.27999973       7.59280665E-05
  -9.27000046       7.09539308E-05
  -9.26000023       6.36564582E-05
  -9.25000000       5.54748767E-05
  -9.23999977       4.77718131E-05
  -9.22999954       4.14641836E-05
  -9.22000027       3.67988978E-05
  -9.21000004       3.33404241E-05
  -9.19999981       3.01704385E-05
  -9.18999958       2.62315589E-05
  -9.18000031       2.07012308E-05
  -9.17000008       1.32727746E-05
  -9.15999985       4.25366079E-06
  -9.14999962      -5.54643429E-06
  -9.14000034      -1.50929191E-05
  -9.13000011      -2.34680065E-05
  -9.11999989      -3.01555428E-05
  -9.10999966      -3.51703093E-05
  -9.10000038      -3.89906345E-05
  -9.09000015      -4.23256024E-05
  -9.07999992      -4.58082868E-05
  -9.06999969      -4.97330475E-05
  -9.06000042      -5.39374960E-05
  -9.05000019      -5.78746040E-05
  -9.03999996      -6.08477385E-05
  -9.02999973      -6.23180458E-05
  -9.02000046      -6.21642175E-05
  -9.01000023      -6.07902984E-05
  -9.00000000      -5.90333111E-05
  -8.98999977      -5.78981089E-05
  -8.97999954      -5.82139583E-05
  -8.97000027      -6.03396438E-05
  -8.96000004      -6.40291837E-05
  -8.94999981      -6.85108898E-05
  -8.93999958      -7.27533916E-05
  -8.93000031      -7.58200404E-05
  -8.92000008      -7.71781852E-05
  -8.90999985      -7.68452737E-05
  -8.89999962      -7.53161148E-05
  -8.89000034      -7.33005945E-05
  -8.88000011      -7.13777190E-05
  -8.86999989      -6.97084761E-05
  -8.85999966      -6.79318109E-05
  -8.85000038      -6.52984309E-05
  -8.84000015      -6.10028401E-05
  -8.82999992      -5.45901021E-05
  -8.81999969      -4.62729222E-05
  -8.81000042      -3.70176822E-05
  -8.80000019      -2.83369245E-05
  -8.78999996      -2.18352870E-05
  -8.77999973      -1.86549096E-05
  -8.77000046      -1.90171140E-05
  -8.76000023      -2.20368911E-05
  -8.75000000      -2.58996606E-05
  -8.73999977      -2.83650861E-05
  -8.72999954      -2.74431859E-05
  -8.72000027      -2.20198981E-05
  -8.71000004      -1.22170813E-05
  -8.69999981       6.42343423E-07
  -8.68999958       1.44596561E-05
  -8.68000031       2.70361325E-05
  -8.67000008       3.67710272E-05
  -8.65999985       4.31449371E-05
  -8.64999962       4.68262224E-05
  -8.64000034       4.93720399E-05
  -8.63000011       5.26373406E-05
  -8.61999989       5.81083186E-05
  -8.60999966       6.63990941E-05
  -8.60000038       7.70878032E-05
  -8.59000015       8.89414296E-05
  -8.57999992       1.00434467E-04
  -8.56999969       1.10359666E-04
  -8.56000042       1.18296040E-04
  -8.55000019       1.24756276E-04
  -8.53999996       1.30956963E-04
  -8.52999973       1.38299278E-04
  -8.52000046       1.47759565E-04
  -8.51000023       1.59426199E-04
  -8.50000000       1.72366781E-04
  -8.48999977       1.84890465E-04
  -8.47999954       1.95120767E-04
  -8.47000027       2.01677540E-04
  -8.46000004       2.04220705E-04
  -8.44999981       2.03653006E-04
  -8.43999958       2.01898132E-04
  -8.43000031       2.01320538E-04
  -8.42000008       2.03981574E-04
  -8.40999985       2.10984334E-04
  -8.39999962       2.22129776E-04
  -8.39000034       2.35996689E-04
  -8.38000011       2.50412530E-04
  -8.36999989       2.63148831E-04
  -8.35999966       2.72602047E-04
  -8.35000038       2.78236024E-04
  -8.34000015       2.80649430E-04
  -8.32999992       2.81266810E-04
  -8.31999969       2.81779183E-04
  -8.31000042       2.83536792E-04
  -8.30000019       2.87101517E-04
  -8.28999996       2.92095850E-04
  -8.27999973       2.97374732E-04
  -8.27000046       3.01434047E-04
  -8.26000023       3.02895089E-04
  -8.25000000       3.00895714E-04
  -8.23999977       2.95266218E-04
  -8.22999954       2.86459137E-04
  -8.22000027       2.75291124E-04
  -8.21000004       2.62614281E-04
  -8.19999981       2.49044941E-04
  -8.18999958       2.34837309E-04
  -8.18000031       2.19923109E-04
  -8.17000008       2.04068827E-04
  -8.15999985       1.87065423E-04
  -8.14999962       1.68861967E-04
  -8.14000034       1.49593208E-04
  -8.13000011       1.29503198E-04
  -8.11999989       1.08815075E-04
  -8.10999966       8.76166014E-05
  -8.10000038       6.58198987E-05
  -8.09000015       4.32149754E-05
  -8.07999992       1.95925077E-05
  -8.06999969      -5.12081124E-06
  -8.06000042      -3.07747723E-05
  -8.05000019      -5.69930089E-05
  -8.03999996      -8.32527148E-05
  -8.02999973      -1.09005996E-04
  -8.02000046      -1.33785172E-04
  -8.01000023      -1.57244445E-04
  -8.00000000      -1.79123192E-04
  -7.98999977      -1.99157323E-04
  -7.98000002      -2.16993372E-04
  -7.96999979      -2.32162303E-04
  -7.96000004      -2.44144496E-04
  -7.94999981      -2.52510974E-04
  -7.94000006      -2.57086009E-04
  -7.92999983      -2.58053769E-04
  -7.92000008      -2.55946594E-04
  -7.90999985      -2.51497462E-04
  -7.90000010      -2.45397852E-04
  -7.88999987      -2.38049601E-04
  -7.88000011      -2.29415367E-04
  -7.86999989      -2.19043723E-04
  -7.86000013      -2.06280936E-04
  -7.84999990      -1.90607578E-04
  -7.84000015      -1.71979395E-04
  -7.82999992      -1.51038083E-04
  -7.82000017      -1.29094275E-04
  -7.80999994      -1.07865424E-04
  -7.80000019      -8.90401934E-05
  -7.78999996      -7.38130911E-05
  -7.78000021      -6.25500325E-05
  -7.76999998      -5.47074269E-05
  -7.76000023      -4.90388484E-05
  -7.75000000      -4.40217009E-05
  -7.73999977      -3.83566730E-05
  -7.73000002      -3.13663622E-05
  -7.71999979      -2.31559734E-05
  -7.71000004      -1.44875685E-05
  -7.69999981      -6.42299301E-06
  -7.69000006       1.25297575E-07
  -7.67999983       4.76751075E-06
  -7.67000008       7.79864240E-06
  -7.65999985       1.00978141E-05
  -7.65000010       1.28135234E-05
  -7.63999987       1.69628711E-05
  -7.63000011       2.30991354E-05
  -7.61999989       3.11703116E-05
  -7.61000013       4.06107320E-05
  -7.59999990       5.06162214E-05
  -7.59000015       6.04829802E-05
  -7.57999992       6.98705335E-05
  -7.57000017       7.88864563E-05
  -7.55999994       8.79667859E-05
  -7.55000019       9.76107694E-05
  -7.53999996       1.08086911E-04
  -7.53000021       1.19236851E-04
  -7.51999998       1.30459885E-04
  -7.51000023       1.40885342E-04
  -7.50000000       1.49663305E-04
  -7.48999977       1.56256137E-04
  -7.48000002       1.60616590E-04
  -7.46999979       1.63185556E-04
  -7.46000004       1.64717945E-04
  -7.44999981       1.66012731E-04
  -7.44000006       1.67657752E-04