  -16.0000000       0.00000000    
  -15.9899998       0.00000000    
  -15.9799995       0.00000000    
  -15.9700003       0.00000000    
  -15.9600000       0.00000000    
  -15.9499998       0.00000000    
  -15.9399996       0.00000000    
  -15.9300003       0.00000000    
  -15.9200001       0.00000000    
  -15.9099998       0.00000000    
  -15.8999996       0.00000000    
  -15.8900003       0.00000000    
  -15.8800001      -7.86268568E-40
  -15.8699999      -2.66784639E-38
  -15.8599997      -3.36411135E-37
  -15.8500004      -2.48003210E-36
  -15.8400002      -1.27322052E-35
  -15.8299999      -5.07300773E-35
  -15.8199997      -1.73808250E-34
  -15.8100004      -5.70153285E-34
  -15.8000002      -1.90229057E-33
  -15.7900000      -6.23548399E-33
  -15.7799997      -1.84549057E-32
  -15.7700005      -4.53167590E-32
  -15.7600002      -8.17296948E-32
  -15.7500000      -6.20629338E-32
  -15.7399998       2.49824382E-31
  -15.7299995       1.42358281E-30
  -15.7200003       4.45620542E-30
  -15.7100000       1.04773719E-29
  -15.6999998       1.95787390E-29
  -15.6899996       2.84099072E-29
  -15.6800003       2.69167909E-29
  -15.6700001      -4.06095005E-30
  -15.6599998      -9.12985826E-29
  -15.6499996      -2.60397404E-28
  -15.6400003      -5.16670382E-28
  -15.6300001      -8.10689877E-28
  -15.6199999      -9.74775352E-28
  -15.6099997      -6.05485508E-28
  -15.6000004       1.11485055E-27
  -15.5900002       5.54702375E-27
  -15.5799999       1.42711994E-26
  -15.5699997       2.74864469E-26
  -15.5600004       4.01397728E-26
  -15.5500002       3.57455833E-26
  -15.5400000      -1.89431218E-26
  -15.5299997      -1.69481280E-25
  -15.5200005      -4.44670834E-25
  -15.5100002      -7.89216879E-25
  -15.5000000      -9.64112765E-25
  -15.4899998      -4.68638943E-25
  -15.4799995       1.39228931E-24
  -15.4700003       5.12017467E-24
  -15.4600000       1.01899190E-23
  -15.4499998       1.39049199E-23
  -15.4399996       1.05884547E-23
  -15.4300003      -7.60102981E-24
  -15.4200001      -4.66164288E-23
  -15.4099998      -1.02344289E-22
  -15.3999996      -1.49950972E-22
  -15.3900003      -1.36843285E-22
  -15.3800001       9.78370459E-24
  -15.3699999       3.48212165E-22
  -15.3599997       8.54711227E-22
  -15.3500004       1.33802957E-21
  -15.3400002       1.38331296E-21
  -15.3299999       4.05825517E-22
  -15.3199997      -2.09775649E-21
  -15.3100004      -6.06565121E-21
  -15.3000002      -1.02588628E-20
  -15.2900000      -1.18371961E-20
  -15.2799997      -6.64530530E-21
  -15.2700005       9.22992765E-21
  -15.2600002       3.63975011E-20
  -15.2500000       6.81925047E-20
  -15.2399998       8.76452013E-20
  -15.2299995       6.84394246E-20
  -15.2200003      -1.68044262E-20
  -15.2100000      -1.79290054E-19
  -15.1999998      -3.90634364E-19
  -15.1899996      -5.62775897E-19
  -15.1800003      -5.47360456E-19
  -15.1700001      -1.73067006E-19
  -15.1599998       6.68141388E-19
  -15.1499996       1.89575569E-18
  -15.1400003       3.11942258E-18
  -15.1300001       3.59927212E-18
  -15.1199999       2.38234944E-18
  -15.1099997      -1.31671644E-18
  -15.1000004      -7.51116888E-18
  -15.0900002      -1.47826258E-17
  -15.0799999      -1.99040484E-17
  -15.0699997      -1.81890945E-17
  -15.0600004      -4.94711537E-18
  -15.0500002       2.19061663E-17
  -15.0400000       5.86412225E-17
  -15.0299997       9.32207536E-17
  -15.0200005       1.05420794E-16
  -15.0100002       7.14493665E-17
  -15.0000000      -2.61013633E-17
  -14.9899998      -1.84371835E-16
  -14.9799995      -3.66905556E-16
  -14.9700003      -4.98198574E-16
  -14.9600000      -4.74471593E-16
  -14.9499998      -1.96360978E-16
  -14.9399996       3.78073632E-16
  -14.9300003       1.17296286E-15
  -14.9200001       1.95204354E-15
  -14.9099998       2.32664746E-15
  -14.8999996       1.84324957E-15
  -14.8900003       1.59236265E-16
  -14.8800001      -2.72173179E-15
  -14.8699999      -6.22982484E-15
  -14.8599997      -9.13832422E-15
  -14.8500004      -9.72402971E-15
  -14.8400002      -6.25604728E-15
  -14.8299999       2.21614926E-15
  -14.8199997       1.49600977E-14
  -14.8100004       2.88866357E-14
  -14.8000002       3.85414255E-14
  -14.7900000       3.71459252E-14
  -14.7799997       1.88171317E-14
  -14.7700005      -1.83548499E-14
  -14.7600002      -6.92451874E-14
  -14.7500000      -1.19985808E-13
  -14.7399998      -1.49075956E-13
  -14.7299995      -1.32333800E-13
  -14.7200003      -5.16119096E-14
  -14.7100000       9.44454814E-14
  -14.6999998       2.81043038E-13
  -14.6899996       4.53867792E-13
  -14.6800003       5.36103497E-13
  -14.6700001       4.48093765E-13
  -14.6599998       1.37870740E-13
  -14.6499996      -3.84508479E-13
  -14.6400003      -1.02069102E-12
  -14.6300001      -1.58008307E-12
  -14.6199999      -1.81012399E-12
  -14.6099997      -1.46473610E-12
  -14.6000004      -4.01624372E-13
  -14.5900002       1.31597532E-12
  -14.5799999       3.35021702E-12
  -14.5699997       5.09251408E-12
  -14.5600004       5.77056718E-12
  -14.5500002       4.66223284E-12
  -14.5400000       1.38184006E-12
  -14.5299997      -3.83661722E-12
  -14.5200005      -9.96439650E-12
  -14.5100002      -1.52181930E-11
  -14.5000000      -1.73868784E-11
  -14.4899998      -1.44403066E-11
  -14.4799995      -5.31312754E-12
  -14.4700003       9.34628243E-12
  -14.4600000       2.67377075E-11
  -14.4499998       4.20487846E-11
  -14.4399996       4.93371906E-11
  -14.4300003       4.31192998E-11
  -14.4200001       2.03771913E-11
  -14.4099998      -1.75487992E-11
  -14.3999996      -6.38564757E-11
  -14.3900003      -1.06602116E-10
  -14.3800001      -1.30816802E-10
  -14.3699999      -1.22316463E-10
  -14.3599997      -7.25113164E-11
  -14.3500004       1.70169590E-11
  -14.3400002       1.31720482E-10
  -14.3299999       2.44507636E-10
  -14.3199997       3.20234672E-10
  -14.3100004       3.24068800E-10
  -14.3000002       2.32254938E-10
  -14.2900000       4.26568225E-11
  -14.2799997      -2.18251681E-10
  -14.2700005      -4.95036290E-10
  -14.2600002      -7.11552095E-10
  -14.2500000      -7.87612975E-10
  -14.2399998      -6.61348531E-10
  -14.2299995      -3.12100845E-10
  -14.2200003       2.22714958E-10
  -14.2100000       8.43212500E-10
  -14.1999998       1.39943246E-09
  -14.1899996       1.72100822E-09
  -14.1800003       1.65973357E-09
  -14.1700001       1.13594745E-09
  -14.1599998       1.76651666E-10
  -14.1499996      -1.06715570E-09
  -14.1400003      -2.33318698E-09
  -14.1300001      -3.29352390E-09
  -14.1199999      -3.62768704E-09
  -14.1099997      -3.10894954E-09
  -14.1000004      -1.68341108E-09
  -14.0900002       4.80573525E-10
  -14.0799999       2.99138958E-09
  -14.0699997       5.29080468E-09
  -14.0600004       6.76410705E-09
  -14.0500002       6.88483448E-09
  -14.0400000       5.36289368E-09
  -14.0299997       2.25923791E-09
  -14.0200005      -1.96792604E-09
  -14.0100002      -6.50778542E-09
  -14.0000000      -1.03359641E-08
  -13.9899998      -1.24280710E-08
  -13.9799995      -1.20063666E-08
  -13.9700003      -8.76401529E-09
  -13.9600000      -3.00880099E-09
  -13.9499998       4.31987734E-09
  -13.9399996       1.17825563E-08
  -13.9300003       1.77079222E-08
  -13.9200001       2.05517896E-08
  -13.9099998       1.92718446E-08
  -13.8999996       1.36315013E-08
  -13.8900003       4.35156533E-09
  -13.8800001      -6.94476121E-09
  -13.8699999      -1.80037816E-08
  -13.8599997      -2.63901381E-08
  -13.8500004      -3.00253227E-08
  -13.8400002      -2.76969274E-08
  -13.8299999      -1.94148377E-08
  -13.8199997      -6.51401511E-09
  -13.8100004       8.54524185E-09
  -13.8000002       2.26586199E-08
  -13.7900000       3.27505099E-08
  -13.7799997       3.64904089E-08
  -13.7700005       3.28815766E-08
  -13.7600002       2.25672512E-08
  -13.7500000       7.75509879E-09
  -13.7399998      -8.24902013E-09
  -13.7299995      -2.18106564E-08
  -13.7200003      -2.98641503E-08
  -13.7100000      -3.07159560E-08
  -13.6999998      -2.45356055E-08
  -13.6899996      -1.33810003E-08
  -13.6800003      -7.13482329E-10
  -13.6700001       9.50849888E-09
  -13.6599998       1.39454652E-08
  -13.6499996       1.09150378E-08
  -13.6400003       1.05656539E-09
  -13.6300001      -1.26019692E-08
  -13.6199999      -2.52580765E-08
  -13.6099997      -3.15373363E-08
  -13.6000004      -2.70204126E-08
  -13.5900002      -9.71413261E-09
  -13.5799999       1.89414315E-08
  -13.5699997       5.38603082E-08
  -13.5600004       8.70476242E-08
  -13.5500002       1.09211030E-07
  -13.5400000       1.11934618E-07
  -13.5299997       8.99295429E-08
  -13.5200005       4.28032649E-08
  -13.5100002      -2.41352272E-08
  -13.5000000      -1.00330787E-07
  -13.4899998      -1.71700677E-07
  -13.4799995      -2.23318622E-07
  -13.4700003      -2.42513011E-07
  -13.4600000      -2.21695515E-07
  -13.4499998      -1.60263426E-07
  -13.4399996      -6.51119336E-08
  -13.4300003       5.04019688E-08
  -13.4200001       1.68840131E-07
  -13.4099998       2.71889320E-07
  -13.3999996       3.43672639E-07
  -13.3900003       3.73426246E-07
  -13.3800001       3.56977637E-07
  -13.3699999       2.96751438E-07
  -13.3599997       2.00438180E-07
  -13.3500004       7.88074601E-08
  -13.3400002      -5.66468152E-08
  -13.3299999      -1.95490216E-07
  -13.3199997      -3.29036084E-07
  -13.3100004      -4.49771960E-07
  -13.3000002      -5.49810807E-07
  -13.2900000      -6.19073376E-07
  -13.2799997      -6.44115516E-07
  -13.2700005      -6.08518008E-07
  -13.2600002      -4.95370728E-07
  -13.2500000      -2.91851279E-07
  -13.2399998       4.85408158E-09
  -13.2299995       3.81669309E-07
  -13.2200003       8.05559807E-07
  -13.2100000       1.22304027E-06
  -13.1999998       1.56450130E-06
  -13.1899996       1.75365460E-06
  -13.1800003       1.72115278E-06
  -13.1700001       1.42023407E-06
  -13.1599998       8.41269014E-07
  -13.1499996       2.17436238E-08
  -13.1400003      -9.51341065E-07
  -13.1300001      -1.94854533E-06
  -13.1199999      -2.81459438E-06
  -13.1099997      -3.39249914E-06
  -13.1000004      -3.55140469E-06
  -13.0900002      -3.21292487E-06
  -13.0799999      -2.37072663E-06
  -13.0699997      -1.09879011E-06
  -13.0600004       4.54225699E-07
  -13.0500002       2.08435495E-06
  -13.0400000       3.56273677E-06
  -13.0299997       4.67169048E-06
  -13.0200005       5.23999097E-06
  -13.0100002       5.17074432E-06
  -13.0000000       4.45655587E-06
  -12.9899998       3.17937474E-06
  -12.9799995       1.49534083E-06
  -12.9700003      -3.91891604E-07
  -12.9600000      -2.26371321E-06
  -12.9499998      -3.91834283E-06
  -12.9399996      -5.19574269E-06
  -12.9300003      -5.99156601E-06
  -12.9200001      -6.25880557E-06
  -12.9099998      -5.99904524E-06
  -12.8999996      -5.24754932E-06
  -12.8900003      -4.05779474E-06
  -12.8800001      -2.49089521E-06
  -12.8699999      -6.13357656E-07
  -12.8599997       1.49620291E-06
  -12.8500004       3.73389503E-06
  -12.8400002       5.95641541E-06
  -12.8299999       7.97259236E-06
  -12.8199997       9.54709503E-06
  -12.8100004       1.04200526E-05
  -12.8000002       1.03430166E-05
  -12.7900000       9.12666474E-06
  -12.7799997       6.69186375E-06
  -12.7700005       3.11295958E-06
  -12.7600002      -1.35784228E-06
  -12.7500000      -6.29437500E-06
  -12.7399998      -1.11326053E-05
  -12.7299995      -1.52371103E-05
  -12.7200003      -1.79894651E-05
  -12.7100000      -1.88846279E-05
  -12.6999998      -1.76187696E-05
  -12.6899996      -1.41521150E-05
  -12.6800003      -8.73412137E-06
  -12.6700001      -1.88504032E-06
  -12.6599998       5.66514836E-06
  -12.6499996       1.30705312E-05
  -12.6400003       1.94808617E-05
  -12.6300001       2.41524685E-05
  -12.6199999       2.65412455E-05
  -12.6099997       2.63633192E-05
  -12.6000004       2.36174783E-05
  -12.5900002       1.85683002E-05
  -12.5799999       1.16984520E-05
  -12.5699997       3.64068524E-06
  -12.5600004      -4.89600598E-06
  -12.5500002      -1.31947527E-05
  -12.5400000      -2.05857377E-05
  -12.5299997      -2.64847495E-05
  -12.5200005      -3.04180667E-05
  -12.5100002      -3.20392683E-05
  -12.5000000      -3.11445656E-05
  -12.4899998      -2.76910068E-05
  -12.4799995      -2.18187924E-05
  -12.4700003      -1.38730056E-05
  -12.4600000      -4.41662360E-06
  -12.4499998       5.77529954E-06
  -12.4399996       1.57495924E-05
  -12.4300003       2.44417915E-05
  -12.4200001       3.07736009E-05
  -12.4099998       3.37718047E-05
  -12.3999996       3.26916270E-05
  -12.3900003       2.71247536E-05
  -12.3800001       1.70711792E-05
  -12.3699999       2.96037047E-06
  -12.3599997      -1.43859943E-05
  -12.3500004      -3.38458012E-05
  -12.3400002      -5.41286536E-05
  -12.3299999      -7.39264433E-05
  -12.3199997      -9.20559469E-05
  -12.3100004      -1.07570871E-04
  -12.3000002      -1.19824370E-04
  -12.2900000      -1.28477943E-04
  -12.2799997      -1.33457477E-04
  -12.2700005      -1.34877468E-04
  -12.2600002      -1.32948408E-04
  -12.2500000      -1.27897525E-04
  -12.2399998      -1.19913129E-04
  -12.2299995      -1.09130604E-04
  -12.2200003      -9.56525037E-05
  -12.2100000      -7.95961168E-05
  -12.1999998      -6.11447686E-05
  -12.1899996      -4.05899882E-05
  -12.1800003      -1.83399825E-05
  -12.1700001       5.10905420E-06
  -12.1599998       2.92379100E-05
  -12.1499996       5.35932522E-05
  -12.1400003       7.78753383E-05
  -12.1300001       1.02007420E-04
  -12.1199999       1.26158600E-04
  -12.1099997       1.50716223E-04
  -12.1000004       1.76202419E-04
  -12.0900002       2.03152609E-04
  -12.0799999       2.31978673E-04
  -12.0699997       2.62843823E-04
  -12.0600004       2.95579870E-04
  -12.0500002       3.29663482E-04
  -12.0400000       3.64258041E-04
  -12.0299997       3.98312899E-04
  -12.0200005       4.30699874E-04
  -12.0100002       4.60352137E-04
  -12.0000000       4.86381818E-04
  -11.9899998       5.08143508E-04
  -11.9799995       5.25230658E-04
  -11.9700003       5.37413929E-04
  -11.9600000       5.44527778E-04
  -11.9499998       5.46341995E-04
  -11.9399996       5.42447087E-04
  -11.9300003       5.32192294E-04
  -11.9200001       5.14685700E-04
  -11.9099998       4.88876307E-04
  -11.8999996       4.53691348E-04
  -11.8900003       4.08220716E-04
  -11.8800001       3.51895200E-04
  -11.8699999       2.84631853E-04
  -11.8599997       2.06914148E-04
  -11.8500004       1.19787139E-04
  -11.8400002       2.47718108E-05
  -11.8299999      -7.62898198E-05
  -11.8199997      -1.81420866E-04
  -11.8100004      -2.88699055E-04
  -11.8000002      -3.96410207E-04
  -11.7900000      -5.03141666E-04
  -11.7799997      -6.07811497E-04
  -11.7700005      -7.09627115E-04
  -11.7600002      -8.08006385E-04
  -11.7500000      -9.02479864E-04
  -11.7399998      -9.92604415E-04
  -11.7299995      -1.07790437E-03
  -11.7200003      -1.15785922E-03
  -11.7100000      -1.23193231E-03
  -11.6999998      -1.29961967E-03
  -11.6899996      -1.36050815E-03
  -11.6800003      -1.41431461E-03
  -11.6700001      -1.46089320E-03
  -11.6599998      -1.50020281E-03
  -11.6499996      -1.53223588E-03
  -11.6400003      -1.55693432E-03
  -11.6300001      -1.57409685E-03
  -11.6199999      -1.58331392E-03
  -11.6099997      -1.58393965E-03
  -11.6000004      -1.57510734E-03
  -11.5900002      -1.55578286E-03
  -11.5799999      -1.52486353E-03
  -11.5699997      -1.48126378E-03
  -11.5600004      -1.42401084E-03
  -11.5500002      -1.35230029E-03
  -11.5400000      -1.26552302E-03
  -11.5299997      -1.16325472E-03
  -11.5200005      -1.04522542E-03
  -11.5100002      -9.11275623E-04
  -11.5000000      -7.61329895E-04
  -11.4899998      -5.95387537E-04
  -11.4799995      -4.13555041E-04
  -11.4700003      -2.16094835E-04
  -11.4600000      -3.51058543E-06
  -11.4499998       2.23391224E-04
  -11.4399996       4.63440228E-04
  -11.4300003       7.15096830E-04
  -11.4200001       9.76487529E-04
  -11.4099998       1.24549819E-03
  -11.3999996       1.51990203E-03
  -11.3900003       1.79750589E-03
  -11.3800001       2.07630615E-03
  -11.3699999       2.35458626E-03
  -11.3599997       2.63099466E-03
  -11.3500004       2.90455110E-03
  -11.3400002       3.17459833E-03
  -11.3299999       3.44072003E-03
  -11.3199997       3.70264775E-03
  -11.3100004       3.96016706E-03
  -11.3000002       4.21306910E-03
  -11.2900000       4.46112826E-03
  -11.2799997       4.70414292E-03
  -11.2700005       4.94198548E-03
  -11.2600002       5.17467223E-03
  -11.2500000       5.40240156E-03
  -11.2399998       5.62554784E-03
  -11.2299995       5.84461121E-03
  -11.2200003       6.06009550E-03
  -11.2100000       6.27235044E-03
  -11.1999998       6.48142258E-03
  -11.1899996       6.68692077E-03
  -11.1800003       6.88795000E-03
  -11.1700001       7.08314450E-03
  -11.1599998       7.27077853E-03
  -11.1499996       7.44895870E-03
  -11.1400003       7.61586847E-03
  -11.1300001       7.76997488E-03
  -11.1199999       7.91021716E-03
  -11.1099997       8.03608727E-03
  -11.1000004       8.14760476E-03
  -11.0900002       8.24521109E-03
  -11.0799999       8.32956564E-03
  -11.0699997       8.40136502E-03
  -11.0600004       8.46114848E-03
  -11.0500002       8.50921869E-03
  -11.0400000       8.54562782E-03
  -11.0299997       8.57027713E-03
  -11.0200005       8.58309772E-03
  -11.0100002       8.58424231E-03
  -11.0000000       8.57426226E-03
  -10.9899998       8.55423044E-03
  -10.9799995       8.52574687E-03
  -10.9700003       8.49085208E-03
  -10.9600000       8.45183805E-03
  -10.9499998       8.41103494E-03
  -10.9399996       8.37054476E-03
  -10.9300003       8.33204668E-03
  -10.9200001       8.29665363E-03
  -10.9099998       8.26487038E-03
  -10.8999996       8.23662151E-03
  -10.8900003       8.21137242E-03
  -10.8800001       8.18827655E-03
  -10.8699999       8.16633366E-03
  -10.8599997       8.14452488E-03
  -10.8500004       8.12190399E-03
  -10.8400002       8.09763558E-03
  -10.8299999       8.07095598E-03
  -10.8199997       8.04113969E-03
  -10.8100004       8.00738111E-03
  -10.8000002       7.96871074E-03
  -10.7900000       7.92392902E-03
  -10.7799997       7.87156913E-03
  -10.7700005       7.80991837E-03
  -10.7600002       7.73709407E-03
  -10.7500000       7.65114184E-03
  -10.7399998       7.55021395E-03
  -10.7299995       7.43271131E-03
  -10.7200003       7.29744276E-03
  -10.7100000       7.14373682E-03
  -10.6999998       6.97153062E-03
  -10.6899996       6.78136246E-03
  -10.6800003       6.57438720E-03
  -10.6700001       6.35226443E-03
  -10.6599998       6.11708267E-03
  -10.6499996       5.87125355E-03
  -10.6400003       5.61738526E-03
  -10.6300001       5.35816606E-03
  -10.6199999       5.09627303E-03
  -10.6099997       4.83424729E-03
  -10.6000004       4.57442366E-03
  -10.5900002       4.31882823E-03
  -10.5799999       4.06912062E-03
  -10.5699997       3.82654532E-03
  -10.5600004       3.59192211E-03
  -10.5500002       3.36566870E-03
  -10.5400000       3.14784236E-03
  -10.5299997       2.93821096E-03
  -10.5200005       2.73633027E-03
  -10.5100002       2.54162843E-03
  -10.5000000       2.35347380E-03
  -10.4899998       2.17125332E-03
  -10.4799995       1.99442916E-03
  -10.4700003       1.82256533E-03
  -10.4600000       1.65540096E-03
  -10.4499998       1.49285048E-03
  -10.4399996       1.33500679E-03
  -10.4300003       1.18209678E-03
  -10.4200001       1.03439996E-03
  -10.4099998       8.92133568E-04
  -10.3999996       7.55314017E-04
  -10.3900003       6.23647647E-04
  -10.3800001       4.96470020E-04
  -10.3699999       3.72740760E-04
  -10.3599997       2.51182471E-04
  -10.3500004       1.30463362E-04
  -10.3400002       9.44442218E-06
  -10.3299999      -1.12604117E-04
  -10.3199997      -2.35843298E-04
  -10.3100004      -3.59829195E-04
  -10.3000002      -4.83643613E-04
  -10.2900000      -6.06107700E-04
  -10.2799997      -7.26123108E-04
  -10.2700005      -8.42971553E-04
  -10.2600002      -9.56569391E-04
  -10.2500000      -1.06758473E-03
  -10.2399998      -1.17738778E-03
  -10.2299995      -1.28788513E-03
  -10.2200003      -1.40119286E-03
  -10.2100000      -1.51935196E-03
  -10.1999998      -1.64399389E-03
  -10.1899996      -1.77616219E-03
  -10.1800003      -1.91611273E-03
  -10.1700001      -2.06332677E-03
  -10.1599998      -2.21644877E-03
  -10.1499996      -2.37339619E-03
  -10.1400003      -2.53135664E-03
  -10.1300001      -2.68686656E-03
  -10.1199999      -2.83598294E-03
  -10.1099997      -2.97441543E-03
  -10.1000004      -3.09783081E-03
  -10.0900002      -3.20217642E-03
  -10.0799999      -3.28413164E-03
  -10.0699997      -3.34138959E-03
  -10.0600004      -3.37300962E-03
  -10.0500002      -3.37947020E-03
  -10.0400000      -3.36256414E-03
  -10.0299997      -3.32511915E-03
  -10.0200005      -3.27057485E-03
  -10.0100002      -3.20243998E-03
  -10.0000000      -3.12387152E-03
  -9.98999977      -3.03732534E-03
  -9.97999954      -2.94437027E-03
  -9.97000027      -2.84571736E-03
  -9.96000004      -2.74130888E-03
  -9.94999981      -2.63058604E-03
  -9.93999958      -2.51266290E-03
  -9.93000031      -2.38651875E-03
  -9.92000008      -2.25108420E-03
  -9.90999985      -2.10529217E-03
  -9.89999962      -1.94797234E-03
  -9.89000034      -1.77785510E-03
  -9.88000011      -1.59352587E-03
  -9.86999989      -1.39337999E-03
  -9.85999966      -1.17564423E-03
  -9.85000038      -9.38434619E-04
  -9.84000015      -6.79707620E-04
  -9.82999992      -3.97332886E-04
  -9.81999969      -8.91059171E-05
  -9.81000042       2.47297867E-04
  -9.80000019       6.14187447E-04
  -9.78999996       1.01377547E-03
  -9.77999973       1.44799461E-03
  -9.77000046       1.91824930E-03
  -9.76000023       2.42527947E-03
  -9.75000000       2.96884403E-03
  -9.73999977       3.54775274E-03
  -9.72999954       4.15982073E-03
  -9.72000027       4.80197836E-03
  -9.71000004       5.47050871E-03
  -9.69999981       6.16124598E-03
  -9.68999958       6.86978595E-03
  -9.68000031       7.59159727E-03
  -9.67000008       8.32208060E-03
  -9.65999985       9.05654673E-03
  -9.64999962       9.79018398E-03
  -9.64000034       1.05180759E-02
  -9.63000011       1.12353144E-02
  -9.61999989       1.19371936E-02
  -9.60999966       1.26195047E-02
  -9.60000038       1.32788848E-02
  -9.59000015       1.39130177E-02
  -9.57999992       1.45207662E-02
  -9.56999969       1.51020484E-02
  -9.56000042       1.56575087E-02
  -9.55000019       1.61880050E-02
  -9.53999996       1.66941099E-02
  -9.52999973       1.71755981E-02
  -9.52000046       1.76312719E-02
  -9.51000023       1.80589203E-02
  -9.50000000       1.84557121E-02
  -9.48999977       1.88187342E-02
  -9.47999954       1.91455670E-02
  -9.47000027       1.94348246E-02
  -9.46000004       1.96864642E-02
  -9.44999981       1.99017357E-02
  -9.43999958       2.00828686E-02
  -9.43000031       2.02325210E-02
  -9.42000008       2.03532111E-02
  -9.40999985       2.04468202E-02
  -9.39999962       2.05144305E-02
  -9.39000034       2.05563270E-02
  -9.38000011       2.05723606E-02
  -9.36999989       2.05624141E-02
  -9.35999966       2.05267556E-02
  -9.35000038       2.04663482E-02
  -9.34000015       2.03827694E-02
  -9.32999992       2.02780012E-02
  -9.31999969       2.01540291E-02
  -9.31000042       2.00123936E-02
  -9.30000019       1.98540352E-02
  -9.28999996       1.96791459E-02
  -9.27999973       1.94875635E-02
  -9.27000046       1.92790926E-02
  -9.26000023       1.90538764E-02
  -9.25000000       1.88126992E-02
  -9.23999977       1.85570121E-02
  -9.22999954       1.82885509E-02
  -9.22000027       1.80090219E-02
  -9.21000004       1.77195277E-02
  -9.19999981       1.74203143E-02
  -9.18999958       1.71106886E-02
  -9.18000031       1.67892501E-02
  -9.17000008       1.64544508E-02
  -9.15999985       1.61051173E-02
  -9.14999962       1.57409441E-02
  -9.14000034       1.53626483E-02
  -9.13000011       1.49719007E-02
  -9.11999989       1.45708863E-02
  -9.10999966       1.41618736E-02
  -9.10000038       1.37467235E-02
  -9.09000015       1.33267455E-02
  -9.07999992       1.29028214E-02
  -9.06999969       1.24758109E-02
  -9.06000042       1.20470524E-02
  -9.05000019       1.16188414E-02
  -9.03999996       1.11945802E-02
  -9.02999973       1.07786814E-02
  -9.02000046       1.03760399E-02
  -9.01000023       9.99144372E-03
  -9.00000000       9.62895527E-03
  -8.98999977       9.29154921E-03
  -8.97999954       8.98099132E-03
  -8.97000027       8.69819522E-03
  -8.96000004       8.44362471E-03
  -8.94999981       8.21775291E-03
  -8.93999958       8.02137516E-03
  -8.93000031       7.85565469E-03
  -8.92000008       7.72181945E-03
  -8.90999985       7.62085104E-03
  -8.89999962       7.55299674E-03
  -8.89000034       7.51778064E-03
  -8.88000011       7.51398597E-03
  -8.86999989       7.54024182E-03
  -8.85999966       7.59552186E-03
  -8.85000038       7.67966732E-03
  -8.84000015       7.79366586E-03
  -8.82999992       7.93953892E-03
  -8.81999969       8.11994728E-03
  -8.81000042       8.33747350E-03
  -8.80000019       8.59421398E-03
  -8.78999996       8.89118388E-03
  -8.77999973       9.22846515E-03
  -8.77000046       9.60544217E-03
  -8.76000023       1.00213792E-02
  -8.75000000       1.04760025E-02
  -8.73999977       1.09699247E-02
  -8.72999954       1.15046296E-02
  -8.72000027       1.20823896E-02
  -8.71000004       1.27057768E-02
  -8.69999981       1.33772949E-02
  -8.68999958       1.40991583E-02
  -8.68000031       1.48733165E-02
  -8.67000008       1.57017484E-02
  -8.65999985       1.65868681E-02
  -8.64999962       1.75318252E-02
  -8.64000034       1.85405407E-02
  -8.63000011       1.96174905E-02
  -8.61999989       2.07669958E-02
  -8.60999966       2.19926760E-02
  -8.60000038       2.32968070E-02
  -8.59000015       2.46801525E-02
  -8.57999992       2.61419918E-02
  -8.56999969       2.76806336E-02
  -8.56000042       2.92941779E-02
  -8.55000019       3.09807323E-02
  -8.53999996       3.27387750E-02
  -8.52999973       3.45667899E-02
  -8.52000046       3.64627652E-02
  -8.51000023       3.84232961E-02
  -8.50000000       4.04431485E-02
  -8.48999977       4.25151736E-02
  -8.47999954       4.46303971E-02
  -8.47000027       4.67792451E-02
  -8.46000004       4.89522628E-02
  -8.44999981       5.11411652E-02
  -8.43999958       5.33391722E-02
  -8.43000031       5.55409603E-02
  -8.42000008       5.77418245E-02
  -8.40999985       5.99368140E-02
  -8.39999962       6.21197335E-02
  -8.39000034       6.42824173E-02
  -8.38000011       6.64148480E-02
  -8.36999989       6.85059950E-02
  -8.35999966       7.05446526E-02
  -8.35000038       7.25206286E-02
  -8.34000015       7.44256824E-02
  -8.32999992       7.62535557E-02
  -8.31999969       7.79999793E-02
  -8.31000042       7.96616971E-02
  -8.30000019       8.12352747E-02
  -8.28999996       8.27168003E-02
  -8.27999973       8.41010660E-02
  -8.27000046       8.53820890E-02
  -8.26000023       8.65536258E-02
  -8.25000000       8.76101404E-02
  -8.23999977       8.85475129E-02
  -8.22999954       8.93634334E-02
  -8.22000027       9.00572836E-02
  -8.21000004       9.06295031E-02
  -8.19999981       9.10809338E-02
  -8.18999958       9.14119035E-02
  -8.18000031       9.16218758E-02
  -8.17000008       9.17093232E-02
  -8.15999985       9.16721597E-02
  -8.14999962       9.15082619E-02
  -8.14000034       9.12159607E-02
  -8.13000011       9.07944813E-02
  -8.11999989       9.02438685E-02
  -8.10999966       8.95649940E-02
  -8.10000038       8.87587741E-02
  -8.09000015       8.78261477E-02
  -8.07999992       8.67677331E-02
  -8.06999969       8.55840892E-02
  -8.06000042       8.42760950E-02
  -8.05000019       8.28455165E-02
  -8.03999996       8.12952369E-02
  -8.02999973       7.96300471E-02
  -8.02000046       7.78563023E-02
  -8.01000023       7.59816691E-02
  -8.00000000       7.40150437E-02
  -7.98999977       7.19658062E-02
  -7.98000002       6.98435307E-02
  -7.96999979       6.76579177E-02
  -7.96000004       6.54184446E-02
  -7.94999981       6.31351247E-02
  -7.94000006       6.08175285E-02
  -7.92999983       5.84757924E-02
  -7.92000008       5.61199151E-02
  -7.90999985       5.37598357E-02
  -7.90000010       5.14053628E-02
  -7.88999987       4.90659922E-02
  -7.88000011       4.67508025E-02
  -7.86999989       4.44684699E-02
  -7.86000013       4.22272943E-02
  -7.84999990       4.00349908E-02
  -7.84000015       3.78991738E-02
  -7.82999992       3.58267874E-02
  -7.82000017       3.38241905E-02
  -7.80999994       3.18975821E-02
  -7.80000019       3.00525744E-02
  -7.78999996       2.82950867E-02
  -7.78000021       2.66310815E-02
  -7.76999998       2.50666495E-02
  -7.76000023       2.36082692E-02
  -7.75000000       2.22617686E-02
  -7.73999977       2.10323967E-02
  -7.73000002       1.99237466E-02
  -7.71999979       1.89375356E-02
  -7.71000004       1.80732068E-02
  -7.69999981       1.73285268E-02
  -7.69000006       1.66998953E-02
  -7.67999983       1.61835328E-02
  -7.67000008       1.57759599E-02
  -7.65999985       1.54749546E-02
  -7.65000010       1.52793005E-02
  -7.63999987       1.51890023E-02
  -7.63000011       1.52043803E-02
  -7.61999989       1.53256580E-02
  -7.61000013       1.55521128E-02
  -7.59999990       1.58822220E-02
  -7.59000015       1.63134262E-02
  -7.57999992       1.68432016E-02
  -7.57000017       1.74691919E-02
  -7.55999994       1.81899127E-02
  -7.55000019       1.90054886E-02
  -7.53999996       1.99167542E-02
  -7.53000021       2.09253095E-02
  -7.51999998       2.20323484E-02
  -7.51000023       2.32386086E-02
  -7.50000000       2.45434102E-02
  -7.48999977       2.59450898E-02
  -7.48000002       2.74406634E-02
  -7.46999979       2.90269516E-02
  -7.46000004       3.07009127E-02
  -7.44999981       3.24603915E-02
  -7.44000006       3.43035422E-02