  -16.0000000       0.00000000    
  -15.9899998       0.00000000    
  -15.9799995       0.00000000    
  -15.9700003       0.00000000    
  -15.9600000       0.00000000    
  -15.9499998       0.00000000    
  -15.9399996       0.00000000    
  -15.9300003       0.00000000    
  -15.9200001       0.00000000    
  -15.9099998       0.00000000    
  -15.8999996       0.00000000    
  -15.8900003       0.00000000    
  -15.8800001       0.00000000    
  -15.8699999       0.00000000    
  -15.8599997      -0.00000000    
  -15.8500004      -5.60519386E-45
  -15.8400002      -5.32493416E-44
  -15.8299999      -3.58732407E-43
  -15.8199997      -1.77684645E-42
  -15.8100004      -6.37310542E-42
  -15.8000002      -1.32086393E-41
  -15.7900000       1.85181592E-41
  -15.7799997       3.49073257E-40
  -15.7700005       2.12261264E-39
  -15.7600002       9.39053401E-39
  -15.7500000       3.43453938E-38
  -15.7399998       1.08945373E-37
  -15.7299995       3.06966222E-37
  -15.7200003       7.78699628E-37
  -15.7100000       1.79204361E-36
  -15.6999998       3.75369196E-36
  -15.6899996       7.14977650E-36
  -15.6800003       1.23022730E-35
  -15.6700001       1.88074547E-35
  -15.6599998       2.45505267E-35
  -15.6499996       2.43427345E-35
  -15.6400003       8.57821666E-36
  -15.6300001      -3.71000309E-35
  -15.6199999      -1.29360582E-34
  -15.6099997      -2.79522271E-34
  -15.6000004      -4.78276647E-34
  -15.5900002      -6.72318025E-34
  -15.5799999      -7.37672572E-34
  -15.5699997      -4.64250290E-34
  -15.5600004       4.20631598E-34
  -15.5500002       2.15104060E-33
  -15.5400000       4.70901751E-33
  -15.5299997       7.50309081E-33
  -15.5200005       9.03347131E-33
  -15.5100002       6.77835960E-33
  -15.5000000      -2.32497354E-33
  -15.4899998      -2.04068156E-32
  -15.4799995      -4.60602738E-32
  -15.4700003      -7.11493817E-32
  -15.4600000      -7.86532439E-32
  -15.4499998      -4.42704221E-32
  -15.4399996       5.51750541E-32
  -15.4300003       2.25027728E-31
  -15.4200001       4.30507832E-31
  -15.4099998       5.78101351E-31
  -15.3999996       5.16529427E-31
  -15.3900003       7.54662495E-32
  -15.3800001      -8.47213385E-31
  -15.3699999      -2.15938782E-30
  -15.3599997      -3.45109117E-30
  -15.3500004      -3.94681388E-30
  -15.3400002      -2.62232947E-30
  -15.3299999       1.44631490E-30
  -15.3199997       8.50226676E-30
  -15.3100004       1.74057333E-29
  -15.3000002       2.50454084E-29
  -15.2900000       2.62043443E-29
  -15.2799997       1.42760294E-29
  -15.2700005      -1.67914880E-29
  -15.2600002      -6.90679224E-29
  -15.2500000      -1.35793240E-28
  -15.2399998      -1.95876837E-28
  -15.2299995      -2.09829779E-28
  -15.2200003      -1.21197291E-28
  -15.2100000       1.30382737E-28
  -15.1999998       5.77908839E-28
  -15.1899996       1.17492897E-27
  -15.1800003       1.73155181E-27
  -15.1700001       1.86751842E-27
  -15.1599998       1.03520131E-27
  -15.1499996      -1.32027544E-27
  -15.1400003      -5.41393352E-27
  -15.1300001      -1.06095875E-26
  -15.1199999      -1.49043081E-26
  -15.1099997      -1.47441277E-26
  -15.1000004      -5.63863947E-27
  -15.0900002       1.60019048E-26
  -15.0799999       4.97506408E-26
  -15.0699997       8.74750971E-26
  -15.0600004       1.10820277E-25
  -15.0500002       9.25202755E-26
  -15.0400000       4.28536207E-27
  -15.0299997      -1.67505800E-25
  -15.0200005      -4.00687204E-25
  -15.0100002      -6.18441410E-25
  -15.0000000      -6.85631208E-25
  -14.9899998      -4.35324016E-25
  -14.9799995       2.64463967E-25
  -14.9700003       1.40854487E-24
  -14.9600000       2.74543928E-24
  -14.9499998       3.71639275E-24
  -14.9399996       3.51371900E-24
  -14.9300003       1.31884133E-24
  -14.9200001      -3.27166946E-24
  -14.9099998      -9.71881368E-24
  -14.8999996      -1.61170894E-23
  -14.8900003      -1.91715888E-23
  -14.8800001      -1.48766450E-23
  -14.8699999      -4.34211137E-26
  -14.8599997       2.55112458E-23
  -14.8500004       5.67691444E-23
  -14.8400002       8.24090991E-23
  -14.8299999       8.60860177E-23
  -14.8199997       5.10390513E-23
  -14.8100004      -3.20520276E-23
  -14.8000002      -1.55689336E-22
  -14.7900000      -2.88222890E-22
  -14.7799997      -3.73373799E-22
  -14.7700005      -3.41122767E-22
  -14.7600002      -1.31823466E-22
  -14.7500000       2.69721666E-22
  -14.7399998       8.00105089E-22
  -14.7299995       1.29882543E-21
  -14.7200003       1.52316303E-21
  -14.7100000       1.20900959E-21
  -14.6999998       1.76490929E-22
  -14.6899996      -1.54166958E-21
  -14.6800003      -3.59356258E-21
  -14.6700001      -5.28253816E-21
  -14.6599998      -5.67824715E-21
  -14.6499996      -3.88964639E-21
  -14.6400003       5.31878648E-22
  -14.6300001       7.16416443E-21
  -14.6199999       1.44306763E-20
  -14.6099997       1.96567533E-20
  -14.6000004       1.96150809E-20
  -14.5900002       1.15782474E-20
  -14.5799999      -5.30729017E-21
  -14.5699997      -2.87355436E-20
  -14.5600004      -5.26141573E-20
  -14.5500002      -6.76682920E-20
  -14.5400000      -6.36140859E-20
  -14.5299997      -3.27627338E-20
  -14.5200005       2.57226481E-20
  -14.5100002       1.02308664E-19
  -14.5000000       1.76032862E-19
  -14.4899998       2.17416514E-19
  -14.4799995       1.95965485E-19
  -14.4700003       9.13565087E-20
  -14.4600000      -9.44031442E-20
  -14.4499998      -3.28070119E-19
  -14.4399996      -5.44252273E-19
  -14.4300003      -6.56141427E-19
  -14.4200001      -5.78633725E-19
  -14.4099998      -2.60239293E-19
  -14.3999996       2.84506135E-19
  -14.3900003       9.53821654E-19
  -14.3800001       1.56073482E-18
  -14.3699999       1.86656862E-18
  -14.3599997       1.64568172E-18
  -14.3500004       7.69954035E-19
  -14.3400002      -7.09740042E-19
  -14.3299999      -2.51492395E-18
  -14.3199997      -4.15256910E-18
  -14.3100004      -5.00698960E-18
  -14.3000002      -4.50617309E-18
  -14.2900000      -2.33082126E-18
  -14.2799997       1.39089231E-18
  -14.2700005       5.97376438E-18
  -14.2600002       1.02160487E-17
  -14.2500000       1.26248912E-17
  -14.2399998       1.18104947E-17
  -14.2299995       6.97144181E-18
  -14.2200003      -1.66017662E-18
  -14.2100000      -1.25713958E-17
  -14.1999998      -2.30580748E-17
  -14.1899996      -2.97219130E-17
  -14.1800003      -2.93333697E-17
  -14.1700001      -1.98902775E-17
  -14.1599998      -1.59238348E-18
  -14.1499996       2.25971797E-17
  -14.1400003       4.70903335E-17
  -14.1300001       6.46553748E-17
  -14.1199999       6.81594310E-17
  -14.1099997       5.27347857E-17
  -14.1000004       1.78179469E-17
  -14.0900002      -3.15849686E-17
  -14.0799999      -8.49733063E-17
  -14.0699997      -1.28065148E-16
  -14.0600004      -1.46025145E-16
  -14.0500002      -1.27606731E-16
  -14.0400000      -6.92066350E-17
  -14.0299997       2.23630926E-17
  -14.0200005       1.29461058E-16
  -14.0100002       2.26180217E-16
  -14.0000000       2.83780998E-16
  -13.9899998       2.78047379E-16
  -13.9799995       1.96887581E-16
  -13.9700003       4.61098201E-17
  -13.9600000      -1.48576474E-16
  -13.9499998      -3.44598970E-16
  -13.9399996      -4.90702174E-16
  -13.9300003      -5.38979558E-16
  -13.9200001      -4.58196385E-16
  -13.9099998      -2.45049226E-16
  -13.8999996       6.99971749E-17
  -13.8900003       4.24762565E-16
  -13.8800001       7.36058449E-16
  -13.8699999       9.17646484E-16
  -13.8599997       9.01911577E-16
  -13.8500004       6.60193520E-16
  -13.8400002       2.16297698E-16
  -13.8299999      -3.51353396E-16
  -13.8199997      -9.21193117E-16
  -13.8100004      -1.35269626E-15
  -13.8000002      -1.51896026E-15
  -13.7900000      -1.34058930E-15
  -13.7799997      -8.12439328E-16
  -13.7700005      -1.54070165E-17
  -13.7600002       8.91837179E-16
  -13.7500000       1.70186506E-15
  -13.7399998       2.20377665E-15
  -13.7299995       2.23548258E-15
  -13.7200003       1.73067815E-15
  -13.7100000       7.47861589E-16
  -13.6999998      -5.28385611E-16
  -13.6899996      -1.81785362E-15
  -13.6800003      -2.80332415E-15
  -13.6700001      -3.20605465E-15
  -13.6599998      -2.86098867E-15
  -13.6499996      -1.77237907E-15
  -13.6400003      -1.32998996E-16
  -13.6300001       1.70263300E-15
  -13.6199999       3.28990710E-15
  -13.6099997       4.19769962E-15
  -13.6000004       4.12098935E-15
  -13.5900002       2.97433057E-15
  -13.5799999       9.39470394E-16
  -13.5699997      -1.55087582E-15
  -13.5600004      -3.89654468E-15
  -13.5500002      -5.46695308E-15
  -13.5400000      -5.76209536E-15
  -13.5299997      -4.55813416E-15
  -13.5200005      -1.99769142E-15
  -13.5100002       1.40519473E-15
  -13.5000000       4.85642275E-15
  -13.4899998       7.45647847E-15
  -13.4799995       8.42204267E-15
  -13.4700003       7.30202286E-15
  -13.4600000       4.13131765E-15
  -13.4499998      -5.24070349E-16
  -13.4399996      -5.65356842E-15
  -13.4300003      -1.00113441E-14
  -13.4200001      -1.24070989E-14
  -13.4099998      -1.20121495E-14
  -13.3999996      -8.60453761E-15
  -13.3900003      -2.68549085E-15
  -13.3800001       4.57369882E-15
  -13.3699999       1.15561738E-14
  -13.3599997       1.65542052E-14
  -13.3500004       1.81771576E-14
  -13.3400002       1.57163880E-14
  -13.3299999       9.37423984E-15
  -13.3199997       2.90671347E-16
  -13.3100004      -9.65386998E-15
  -13.3000002      -1.82279864E-14
  -13.2900000      -2.33508857E-14
  -13.2799997      -2.35932303E-14
  -13.2700005      -1.85574992E-14
  -13.2600002      -9.03944922E-15
  -13.2500000       3.08162889E-15
  -13.2399998       1.52144177E-14
  -13.2299995       2.46167561E-14
  -13.2200003       2.90248003E-14
  -13.2100000       2.72053193E-14
  -13.1999998       1.92958730E-14
  -13.1899996       6.84023913E-15
  -13.1800003      -7.50636278E-15
  -13.1700001      -2.05504864E-14
  -13.1599998      -2.92903620E-14
  -13.1499996      -3.16357692E-14
  -13.1400003      -2.69433473E-14
  -13.1300001      -1.62267982E-14
  -13.1199999      -1.97191239E-15
  -13.1099997       1.24208979E-14
  -13.1000004       2.34502850E-14
  -13.0900002       2.83955954E-14
  -13.0799999       2.60480554E-14
  -13.0699997       1.70951849E-14
  -13.0600004       4.03567704E-15
  -13.0500002      -9.38756875E-15
  -13.0400000      -1.91255008E-14
  -13.0299997      -2.19168979E-14
  -13.0200005      -1.62645166E-14
  -13.0100002      -3.02654655E-15
  -13.0000000       1.45668135E-14
  -12.9899998       3.15302594E-14
  -12.9799995       4.22736560E-14
  -12.9700003       4.20392243E-14
  -12.9600000       2.82833466E-14
  -12.9499998       1.64434665E-15
  -12.9399996      -3.37885170E-14
  -12.9300003      -7.10383900E-14
  -12.9200001      -1.01572329E-13
  -12.9099998      -1.17141580E-13
  -12.8999996      -1.11726329E-13
  -12.8900003      -8.31262956E-14
  -12.8800001      -3.37947681E-14
  -12.8699999       2.93276857E-14
  -12.8599997       9.59975643E-14
  -12.8500004       1.54644513E-13
  -12.8400002       1.94715080E-13
  -12.8299999       2.08854364E-13
  -12.8199997       1.94417358E-13
  -12.8100004       1.53946192E-13
  -12.8000002       9.44887614E-14
  -12.7900000       2.59106447E-14
  -12.7799997      -4.14006835E-14
  -12.7700005      -9.88818809E-14
  -12.7600002      -1.41611386E-13
  -12.7500000      -1.69137382E-13
  -12.7399998      -1.85095076E-13
  -12.7299995      -1.95691743E-13
  -12.7200003      -2.07431565E-13
  -12.7100000      -2.24660243E-13
  -12.6999998      -2.47580981E-13
  -12.6899996      -2.71303027E-13
  -12.6800003      -2.86249214E-13
  -12.6700001      -2.79918937E-13
  -12.6599998      -2.39664977E-13
  -12.6499996      -1.55868740E-13
  -12.6400003      -2.47716225E-14
  -12.6300001       1.49727480E-13
  -12.6199999       3.55772595E-13
  -12.6099997       5.74862315E-13
  -12.6000004       7.84494269E-13
  -12.5900002       9.61533912E-13
  -12.5799999       1.08551904E-12
  -12.5699997       1.14112485E-12
  -12.5600004       1.11924272E-12
  -12.5500002       1.01650719E-12
  -12.5400000       8.33550189E-13
  -12.5299997       5.72648157E-13
  -12.5200005       2.35664217E-13
  -12.5100002      -1.76826856E-13
  -12.5000000      -6.64592892E-13
  -12.4899998      -1.22479967E-12
  -12.4799995      -1.84744754E-12
  -12.4700003      -2.51008459E-12
  -12.4600000      -3.17304646E-12
  -12.4499998      -3.77655112E-12
  -12.4399996      -4.24075618E-12
  -12.4300003      -4.46939491E-12
  -12.4200001      -4.35695403E-12
  -12.4099998      -3.79865887E-12
  -12.3999996      -2.70197363E-12
  -12.3900003      -9.98009943E-13
  -12.3800001       1.34878935E-12
  -12.3699999       4.33402142E-12
  -12.3599997       7.91055936E-12
  -12.3500004       1.19898353E-11
  -12.3400002       1.64467589E-11
  -12.3299999       2.11273707E-11
  -12.3199997       2.58580969E-11
  -12.3100004       3.04555062E-11
  -12.3000002       3.47355894E-11
  -12.2900000       3.85220432E-11
  -12.2799997       4.16531983E-11
  -12.2700005       4.39876295E-11
  -12.2600002       4.54085797E-11
  -12.2500000       4.58273072E-11
  -12.2399998       4.51853277E-11
  -12.2299995       4.34556037E-11
  -12.2200003       4.06420453E-11
  -12.2100000       3.67772965E-11
  -12.1999998       3.19185095E-11
  -12.1899996       2.61412871E-11
  -12.1800003       1.95320253E-11
  -12.1700001       1.21797563E-11
  -12.1599998       4.16831717E-12
  -12.1499996      -4.42967754E-12
  -12.1400003      -1.35561215E-11
  -12.1300001      -2.31672841E-11
  -12.1199999      -3.32298841E-11
  -12.1099997      -4.37140289E-11
  -12.1000004      -5.45840595E-11
  -12.0900002      -6.57887703E-11
  -12.0799999      -7.72529124E-11
  -12.0699997      -8.88712992E-11
  -12.0600004      -1.00506763E-10
  -12.0500002      -1.11992110E-10
  -12.0400000      -1.23136043E-10
  -12.0299997      -1.33731665E-10
  -12.0200005      -1.43566131E-10
  -12.0100002      -1.52430110E-10
  -12.0000000      -1.60125191E-10
  -11.9899998      -1.66469200E-10
  -11.9799995      -1.71298767E-10
  -11.9700003      -1.74469980E-10
  -11.9600000      -1.75858397E-10
  -11.9499998      -1.75359269E-10
  -11.9399996      -1.72889203E-10
  -11.9300003      -1.68389261E-10
  -11.9200001      -1.61829744E-10
  -11.9099998      -1.53214261E-10
  -11.8999996      -1.42582973E-10
  -11.8900003      -1.30011654E-10
  -11.8800001      -1.15607114E-10
  -11.8699999      -9.94964111E-11
  -11.8599997      -8.18130771E-11
  -11.8500004      -6.26803331E-11
  -11.8400002      -4.21956116E-11
  -11.8299999      -2.04185488E-11
  -11.8199997       2.63296915E-12
  -11.8100004       2.69786415E-11
  -11.8000002       5.26615383E-11
  -11.7900000       7.97265171E-11
  -11.7799997       1.08193191E-10
  -11.7700005       1.38028977E-10
  -11.7600002       1.69126546E-10
  -11.7500000       2.01290012E-10
  -11.7399998       2.34231995E-10
  -11.7299995       2.67583206E-10
  -11.7200003       3.00911934E-10
  -11.7100000       3.33751055E-10
  -11.6999998       3.65626640E-10
  -11.6899996       3.96085081E-10
  -11.6800003       4.24712210E-10
  -11.6700001       4.51145177E-10
  -11.6599998       4.75073536E-10
  -11.6499996       4.96233721E-10
  -11.6400003       5.14398413E-10
  -11.6300001       5.29364996E-10
  -11.6199999       5.40945566E-10
  -11.6099997       5.48962265E-10
  -11.6000004       5.53245783E-10
  -11.5900002       5.53638690E-10
  -11.5799999       5.49999990E-10
  -11.5699997       5.42208223E-10
  -11.5600004       5.30161748E-10
  -11.5500002       5.13776355E-10
  -11.5400000       4.92978269E-10
  -11.5299997       4.67695938E-10
  -11.5200005       4.37853837E-10
  -11.5100002       4.03369116E-10
  -11.5000000       3.64154124E-10
  -11.4899998       3.20125426E-10
  -11.4799995       2.71218686E-10
  -11.4700003       2.17405732E-10
  -11.4600000       1.58711377E-10
  -11.4499998       9.52285265E-11
  -11.4399996       2.71226808E-11
  -11.4300003      -4.53659089E-11
  -11.4200001      -1.21933755E-10
  -11.4099998      -2.02228692E-10
  -11.3999996      -2.85869273E-10
  -11.3900003      -3.72466114E-10
  -11.3800001      -4.61640420E-10
  -11.3699999      -5.53037172E-10
  -11.3599997      -6.46335485E-10
  -11.3500004      -7.41251338E-10
  -11.3400002      -8.37537428E-10
  -11.3299999      -9.34978539E-10
  -11.3199997      -1.03338571E-09
  -11.3100004      -1.13259002E-09
  -11.3000002      -1.23243626E-09
  -11.2900000      -1.33277500E-09
  -11.2799997      -1.43345602E-09
  -11.2700005      -1.53431934E-09
  -11.2600002      -1.63518565E-09
  -11.2500000      -1.73584791E-09
  -11.2399998      -1.83606264E-09
  -11.2299995      -1.93554461E-09
  -11.2200003      -2.03396722E-09
  -11.2100000      -2.13096629E-09
  -11.1999998      -2.22615237E-09
  -11.1899996      -2.31912733E-09
  -11.1800003      -2.40950238E-09
  -11.1700001      -2.49692045E-09
  -11.1599998      -2.58107113E-09
  -11.1499996      -2.66170352E-09
  -11.1400003      -2.73863376E-09
  -11.1300001      -2.81174195E-09
  -11.1199999      -2.88096680E-09
  -11.1099997      -2.94629787E-09
  -11.1000004      -3.00775960E-09
  -11.0900002      -3.06541126E-09
  -11.0799999      -3.11933479E-09
  -11.0699997      -3.16963655E-09
  -11.0600004      -3.21645111E-09
  -11.0500002      -3.25995098E-09
  -11.0400000      -3.30034888E-09
  -11.0299997      -3.33791239E-09
  -11.0200005      -3.37296657E-09
  -11.0100002      -3.40589601E-09
  -11.0000000      -3.43714102E-09
  -10.9899998      -3.46718987E-09
  -10.9799995      -3.49656504E-09
  -10.9700003      -3.52579810E-09
  -10.9600000      -3.55541019E-09
  -10.9499998      -3.58588736E-09
  -10.9399996      -3.61764374E-09
  -10.9300003      -3.65101327E-09
  -10.9200001      -3.68622000E-09
  -10.9099998      -3.72337672E-09
  -10.8999996      -3.76249432E-09
  -10.8900003      -3.80348686E-09
  -10.8800001      -3.84618781E-09
  -10.8699999      -3.89038535E-09
  -10.8599997      -3.93583743E-09
  -10.8500004      -3.98230604E-09
  -10.8400002      -4.02955758E-09
  -10.8299999      -4.07737044E-09
  -10.8199997      -4.12553813E-09
  -10.8100004      -4.17388213E-09
  -10.8000002      -4.22223234E-09
  -10.7900000      -4.27045110E-09
  -10.7799997      -4.31842118E-09
  -10.7700005      -4.36609282E-09
  -10.7600002      -4.41347492E-09
  -10.7500000      -4.46069759E-09
  -10.7399998      -4.50798421E-09
  -10.7299995      -4.55567806E-09
  -10.7200003      -4.60422100E-09
  -10.7100000      -4.65410910E-09
  -10.6999998      -4.70586681E-09
  -10.6899996      -4.75995776E-09
  -10.6800003      -4.81675544E-09
  -10.6700001      -4.87647478E-09
  -10.6599998      -4.93916996E-09
  -10.6499996      -5.00471398E-09
  -10.6400003      -5.07282438E-09
  -10.6300001      -5.14311571E-09
  -10.6199999      -5.21518384E-09
  -10.6099997      -5.28863309E-09
  -10.6000004      -5.36314948E-09
  -10.5900002      -5.43854561E-09
  -10.5799999      -5.51475221E-09
  -10.5699997      -5.59179503E-09
  -10.5600004      -5.66978064E-09
  -10.5500002      -5.74882497E-09
  -10.5400000      -5.82899595E-09
  -10.5299997      -5.91028382E-09
  -10.5200005      -5.99255623E-09
  -10.5100002      -6.07558581E-09
  -10.5000000      -6.15905815E-09
  -10.4899998      -6.24262375E-09
  -10.4799995      -6.32592734E-09
  -10.4700003      -6.40866649E-09
  -10.4600000      -6.49061915E-09
  -10.4499998      -6.57166765E-09
  -10.4399996      -6.65179423E-09
  -10.4300003      -6.73104816E-09
  -10.4200001      -6.80956891E-09
  -10.4099998      -6.88753943E-09
  -10.3999996      -6.96514579E-09
  -10.3900003      -7.04259451E-09
  -10.3800001      -7.12007164E-09
  -10.3699999      -7.19773618E-09
  -10.3599997      -7.27573690E-09
  -10.3500004      -7.35421013E-09
  -10.3400002      -7.43323714E-09
  -10.3299999      -7.51292095E-09
  -10.3199997      -7.59334373E-09
  -10.3100004      -7.67456765E-09
  -10.3000002      -7.75665043E-09
  -10.2900000      -7.83965337E-09
  -10.2799997      -7.92360488E-09
  -10.2700005      -8.00852451E-09
  -10.2600002      -8.09435097E-09
  -10.2500000      -8.18094570E-09
  -10.2399998      -8.26811419E-09
  -10.2299995      -8.35553937E-09
  -10.2200003      -8.44285530E-09
  -10.2100000      -8.52964366E-09
  -10.1999998      -8.61546745E-09
  -10.1899996      -8.69996697E-09
  -10.1800003      -8.78285977E-09
  -10.1700001      -8.86397000E-09
  -10.1599998      -8.94327190E-09
  -10.1499996      -9.02079744E-09
  -10.1400003      -9.09667808E-09
  -10.1300001      -9.17101683E-09
  -10.1199999      -9.24390253E-09
  -10.1099997      -9.31531652E-09
  -10.1000004      -9.38517353E-09
  -10.0900002      -9.45334833E-09
  -10.0799999      -9.51969437E-09
  -10.0699997      -9.58416013E-09
  -10.0600004      -9.64681934E-09
  -10.0500002      -9.70794733E-09
  -10.0400000      -9.76802195E-09
  -10.0299997      -9.82774218E-09
  -10.0200005      -9.88794913E-09
  -10.0100002      -9.94955940E-09
  -10.0000000      -1.00134718E-08
  -9.98999977      -1.00804991E-08
  -9.97999954      -1.01512780E-08
  -9.97000027      -1.02262501E-08
  -9.96000004      -1.03056781E-08
  -9.94999981      -1.03896598E-08
  -9.93999958      -1.04781739E-08
  -9.93000031      -1.05711919E-08
  -9.92000008      -1.06687095E-08
  -9.90999985      -1.07707701E-08
  -9.89999962      -1.08774554E-08
  -9.89000034      -1.09889324E-08
  -9.88000011      -1.11053495E-08
  -9.86999989      -1.12268337E-08
  -9.85999966      -1.13534373E-08
  -9.85000038      -1.14851524E-08
  -9.84000015      -1.16218661E-08
  -9.82999992      -1.17634240E-08
  -9.81999969      -1.19096484E-08
  -9.81000042      -1.20603989E-08
  -9.80000019      -1.22156232E-08
  -9.78999996      -1.23753701E-08
  -9.77999973      -1.25398252E-08
  -9.77000046      -1.27093172E-08
  -9.76000023      -1.28842679E-08
  -9.75000000      -1.30651872E-08
  -9.73999977      -1.32526461E-08
  -9.72999954      -1.34472096E-08
  -9.72000027      -1.36494176E-08
  -9.71000004      -1.38596841E-08
  -9.69999981      -1.40783234E-08
  -9.68999958      -1.43054821E-08
  -9.68000031      -1.45410963E-08
  -9.67000008      -1.47849049E-08
  -9.65999985      -1.50364414E-08
  -9.64999962      -1.52950577E-08
  -9.64000034      -1.55599515E-08
  -9.63000011      -1.58302758E-08
  -9.61999989      -1.61051510E-08
  -9.60999966      -1.63837637E-08
  -9.60000038      -1.66653784E-08
  -9.59000015      -1.69493646E-08
  -9.57999992      -1.72351857E-08
  -9.56999969      -1.75223498E-08
  -9.56000042      -1.78103381E-08
  -9.55000019      -1.80985733E-08
  -9.53999996      -1.83863893E-08
  -9.52999973      -1.86730098E-08
  -9.52000046      -1.89575378E-08
  -9.51000023      -1.92390956E-08
  -9.50000000      -1.95168557E-08
  -9.48999977      -1.97900683E-08
  -9.47999954      -2.00582111E-08
  -9.47000027      -2.03208863E-08
  -9.46000004      -2.05779305E-08
  -9.44999981      -2.08291766E-08
  -9.43999958      -2.10745839E-08
  -9.43000031      -2.13140243E-08
  -9.42000008      -2.15473097E-08
  -9.40999985      -2.17741967E-08
  -9.39999962      -2.19944223E-08
  -9.39000034      -2.22078356E-08
  -9.38000011      -2.24144721E-08
  -9.36999989      -2.26146426E-08
  -9.35999966      -2.28090986E-08
  -9.35000038      -2.29989201E-08
  -9.34000015      -2.31855584E-08
  -9.32999992      -2.33707684E-08
  -9.31999969      -2.35564510E-08
  -9.31000042      -2.37445423E-08
  -9.30000019      -2.39369697E-08
  -9.28999996      -2.41356322E-08
  -9.27999973      -2.43423237E-08
  -9.27000046      -2.45588900E-08
  -9.26000023      -2.47871910E-08
  -9.25000000      -2.50291272E-08
  -9.23999977      -2.52866865E-08
  -9.22999954      -2.55618762E-08
  -9.22000027      -2.58565986E-08
  -9.21000004      -2.61725734E-08
  -9.19999981      -2.65112270E-08
  -9.18999958      -2.68735985E-08
  -9.18000031      -2.72603433E-08
  -9.17000008      -2.76717191E-08
  -9.15999985      -2.81076566E-08
  -9.14999962      -2.85678574E-08
  -9.14000034      -2.90518916E-08
  -9.13000011      -2.95592457E-08
  -9.11999989      -3.00893603E-08
  -9.10999966      -3.06417576E-08
  -9.10000038      -3.12158228E-08
  -9.09000015      -3.18110196E-08
  -9.07999992      -3.24267333E-08
  -9.06999969      -3.30622889E-08
  -9.06000042      -3.37169688E-08
  -9.05000019      -3.43899558E-08
  -9.03999996      -3.50802303E-08
  -9.02999973      -3.57866021E-08
  -9.02000046      -3.65075898E-08
  -9.01000023      -3.72414277E-08
  -9.00000000      -3.79858776E-08
  -8.98999977      -3.87385057E-08
  -8.97999954      -3.94966584E-08
  -8.97000027      -4.02575466E-08
  -8.96000004      -4.10185983E-08
  -8.94999981      -4.17773833E-08
  -8.93999958      -4.25319158E-08
  -8.93000031      -4.32806644E-08
  -8.92000008      -4.40223715E-08
  -8.90999985      -4.47562414E-08
  -8.89999962      -4.54815279E-08
  -8.89000034      -4.61976342E-08
  -8.88000011      -4.69040486E-08
  -8.86999989      -4.76001283E-08
  -8.85999966      -4.82851306E-08
  -8.85000038      -4.89583378E-08
  -8.84000015      -4.96188868E-08
  -8.82999992      -5.02659674E-08
  -8.81999969      -5.08985423E-08
  -8.81000042      -5.15155136E-08
  -8.80000019      -5.21156132E-08
  -8.78999996      -5.26975299E-08
  -8.77999973      -5.32598641E-08
  -8.77000046      -5.38013509E-08
  -8.76000023      -5.43208039E-08
  -8.75000000      -5.48173418E-08
  -8.73999977      -5.52905064E-08
  -8.72999954      -5.57401734E-08
  -8.72000027      -5.61664635E-08
  -8.71000004      -5.65698741E-08
  -8.69999981      -5.69508529E-08
  -8.68999958      -5.73100607E-08
  -8.68000031      -5.76480375E-08
  -8.67000008      -5.79655044E-08
  -8.65999985      -5.82632893E-08
  -8.64999962      -5.85425752E-08
  -8.64000034      -5.88047371E-08
  -8.63000011      -5.90517288E-08
  -8.61999989      -5.92857141E-08
  -8.60999966      -5.95092970E-08
  -8.60000038      -5.97250605E-08
  -8.59000015      -5.99356937E-08
  -8.57999992      -6.01438472E-08
  -8.56999969      -6.03520505E-08
  -8.56000042      -6.05626127E-08
  -8.55000019      -6.07779000E-08
  -8.53999996      -6.10001791E-08
  -8.52999973      -6.12315532E-08
  -8.52000046      -6.14743030E-08
  -8.51000023      -6.17302973E-08
  -8.50000000      -6.20014191E-08
  -8.48999977      -6.22892671E-08
  -8.47999954      -6.25951486E-08
  -8.47000027      -6.29199661E-08
  -8.46000004      -6.32644941E-08
  -8.44999981      -6.36293649E-08
  -8.43999958      -6.40149338E-08
  -8.43000031      -6.44215064E-08
  -8.42000008      -6.48491252E-08
  -8.40999985      -6.52977832E-08
  -8.39999962      -6.57671393E-08
  -8.39000034      -6.62565540E-08
  -8.38000011      -6.67651463E-08
  -8.36999989      -6.72916443E-08
  -8.35999966      -6.78347192E-08
  -8.35000038      -6.83927510E-08
  -8.34000015      -6.89645105E-08
  -8.32999992      -6.95484772E-08
  -8.31999969      -7.01435638E-08
  -8.31000042      -7.07486620E-08
  -8.30000019      -7.13628765E-08
  -8.28999996      -7.19853759E-08
  -8.27999973      -7.26155136E-08
  -8.27000046      -7.32523944E-08
  -8.26000023      -7.38951229E-08
  -8.25000000      -7.45430242E-08
  -8.23999977      -7.51952953E-08
  -8.22999954      -7.58511121E-08
  -8.22000027      -7.65098989E-08
  -8.21000004      -7.71711868E-08
  -8.19999981      -7.78347129E-08
  -8.18999958      -7.85003635E-08
  -8.18000031      -7.91684442E-08
  -8.17000008      -7.98392250E-08
  -8.15999985      -8.05131322E-08
  -8.14999962      -8.11906915E-08
  -8.14000034      -8.18723294E-08
  -8.13000011      -8.25586213E-08
  -8.11999989      -8.32499580E-08
  -8.10999966      -8.39467376E-08
  -8.10000038      -8.46496491E-08
  -8.09000015      -8.53595310E-08
  -8.07999992      -8.60771792E-08
  -8.06999969      -8.68036736E-08
  -8.06000042      -8.75404425E-08
  -8.05000019      -8.82889353E-08
  -8.03999996      -8.90504239E-08
  -8.02999973      -8.98261163E-08
  -8.02000046      -9.06171920E-08
  -8.01000023      -9.14242690E-08
  -8.00000000      -9.22480154E-08
  -7.98999977      -9.30888007E-08
  -7.98000002      -9.39471434E-08
  -7.96999979      -9.48235623E-08
  -7.96000004      -9.57185904E-08
  -7.94999981      -9.66333218E-08
  -7.94000006      -9.75685168E-08
  -7.92999983      -9.85253550E-08
  -7.92000008      -9.95045824E-08
  -7.90999985      -1.00507123E-07
  -7.90000010      -1.01533601E-07
  -7.88999987      -1.02584472E-07
  -7.88000011      -1.03660327E-07
  -7.86999989      -1.04761298E-07
  -7.86000013      -1.05887587E-07
  -7.84999990      -1.07039206E-07
  -7.84000015      -1.08215893E-07
  -7.82999992      -1.09417009E-07
  -7.82000017      -1.10641771E-07
  -7.80999994      -1.11889278E-07
  -7.80000019      -1.13158308E-07
  -7.78999996      -1.14447751E-07
  -7.78000021      -1.15756869E-07
  -7.76999998      -1.17084987E-07
  -7.76000023      -1.18431778E-07
  -7.75000000      -1.19797093E-07
  -7.73999977      -1.21181060E-07
  -7.73000002      -1.22583643E-07
  -7.71999979      -1.24004629E-07
  -7.71000004      -1.25443719E-07
  -7.69999981      -1.26900431E-07
  -7.69000006      -1.28374154E-07
  -7.67999983      -1.29864119E-07
  -7.67000008      -1.31369774E-07
  -7.65999985      -1.32890506E-07
  -7.65000010      -1.34426088E-07
  -7.63999987      -1.35976137E-07
  -7.63000011      -1.37540511E-07
  -7.61999989      -1.39119336E-07
  -7.61000013      -1.40712231E-07
  -7.59999990      -1.42319564E-07
  -7.59000015      -1.43941435E-07
  -7.57999992      -1.45578184E-07
  -7.57000017      -1.47230196E-07
  -7.55999994      -1.48897911E-07
  -7.55000019      -1.50581741E-07
  -7.53999996      -1.52282425E-07
  -7.53000021      -1.54000176E-07
  -7.51999998      -1.55735265E-07
  -7.51000023      -1.57488273E-07
  -7.50000000      -1.59259514E-07
  -7.48999977      -1.61049982E-07
  -7.48000002      -1.62860488E-07
  -7.46999979      -1.64692580E-07
  -7.46000004      -1.66547196E-07
  -7.44999981      -1.68425956E-07
  -7.44000006      -1.70330225E-07