  -16.0000000       0.00000000    
  -15.9899998       0.00000000    
  -15.9799995       0.00000000    
  -15.9700003       0.00000000    
  -15.9600000       0.00000000    
  -15.9499998       0.00000000    
  -15.9399996       0.00000000    
  -15.9300003       0.00000000    
  -15.9200001       0.00000000    
  -15.9099998       0.00000000    
  -15.8999996       0.00000000    
  -15.8900003       0.00000000    
  -15.8800001       6.50314771E-36
  -15.8699999       9.82135288E-35
  -15.8599997       7.20417417E-34
  -15.8500004       3.43563093E-33
  -15.8400002       1.24820705E-32
  -15.8299999       4.16195236E-32
  -15.8199997       1.54497491E-31
  -15.8100004       6.35240062E-31
  -15.8000002       2.47583297E-30
  -15.7900000       8.24790182E-30
  -15.7799997       2.24956321E-29
  -15.7700005       4.83189432E-29
  -15.7600002       7.32966687E-29
  -15.7500000       3.74679680E-29
  -15.7399998      -2.12124211E-28
  -15.7299995      -9.42721908E-28
  -15.7200003      -2.44822693E-27
  -15.7100000      -4.75292393E-27
  -15.6999998      -7.11234604E-27
  -15.6899996      -7.61395681E-27
  -15.6800003      -3.57705742E-27
  -15.6700001       6.46607637E-27
  -15.6599998       1.93551322E-26
  -15.6499996       2.49932212E-26
  -15.6400003       1.06708583E-26
  -15.6300001      -2.21161130E-26
  -15.6199999      -2.99116180E-26
  -15.6099997       9.14732168E-26
  -15.6000004       4.73548518E-25
  -15.5900002       1.14019322E-24
  -15.5799999       1.76811319E-24
  -15.5699997       1.46428332E-24
  -15.5600004      -1.14354539E-24
  -15.5500002      -7.11085452E-24
  -15.5400000      -1.54887632E-23
  -15.5299997      -2.12733935E-23
  -15.5200005      -1.46827730E-23
  -15.5100002       1.55572379E-23
  -15.5000000       7.26900677E-23
  -15.4899998       1.37295914E-22
  -15.4799995       1.55384053E-22
  -15.4700003       4.47903231E-23
  -15.4600000      -2.61931684E-22
  -15.4499998      -7.31436072E-22
  -15.4399996      -1.12593589E-21
  -15.4300003      -9.56314694E-22
  -15.4200001       3.92625539E-22
  -15.4099998       3.26172502E-21
  -15.3999996       7.05561313E-21
  -15.3900003       9.57504453E-21
  -15.3800001       6.90404925E-21
  -15.3699999      -5.39965369E-21
  -15.3599997      -2.92705130E-20
  -15.3500004      -5.95828987E-20
  -15.3400002      -7.99492293E-20
  -15.3299999      -6.24814818E-20
  -15.3199997       2.40188176E-20
  -15.3100004       1.94561410E-19
  -15.3000002       4.19519046E-19
  -15.2900000       5.98341561E-19
  -15.2799997       5.55994980E-19
  -15.2700005       8.69630746E-20
  -15.2600002      -9.36792900E-19
  -15.2500000      -2.40484503E-18
  -15.2399998      -3.80980489E-18
  -15.2299995      -4.19565445E-18
  -15.2200003      -2.34191334E-18
  -15.2100000       2.72186655E-18
  -15.1999998       1.08993536E-17
  -15.1899996       2.01436760E-17
  -15.1800003       2.59777693E-17
  -15.1700001       2.20360038E-17
  -15.1599998       2.14591785E-18
  -15.1499996      -3.60065666E-17
  -15.1400003      -8.64518817E-17
  -15.1300001      -1.31629449E-16
  -15.1199999      -1.42880257E-16
  -15.1099997      -8.73300167E-17
  -15.1000004       5.78024283E-17
  -15.0900002       2.85661359E-16
  -15.0799999       5.41479417E-16
  -15.0699997       7.15973975E-16
  -15.0600004       6.61941108E-16
  -15.0500002       2.41544336E-16
  -15.0400000      -5.98673676E-16
  -15.0299997      -1.74388488E-15
  -15.0200005      -2.85362181E-15
  -15.0100002      -3.37604569E-15
  -15.0000000      -2.67264983E-15
  -14.9899998      -2.63439476E-16
  -14.9799995       3.84864878E-15
  -14.9700003       8.87721361E-15
  -14.9600000       1.31292114E-14
  -14.9499998       1.42207667E-14
  -14.9399996       9.73243990E-15
  -14.9300003      -1.73805655E-15
  -14.9200001      -1.93676336E-14
  -14.9099998      -3.91910794E-14
  -14.8999996      -5.40360027E-14
  -14.8900003      -5.48020152E-14
  -14.8800001      -3.32549777E-14
  -14.8699999       1.40509874E-14
  -14.8599997       8.17880784E-14
  -14.8500004       1.53438067E-13
  -14.8400002       2.02237424E-13
  -14.8299999       1.96770240E-13
  -14.8199997       1.11218279E-13
  -14.8100004      -6.16078911E-14
  -14.8000002      -2.98342541E-13
  -14.7900000      -5.39475040E-13
  -14.7799997      -6.95239114E-13
  -14.7700005      -6.65891875E-13
  -14.7600002      -3.75038000E-13
  -14.7500000       1.91004683E-13
  -14.7399998       9.50108481E-13
  -14.7299995       1.71265194E-12
  -14.7200003       2.20461540E-12
  -14.7100000       2.13136757E-12
  -14.6999998       1.27538702E-12
  -14.6899996      -3.94115350E-13
  -14.6800003      -2.63437991E-12
  -14.6700001      -4.90516525E-12
  -14.6599998      -6.44025284E-12
  -14.6499996      -6.42502241E-12
  -14.6400003      -4.25747979E-12
  -14.6300001       1.67407971E-13
  -14.6199999       6.23947985E-12
  -14.6099997       1.25788659E-11
  -14.6000004       1.72199997E-11
  -14.5900002       1.80537703E-11
  -14.5799999       1.34661214E-11
  -14.5699997       3.02704454E-12
  -14.5600004      -1.19796065E-11
  -14.5500002      -2.84076807E-11
  -14.5400000      -4.16478657E-11
  -14.5299997      -4.66117735E-11
  -14.5200005      -3.91641615E-11
  -14.5100002      -1.76829402E-11
  -14.5000000       1.57040197E-11
  -14.4899998       5.46780503E-11
  -14.4799995       8.94384775E-11
  -14.4700003       1.08654724E-10
  -14.4600000       1.02396820E-10
  -14.4499998       6.54185109E-11
  -14.4399996      -9.73689377E-14
  -14.4300003      -8.32739225E-11
  -14.4200001      -1.65482308E-10
  -14.4099998      -2.23737542E-10
  -14.3999996      -2.36132253E-10
  -14.3900003      -1.88202717E-10
  -14.3800001      -7.86312682E-11
  -14.3699999       7.74771497E-11
  -14.3599997       2.49162635E-10
  -14.3500004       3.94653449E-10
  -14.3400002       4.70368744E-10
  -14.3299999       4.42193948E-10
  -14.3199997       2.96362851E-10
  -14.3100004       4.69451422E-11
  -14.3000002      -2.62701777E-10
  -14.2900000      -5.65943070E-10
  -14.2799997      -7.86019583E-10
  -14.2700005      -8.54026683E-10
  -14.2600002      -7.27784166E-10
  -14.2500000      -4.06763317E-10
  -14.2399998       6.13963394E-11
  -14.2299995       5.85736237E-10
  -14.2200003       1.04856523E-09
  -14.2100000       1.33113642E-09
  -14.1999998       1.34303302E-09
  -14.1899996       1.04817444E-09
  -14.1800003       4.80367690E-10
  -14.1700001      -2.56936278E-10
  -14.1599998      -1.00851683E-09
  -14.1499996      -1.60032110E-09
  -14.1400003      -1.88074467E-09
  -14.1300001      -1.76045878E-09
  -14.1199999      -1.24027000E-09
  -14.1099997      -4.18552498E-10
  -14.1000004       5.25887167E-10
  -14.0900002       1.37340883E-09
  -14.0799999       1.91726812E-09
  -14.0699997       2.01846517E-09
  -14.0600004       1.64697100E-09
  -14.0500002       8.96627883E-10
  -14.0400000      -3.28372329E-11
  -14.0299997      -8.84957718E-10
  -14.0200005      -1.41600387E-09
  -14.0100002      -1.46704360E-09
  -14.0000000      -1.01804398E-09
  -13.9899998      -2.06214504E-10
  -13.9799995       7.00724423E-10
  -13.9700003       1.37382394E-09
  -13.9600000       1.51923607E-09
  -13.9499998       9.76211778E-10
  -13.9399996      -2.12399834E-10
  -13.9300003      -1.78182502E-09
  -13.9200001      -3.29184591E-09
  -13.9099998      -4.23298596E-09
  -13.8999996      -4.16901358E-09
  -13.8900003      -2.87864799E-09
  -13.8800001      -4.54684734E-10
  -13.8699999       2.67427658E-09
  -13.8599997       5.81565596E-09
  -13.8500004       8.16944734E-09
  -13.8400002       9.03462372E-09
  -13.8299999       8.01176903E-09
  -13.8199997       5.14343634E-09
  -13.8100004       9.44697320E-10
  -13.8000002      -3.69620934E-09
  -13.7900000      -7.73184805E-09
  -13.7799997      -1.02331956E-08
  -13.7700005      -1.06557954E-08
  -13.7600002      -9.01413788E-09
  -13.7500000      -5.90321658E-09
  -13.7399998      -2.34436581E-09
  -13.7299995       5.16331311E-10
  -13.7200003       1.78099557E-09
  -13.7100000       1.13706466E-09
  -13.6999998      -9.52853019E-10
  -13.6899996      -3.28904659E-09
  -13.6800003      -4.22536761E-09
  -13.6700001      -2.16344165E-09
  -13.6599998       3.86615850E-09
  -13.6499996       1.36971456E-08
  -13.6400003       2.57605102E-08
  -13.6300001       3.71809747E-08
  -13.6199999       4.42773178E-08
  -13.6099997       4.34016734E-08
  -13.6000004       3.19498881E-08
  -13.5900002       9.30196542E-09
  -13.5799999      -2.25649135E-08
  -13.5699997      -5.90031277E-08
  -13.5600004      -9.32630329E-08
  -13.5500002      -1.17661564E-07
  -13.5400000      -1.25151175E-07
  -13.5299997      -1.10970127E-07
  -13.5200005      -7.40013206E-08
  -13.5100002      -1.74902919E-08
  -13.5000000       5.11004892E-08
  -13.4899998       1.21151231E-07
  -13.4799995       1.80693959E-07
  -13.4700003       2.18626369E-07
  -13.4600000       2.26868167E-07
  -13.4499998       2.01998617E-07
  -13.4399996       1.45991265E-07
  -13.4300003       6.58902479E-08
  -13.4200001      -2.75133303E-08
  -13.4099998      -1.21694242E-07
  -13.3999996      -2.04625550E-07
  -13.3900003      -2.66717677E-07
  -13.3800001      -3.02014342E-07
  -13.3699999      -3.08440832E-07
  -13.3599997      -2.87113465E-07
  -13.3500004      -2.41028459E-07
  -13.3400002      -1.73618034E-07
  -13.3299999      -8.77001014E-08
  -13.3199997       1.47416888E-08
  -13.3100004       1.31778521E-07
  -13.3000002       2.59940720E-07
  -13.2900000       3.92274586E-07
  -13.2799997       5.16795922E-07
  -13.2700005       6.16074033E-07
  -13.2600002       6.68524194E-07
  -13.2500000       6.51594746E-07
  -13.2399998       5.46510705E-07
  -13.2299995       3.43756739E-07
  -13.2200003       4.80690368E-08
  -13.2100000      -3.18399941E-07
  -13.1999998      -7.15899603E-07
  -13.1899996      -1.09054042E-06
  -13.1800003      -1.38131520E-06
  -13.1700001      -1.52980817E-06
  -13.1599998      -1.49097821E-06
  -13.1499996      -1.24298697E-06
  -13.1400003      -7.93995525E-07
  -13.1300001      -1.84269780E-07
  -13.1199999       5.17267722E-07
  -13.1099997       1.22182905E-06
  -13.1000004       1.83360316E-06
  -13.0900002       2.26450766E-06
  -13.0799999       2.44813782E-06
  -13.0699997       2.35036123E-06
  -13.0600004       1.97455279E-06
  -13.0500002       1.36054052E-06
  -13.0400000       5.77593198E-07
  -13.0299997      -2.87033714E-07
  -13.0200005      -1.14147656E-06
  -13.0100002      -1.90189894E-06
  -13.0000000      -2.50184166E-06
  -12.9899998      -2.89679883E-06
  -12.9799995      -3.06370816E-06
  -12.9700003      -2.99651197E-06
  -12.9600000      -2.69980524E-06
  -12.9499998      -2.18337254E-06
  -12.9399996      -1.45982244E-06
  -12.9300003      -5.46764227E-07
  -12.9200001       5.26700319E-07
  -12.9099998       1.71105648E-06
  -12.8999996       2.92807840E-06
  -12.8900003       4.06706613E-06
  -12.8800001       4.98882218E-06
  -12.8699999       5.53917062E-06
  -12.8599997       5.57164867E-06
  -12.8500004       4.97621568E-06
  -12.8400002       3.70872363E-06
  -12.8299999       1.81461473E-06
  -12.8199997      -5.59578609E-07
  -12.8100004      -3.17162221E-06
  -12.8000002      -5.70753582E-06
  -12.7900000      -7.82190000E-06
  -12.7799997      -9.18878595E-06
  -12.7700005      -9.55464839E-06
  -12.7600002      -8.78346054E-06
  -12.7500000      -6.88537057E-06
  -12.7399998      -4.02289061E-06
  -12.7299995      -4.92929075E-07
  -12.7200003       3.31241995E-06
  -12.7100000       6.95914787E-06
  -12.6999998       1.00291836E-05
  -12.6899996       1.21724961E-05
  -12.6800003       1.31452171E-05
  -12.6700001       1.28286374E-05
  -12.6599998       1.12288790E-05
  -12.6499996       8.46062176E-06
  -12.6400003       4.72200600E-06
  -12.6300001       2.68079646E-07
  -12.6199999      -4.61037189E-06
  -12.6099997      -9.59890258E-06
  -12.6000004      -1.43630241E-05
  -12.5900002      -1.85469871E-05
  -12.5799999      -2.17750840E-05
  -12.5699997      -2.36614251E-05
  -12.5600004      -2.38345838E-05
  -12.5500002      -2.19776193E-05
  -12.5400000      -1.78801638E-05
  -12.5299997      -1.14943132E-05
  -12.5200005      -2.98306850E-06
  -12.5100002       7.25094287E-06
  -12.5000000       1.85659301E-05
  -12.4899998       3.01146647E-05
  -12.4799995       4.09123604E-05
  -12.4700003       4.99268353E-05
  -12.4600000       5.61801171E-05
  -12.4499998       5.88450494E-05
  -12.4399996       5.73204707E-05
  -12.4300003       5.12750230E-05
  -12.4200001       4.06532890E-05
  -12.4099998       2.56474650E-05
  -12.3999996       6.64350227E-06
  -12.3900003      -1.58464518E-05
  -12.3800001      -4.12474146E-05
  -12.3699999      -6.89729786E-05
  -12.3599997      -9.84497092E-05
  -12.3500004      -1.29121181E-04
  -12.3400002      -1.60425421E-04
  -12.3299999      -1.91768151E-04
  -12.3199997      -2.22488816E-04
  -12.3100004      -2.51844205E-04
  -12.3000002      -2.79007218E-04
  -12.2900000      -3.03088280E-04
  -12.2799997      -3.23177694E-04
  -12.2700005      -3.38399434E-04
  -12.2600002      -3.47963563E-04
  -12.2500000      -3.51213384E-04
  -12.2399998      -3.47649766E-04
  -12.2299995      -3.36934259E-04
  -12.2200003      -3.18868988E-04
  -12.2100000      -2.93356745E-04
  -12.1999998      -2.60353729E-04
  -12.1899996      -2.19821683E-04
  -12.1800003      -1.71702253E-04
  -12.1700001      -1.15909781E-04
  -12.1599998      -5.23460913E-05
  -12.1499996       1.90415740E-05
  -12.1400003       9.81928679E-05
  -12.1300001       1.84855016E-04
  -12.1199999       2.78500025E-04
  -12.1099997       3.78262164E-04
  -12.1000004       4.82906413E-04
  -12.0900002       5.90827374E-04
  -12.0799999       7.00095668E-04
  -12.0699997       8.08530778E-04
  -12.0600004       9.13803291E-04
  -12.0500002       1.01355044E-03
  -12.0400000       1.10548374E-03
  -12.0299997       1.18749053E-03
  -12.0200005       1.25770248E-03
  -12.0100002       1.31453597E-03
  -12.0000000       1.35670544E-03
  -11.9899998       1.38321915E-03
  -11.9799995       1.39335054E-03
  -11.9700003       1.38660986E-03
  -11.9600000       1.36271259E-03
  -11.9499998       1.32157106E-03
  -11.9399996       1.26326014E-03
  -11.9300003       1.18802197E-03
  -11.9200001       1.09624630E-03
  -11.9099998       9.88465967E-04
  -11.8999996       8.65336566E-04
  -11.8900003       7.27636856E-04
  -11.8800001       5.76241640E-04
  -11.8699999       4.12128080E-04
  -11.8599997       2.36384323E-04
  -11.8500004       5.02203875E-05
  -11.8400002      -1.45006852E-04
  -11.8299999      -3.47779365E-04
  -11.8199997      -5.56409301E-04
  -11.8100004      -7.69063947E-04
  -11.8000002      -9.83800855E-04
  -11.7900000      -1.19864102E-03
  -11.7799997      -1.41165592E-03
  -11.7700005      -1.62104692E-03
  -11.7600002      -1.82521495E-03
  -11.7500000      -2.02279538E-03
  -11.7399998      -2.21264316E-03
  -11.7299995      -2.39377818E-03
  -11.7200003      -2.56528775E-03
  -11.7100000      -2.72621331E-03
  -11.6999998      -2.87544075E-03
  -11.6899996      -3.01162130E-03
  -11.6800003      -3.13314213E-03
  -11.6700001      -3.23813898E-03
  -11.6599998      -3.32457083E-03
  -11.6499996      -3.39031988E-03
  -11.6400003      -3.43330181E-03
  -11.6300001      -3.45155573E-03
  -11.6199999      -3.44331539E-03
  -11.6099997      -3.40703083E-03
  -11.6000004      -3.34134581E-03
  -11.5900002      -3.24508315E-03
  -11.5799999      -3.11722327E-03
  -11.5699997      -2.95690680E-03
  -11.5600004      -2.76350160E-03
  -11.5500002      -2.53668148E-03
  -11.5400000      -2.27660057E-03
  -11.5299997      -1.98400114E-03
  -11.5200005      -1.66035630E-03
  -11.5100002      -1.30790961E-03
  -11.5000000      -9.29662259E-04
  -11.4899998      -5.29242097E-04
  -11.4799995      -1.10705638E-04
  -11.4700003       3.21734609E-04
  -11.4600000       7.63975666E-04
  -11.4499998       1.21231377E-03
  -11.4399996       1.66363118E-03
  -11.4300003       2.11554090E-03
  -11.4200001       2.56641232E-03
  -11.4099998       3.01533123E-03
  -11.3999996       3.46199726E-03
  -11.3900003       3.90656106E-03
  -11.3800001       4.34947899E-03
  -11.3699999       4.79133660E-03
  -11.3599997       5.23272296E-03
  -11.3500004       5.67411445E-03
  -11.3400002       6.11576810E-03
  -11.3299999       6.55767508E-03
  -11.3199997       6.99949684E-03
  -11.3100004       7.44055258E-03
  -11.3000002       7.87981413E-03
  -11.2900000       8.31595156E-03
  -11.2799997       8.74738302E-03
  -11.2700005       9.17239301E-03
  -11.2600002       9.58920177E-03
  -11.2500000       9.99610871E-03
  -11.2399998       1.03915418E-02
  -11.2299995       1.07741542E-02
  -11.2200003       1.11428164E-02
  -11.2100000       1.14966035E-02
  -11.1999998       1.18347779E-02
  -11.1899996       1.21567370E-02
  -11.1800003       1.24620115E-02
  -11.1700001       1.27502624E-02
  -11.1599998       1.30213294E-02
  -11.1499996       1.32753011E-02
  -11.1400003       1.35125881E-02
  -11.1300001       1.37339579E-02
  -11.1199999       1.39405457E-02
  -11.1099997       1.41337970E-02
  -11.1000004       1.43153565E-02
  -11.0900002       1.44869098E-02
  -11.0799999       1.46500124E-02
  -11.0699997       1.48059782E-02
  -11.0600004       1.49557851E-02
  -11.0500002       1.51000647E-02
  -11.0400000       1.52392145E-02
  -11.0299997       1.53734945E-02
  -11.0200005       1.55032137E-02
  -11.0100002       1.56289004E-02
  -11.0000000       1.57513227E-02
  -10.9899998       1.58715602E-02
  -10.9799995       1.59908980E-02
  -10.9700003       1.61106549E-02
  -10.9600000       1.62319932E-02
  -10.9499998       1.63557194E-02
  -10.9399996       1.64821465E-02
  -10.9300003       1.66109595E-02
  -10.9200001       1.67412832E-02
  -10.9099998       1.68716684E-02
  -10.8999996       1.70003120E-02
  -10.8900003       1.71251055E-02
  -10.8800001       1.72438063E-02
  -10.8699999       1.73541494E-02
  -10.8599997       1.74538493E-02
  -10.8500004       1.75406728E-02
  -10.8400002       1.76124163E-02
  -10.8299999       1.76669806E-02
  -10.8199997       1.77023914E-02
  -10.8100004       1.77169535E-02
  -10.8000002       1.77093390E-02
  -10.7900000       1.76787004E-02
  -10.7799997       1.76247954E-02
  -10.7700005       1.75479800E-02
  -10.7600002       1.74491741E-02
  -10.7500000       1.73296593E-02
  -10.7399998       1.71909053E-02
  -10.7299995       1.70343351E-02
  -10.7200003       1.68610774E-02
  -10.7100000       1.66718829E-02
  -10.6999998       1.64670162E-02
  -10.6899996       1.62464473E-02
  -10.6800003       1.60099547E-02
  -10.6700001       1.57574713E-02
  -10.6599998       1.54893408E-02
  -10.6499996       1.52065866E-02
  -10.6400003       1.49110658E-02
  -10.6300001       1.46055277E-02
  -10.6199999       1.42934741E-02
  -10.6099997       1.39789321E-02
  -10.6000004       1.36661110E-02
  -10.5900002       1.33589553E-02
  -10.5799999       1.30607961E-02
  -10.5699997       1.27739878E-02
  -10.5600004       1.24996845E-02
  -10.5500002       1.22378124E-02
  -10.5400000       1.19871479E-02
  -10.5299997       1.17455870E-02
  -10.5200005       1.15105659E-02
  -10.5100002       1.12795085E-02
  -10.5000000       1.10502644E-02
  -10.4899998       1.08216191E-02
  -10.4799995       1.05934227E-02
  -10.4700003       1.03668291E-02
  -10.4600000       1.01440838E-02
  -10.4499998       9.92825627E-03
  -10.4399996       9.72285029E-03
  -10.4300003       9.53124743E-03
  -10.4200001       9.35631525E-03
  -10.4099998       9.19997878E-03
  -10.3999996       9.06303804E-03
  -10.3900003       8.94518197E-03
  -10.3800001       8.84512626E-03
  -10.3699999       8.76097102E-03
  -10.3599997       8.69054068E-03
  -10.3500004       8.63172859E-03
  -10.3400002       8.58280063E-03
  -10.3299999       8.54248833E-03
  -10.3199997       8.51001311E-03
  -10.3100004       8.48490652E-03
  -10.3000002       8.46687984E-03
  -10.2900000       8.45562946E-03
  -10.2799997       8.45068786E-03
  -10.2700005       8.45137239E-03
  -10.2600002       8.45687091E-03
  -10.2500000       8.46641138E-03
  -10.2399998       8.47936794E-03
  -10.2299995       8.49540625E-03
  -10.2200003       8.51456355E-03
  -10.2100000       8.53717886E-03
  -10.1999998       8.56381655E-03
  -10.1899996       8.59503169E-03
  -10.1800003       8.63130391E-03
  -10.1700001       8.67282785E-03
  -10.1599998       8.71959236E-03
  -10.1499996       8.77144188E-03
  -10.1400003       8.82829446E-03
  -10.1300001       8.89036711E-03
  -10.1199999       8.95836949E-03
  -10.1099997       9.03364550E-03
  -10.1000004       9.11809504E-03
  -10.0900002       9.21399426E-03
  -10.0799999       9.32354014E-03
  -10.0699997       9.44871176E-03
  -10.0600004       9.59063042E-03
  -10.0500002       9.74939764E-03
  -10.0400000       9.92408581E-03
  -10.0299997       1.01127839E-02
  -10.0200005       1.03129987E-02
  -10.0100002       1.05221178E-02
  -10.0000000       1.07379397E-02
  -9.98999977       1.09590972E-02
  -9.97999954       1.11854123E-02
  -9.97000027       1.14179710E-02
  -9.96000004       1.16590355E-02
  -9.94999981       1.19117815E-02
  -9.93999958       1.21798301E-02
  -9.93000031       1.24669923E-02
  -9.92000008       1.27768293E-02
  -9.90999985       1.31124565E-02
  -9.89999962       1.34764286E-02
  -9.89000034       1.38705550E-02
  -9.88000011       1.42959068E-02
  -9.86999989       1.47528825E-02
  -9.85999966       1.52409924E-02
  -9.85000038       1.57588944E-02
  -9.84000015       1.63043216E-02
  -9.82999992       1.68741420E-02
  -9.81999969       1.74645241E-02
  -9.81000042       1.80711523E-02
  -9.80000019       1.86897367E-02
  -9.78999996       1.93164386E-02
  -9.77999973       1.99481957E-02
  -9.77000046       2.05831565E-02
  -9.76000023       2.12204792E-02
  -9.75000000       2.18605883E-02
  -9.73999977       2.25043483E-02
  -9.72999954       2.31530070E-02
  -9.72000027       2.38073077E-02
  -9.71000004       2.44674794E-02
  -9.69999981       2.51327064E-02
  -9.68999958       2.58011464E-02
  -9.68000031       2.64701676E-02
  -9.67000008       2.71364953E-02
  -9.65999985       2.77965907E-02
  -9.64999962       2.84469798E-02
  -9.64000034       2.90844701E-02
  -9.63000011       2.97062974E-02
  -9.61999989       3.03102788E-02
  -9.60999966       3.08950692E-02
  -9.60000038       3.14597972E-02
  -9.59000015       3.20046507E-02
  -9.57999992       3.25306468E-02
  -9.56999969       3.30397040E-02
  -9.56000042       3.35346311E-02
  -9.55000019       3.40190642E-02
  -9.53999996       3.44969667E-02
  -9.52999973       3.49726155E-02
  -9.52000046       3.54500040E-02
  -9.51000023       3.59324366E-02
  -9.50000000       3.64225730E-02
  -9.48999977       3.69217098E-02
  -9.47999954       3.74303013E-02
  -9.47000027       3.79475616E-02
  -9.46000004       3.84718664E-02
  -9.44999981       3.90010513E-02
  -9.43999958       3.95325981E-02
  -9.43000031       4.00639139E-02
  -9.42000008       4.05930281E-02
  -9.40999985       4.11184691E-02
  -9.39999962       4.16396037E-02
  -9.39000034       4.21568863E-02
  -9.38000011       4.26716618E-02
  -9.36999989       4.31856960E-02
  -9.35999966       4.37010787E-02
  -9.35000038       4.42194678E-02
  -9.34000015       4.47417572E-02
  -9.32999992       4.52676713E-02
  -9.31999969       4.57958169E-02
  -9.31000042       4.63236496E-02
  -9.30000019       4.68478836E-02
  -9.28999996       4.73652408E-02
  -9.27999973       4.78726551E-02
  -9.27000046       4.83680628E-02
  -9.26000023       4.88503166E-02
  -9.25000000       4.93194871E-02
  -9.23999977       4.97763231E-02
  -9.22999954       5.02221920E-02
  -9.22000027       5.06584793E-02
  -9.21000004       5.10866605E-02
  -9.19999981       5.15078343E-02
  -9.18999958       5.19231558E-02
  -9.18000031       5.23337163E-02
  -9.17000008       5.27408719E-02
  -9.15999985       5.31460531E-02
  -9.14999962       5.35509810E-02
  -9.14000034       5.39573170E-02
  -9.13000011       5.43666855E-02
  -9.11999989       5.47802337E-02
  -9.10999966       5.51991798E-02
  -9.10000038       5.56242168E-02
  -9.09000015       5.60563430E-02
  -9.07999992       5.64968213E-02
  -9.06999969       5.69472276E-02
  -9.06000042       5.74099049E-02
  -9.05000019       5.78873940E-02
  -9.03999996       5.83826192E-02
  -9.02999973       5.88982441E-02
  -9.02000046       5.94369061E-02
  -9.01000023       6.00010380E-02
  -9.00000000       6.05927221E-02
  -8.98999977       6.12140186E-02
  -8.97999954       6.18669689E-02
  -8.97000027       6.25533909E-02
  -8.96000004       6.32748157E-02
  -8.94999981       6.40317947E-02
  -8.93999958       6.48237243E-02
  -8.93000031       6.56486601E-02
  -8.92000008       6.65028915E-02
  -8.90999985       6.73816502E-02
  -8.89999962       6.82796538E-02
  -8.89000034       6.91917092E-02
  -8.88000011       7.01136813E-02
  -8.86999989       7.10425898E-02
  -8.85999966       7.19772279E-02
  -8.85000038       7.29170665E-02
  -8.84000015       7.38623887E-02
  -8.82999992       7.48133138E-02
  -8.81999969       7.57690817E-02
  -8.81000042       7.67286271E-02
  -8.80000019       7.76899382E-02
  -8.78999996       7.86512792E-02
  -8.77999973       7.96115845E-02
  -8.77000046       8.05710927E-02
  -8.76000023       8.15316141E-02
  -8.75000000       8.24962929E-02
  -8.73999977       8.34690407E-02
  -8.72999954       8.44545141E-02
  -8.72000027       8.54562968E-02
  -8.71000004       8.64777714E-02
  -8.69999981       8.75212178E-02
  -8.68999958       8.85883197E-02
  -8.68000031       8.96811560E-02
  -8.67000008       9.08012837E-02
  -8.65999985       9.19517577E-02
  -8.64999962       9.31350291E-02
  -8.64000034       9.43544880E-02
  -8.63000011       9.56130028E-02
  -8.61999989       9.69125703E-02
  -8.60999966       9.82545018E-02
  -8.60000038       9.96391550E-02
  -8.59000015      0.101066671    
  -8.57999992      0.102537028    
  -8.56999969      0.104050502    
  -8.56000042      0.105608106    
  -8.55000019      0.107211426    
  -8.53999996      0.108862072    
  -8.52999973      0.110561416    
  -8.52000046      0.112310246    
  -8.51000023      0.114108808    
  -8.50000000      0.115957052    
  -8.48999977      0.117853872    
  -8.47999954      0.119798668    
  -8.47000027      0.121790215    
  -8.46000004      0.123827860    
  -8.44999981      0.125909641    
  -8.43999958      0.128033608    
  -8.43000031      0.130195886    
  -8.42000008      0.132392004    
  -8.40999985      0.134615660    
  -8.39999962      0.136860743    
  -8.39000034      0.139120966    
  -8.38000011      0.141391054    
  -8.36999989      0.143666521    
  -8.35999966      0.145943955    
  -8.35000038      0.148220643    
  -8.34000015      0.150493219    
  -8.32999992      0.152757317    
  -8.31999969      0.155007303    
  -8.31000042      0.157235697    
  -8.30000019      0.159434110    
  -8.28999996      0.161594152    
  -8.27999973      0.163707703    
  -8.27000046      0.165768608    
  -8.26000023      0.167772248    
  -8.25000000      0.169716015    
  -8.23999977      0.171598896    
  -8.22999954      0.173420385    
  -8.22000027      0.175179482    
  -8.21000004      0.176874891    
  -8.19999981      0.178504631    
  -8.18999958      0.180065766    
  -8.18000031      0.181554779    
  -8.17000008      0.182968587    
  -8.15999985      0.184304535    
  -8.14999962      0.185560256    
  -8.14000034      0.186733961    
  -8.13000011      0.187824890    
  -8.11999989      0.188833266    
  -8.10999966      0.189758688    
  -8.10000038      0.190602750    
  -8.09000015      0.191367075    
  -8.07999992      0.192055658    
  -8.06999969      0.192672074    
  -8.06000042      0.193221688    
  -8.05000019      0.193711042    
  -8.03999996      0.194147766    
  -8.02999973      0.194539592    
  -8.02000046      0.194895580    
  -8.01000023      0.195225403    
  -8.00000000      0.195538625    
  -7.98999977      0.195845261    
  -7.98000002      0.196154311    
  -7.96999979      0.196474344    
  -7.96000004      0.196811378    
  -7.94999981      0.197170287    
  -7.94000006      0.197554216    
  -7.92999983      0.197965309    
  -7.92000008      0.198404953    
  -7.90999985      0.198875666    
  -7.90000010      0.199381396    
  -7.88999987      0.199927047    
  -7.88000011      0.200520277    
  -7.86999989      0.201168492    
  -7.86000013      0.201879233    
  -7.84999990      0.202658370    
  -7.84000015      0.203510627    
  -7.82999992      0.204437569    
  -7.82000017      0.205439970    
  -7.80999994      0.206517816    
  -7.80000019      0.207670107    
  -7.78999996      0.208897784    
  -7.78000021      0.210202783    
  -7.76999998      0.211585730    
  -7.76000023      0.213049501    
  -7.75000000      0.214595139    
  -7.73999977      0.216221094    
  -7.73000002      0.217926055    
  -7.71999979      0.219705537    
  -7.71000004      0.221556336    
  -7.69999981      0.223474056    
  -7.69000006      0.225455731    
  -7.67999983      0.227500066    
  -7.67000008      0.229606867    
  -7.65999985      0.231775478    
  -7.65000010      0.234006450    
  -7.63999987      0.236298665    
  -7.63000011      0.238651887    
  -7.61999989      0.241064265    
  -7.61000013      0.243535370    
  -7.59999990      0.246063992    
  -7.59000015      0.248650968    
  -7.57999992      0.251297057    
  -7.57000017      0.254003644    
  -7.55999994      0.256772399    
  -7.55000019      0.259603143    
  -7.53999996      0.262496382    
  -7.53000021      0.265450448    
  -7.51999998      0.268464833    
  -7.51000023      0.271539032    
  -7.50000000      0.274673909    
  -7.48999977      0.277870446    
  -7.48000002      0.281130522    
  -7.46999979      0.284455180    
  -7.46000004      0.287844807    
  -7.44999981      0.291299134    
  -7.44000006      0.294814259    