  -16.0000000       0.00000000    
  -15.9899998       0.00000000    
  -15.9799995       0.00000000    
  -15.9700003       0.00000000    
  -15.9600000       0.00000000    
  -15.9499998       0.00000000    
  -15.9399996       0.00000000    
  -15.9300003       0.00000000    
  -15.9200001       0.00000000    
  -15.9099998       0.00000000    
  -15.8999996       0.00000000    
  -15.8900003       0.00000000    
  -15.8800001       0.00000000    
  -15.8699999      -0.00000000    
  -15.8599997      -1.96181785E-44
  -15.8500004      -4.80645373E-43
  -15.8400002      -6.76406769E-42
  -15.8299999      -6.69176069E-41
  -15.8199997      -5.11304382E-40
  -15.8100004      -3.18908065E-39
  -15.8000002      -1.68347878E-38
  -15.7900000      -7.71363237E-38
  -15.7799997      -3.12464244E-37
  -15.7700005      -1.13451357E-36
  -15.7600002      -3.73110151E-36
  -15.7500000      -1.12041135E-35
  -15.7399998      -3.09106628E-35
  -15.7299995      -7.87129384E-35
  -15.7200003      -1.85632736E-34
  -15.7100000      -4.06359214E-34
  -15.6999998      -8.26680453E-34
  -15.6899996      -1.56324567E-33
  -15.6800003      -2.74553585E-33
  -15.6700001      -4.47024045E-33
  -15.6599998      -6.72804183E-33
  -15.6499996      -9.32632663E-33
  -15.6400003      -1.18655112E-32
  -15.6300001      -1.38510997E-32
  -15.6199999      -1.49999221E-32
  -15.6099997      -1.56790361E-32
  -15.6000004      -1.71872115E-32
  -15.5900002      -2.13252469E-32
  -15.5799999      -2.86211980E-32
  -15.5699997      -3.50011701E-32
  -15.5600004      -2.78902227E-32
  -15.5500002       1.54683360E-32
  -15.5400000       1.23150231E-31
  -15.5299997       3.13273171E-31
  -15.5200005       5.68721987E-31
  -15.5100002       8.10894183E-31
  -15.5000000       8.91471312E-31
  -15.4899998       6.25257529E-31
  -15.4799995      -1.24386098E-31
  -15.4700003      -1.32894225E-30
  -15.4600000      -2.71452660E-30
  -15.4499998      -3.81589954E-30
  -15.4399996      -4.23131247E-30
  -15.4300003      -4.01428801E-30
  -15.4200001      -3.92496811E-30
  -15.4099998      -5.08063893E-30
  -15.3999996      -7.60894672E-30
  -15.3900003      -8.44819251E-30
  -15.3800001       4.88502303E-31
  -15.3699999       3.13393971E-29
  -15.3599997       9.36199782E-29
  -15.3500004       1.80610737E-28
  -15.3400002       2.52279513E-28
  -15.3299999       2.25404461E-28
  -15.3199997      -1.20116482E-29
  -15.3100004      -5.45367027E-28
  -15.3000002      -1.33465684E-27
  -15.2900000      -2.10099794E-27
  -15.2799997      -2.26889955E-27
  -15.2700005      -1.06579403E-27
  -15.2600002       2.13245261E-27
  -15.2500000       7.21118631E-27
  -15.2399998       1.26579804E-26
  -15.2299995       1.52270600E-26
  -15.2200003       1.04619989E-26
  -15.2100000      -5.48251126E-27
  -15.1999998      -3.27554615E-26
  -15.1899996      -6.43679561E-26
  -15.1800003      -8.43278071E-26
  -15.1700001      -6.99170194E-26
  -15.1599998      -1.86397675E-28
  -15.1499996       1.29488818E-25
  -15.1400003       2.90897019E-25
  -15.1300001       4.13171125E-25
  -15.1199999       3.91083538E-25
  -15.1099997       1.20767221E-25
  -15.1000004      -4.37243167E-25
  -15.0900002      -1.18430376E-24
  -15.0799999      -1.83495535E-24
  -15.0699997      -1.94076191E-24
  -15.0600004      -1.02678234E-24
  -15.0500002       1.15567206E-24
  -15.0400000       4.32106804E-24
  -15.0299997       7.42292710E-24
  -15.0200005       8.69484462E-24
  -15.0100002       6.12424196E-24
  -15.0000000      -1.60575300E-24
  -14.9899998      -1.39085186E-23
  -14.9799995      -2.73070261E-23
  -14.9700003      -3.53586895E-23
  -14.9600000      -3.01405671E-23
  -14.9499998      -5.51833605E-24
  -14.9399996       3.83990573E-23
  -14.9300003       9.12411669E-23
  -14.9200001       1.31217520E-22
  -14.9099998       1.29249811E-22
  -14.8999996       5.95464018E-23
  -14.8900003      -8.49101795E-23
  -14.8800001      -2.77007257E-22
  -14.8699999      -4.48334820E-22
  -14.8599997      -4.98899719E-22
  -14.8500004      -3.28924478E-22
  -14.8400002       1.10294367E-22
  -14.8299999       7.61023985E-22
  -14.8199997       1.42461817E-21
  -14.8100004       1.77756711E-21
  -14.8000002       1.45946659E-21
  -14.7900000       2.30615950E-22
  -14.7799997      -1.83901920E-21
  -14.7700005      -4.22495503E-21
  -14.7600002      -5.94371558E-21
  -14.7500000      -5.77009409E-21
  -14.7399998      -2.69462021E-21
  -14.7299995       3.46647444E-21
  -14.7200003       1.15180869E-20
  -14.7100000       1.86858969E-20
  -14.6999998       2.10568890E-20
  -14.6899996       1.47998008E-20
  -14.6800003      -1.98831318E-21
  -14.6700001      -2.73381512E-20
  -14.6599998      -5.42184838E-20
  -14.6499996      -7.10487400E-20
  -14.6400003      -6.45710111E-20
  -14.6300001      -2.49992415E-20
  -14.6199999       4.77105563E-20
  -14.6099997       1.38717891E-19
  -14.6000004       2.17156676E-19
  -14.5900002       2.41522935E-19
  -14.5799999       1.72487256E-19
  -14.5699997      -8.79167137E-21
  -14.5600004      -2.82108061E-19
  -14.5500002      -5.77303929E-19
  -14.5400000      -7.79407313E-19
  -14.5299997      -7.55334858E-19
  -14.5200005      -4.01142686E-19
  -14.5100002       3.00315754E-19
  -14.5000000       1.23049165E-18
  -14.4899998       2.11930001E-18
  -14.4799995       2.58403241E-18
  -14.4700003       2.23206086E-18
  -14.4600000       8.14494712E-19
  -14.4499998      -1.60823815E-18
  -14.4399996      -4.54968693E-18
  -14.4300003      -7.09716333E-18
  -14.4200001      -8.07854117E-18
  -14.4099998      -6.40259508E-18
  -14.3999996      -1.51458766E-18
  -14.3900003       6.15969763E-18
  -14.3800001       1.49558688E-17
  -14.3699999       2.20730053E-17
  -14.3599997       2.41440538E-17
  -14.3500004       1.82498708E-17
  -14.3400002       3.17738251E-18
  -14.3299999      -1.94451203E-17
  -14.3199997      -4.45984155E-17
  -14.3100004      -6.43332773E-17
  -14.3000002      -6.94609104E-17
  -14.2900000      -5.23306517E-17
  -14.2799997      -1.01140664E-17
  -14.2700005       5.23767852E-17
  -14.2600002       1.21492053E-16
  -14.2500000       1.76167117E-16
  -14.2399998       1.92406472E-16
  -14.2299995       1.50367406E-16
  -14.2200003       4.25360160E-17
  -14.2100000      -1.19390816E-16
  -14.1999998      -3.01665014E-16
  -14.1899996      -4.51989910E-16
  -14.1800003      -5.10306381E-16
  -14.1700001      -4.25704757E-16
  -14.1599998      -1.75925818E-16
  -14.1499996       2.16042185E-16
  -14.1400003       6.74523411E-16
  -14.1300001       1.07810576E-15
  -14.1199999       1.28321415E-15
  -14.1099997       1.16192486E-15
  -14.1000004       6.46471904E-16
  -14.0900002      -2.31420201E-16
  -14.0799999      -1.32003616E-15
  -14.0699997      -2.35775284E-15
  -14.0600004      -3.01938192E-15
  -14.0500002      -2.99497954E-15
  -14.0400000      -2.08646492E-15
  -14.0299997      -2.98080053E-16
  -14.0200005       2.10785038E-15
  -14.0100002       4.61561551E-15
  -14.0000000       6.53593407E-15
  -13.9899998       7.15727679E-15
  -13.9799995       5.94334516E-15
  -13.9700003       2.73170264E-15
  -13.9600000      -2.12293413E-15
  -13.9499998      -7.71514200E-15
  -13.9399996      -1.27012557E-14
  -13.9300003      -1.55615063E-14
  -13.9200001      -1.49743380E-14
  -13.9099998      -1.02255139E-14
  -13.8999996      -1.54738668E-15
  -13.8900003       9.72021807E-15
  -13.8800001       2.12312044E-14
  -13.8699999       3.00268064E-14
  -13.8599997       3.31791479E-14
  -13.8500004       2.85663522E-14
  -13.8400002       1.56010814E-14
  -13.8299999      -4.28891999E-15
  -13.8199997      -2.76040245E-14
  -13.8100004      -4.92384589E-14
  -13.8000002      -6.34490832E-14
  -13.7900000      -6.51738524E-14
  -13.7799997      -5.14283576E-14
  -13.7700005      -2.24404456E-14
  -13.7600002       1.78094420E-14
  -13.7500000       6.18796396E-14
  -13.7399998       1.00057434E-13
  -13.7299995       1.22300838E-13
  -13.7200003       1.20574300E-13
  -13.7100000       9.10700822E-14
  -13.6999998       3.57613990E-14
  -13.6899996      -3.71799217E-14
  -13.6800003      -1.14354435E-13
  -13.6700001      -1.79445028E-13
  -13.6599998      -2.16488028E-13
  -13.6499996      -2.13457019E-13
  -13.6400003      -1.65365917E-13
  -13.6300001      -7.61361663E-14
  -13.6199999       4.13069305E-14
  -13.6099997       1.66872308E-13
  -13.6000004       2.76803808E-13
  -13.5900002       3.48173828E-13
  -13.5799999       3.63440181E-13
  -13.5699997       3.14097977E-13
  -13.5600004       2.02647374E-13
  -13.5500002       4.24855294E-14
  -13.5400000      -1.44186190E-13
  -13.5299997      -3.29901633E-13
  -13.5200005      -4.86090118E-13
  -13.5100002      -5.86990200E-13
  -13.5000000      -6.12665300E-13
  -13.4899998      -5.50876022E-13
  -13.4799995      -3.98010699E-13
  -13.4700003      -1.59604697E-13
  -13.4600000       1.48974583E-13
  -13.4499998       5.01392168E-13
  -13.4399996       8.59064068E-13
  -13.4300003       1.17073365E-12
  -13.4200001       1.37443431E-12
  -13.4099998       1.40344388E-12
  -13.3999996       1.19722678E-12
  -13.3900003       7.17018892E-13
  -13.3800001      -3.61250980E-14
  -13.3699999      -1.00492412E-12
  -13.3599997      -2.06655374E-12
  -13.3500004      -3.03604082E-12
  -13.3400002      -3.68649599E-12
  -13.3299999      -3.78704360E-12
  -13.3199997      -3.15474057E-12
  -13.3100004      -1.71174880E-12
  -13.3000002       4.65107824E-13
  -13.2900000       3.11708233E-12
  -13.2799997       5.81167319E-12
  -13.2700005       7.99390068E-12
  -13.2600002       9.07952012E-12
  -13.2500000       8.57829606E-12
  -13.2399998       6.22528027E-12
  -13.2299995       2.09093940E-12
  -13.2200003      -3.36020729E-12
  -13.2100000      -9.28697050E-12
  -13.1999998      -1.45763401E-11
  -13.1899996      -1.80289568E-11
  -13.1800003      -1.85983989E-11
  -13.1700001      -1.56402287E-11
  -13.1599998      -9.11714974E-12
  -13.1499996       2.92058695E-13
  -13.1400003       1.12187291E-11
  -13.1300001       2.17797915E-11
  -13.1199999       2.98859375E-11
  -13.1099997       3.36342933E-11
  -13.1000004       3.17131252E-11
  -13.0900002       2.37350972E-11
  -13.0799999       1.04216228E-11
  -13.0699997      -6.41541204E-12
  -13.0600004      -2.41104966E-11
  -13.0500002      -3.95716689E-11
  -13.0400000      -4.98278190E-11
  -13.0299997      -5.25958756E-11
  -13.0200005      -4.67566229E-11
  -13.0100002      -3.26396722E-11
  -13.0000000      -1.20509895E-11
  -12.9899998       1.19750494E-11
  -12.9799995       3.56633993E-11
  -12.9700003       5.51410861E-11
  -12.9600000       6.71169509E-11
  -12.9499998       6.94702351E-11
  -12.9399996       6.16349957E-11
  -12.9300003       4.47045942E-11
  -12.9200001       2.12352289E-11
  -12.9099998      -5.21567078E-12
  -12.8999996      -3.07273304E-11
  -12.8900003      -5.17069061E-11
  -12.8800001      -6.55002858E-11
  -12.8699999      -7.08043207E-11
  -12.8599997      -6.78014936E-11
  -12.8500004      -5.79940887E-11
  -12.8400002      -4.37756914E-11
  -12.8299999      -2.78330484E-11
  -12.8199997      -1.25088429E-11
  -12.8100004       7.32546456E-13
  -12.8000002       1.16113577E-11
  -12.7900000       2.10305107E-11
  -12.7799997       3.07492712E-11
  -12.7700005       4.27881619E-11
  -12.7600002       5.86857438E-11
  -12.7500000       7.87718848E-11
  -12.7399998       1.01634166E-10
  -12.7299995       1.23928465E-10
  -12.7200003       1.40625026E-10
  -12.7100000       1.45696191E-10
  -12.6999998       1.33159234E-10
  -12.6899996       9.83057316E-11
  -12.6800003       3.88969759E-11
  -12.6700001      -4.39041824E-11
  -12.6599998      -1.45057050E-10
  -12.6499996      -2.55737653E-10
  -12.6400003      -3.64017150E-10
  -12.6300001      -4.56035487E-10
  -12.6199999      -5.17499321E-10
  -12.6099997      -5.35294142E-10
  -12.6000004      -4.99004116E-10
  -12.5900002      -4.02182176E-10
  -12.5799999      -2.43284448E-10
  -12.5699997      -2.62605597E-11
  -12.5600004       2.39163328E-10
  -12.5500002       5.37455525E-10
  -12.5400000       8.47485526E-10
  -12.5299997       1.14301135E-09
  -12.5200005       1.39356371E-09
  -12.5100002       1.56588309E-09
  -12.5000000       1.62605851E-09
  -12.4899998       1.54244184E-09
  -12.4799995       1.28925504E-09
  -12.4700003       8.50650717E-10
  -12.4600000       2.24804467E-10
  -12.4499998      -5.72484615E-10
  -12.4399996      -1.50521318E-09
  -12.4300003      -2.51602605E-09
  -12.4200001      -3.52670093E-09
  -12.4099998      -4.44018777E-09
  -12.3999996      -5.14386134E-09
  -12.3900003      -5.51347545E-09
  -12.3800001      -5.41727374E-09
  -12.3699999      -4.71986361E-09
  -12.3599997      -3.28572392E-09
  -12.3500004      -9.82583792E-10
  -12.3400002       2.31480790E-09
  -12.3299999       6.71983047E-09
  -12.3199997       1.23274457E-08
  -12.3100004       1.92056966E-08
  -12.3000002       2.73855232E-08
  -12.2900000       3.68497730E-08
  -12.2799997       4.75229065E-08
  -12.2700005       5.92631650E-08
  -12.2600002       7.18589206E-08
  -12.2500000       8.50305142E-08
  -12.2399998       9.84380435E-08
  -12.2299995       1.11694582E-07
  -12.2200003       1.24383234E-07
  -12.2100000       1.36076082E-07
  -12.1999998       1.46352193E-07
  -12.1899996       1.54812895E-07
  -12.1800003       1.61092800E-07
  -12.1700001       1.64866165E-07
  -12.1599998       1.65849315E-07
  -12.1499996       1.63800863E-07
  -12.1400003       1.58521161E-07
  -12.1300001       1.49852909E-07
  -12.1199999       1.37683557E-07
  -12.1099997       1.21949256E-07
  -12.1000004       1.02639142E-07
  -12.0900002       7.97982551E-08
  -12.0799999       5.35271063E-08
  -12.0699997       2.39767566E-08
  -12.0600004      -8.66053984E-09
  -12.0500002      -4.41637944E-08
  -12.0400000      -8.22962178E-08
  -12.0299997      -1.22815294E-07
  -12.0200005      -1.65477218E-07
  -12.0100002      -2.10033619E-07
  -12.0000000      -2.56220346E-07
  -11.9899998      -3.03740677E-07
  -11.9799995      -3.52245337E-07
  -11.9700003      -4.01315702E-07
  -11.9600000      -4.50452944E-07
  -11.9499998      -4.99077487E-07
  -11.9399996      -5.46539638E-07
  -11.9300003      -5.92140395E-07
  -11.9200001      -6.35158017E-07
  -11.9099998      -6.74876503E-07
  -11.8999996      -7.10610550E-07
  -11.8900003      -7.41722204E-07
  -11.8800001      -7.67626773E-07
  -11.8699999      -7.87789986E-07
  -11.8599997      -8.01715998E-07
  -11.8500004      -8.08933464E-07
  -11.8400002      -8.08984169E-07
  -11.8299999      -8.01415752E-07
  -11.8199997      -7.85785801E-07
  -11.8100004      -7.61674585E-07
  -11.8000002      -7.28706027E-07
  -11.7900000      -6.86572321E-07
  -11.7799997      -6.35059905E-07
  -11.7700005      -5.74071294E-07
  -11.7600002      -5.03638319E-07
  -11.7500000      -4.23927503E-07
  -11.7399998      -3.35234745E-07
  -11.7299995      -2.37972912E-07
  -11.7200003      -1.32652332E-07
  -11.7100000      -1.98591170E-08
  -11.6999998       9.97673553E-08
  -11.6899996       2.25554501E-07
  -11.6800003       3.56812023E-07
  -11.6700001       4.92840854E-07
  -11.6599998       6.32934871E-07
  -11.6499996       7.76374179E-07
  -11.6400003       9.22411346E-07
  -11.6300001       1.07025085E-06
  -11.6199999       1.21902644E-06
  -11.6099997       1.36777658E-06
  -11.6000004       1.51542849E-06
  -11.5900002       1.66078746E-06
  -11.5799999       1.80254074E-06
  -11.5699997       1.93927553E-06
  -11.5600004       2.06950767E-06
  -11.5500002       2.19172216E-06
  -11.5400000       2.30441628E-06
  -11.5299997       2.40614145E-06
  -11.5200005       2.49553887E-06
  -11.5100002       2.57135935E-06
  -11.5000000       2.63247352E-06
  -11.4899998       2.67786595E-06
  -11.4799995       2.70661781E-06
  -11.4700003       2.71788895E-06
  -11.4600000       2.71089152E-06
  -11.4499998       2.68487383E-06
  -11.4399996       2.63910442E-06
  -11.4300003       2.57286842E-06
  -11.4200001       2.48546667E-06
  -11.4099998       2.37622703E-06
  -11.3999996       2.24451151E-06
  -11.3900003       2.08973665E-06
  -11.3800001       1.91138861E-06
  -11.3699999       1.70904480E-06
  -11.3599997       1.48239531E-06
  -11.3500004       1.23126188E-06
  -11.3400002       9.55615860E-07
  -11.3299999       6.55588849E-07
  -11.3199997       3.31472592E-07
  -11.3100004      -1.62921516E-08
  -11.3000002      -3.87140602E-07
  -11.2900000      -7.80420464E-07
  -11.2799997      -1.19543483E-06
  -11.2700005      -1.63148866E-06
  -11.2600002      -2.08792835E-06
  -11.2500000      -2.56417229E-06
  -11.2399998      -3.05972412E-06
  -11.2299995      -3.57417184E-06
  -11.2200003      -4.10716711E-06
  -11.2100000      -4.65839685E-06
  -11.1999998      -5.22754544E-06
  -11.1899996      -5.81425184E-06
  -11.1800003      -6.41807719E-06
  -11.1700001      -7.03846854E-06
  -11.1599998      -7.67474376E-06
  -11.1499996      -8.32607020E-06
  -11.1400003      -8.99147108E-06
  -11.1300001      -9.66983316E-06
  -11.1199999      -1.03599177E-05
  -11.1099997      -1.10604033E-05
  -11.1000004      -1.17699165E-05
  -11.0900002      -1.24870849E-05
  -11.0799999      -1.32105761E-05
  -11.0699997      -1.39391586E-05
  -11.0600004      -1.46717257E-05
  -11.0500002      -1.54073223E-05
  -11.0400000      -1.61451517E-05
  -11.0299997      -1.68845636E-05
  -11.0200005      -1.76250196E-05
  -11.0100002      -1.83660359E-05
  -11.0000000      -1.91071376E-05
  -10.9899998      -1.98477701E-05
  -10.9799995      -2.05872620E-05
  -10.9700003      -2.13247549E-05
  -10.9600000      -2.20591701E-05
  -10.9499998      -2.27892015E-05
  -10.9399996      -2.35133321E-05
  -10.9300003      -2.42298793E-05
  -10.9200001      -2.49370751E-05
  -10.9099998      -2.56331550E-05
  -10.8999996      -2.63164839E-05
  -10.8900003      -2.69856318E-05
  -10.8800001      -2.76394640E-05
  -10.8699999      -2.82771653E-05
  -10.8599997      -2.88982246E-05
  -10.8500004      -2.95023438E-05
  -10.8400002      -3.00893444E-05
  -10.8299999      -3.06590118E-05
  -10.8199997      -3.12109623E-05
  -10.8100004      -3.17445447E-05
  -10.8000002      -3.22587657E-05
  -10.7900000      -3.27523048E-05
  -10.7799997      -3.32235795E-05
  -10.7700005      -3.36708217E-05
  -10.7600002      -3.40922597E-05
  -10.7500000      -3.44861619E-05
  -10.7399998      -3.48509748E-05
  -10.7299995      -3.51853632E-05
  -10.7200003      -3.54882177E-05
  -10.7100000      -3.57586396E-05
  -10.6999998      -3.59959377E-05
  -10.6899996      -3.61995553E-05
  -10.6800003      -3.63691215E-05
  -10.6700001      -3.65043779E-05
  -10.6599998      -3.66052409E-05
  -10.6499996      -3.66717431E-05
  -10.6400003      -3.67040629E-05
  -10.6300001      -3.67024004E-05
  -10.6199999      -3.66669701E-05
  -10.6099997      -3.65979031E-05
  -10.6000004      -3.64951848E-05
  -10.5900002      -3.63586478E-05
  -10.5799999      -3.61879793E-05
  -10.5699997      -3.59828045E-05
  -10.5600004      -3.57427671E-05
  -10.5500002      -3.54676376E-05
  -10.5400000      -3.51573726E-05
  -10.5299997      -3.48121830E-05
  -10.5200005      -3.44324799E-05
  -10.5100002      -3.40188599E-05
  -10.5000000      -3.35720033E-05
  -10.4899998      -3.30925941E-05
  -10.4799995      -3.25812689E-05
  -10.4700003      -3.20386098E-05
  -10.4600000      -3.14651807E-05
  -10.4499998      -3.08615708E-05
  -10.4399996      -3.02285007E-05
  -10.4300003      -2.95668851E-05
  -10.4200001      -2.88778629E-05
  -10.4099998      -2.81628127E-05
  -10.3999996      -2.74233371E-05
  -10.3900003      -2.66611787E-05
  -10.3800001      -2.58781911E-05
  -10.3699999      -2.50762714E-05
  -10.3599997      -2.42572914E-05
  -10.3500004      -2.34230956E-05
  -10.3400002      -2.25754320E-05
  -10.3299999      -2.17159377E-05
  -10.3199997      -2.08461315E-05
  -10.3100004      -1.99673595E-05
  -10.3000002      -1.90808150E-05
  -10.2900000      -1.81875566E-05
  -10.2799997      -1.72885593E-05
  -10.2700005      -1.63848126E-05
  -10.2600002      -1.54773952E-05
  -10.2500000      -1.45675795E-05
  -10.2399998      -1.36568442E-05
  -10.2299995      -1.27468893E-05
  -10.2200003      -1.18395474E-05
  -10.2100000      -1.09366438E-05
  -10.1999998      -1.00398584E-05
  -10.1899996      -9.15057171E-06
  -10.1800003      -8.26976702E-06
  -10.1700001      -7.39801726E-06
  -10.1599998      -6.53552206E-06
  -10.1499996      -5.68223095E-06
  -10.1400003      -4.83797749E-06
  -10.1300001      -4.00261342E-06
  -10.1199999      -3.17610215E-06
  -10.1099997      -2.35855214E-06
  -10.1000004      -1.55019188E-06
  -10.0900002      -7.51295602E-07
  -10.0799999       3.78797793E-08
  -10.0699997       8.17161720E-07
  -10.0600004       1.58648425E-06
  -10.0500002       2.34586014E-06
  -10.0400000       3.09532834E-06
  -10.0299997       3.83490351E-06
  -10.0200005       4.56453290E-06
  -10.0100002       5.28408646E-06
  -10.0000000       5.99340183E-06
  -9.98999977       6.69236351E-06
  -9.97999954       7.38097287E-06
  -9.97000027       8.05943910E-06
  -9.96000004       8.72821329E-06
  -9.94999981       9.38799076E-06
  -9.93999958       1.00396883E-05
  -9.93000031       1.06843690E-05
  -9.92000008       1.13232036E-05
  -9.90999985       1.19574170E-05
  -9.89999962       1.25882643E-05
  -9.89000034       1.32170353E-05
  -9.88000011       1.38450368E-05
  -9.86999989       1.44735905E-05
  -9.85999966       1.51039721E-05
  -9.85000038       1.57373488E-05
  -9.84000015       1.63746827E-05
  -9.82999992       1.70166313E-05
  -9.81999969       1.76634967E-05
  -9.81000042       1.83152260E-05
  -9.80000019       1.89714810E-05
  -9.78999996       1.96317760E-05
  -9.77999973       2.02956398E-05
  -9.77000046       2.09628179E-05
  -9.76000023       2.16334065E-05
  -9.75000000       2.23079187E-05
  -9.73999977       2.29872912E-05
  -9.72999954       2.36727574E-05
  -9.72000027       2.43657196E-05
  -9.71000004       2.50675839E-05
  -9.69999981       2.57796073E-05
  -9.68999958       2.65028175E-05
  -9.68000031       2.72380203E-05
  -9.67000008       2.79858396E-05
  -9.65999985       2.87468556E-05
  -9.64999962       2.95216814E-05
  -9.64000034       3.03110501E-05
  -9.63000011       3.11158255E-05
  -9.61999989       3.19369647E-05
  -9.60999966       3.27754206E-05
  -9.60000038       3.36320190E-05
  -9.59000015       3.45073786E-05
  -9.57999992       3.54018375E-05
  -9.56999969       3.63154977E-05
  -9.56000042       3.72481845E-05
  -9.55000019       3.81995633E-05
  -9.53999996       3.91691574E-05
  -9.52999973       4.01563193E-05
  -9.52000046       4.11601723E-05
  -9.51000023       4.21794757E-05
  -9.50000000       4.32124943E-05
  -9.48999977       4.42569253E-05
  -9.47999954       4.53098655E-05
  -9.47000027       4.63678625E-05
  -9.46000004       4.74271073E-05
  -9.44999981       4.84836382E-05
  -9.43999958       4.95335444E-05
  -9.43000031       5.05731041E-05
  -9.42000008       5.15988359E-05
  -9.40999985       5.26074691E-05
  -9.39999962       5.35957915E-05
  -9.39000034       5.45605399E-05
  -9.38000011       5.54983053E-05
  -9.36999989       5.64055699E-05
  -9.35999966       5.72788122E-05
  -9.35000038       5.81147797E-05
  -9.34000015       5.89107294E-05
  -9.32999992       5.96647005E-05
  -9.31999969       6.03756162E-05
  -9.31000042       6.10433417E-05
  -9.30000019       6.16685356E-05
  -9.28999996       6.22525185E-05
  -9.27999973       6.27970730E-05
  -9.27000046       6.33043746E-05
  -9.26000023       6.37769772E-05
  -9.25000000       6.42179584E-05
  -9.23999977       6.46310145E-05
  -9.22999954       6.50207148E-05
  -9.22000027       6.53923998E-05
  -9.21000004       6.57521887E-05
  -9.19999981       6.61066952E-05
  -9.18999958       6.64627223E-05
  -9.18000031       6.68269422E-05
  -9.17000008       6.72057358E-05
  -9.15999985       6.76050913E-05
  -9.14999962       6.80307276E-05
  -9.14000034       6.84882834E-05
  -9.13000011       6.89835360E-05
  -9.11999989       6.95225244E-05
  -9.10999966       7.01115423E-05
  -9.10000038       7.07568979E-05
  -9.09000015       7.14645721E-05
  -9.07999992       7.22399491E-05
  -9.06999969       7.30873726E-05
  -9.06000042       7.40102041E-05
  -9.05000019       7.50107647E-05
  -9.03999996       7.60906187E-05
  -9.02999973       7.72508938E-05
  -9.02000046       7.84925141E-05
  -9.01000023       7.98162946E-05
  -9.00000000       8.12229337E-05
  -8.98999977       8.27127224E-05
  -8.97999954       8.42852605E-05
  -8.97000027       8.59391803E-05
  -8.96000004       8.76719496E-05
  -8.94999981       8.94799086E-05
  -8.93999958       9.13584954E-05
  -8.93000031       9.33024639E-05
  -8.92000008       9.53062117E-05
  -8.90999985       9.73639180E-05
  -8.89999962       9.94695947E-05
  -8.89000034       1.01616977E-04
  -8.88000011       1.03799328E-04
  -8.86999989       1.06009204E-04
  -8.85999966       1.08238470E-04
  -8.85000038       1.10478373E-04
  -8.84000015       1.12719630E-04
  -8.82999992       1.14952949E-04
  -8.81999969       1.17169082E-04
  -8.81000042       1.19359007E-04
  -8.80000019       1.21513993E-04
  -8.78999996       1.23625388E-04
  -8.77999973       1.25684339E-04
  -8.77000046       1.27681706E-04
  -8.76000023       1.29608015E-04
  -8.75000000       1.31453475E-04
  -8.73999977       1.33208421E-04
  -8.72999954       1.34863469E-04
  -8.72000027       1.36410046E-04
  -8.71000004       1.37840398E-04
  -8.69999981       1.39147727E-04
  -8.68999958       1.40325836E-04
  -8.68000031       1.41369062E-04
  -8.67000008       1.42271820E-04
  -8.65999985       1.43028577E-04
  -8.64999962       1.43633806E-04
  -8.64000034       1.44082267E-04
  -8.63000011       1.44369173E-04
  -8.61999989       1.44490448E-04
  -8.60999966       1.44442907E-04
  -8.60000038       1.44224265E-04
  -8.59000015       1.43832891E-04
  -8.57999992       1.43267505E-04
  -8.56999969       1.42527031E-04
  -8.56000042       1.41610348E-04
  -8.55000019       1.40516349E-04
  -8.53999996       1.39244119E-04
  -8.52999973       1.37793235E-04
  -8.52000046       1.36163886E-04
  -8.51000023       1.34357062E-04
  -8.50000000       1.32374553E-04
  -8.48999977       1.30218701E-04
  -8.47999954       1.27892141E-04
  -8.47000027       1.25397550E-04
  -8.46000004       1.22737460E-04
  -8.44999981       1.19914221E-04
  -8.43999958       1.16930139E-04
  -8.43000031       1.13787668E-04
  -8.42000008       1.10489636E-04
  -8.40999985       1.07039225E-04
  -8.39999962       1.03440041E-04
  -8.39000034       9.96958188E-05
  -8.38000011       9.58102173E-05
  -8.36999989       9.17865982E-05
  -8.35999966       8.76278937E-05
  -8.35000038       8.33366867E-05
  -8.34000015       7.89153491E-05
  -8.32999992       7.43663404E-05
  -8.31999969       6.96924544E-05
  -8.31000042       6.48969071E-05
  -8.30000019       5.99833947E-05
  -8.28999996       5.49559991E-05
  -8.27999973       4.98189584E-05
  -8.27000046       4.45765945E-05
  -8.26000023       3.92331312E-05
  -8.25000000       3.37928213E-05
  -8.23999977       2.82600649E-05
  -8.22999954       2.26395787E-05
  -8.22000027       1.69364721E-05
  -8.21000004       1.11563677E-05
  -8.19999981       5.30520902E-06
  -8.18999958      -6.10891220E-07
  -8.18000031      -6.58587987E-06
  -8.17000008      -1.26139212E-05
  -8.15999985      -1.86894304E-05
  -8.14999962      -2.48069246E-05
  -8.14000034      -3.09607676E-05
  -8.13000011      -3.71448514E-05
  -8.11999989      -4.33523819E-05
  -8.10999966      -4.95756904E-05
  -8.10000038      -5.58062929E-05
  -8.09000015      -6.20350474E-05
  -8.07999992      -6.82524696E-05
  -8.06999969      -7.44489371E-05
  -8.06000042      -8.06149765E-05
  -8.05000019      -8.67412891E-05
  -8.03999996      -9.28187073E-05
  -8.02999973      -9.88381216E-05
  -8.02000046      -1.04790321E-04
  -8.01000023      -1.10665816E-04
  -8.00000000      -1.16454925E-04
  -7.98999977      -1.22147758E-04
  -7.98000002      -1.27734311E-04
  -7.96999979      -1.33204754E-04
  -7.96000004      -1.38549382E-04
  -7.94999981      -1.43758938E-04
  -7.94000006      -1.48824489E-04
  -7.92999983      -1.53737565E-04
  -7.92000008      -1.58490162E-04
  -7.90999985      -1.63074656E-04
  -7.90000010      -1.67483915E-04
  -7.88999987      -1.71711275E-04
  -7.88000011      -1.75750567E-04
  -7.86999989      -1.79596143E-04
  -7.86000013      -1.83242853E-04
  -7.84999990      -1.86686069E-04
  -7.84000015      -1.89921717E-04
  -7.82999992      -1.92946187E-04
  -7.82000017      -1.95756511E-04
  -7.80999994      -1.98350346E-04
  -7.80000019      -2.00725975E-04
  -7.78999996      -2.02882453E-04
  -7.78000021      -2.04819327E-04
  -7.76999998      -2.06536832E-04
  -7.76000023      -2.08035446E-04
  -7.75000000      -2.09316160E-04
  -7.73999977      -2.10380327E-04
  -7.73000002      -2.11229490E-04
  -7.71999979      -2.11865845E-04
  -7.71000004      -2.12291925E-04
  -7.69999981      -2.12510946E-04
  -7.69000006      -2.12526575E-04
  -7.67999983      -2.12343104E-04
  -7.67000008      -2.11965118E-04
  -7.65999985      -2.11397419E-04
  -7.65000010      -2.10644765E-04
  -7.63999987      -2.09712016E-04
  -7.63000011      -2.08603858E-04
  -7.61999989      -2.07325138E-04
  -7.61000013      -2.05880817E-04
  -7.59999990      -2.04276046E-04
  -7.59000015      -2.02516283E-04
  -7.57999992      -2.00607159E-04
  -7.57000017      -1.98554379E-04
  -7.55999994      -1.96363413E-04
  -7.55000019      -1.94039574E-04
  -7.53999996      -1.91587736E-04
  -7.53000021      -1.89012353E-04
  -7.51999998      -1.86317557E-04
  -7.51000023      -1.83507378E-04
  -7.50000000      -1.80585630E-04
  -7.48999977      -1.77556183E-04
  -7.48000002      -1.74422748E-04
  -7.46999979      -1.71188949E-04
  -7.46000004      -1.67858103E-04
  -7.44999981      -1.64433237E-04
  -7.44000006      -1.60916868E-04