  -16.0000000       0.00000000    
  -15.9899998       0.00000000    
  -15.9799995       0.00000000    
  -15.9700003       0.00000000    
  -15.9600000       0.00000000    
  -15.9499998       0.00000000    
  -15.9399996       0.00000000    
  -15.9300003       0.00000000    
  -15.9200001       0.00000000    
  -15.9099998       0.00000000    
  -15.8999996       0.00000000    
  -15.8900003       0.00000000    
  -15.8800001       0.00000000    
  -15.8699999      -0.00000000    
  -15.8599997       0.00000000    
  -15.8500004       2.80259693E-45
  -15.8400002       3.78350585E-44
  -15.8299999       3.33509035E-43
  -15.8199997       2.29392559E-42
  -15.8100004       1.31680017E-41
  -15.8000002       6.48717111E-41
  -15.7900000       2.80077524E-40
  -15.7799997       1.07564231E-39
  -15.7700005       3.71600391E-39
  -15.7600002       1.16452891E-38
  -15.7500000       3.33106918E-38
  -15.7399998       8.73486730E-38
  -15.7299995       2.10516463E-37
  -15.7200003       4.66628712E-37
  -15.7100000       9.49738756E-37
  -15.6999998       1.76612573E-36
  -15.6899996       2.96889935E-36
  -15.6800003       4.41265721E-36
  -15.6700001       5.50677742E-36
  -15.6599998       4.89321657E-36
  -15.6499996       1.73427041E-37
  -15.6400003      -1.20463763E-35
  -15.6300001      -3.53791571E-35
  -15.6199999      -7.17051554E-35
  -15.6099997      -1.17832759E-34
  -15.6000004      -1.61210980E-34
  -15.5900002      -1.76226417E-34
  -15.5799999      -1.23933839E-34
  -15.5699997       4.09775379E-35
  -15.5600004       3.52495789E-34
  -15.5500002       8.03992861E-34
  -15.5400000       1.31196686E-33
  -15.5299997       1.68559425E-33
  -15.5200005       1.62368188E-33
  -15.5100002       7.66172478E-34
  -15.5000000      -1.17611332E-33
  -15.4899998      -4.20910144E-33
  -15.4799995      -7.79626498E-33
  -15.4700003      -1.06486740E-32
  -15.4600000      -1.07270619E-32
  -15.4499998      -5.65907923E-33
  -15.4399996       6.26475747E-33
  -15.4300003       2.45347903E-32
  -15.4200001       4.46860710E-32
  -15.4099998       5.72601283E-32
  -15.3999996       4.87880114E-32
  -15.3900003       6.15499679E-33
  -15.3800001      -7.51156877E-32
  -15.3699999      -1.80130474E-31
  -15.3599997      -2.65944853E-31
  -15.3500004      -2.62454269E-31
  -15.3400002      -9.13595855E-32
  -15.3299999       2.91949492E-31
  -15.3199997       8.38991225E-31
  -15.3100004       1.35287889E-30
  -15.3000002       1.47584444E-30
  -15.2900000       7.66293389E-31
  -15.2799997      -1.10222861E-30
  -15.2700005      -4.03462726E-30
  -15.2600002      -7.19326107E-30
  -15.2500000      -8.84402603E-30
  -15.2399998      -6.60606685E-30
  -15.2299995       1.69745710E-30
  -15.2200003       1.65765016E-29
  -15.2100000       3.51329886E-29
  -15.1999998       4.98089479E-29
  -15.1899996       4.87422024E-29
  -15.1800003       1.88554214E-29
  -15.1700001      -4.78031220E-29
  -15.1599998      -1.45325474E-28
  -15.1499996      -2.45678292E-28
  -15.1400003      -2.95816941E-28
  -15.1300001      -2.26124374E-28
  -15.1199999       2.52246538E-29
  -15.1099997       4.72271726E-28
  -15.1000004       1.03463691E-27
  -15.0900002       1.50407232E-27
  -15.0799999       1.55296803E-27
  -15.0699997       8.14150291E-28
  -15.0600004      -9.53588004E-28
  -15.0500002      -3.63467893E-27
  -15.0400000      -6.53318655E-27
  -15.0299997      -8.28342546E-27
  -15.0200005      -7.05051984E-27
  -15.0100002      -1.14291684E-27
  -15.0000000       9.96925742E-27
  -14.9899998       2.44626537E-26
  -14.9799995       3.73063169E-26
  -14.9700003       4.04696430E-26
  -14.9600000       2.49008690E-26
  -14.9499998      -1.54343409E-26
  -14.9399996      -7.80622547E-26
  -14.9300003      -1.46914226E-25
  -14.9200001      -1.90673523E-25
  -14.9099998      -1.67989914E-25
  -14.8999996      -4.18419127E-26
  -14.8900003       1.97900475E-25
  -14.8800001       5.09708324E-25
  -14.8699999       7.84884504E-25
  -14.8599997       8.56023241E-25
  -14.8500004       5.41898828E-25
  -14.8400002      -2.69110727E-25
  -14.8299999      -1.51354088E-24
  -14.8199997      -2.86441351E-24
  -14.8100004      -3.71663454E-24
  -14.8000002      -3.30323139E-24
  -14.7900000      -9.70705275E-25
  -14.7799997       3.42001534E-24
  -14.7700005       9.08534970E-24
  -14.7600002       1.41014787E-23
  -14.7500000       1.56066680E-23
  -14.7399998       1.05901169E-23
  -14.7299995      -2.74912444E-24
  -14.7200003      -2.33769147E-23
  -14.7100000      -4.61500385E-23
  -14.6999998      -6.17150057E-23
  -14.6899996      -5.83329697E-23
  -14.6800003      -2.59177884E-23
  -14.6700001       3.82984933E-23
  -14.6599998       1.24156003E-22
  -14.6499996       2.05633445E-22
  -14.6400003       2.43460853E-22
  -14.6300001       1.95218979E-22
  -14.6199999       3.25397929E-23
  -14.6099997      -2.38390610E-22
  -14.6000004      -5.60360389E-22
  -14.5900002      -8.22156389E-22
  -14.5799999      -8.77600967E-22
  -14.5699997      -5.89914173E-22
  -14.5600004       1.04601776E-22
  -14.5500002       1.13099430E-21
  -14.5400000       2.23527749E-21
  -14.5299997       2.99908690E-21
  -14.5200005       2.93066214E-21
  -14.5100002       1.63170080E-21
  -14.5000000      -9.92323910E-22
  -14.4899998      -4.54431380E-21
  -14.4799995      -8.05797267E-21
  -14.4700003      -1.01140391E-20
  -14.4600000      -9.19349535E-21
  -14.4499998      -4.23469662E-21
  -14.4399996       4.73541796E-21
  -14.4300003       1.61132279E-20
  -14.4200001       2.66293915E-20
  -14.4099998       3.18687325E-20
  -14.3999996       2.74607517E-20
  -14.3900003       1.07677824E-20
  -14.3800001      -1.73666828E-20
  -14.3699999      -5.14512868E-20
  -14.3599997      -8.14436473E-20
  -14.3500004      -9.45895377E-20
  -14.3400002      -7.90181018E-20
  -14.3299999      -2.84557465E-20
  -14.3199997       5.32418646E-20
  -14.3100004       1.49472441E-19
  -14.3000002       2.31870410E-19
  -14.2900000       2.65896613E-19
  -14.2799997       2.20742504E-19
  -14.2700005       8.16003335E-20
  -14.2600002      -1.39196596E-19
  -14.2500000      -3.96497317E-19
  -14.2399998      -6.16043950E-19
  -14.2299995      -7.09558166E-19
  -14.2200003      -5.99908862E-19
  -14.2100000      -2.51142710E-19
  -14.1999998       3.05239469E-19
  -14.1899996       9.57914440E-19
  -14.1800003       1.52598300E-18
  -14.1700001       1.79568131E-18
  -14.1599998       1.57975563E-18
  -14.1499996       7.86983357E-19
  -14.1400003      -5.17835536E-19
  -14.1300001      -2.08587199E-18
  -14.1199999      -3.50690004E-18
  -14.1099997      -4.29025207E-18
  -14.1000004      -3.99522446E-18
  -14.0900002      -2.38374738E-18
  -14.0799999       4.46510130E-19
  -14.0699997       3.99572407E-18
  -14.0600004       7.40113070E-18
  -14.0500002       9.59831266E-18
  -14.0400000       9.58758992E-18
  -14.0299997       6.75188408E-18
  -14.0200005       1.14317353E-18
  -14.0100002      -6.35654634E-18
  -14.0000000      -1.40792940E-17
  -13.9899998      -1.98575757E-17
  -13.9799995      -2.15278105E-17
  -13.9700003      -1.75553021E-17
  -13.9600000      -7.62777902E-18
  -13.9499998       6.96103257E-18
  -13.9399996       2.32957337E-17
  -13.9300003       3.72785255E-17
  -13.9200001       4.44999049E-17
  -13.9099998       4.13900069E-17
  -13.8999996       2.63893231E-17
  -13.8900003       8.18059447E-19
  -13.8800001      -3.08583665E-17
  -13.8699999      -6.15643465E-17
  -13.8599997      -8.29656463E-17
  -13.8500004      -8.74339701E-17
  -13.8400002      -7.02156498E-17
  -13.8299999      -3.12630332E-17
  -13.8199997       2.38238174E-17
  -13.8100004       8.41617694E-17
  -13.8000002       1.35401406E-16
  -13.7900000       1.62783361E-16
  -13.7799997       1.54857647E-16
  -13.7700005       1.07014520E-16
  -13.7600002       2.38772516E-17
  -13.7500000      -8.02573247E-17
  -13.7399998      -1.83374375E-16
  -13.7299995      -2.59988187E-16
  -13.7200003      -2.86965789E-16
  -13.7100000      -2.49688902E-16
  -13.6999998      -1.47031936E-16
  -13.6899996       6.29793812E-18
  -13.6800003       1.81057700E-16
  -13.6700001       3.38610844E-16
  -13.6599998       4.39163237E-16
  -13.6499996       4.51429703E-16
  -13.6400003       3.61458049E-16
  -13.6300001       1.78238827E-16
  -13.6199999      -6.57633799E-17
  -13.6099997      -3.19943905E-16
  -13.6000004      -5.26109369E-16
  -13.5900002      -6.32139047E-16
  -13.5799999      -6.05555871E-16
  -13.5699997      -4.43432733E-16
  -13.5600004      -1.75606685E-16
  -13.5500002       1.40380094E-16
  -13.5400000       4.32120661E-16
  -13.5299997       6.30271446E-16
  -13.5200005       6.87139861E-16
  -13.5100002       5.90796852E-16
  -13.5000000       3.70243051E-16
  -13.4899998       8.91987500E-17
  -13.4799995      -1.70895673E-16
  -13.4700003      -3.34818757E-16
  -13.4600000      -3.58012557E-16
  -13.4499998      -2.44054147E-16
  -13.4399996      -4.87121733E-17
  -13.4300003       1.32717132E-16
  -13.4200001       1.93465157E-16
  -13.4099998       5.24143855E-17
  -13.3999996      -3.09959187E-16
  -13.3900003      -8.28586264E-16
  -13.3800001      -1.35374055E-15
  -13.3699999      -1.67881793E-15
  -13.3599997      -1.59337274E-15
  -13.3500004      -9.50699192E-16
  -13.3400002       2.67272988E-16
  -13.3299999       1.90771280E-15
  -13.3199997       3.64470781E-15
  -13.3100004       5.02664926E-15
  -13.3000002       5.57054606E-15
  -13.2900000       4.88700487E-15
  -13.2799997       2.80797394E-15
  -13.2700005      -5.16749602E-16
  -13.2600002      -4.58621712E-15
  -13.2500000      -8.59928177E-15
  -13.2399998      -1.15924811E-14
  -13.2299995      -1.26453938E-14
  -13.2200003      -1.11133467E-14
  -13.2100000      -6.83377923E-15
  -13.1999998      -2.50603432E-16
  -13.1899996       7.58720022E-15
  -13.1800003       1.51718373E-14
  -13.1700001       2.08139289E-14
  -13.1599998       2.30028297E-14
  -13.1499996       2.07753702E-14
  -13.1400003       1.40065631E-14
  -13.1300001       3.54365233E-15
  -13.1199999      -8.86701364E-15
  -13.1099997      -2.08671903E-14
  -13.1000004      -2.99445967E-14
  -13.0900002      -3.39727399E-14
  -13.0799999      -3.17151904E-14
  -13.0699997      -2.31735306E-14
  -13.0600004      -9.68368892E-15
  -13.0500002       6.28363091E-15
  -13.0400000       2.15963942E-14
  -13.0299997       3.31193406E-14
  -13.0200005       3.84160274E-14
  -13.0100002       3.63323399E-14
  -13.0000000       2.73148508E-14
  -12.9899998       1.33700407E-14
  -12.9799995      -2.34949364E-15
  -12.9700003      -1.62562140E-14
  -12.9600000      -2.51824217E-14
  -12.9499998      -2.71785751E-14
  -12.9399996      -2.20544086E-14
  -12.9300003      -1.15109270E-14
  -12.9200001       1.19871700E-15
  -12.9099998       1.20292570E-14
  -12.8999996       1.71661510E-14
  -12.8900003       1.40755243E-14
  -12.8800001       2.32078578E-15
  -12.8699999      -1.60777170E-14
  -12.8599997      -3.68688776E-14
  -12.8500004      -5.43791290E-14
  -12.8400002      -6.27577688E-14
  -12.8299999      -5.73979679E-14
  -12.8199997      -3.62110346E-14
  -12.8100004      -4.42987723E-16
  -12.8000002       4.51914507E-14
  -12.7900000       9.31385028E-14
  -12.7799997       1.34309461E-13
  -12.7700005       1.59811685E-13
  -12.7600002       1.62751391E-13
  -12.7500000       1.39722042E-13
  -12.7399998       9.16496628E-14
  -12.7299995       2.37994049E-14
  -12.7200003      -5.50704400E-14
  -12.7100000      -1.34232970E-13
  -12.6999998      -2.02871059E-13
  -12.6899996      -2.51907355E-13
  -12.6800003      -2.75399007E-13
  -12.6700001      -2.71215396E-13
  -12.6599998      -2.40889367E-13
  -12.6499996      -1.88730338E-13
  -12.6400003      -1.20465175E-13
  -12.6300001      -4.17841997E-14
  -12.6199999       4.28099024E-14
  -12.6099997       1.30534174E-13
  -12.6000004       2.20084679E-13
  -12.5900002       3.10677672E-13
  -12.5799999       4.00632029E-13
  -12.5699997       4.85897997E-13
  -12.5600004       5.58989324E-13
  -12.5500002       6.08718262E-13
  -12.5400000       6.20967416E-13
  -12.5299997       5.80500437E-13
  -12.5200005       4.73566932E-13
  -12.5100002       2.90851842E-13
  -12.5000000       3.02099518E-14
  -12.4899998      -3.01353208E-13
  -12.4799995      -6.86848853E-13
  -12.4700003      -1.09977338E-12
  -12.4600000      -1.50574475E-12
  -12.4499998      -1.86493052E-12
  -12.4399996      -2.13472230E-12
  -12.4300003      -2.27211088E-12
  -12.4200001      -2.23535817E-12
  -12.4099998      -1.98481943E-12
  -12.3999996      -1.48310574E-12
  -12.3900003      -6.95063473E-13
  -12.3800001       4.11778223E-13
  -12.3699999       1.86564457E-12
  -12.3599997       3.68742146E-12
  -12.3500004       5.88599568E-12
  -12.3400002       8.45250345E-12
  -12.3299999       1.13543975E-11
  -12.3199997       1.45305799E-11
  -12.3100004       1.78889004E-11
  -12.3000002       2.13070585E-11
  -12.2900000       2.46373703E-11
  -12.2799997       2.77153127E-11
  -12.2700005       3.03708413E-11
  -12.2600002       3.24409076E-11
  -12.2500000       3.37813701E-11
  -12.2399998       3.42765989E-11
  -12.2299995       3.38452807E-11
  -12.2200003       3.24419588E-11
  -12.2100000       3.00545977E-11
  -12.1999998       2.66992071E-11
  -12.1899996       2.24130679E-11
  -12.1800003       1.72484093E-11
  -12.1700001       1.12677168E-11
  -12.1599998       4.54163139E-12
  -12.1499996      -2.85072291E-12
  -12.1400003      -1.08198008E-11
  -12.1300001      -1.92633600E-11
  -12.1199999      -2.80654128E-11
  -12.1099997      -3.70973738E-11
  -12.1000004      -4.62221129E-11
  -12.0900002      -5.53003685E-11
  -12.0799999      -6.41984660E-11
  -12.0699997      -7.27956306E-11
  -12.0600004      -8.09893888E-11
  -12.0500002      -8.86974522E-11
  -12.0400000      -9.58556567E-11
  -12.0299997      -1.02412211E-10
  -12.0200005      -1.08319624E-10
  -12.0100002      -1.13525932E-10
  -12.0000000      -1.17967372E-10
  -11.9899998      -1.21563967E-10
  -11.9799995      -1.24219204E-10
  -11.9700003      -1.25823463E-10
  -11.9600000      -1.26260599E-10
  -11.9499998      -1.25415844E-10
  -11.9399996      -1.23183422E-10
  -11.9300003      -1.19472765E-10
  -11.9200001      -1.14211245E-10
  -11.9099998      -1.07345112E-10
  -11.8999996      -9.88377921E-11
  -11.8900003      -8.86680521E-11
  -11.8800001      -7.68287864E-11
  -11.8699999      -6.33280442E-11
  -11.8599997      -4.81924778E-11
  -11.8500004      -3.14729770E-11
  -11.8400002      -1.32512942E-11
  -11.8299999       6.35396380E-12
  -11.8199997       2.71840328E-11
  -11.8100004       4.90407298E-11
  -11.8000002       7.16922216E-11
  -11.7900000       9.48831916E-11
  -11.7799997       1.18348484E-10
  -11.7700005       1.41827994E-10
  -11.7600002       1.65080200E-10
  -11.7500000       1.87892452E-10
  -11.7399998       2.10085768E-10
  -11.7299995       2.31513725E-10
  -11.7200003       2.52055765E-10
  -11.7100000       2.71605849E-10
  -11.6999998       2.90060198E-10
  -11.6899996       3.07304543E-10
  -11.6800003       3.23204963E-10
  -11.6700001       3.37603251E-10
  -11.6599998       3.50317414E-10
  -11.6499996       3.61147751E-10
  -11.6400003       3.69886066E-10
  -11.6300001       3.76327219E-10
  -11.6199999       3.80279669E-10
  -11.6099997       3.81574328E-10
  -11.6000004       3.80069254E-10
  -11.5900002       3.75651038E-10
  -11.5799999       3.68232028E-10
  -11.5699997       3.57745972E-10
  -11.5600004       3.44142326E-10
  -11.5500002       3.27382926E-10
  -11.5400000       3.07439102E-10
  -11.5299997       2.84293061E-10
  -11.5200005       2.57940419E-10
  -11.5100002       2.28394498E-10
  -11.5000000       1.95690728E-10
  -11.4899998       1.59888616E-10
  -11.4799995       1.21072499E-10
  -11.4700003       7.93486526E-11
  -11.4600000       3.48416435E-11
  -11.4499998      -1.23103116E-11
  -11.4399996      -6.19596457E-11
  -11.4300003      -1.13949718E-10
  -11.4200001      -1.68113037E-10
  -11.4099998      -2.24267188E-10
  -11.3999996      -2.82207396E-10
  -11.3900003      -3.41702028E-10
  -11.3800001      -4.02489625E-10
  -11.3699999      -4.64282585E-10
  -11.3599997      -5.26775512E-10
  -11.3500004      -5.89660654E-10
  -11.3400002      -6.52646437E-10
  -11.3299999      -7.15477844E-10
  -11.3199997      -7.77952647E-10
  -11.3100004      -8.39933179E-10
  -11.3000002      -9.01347053E-10
  -11.2900000      -9.62180335E-10
  -11.2799997      -1.02246234E-09
  -11.2700005      -1.08224285E-09
  -11.2600002      -1.14157062E-09
  -11.2500000      -1.20047028E-09
  -11.2399998      -1.25892818E-09
  -11.2299995      -1.31688549E-09
  -11.2200003      -1.37423606E-09
  -11.2100000      -1.43083678E-09
  -11.1999998      -1.48651713E-09
  -11.1899996      -1.54109481E-09
  -11.1800003      -1.59439062E-09
  -11.1700001      -1.64623670E-09
  -11.1599998      -1.69648695E-09
  -11.1499996      -1.74502135E-09
  -11.1400003      -1.79174364E-09
  -11.1300001      -1.83658388E-09
  -11.1199999      -1.87949212E-09
  -11.1099997      -1.92043692E-09
  -11.1000004      -1.95939842E-09
  -11.0900002      -1.99636685E-09
  -11.0799999      -2.03133577E-09
  -11.0699997      -2.06430006E-09
  -11.0600004      -2.09525042E-09
  -11.0500002      -2.12417262E-09
  -11.0400000      -2.15104712E-09
  -11.0299997      -2.17584795E-09
  -11.0200005      -2.19854090E-09
  -11.0100002      -2.21908714E-09
  -11.0000000      -2.23743979E-09
  -10.9899998      -2.25354224E-09
  -10.9799995      -2.26733032E-09
  -10.9700003      -2.27873476E-09
  -10.9600000      -2.28768160E-09
  -10.9499998      -2.29410624E-09
  -10.9399996      -2.29795893E-09
  -10.9300003      -2.29921460E-09
  -10.9200001      -2.29788477E-09
  -10.9099998      -2.29401587E-09
  -10.8999996      -2.28768382E-09
  -10.8900003      -2.27898189E-09
  -10.8800001      -2.26799468E-09
  -10.8699999      -2.25478303E-09
  -10.8599997      -2.23935737E-09
  -10.8500004      -2.22166707E-09
  -10.8400002      -2.20160179E-09
  -10.8299999      -2.17900609E-09
  -10.8199997      -2.15370499E-09
  -10.8100004      -2.12552931E-09
  -10.8000002      -2.09435336E-09
  -10.7900000      -2.06010164E-09
  -10.7799997      -2.02276684E-09
  -10.7700005      -1.98239758E-09
  -10.7600002      -1.93908645E-09
  -10.7500000      -1.89294691E-09
  -10.7399998      -1.84409332E-09
  -10.7299995      -1.79263437E-09
  -10.7200003      -1.73867587E-09
  -10.7100000      -1.68231973E-09
  -10.6999998      -1.62368508E-09
  -10.6899996      -1.56291835E-09
  -10.6800003      -1.50018586E-09
  -10.6700001      -1.43567658E-09
  -10.6599998      -1.36957867E-09
  -10.6499996      -1.30206590E-09
  -10.6400003      -1.23327504E-09
  -10.6300001      -1.16331611E-09
  -10.6199999      -1.09226717E-09
  -10.6099997      -1.02021180E-09
  -10.6000004      -9.47265266E-10
  -10.5900002      -8.73588812E-10
  -10.5799999      -7.99411148E-10
  -10.5699997      -7.25012717E-10
  -10.5600004      -6.50689391E-10
  -10.5500002      -5.76715342E-10
  -10.5400000      -5.03285746E-10
  -10.5299997      -4.30485037E-10
  -10.5200005      -3.58264057E-10
  -10.5100002      -2.86462187E-10
  -10.5000000      -2.14851151E-10
  -10.4899998      -1.43195317E-10
  -10.4799995      -7.13199569E-11
  -10.4700003       8.18742426E-13
  -10.4600000       7.31040714E-11
  -10.4499998       1.45254461E-10
  -10.4399996       2.16833204E-10
  -10.4300003       2.87292412E-10
  -10.4200001       3.56035285E-10
  -10.4099998       4.22460039E-10
  -10.3999996       4.86014395E-10
  -10.3900003       5.46227952E-10
  -10.3800001       6.02738748E-10
  -10.3699999       6.55302312E-10
  -10.3599997       7.03805902E-10
  -10.3500004       7.48262508E-10
  -10.3400002       7.88800303E-10
  -10.3299999       8.25644886E-10
  -10.3199997       8.59077698E-10
  -10.3100004       8.89401774E-10
  -10.3000002       9.16888676E-10
  -10.2900000       9.41744349E-10
  -10.2799997       9.64076818E-10
  -10.2700005       9.83897852E-10
  -10.2600002       1.00114750E-09
  -10.2500000       1.01574271E-09
  -10.2399998       1.02763553E-09
  -10.2299995       1.03685371E-09
  -10.2200003       1.04354059E-09
  -10.2100000       1.04794673E-09
  -10.1999998       1.05039111E-09
  -10.1899996       1.05120890E-09
  -10.1800003       1.05069120E-09
  -10.1700001       1.04903608E-09
  -10.1599998       1.04633302E-09
  -10.1499996       1.04258058E-09
  -10.1400003       1.03773901E-09
  -10.1300001       1.03179354E-09
  -10.1199999       1.02480735E-09
  -10.1099997       1.01696129E-09
  -10.1000004       1.00854269E-09
  -10.0900002       9.99904270E-10
  -10.0799999       9.91402960E-10
  -10.0699997       9.83330084E-10
  -10.0600004       9.75862391E-10
  -10.0500002       9.69049840E-10
  -10.0400000       9.62846469E-10
  -10.0299997       9.57166790E-10
  -10.0200005       9.51953960E-10
  -10.0100002       9.47243728E-10
  -10.0000000       9.43188971E-10
  -9.98999977       9.40051037E-10
  -9.97999954       9.38147671E-10
  -9.97000027       9.37789513E-10
  -9.96000004       9.39211597E-10
  -9.94999981       9.42537048E-10
  -9.93999958       9.47773748E-10
  -9.93000031       9.54850310E-10
  -9.92000008       9.63681690E-10
  -9.90999985       9.74232917E-10
  -9.89999962       9.86567938E-10
  -9.89000034       1.00086095E-09
  -9.88000011       1.01736908E-09
  -9.86999989       1.03637188E-09
  -9.85999966       1.05810216E-09
  -9.85000038       1.08268661E-09
  -9.84000015       1.11011811E-09
  -9.82999992       1.14026888E-09
  -9.81999969       1.17293808E-09
  -9.81000042       1.20791921E-09
  -9.80000019       1.24506361E-09
  -9.78999996       1.28432065E-09
  -9.77999973       1.32574263E-09
  -9.77000046       1.36945566E-09
  -9.76000023       1.41560752E-09
  -9.75000000       1.46431756E-09
  -9.73999977       1.51564450E-09
  -9.72999954       1.56959012E-09
  -9.72000027       1.62613412E-09
  -9.71000004       1.68529413E-09
  -9.69999981       1.74718462E-09
  -9.68999958       1.81205284E-09
  -9.68000031       1.88027638E-09
  -9.67000008       1.95231653E-09
  -9.65999985       2.02863326E-09
  -9.64999962       2.10958251E-09
  -9.64000034       2.19533147E-09
  -9.63000011       2.28580088E-09
  -9.61999989       2.38065279E-09
  -9.60999966       2.47932164E-09
  -9.60000038       2.58107424E-09
  -9.59000015       2.68507172E-09
  -9.57999992       2.79042078E-09
  -9.56999969       2.89617930E-09
  -9.56000042       3.00134451E-09
  -9.55000019       3.10480486E-09
  -9.53999996       3.20530580E-09
  -9.52999973       3.30142869E-09
  -9.52000046       3.39162010E-09
  -9.51000023       3.47425644E-09
  -9.50000000       3.54774454E-09
  -9.48999977       3.61063468E-09
  -9.47999954       3.66170649E-09
  -9.47000027       3.70001407E-09
  -9.46000004       3.72488107E-09
  -9.44999981       3.73584896E-09
  -9.43999958       3.73259912E-09
  -9.43000031       3.71487685E-09
  -9.42000008       3.68246189E-09
  -9.40999985       3.63517549E-09
  -9.39999962       3.57295127E-09
  -9.39000034       3.49592932E-09
  -9.38000011       3.40457218E-09
  -9.36999989       3.29971739E-09
  -9.35999966       3.18262350E-09
  -9.35000038       3.05491965E-09
  -9.34000015       2.91851632E-09
  -9.32999992       2.77550560E-09
  -9.31999969       2.62807043E-09
  -9.31000042       2.47843079E-09
  -9.30000019       2.32884712E-09
  -9.28999996       2.18166574E-09
  -9.27999973       2.03939932E-09
  -9.27000046       1.90477767E-09
  -9.26000023       1.78074844E-09
  -9.25000000       1.67042602E-09
  -9.23999977       1.57696189E-09
  -9.22999954       1.50337542E-09
  -9.22000027       1.45237811E-09
  -9.21000004       1.42625278E-09
  -9.19999981       1.42678203E-09
  -9.18999958       1.45526502E-09
  -9.18000031       1.51259405E-09
  -9.17000008       1.59935121E-09
  -9.15999985       1.71591752E-09
  -9.14999962       1.86249283E-09
  -9.14000034       2.03909689E-09
  -9.13000011       2.24549157E-09
  -9.11999989       2.48109355E-09
  -9.10999966       2.74488943E-09
  -9.10000038       3.03540415E-09
  -9.09000015       3.35074302E-09
  -9.07999992       3.68869935E-09
  -9.06999969       4.04687350E-09
  -9.06000042       4.42279635E-09
  -9.05000019       4.81401319E-09
  -9.03999996       5.21807486E-09
  -9.02999973       5.63248159E-09
  -9.02000046       6.05458927E-09
  -9.01000023       6.48151177E-09
  -9.00000000       6.91009028E-09
  -8.98999977       7.33689465E-09
  -8.97999954       7.75834330E-09
  -8.97000027       8.17084977E-09
  -8.96000004       8.57100790E-09
  -8.94999981       8.95567354E-09
  -8.93999958       9.32203381E-09
  -8.93000031       9.66755209E-09
  -8.92000008       9.98983385E-09
  -8.90999985       1.02865361E-08
  -8.89999962       1.05552234E-08
  -8.89000034       1.07933573E-08
  -8.88000011       1.09983249E-08
  -8.86999989       1.11675691E-08
  -8.85999966       1.12987371E-08
  -8.85000038       1.13898029E-08
  -8.84000015       1.14391732E-08
  -8.82999992       1.14456604E-08
  -8.81999969       1.14084129E-08
  -8.81000042       1.13268150E-08
  -8.80000019       1.12003722E-08
  -8.78999996       1.10286589E-08
  -8.77999973       1.08113030E-08
  -8.77000046       1.05480780E-08
  -8.76000023       1.02390105E-08
  -8.75000000       9.88447990E-09
  -8.73999977       9.48528900E-09
  -8.72999954       9.04262532E-09
  -8.72000027       8.55799698E-09
  -8.71000004       8.03309419E-09
  -8.69999981       7.46967999E-09
  -8.68999958       6.86948631E-09
  -8.68000031       6.23423668E-09
  -8.67000008       5.56563506E-09
  -8.65999985       4.86544716E-09
  -8.64999962       4.13564116E-09
  -8.64000034       3.37838624E-09
  -8.63000011       2.59607513E-09
  -8.61999989       1.79121329E-09
  -8.60999966       9.66358993E-10
  -8.60000038       1.23992164E-10
  -8.59000015      -7.33556993E-10
  -8.57999992      -1.60410385E-09
  -8.56999969      -2.48556931E-09
  -8.56000042      -3.37596551E-09
  -8.55000019      -4.27321245E-09
  -8.53999996      -5.17519538E-09
  -8.52999973      -6.07973183E-09
  -8.52000046      -6.98470393E-09
  -8.51000023      -7.88813370E-09
  -8.50000000      -8.78836737E-09
  -8.48999977      -9.68403491E-09
  -8.47999954      -1.05741540E-08
  -8.47000027      -1.14580354E-08
  -8.46000004      -1.23351862E-08
  -8.44999981      -1.32052138E-08
  -8.43999958      -1.40677416E-08
  -8.43000031      -1.49224029E-08
  -8.42000008      -1.57688334E-08
  -8.40999985      -1.66067231E-08
  -8.39999962      -1.74358892E-08
  -8.39000034      -1.82562623E-08
  -8.38000011      -1.90678673E-08
  -8.36999989      -1.98707149E-08
  -8.35999966      -2.06647606E-08
  -8.35000038      -2.14497486E-08
  -8.34000015      -2.22252048E-08
  -8.32999992      -2.29903829E-08
  -8.31999969      -2.37444020E-08
  -8.31000042      -2.44863010E-08
  -8.30000019      -2.52150940E-08
  -8.28999996      -2.59298822E-08
  -8.27999973      -2.66297935E-08
  -8.27000046      -2.73139431E-08
  -8.26000023      -2.79813879E-08
  -8.25000000      -2.86309891E-08
  -8.23999977      -2.92614430E-08
  -8.22999954      -2.98712273E-08
  -8.22000027      -3.04587466E-08
  -8.21000004      -3.10223705E-08
  -8.19999981      -3.15605746E-08
  -8.18999958      -3.20719877E-08
  -8.18000031      -3.25554410E-08
  -8.17000008      -3.30099077E-08
  -8.15999985      -3.34344463E-08
  -8.14999962      -3.38281794E-08
  -8.14000034      -3.41901831E-08
  -8.13000011      -3.45195339E-08
  -8.11999989      -3.48152760E-08
  -8.10999966      -3.50764928E-08
  -8.10000038      -3.53023282E-08
  -8.09000015      -3.54920147E-08
  -8.07999992      -3.56448489E-08
  -8.06999969      -3.57601735E-08
  -8.06000042      -3.58373420E-08
  -8.05000019      -3.58757113E-08
  -8.03999996      -3.58746419E-08
  -8.02999973      -3.58335370E-08
  -8.02000046      -3.57519454E-08
  -8.01000023      -3.56295686E-08
  -8.00000000      -3.54663214E-08
  -7.98999977      -3.52624028E-08
  -7.98000002      -3.50181537E-08
  -7.96999979      -3.47341249E-08
  -7.96000004      -3.44109452E-08
  -7.94999981      -3.40493749E-08
  -7.94000006      -3.36502133E-08
  -7.92999983      -3.32144126E-08
  -7.92000008      -3.27430385E-08
  -7.90999985      -3.22373772E-08
  -7.90000010      -3.16988960E-08
  -7.88999987      -3.11292467E-08
  -7.88000011      -3.05302557E-08
  -7.86999989      -2.99038554E-08
  -7.86000013      -2.92521118E-08
  -7.84999990      -2.85771655E-08
  -7.84000015      -2.78813328E-08
  -7.82999992      -2.71670775E-08
  -7.82000017      -2.64370517E-08
  -7.80999994      -2.56941135E-08
  -7.80000019      -2.49412579E-08
  -7.78999996      -2.41815119E-08
  -7.78000021      -2.34178863E-08
  -7.76999998      -2.26532464E-08
  -7.76000023      -2.18903295E-08
  -7.75000000      -2.11316902E-08
  -7.73999977      -2.03798169E-08
  -7.73000002      -1.96371879E-08
  -7.71999979      -1.89063325E-08
  -7.71000004      -1.81898319E-08
  -7.69999981      -1.74902723E-08
  -7.69000006      -1.68101444E-08
  -7.67999983      -1.61516951E-08
  -7.67000008      -1.55168038E-08
  -7.65999985      -1.49069290E-08
  -7.65000010      -1.43231071E-08
  -7.63999987      -1.37660026E-08
  -7.63000011      -1.32360283E-08
  -7.61999989      -1.27334525E-08
  -7.61000013      -1.22584582E-08
  -7.59999990      -1.18111378E-08
  -7.59000015      -1.13914735E-08
  -7.57999992      -1.09992335E-08
  -7.57000017      -1.06339311E-08
  -7.55999994      -1.02948112E-08
  -7.55000019      -9.98090588E-09
  -7.53999996      -9.69114389E-09
  -7.53000021      -9.42450917E-09
  -7.51999998      -9.18015175E-09
  -7.51000023      -8.95747121E-09
  -7.50000000      -8.75608031E-09
  -7.48999977      -8.57572768E-09
  -7.48000002      -8.41614600E-09
  -7.46999979      -8.27691693E-09
  -7.46000004      -8.15737167E-09
  -7.44999981      -8.05657763E-09
  -7.44000006      -7.97338640E-09