  -16.0000000       0.00000000    
  -15.9899998       0.00000000    
  -15.9799995       0.00000000    
  -15.9700003       0.00000000    
  -15.9600000       0.00000000    
  -15.9499998       0.00000000    
  -15.9399996       0.00000000    
  -15.9300003       0.00000000    
  -15.9200001       0.00000000    
  -15.9099998       0.00000000    
  -15.8999996       0.00000000    
  -15.8900003       0.00000000    
  -15.8800001       8.03504539E-41
  -15.8699999       3.05471154E-39
  -15.8599997       5.96065563E-38
  -15.8500004       7.77130084E-37
  -15.8400002       7.52061972E-36
  -15.8299999       5.73768034E-35
  -15.8199997       3.59553669E-34
  -15.8100004       1.90701495E-33
  -15.8000002       8.75753944E-33
  -15.7900000       3.54400673E-32
  -15.7799997       1.28139957E-31
  -15.7700005       4.18475754E-31
  -15.7600002       1.24494970E-30
  -15.7500000       3.39612242E-30
  -15.7399998       8.53642794E-30
  -15.7299995       1.98358522E-29
  -15.7200003       4.26797842E-29
  -15.7100000       8.50185644E-29
  -15.6999998       1.56401316E-28
  -15.6899996       2.64143988E-28
  -15.6800003       4.04806834E-28
  -15.6700001       5.49957433E-28
  -15.6599998       6.28072285E-28
  -15.6499996       5.10077875E-28
  -15.6400003       1.37440394E-29
  -15.6300001      -1.05140358E-27
  -15.6199999      -2.77861925E-27
  -15.6099997      -4.99648088E-27
  -15.6000004      -7.07982016E-27
  -15.5900002      -7.83974051E-27
  -15.5799999      -5.64781383E-27
  -15.5699997       1.04859885E-27
  -15.5600004       1.27706604E-26
  -15.5500002       2.78102620E-26
  -15.5400000       4.13343331E-26
  -15.5299997       4.56199463E-26
  -15.5200005       3.22093387E-26
  -15.5100002      -3.85401616E-27
  -15.5000000      -5.88271080E-26
  -15.4899998      -1.16781871E-25
  -15.4799995      -1.51421506E-25
  -15.4700003      -1.35820573E-25
  -15.4600000      -5.89712908E-26
  -15.4499998       5.79796803E-26
  -15.4399996       1.58488947E-25
  -15.4300003       1.73340708E-25
  -15.4200001       7.24002734E-26
  -15.4099998      -7.30059152E-26
  -15.3999996      -6.17496404E-26
  -15.3900003       3.72469058E-25
  -15.3800001       1.36532229E-24
  -15.3699999       2.62907835E-24
  -15.3599997       3.21256524E-24
  -15.3500004       1.57203886E-24
  -15.3400002      -3.77951424E-24
  -15.3299999      -1.29683905E-23
  -15.3199997      -2.31607937E-23
  -15.3100004      -2.76069068E-23
  -15.3000002      -1.66917903E-23
  -15.2900000       1.78303611E-23
  -15.2799997       7.54622575E-23
  -15.2700005       1.38802790E-22
  -15.2600002       1.69673290E-22
  -15.2500000       1.16186135E-22
  -15.2399998      -6.42521717E-23
  -15.2299995      -3.67584216E-22
  -15.2200003      -7.04139970E-22
  -15.2100000      -8.82923417E-22
  -15.1999998      -6.49639956E-22
  -15.1899996       2.00983255E-22
  -15.1800003       1.64982456E-21
  -15.1700001       3.27665264E-21
  -15.1599998       4.19534859E-21
  -15.1499996       3.23407808E-21
  -15.1400003      -5.55844773E-22
  -15.1300001      -7.12066879E-21
  -15.1199999      -1.46286730E-20
  -15.1099997      -1.91848613E-20
  -15.1000004      -1.55957634E-20
  -15.0900002       4.71894069E-22
  -15.0799999       2.91833004E-20
  -15.0699997       6.32035975E-20
  -15.0600004       8.63202196E-20
  -15.0500002       7.62975629E-20
  -15.0400000       1.34060136E-20
  -15.0299997      -1.06206398E-19
  -15.0200005      -2.56546190E-19
  -15.0100002      -3.74795768E-19
  -15.0000000      -3.70253306E-19
  -14.9899998      -1.55275281E-19
  -14.9799995       3.03852364E-19
  -14.9700003       9.30687377E-19
  -14.9600000       1.50431263E-18
  -14.9499998       1.68021682E-18
  -14.9399996       1.09148033E-18
  -14.9300003      -4.71710187E-19
  -14.9200001      -2.84912022E-18
  -14.9099998      -5.35504073E-18
  -14.8999996      -6.79737323E-18
  -14.8900003      -5.76913024E-18
  -14.8800001      -1.22855522E-18
  -14.8699999       6.75452982E-18
  -14.8599997       1.63650058E-17
  -14.8500004       2.39057993E-17
  -14.8400002       2.45135223E-17
  -14.8299999       1.38577560E-17
  -14.8199997      -9.45909899E-18
  -14.8100004      -4.15861844E-17
  -14.8000002      -7.23641555E-17
  -14.7900000      -8.67140715E-17
  -14.7799997      -6.91160488E-17
  -14.7700005      -1.06697820E-17
  -14.7600002       8.32740391E-17
  -14.7500000       1.88227741E-16
  -14.7399998       2.62128004E-16
  -14.7299995       2.55864566E-16
  -14.7200003       1.32335147E-16
  -14.7100000      -1.10625732E-16
  -14.6999998      -4.22161883E-16
  -14.6899996      -6.95850166E-16
  -14.6800003      -7.91315491E-16
  -14.6700001      -5.81586056E-16
  -14.6599998      -1.67318984E-17
  -14.6499996       8.17553660E-16
  -14.6400003       1.67529024E-15
  -14.6300001       2.18627441E-15
  -14.6199999       1.96428169E-15
  -14.6099997       7.71845327E-16
  -14.6000004      -1.30657839E-15
  -14.5900002      -3.75622901E-15
  -14.5799999      -5.66524604E-15
  -14.5699997      -5.94740796E-15
  -14.5600004      -3.74003798E-15
  -14.5500002       1.12029043E-15
  -14.5400000       7.71714608E-15
  -14.5299997       1.39740319E-14
  -14.5200005       1.70376120E-14
  -14.5100002       1.41573095E-14
  -14.5000000       3.89722908E-15
  -14.4899998      -1.26921577E-14
  -14.4799995      -3.14500487E-14
  -14.4700003      -4.55133503E-14
  -14.4600000      -4.70090241E-14
  -14.4499998      -2.98541336E-14
  -14.4399996       7.03408093E-15
  -14.4300003       5.72529762E-14
  -14.4200001       1.06433031E-13
  -14.4099998       1.34726052E-13
  -14.3999996       1.22415668E-13
  -14.3900003       5.76324131E-14
  -14.3800001      -5.60360067E-14
  -14.3699999      -1.95008330E-13
  -14.3599997      -3.17082271E-13
  -14.3500004      -3.70328659E-13
  -14.3400002      -3.08792732E-13
  -14.3299999      -1.11556516E-13
  -14.3199997       2.00735479E-13
  -14.3100004       5.58763159E-13
  -14.3000002       8.52537604E-13
  -14.2900000       9.56542246E-13
  -14.2799997       7.68592546E-13
  -14.2700005       2.52995406E-13
  -14.2600002      -5.25758148E-13
  -14.2500000      -1.39321909E-12
  -14.2399998      -2.08971555E-12
  -14.2299995      -2.33117995E-12
  -14.2200003      -1.89590813E-12
  -14.2100000      -7.15614959E-13
  -14.1999998       1.05813513E-12
  -14.1899996       3.04051857E-12
  -14.1800003       4.67139261E-12
  -14.1700001       5.34424328E-12
  -14.1599998       4.58328991E-12
  -14.1499996       2.22444177E-12
  -14.1400003      -1.45487691E-12
  -14.1300001      -5.70961074E-12
  -14.1199999      -9.43571870E-12
  -14.1099997      -1.14117301E-11
  -14.1000004      -1.06290593E-11
  -14.0900002      -6.63343035E-12
  -14.0799999       2.20867554E-13
  -14.0699997       8.69454335E-12
  -14.0600004       1.68207028E-11
  -14.0500002       2.22976013E-11
  -14.0400000       2.30501677E-11
  -14.0299997       1.78370669E-11
  -14.0200005       6.74679670E-12
  -14.0100002      -8.56918269E-12
  -14.0000000      -2.50312236E-11
  -13.9899998      -3.86601758E-11
  -13.9799995      -4.54255730E-11
  -13.9700003      -4.22508729E-11
  -13.9600000      -2.79474568E-11
  -13.9499998      -3.83764505E-12
  -13.9399996       2.61302213E-11
  -13.9300003       5.58776844E-11
  -13.9200001       7.82755458E-11
  -13.9099998       8.66395289E-11
  -13.8999996       7.63606400E-11
  -13.8900003       4.63181611E-11
  -13.8800001      -2.77371632E-13
  -13.8699999      -5.58785171E-11
  -13.8599997      -1.09570408E-10
  -13.8500004      -1.48932797E-10
  -13.8400002      -1.62546254E-10
  -13.8299999      -1.42673845E-10
  -13.8199997      -8.75766543E-11
  -13.8100004      -2.89987782E-12
  -13.8000002       9.83185269E-11
  -13.7900000       1.97222919E-10
  -13.7799997       2.72221190E-10
  -13.7700005       3.03125108E-10
  -13.7600002       2.75644174E-10
  -13.7500000       1.85324464E-10
  -13.7399998       4.00268430E-11
  -13.7299995      -1.39772180E-10
  -13.7200003      -3.23220478E-10
  -13.7100000      -4.73743100E-10
  -13.6999998      -5.55493374E-10
  -13.6899996      -5.40536560E-10
  -13.6800003      -4.15470824E-10
  -13.6700001      -1.86152371E-10
  -13.6599998       1.20561644E-10
  -13.6499996       4.58747568E-10
  -13.6400003       7.69050823E-10
  -13.6300001       9.87563031E-10
  -13.6199999       1.05676001E-09
  -13.6099997       9.36998035E-10
  -13.6000004       6.16664553E-10
  -13.5900002       1.19162263E-10
  -13.5799999      -4.95024466E-10
  -13.5699997      -1.13245135E-09
  -13.5600004      -1.67750691E-09
  -13.5500002      -2.00943506E-09
  -13.5400000      -2.02386352E-09
  -13.5299997      -1.65589753E-09
  -13.5200005      -9.00727437E-10
  -13.5100002       1.72900763E-10
  -13.5000000       1.42074619E-09
  -13.4899998       2.63577737E-09
  -13.4799995       3.57648555E-09
  -13.4700003       4.00816802E-09
  -13.4600000       3.75168119E-09
  -13.4499998       2.73049783E-09
  -13.4399996       1.00575004E-09
  -13.4300003      -1.21078281E-09
  -13.4200001      -3.57306296E-09
  -13.4099998      -5.64828939E-09
  -13.3999996      -6.99082348E-09
  -13.3900003      -7.23088123E-09
  -13.3800001      -6.16096152E-09
  -13.3699999      -3.80079879E-09
  -13.3599997      -4.23431956E-10
  -13.3500004       3.46815843E-09
  -13.3400002       7.21559790E-09
  -13.3299999       1.01195221E-08
  -13.3199997       1.15737571E-08
  -13.3100004       1.11913705E-08
  -13.3000002       8.89451979E-09
  -13.2900000       4.94543251E-09
  -13.2799997      -9.09154627E-11
  -13.2700005      -5.44746381E-09
  -13.2600002      -1.02973203E-08
  -13.2500000      -1.39062424E-08
  -13.2399998      -1.57583813E-08
  -13.2299995      -1.56269504E-08
  -13.2200003      -1.35743088E-08
  -13.2100000      -9.88709825E-09
  -13.1999998      -4.97157604E-09
  -13.1899996       7.52610252E-10
  -13.1800003       6.91919677E-09
  -13.1700001       1.32153897E-08
  -13.1599998       1.93099083E-08
  -13.1499996       2.47344154E-08
  -13.1400003       2.87713622E-08
  -13.1300001       3.04132151E-08
  -13.1199999       2.84521331E-08
  -13.1099997       2.17278551E-08
  -13.1000004       9.51325951E-09
  -13.0900002      -8.04168554E-09
  -13.0799999      -2.95314475E-08
  -13.0699997      -5.21277599E-08
  -13.0600004      -7.17498736E-08
  -13.0500002      -8.36332248E-08
  -13.0400000      -8.32605025E-08
  -13.0299997      -6.75029455E-08
  -13.0200005      -3.57276875E-08
  -13.0100002       9.43063760E-09
  -13.0000000       6.19066611E-08
  -12.9899998       1.12826839E-07
  -12.9799995       1.51925562E-07
  -12.9700003       1.69556643E-07
  -12.9600000       1.58921267E-07
  -12.9499998       1.18008529E-07
  -12.9399996       5.07403364E-08
  -12.9300003      -3.30716610E-08
  -12.9200001      -1.19106438E-07
  -12.9099998      -1.91099019E-07
  -12.8999996      -2.34124926E-07
  -12.8900003      -2.37916367E-07
  -12.8800001      -1.99441530E-07
  -12.8699999      -1.24078042E-07
  -12.8599997      -2.50001886E-08
  -12.8500004       7.92074815E-08
  -12.8400002       1.68267889E-07
  -12.8299999       2.24476679E-07
  -12.8199997       2.36549980E-07
  -12.8100004       2.02153998E-07
  -12.8000002       1.28504610E-07
  -12.7900000       3.08653476E-08
  -12.7799997      -7.07127512E-08
  -12.7700005      -1.55635988E-07
  -12.7600002      -2.06990293E-07
  -12.7500000      -2.14750528E-07
  -12.7399998      -1.77268774E-07
  -12.7299995      -1.00800584E-07
  -12.7200003       2.63526712E-09
  -12.7100000       1.18341241E-07
  -12.6999998       2.32004226E-07
  -12.6899996       3.31846763E-07
  -12.6800003       4.09299957E-07
  -12.6700001       4.58139709E-07
  -12.6599998       4.72581121E-07
  -12.6499996       4.45217950E-07
  -12.6400003       3.65844926E-07
  -12.6300001       2.22011337E-07
  -12.6199999       1.67641301E-09
  -12.6099997      -3.02273918E-07
  -12.6000004      -6.86552937E-07
  -12.5900002      -1.13233318E-06
  -12.5799999      -1.60185436E-06
  -12.5699997      -2.03796981E-06
  -12.5600004      -2.36719347E-06
  -12.5500002      -2.50619905E-06
  -12.5400000      -2.37094810E-06
  -12.5299997      -1.88726642E-06
  -12.5200005      -1.00144905E-06
  -12.5100002       3.10238278E-07
  -12.5000000       2.03405261E-06
  -12.4899998       4.11341307E-06
  -12.4799995       6.44577449E-06
  -12.4700003       8.88115574E-06
  -12.4600000       1.12225707E-05
  -12.4499998       1.32278274E-05
  -12.4399996       1.46133125E-05
  -12.4300003       1.50604992E-05
  -12.4200001       1.42250765E-05
  -12.4099998       1.17493810E-05
  -12.3999996       7.27797715E-06
  -12.3900003       4.74771269E-07
  -12.3800001      -8.95732956E-06
  -12.3699999      -2.12584346E-05
  -12.3599997      -3.65919586E-05
  -12.3500004      -5.50269724E-05
  -12.3400002      -7.65201039E-05
  -12.3299999      -1.00897858E-04
  -12.3199997      -1.27835679E-04
  -12.3100004      -1.56842565E-04
  -12.3000002      -1.87240308E-04
  -12.2900000      -2.18157453E-04
  -12.2799997      -2.48527125E-04
  -12.2700005      -2.77105341E-04
  -12.2600002      -3.02505388E-04
  -12.2500000      -3.23259388E-04
  -12.2399998      -3.37889418E-04
  -12.2299995      -3.45004519E-04
  -12.2200003      -3.43392050E-04
  -12.2100000      -3.32106923E-04
  -12.1999998      -3.10541160E-04
  -12.1899996      -2.78467807E-04
  -12.1800003      -2.36047781E-04
  -12.1700001      -1.83809476E-04
  -12.1599998      -1.22591504E-04
  -12.1499996      -5.34730752E-05
  -12.1400003       2.23093284E-05
  -12.1300001       1.03437822E-04
  -12.1199999       1.88579943E-04
  -12.1099997       2.76434323E-04
  -12.1000004       3.65762156E-04
  -12.0900002       4.55395202E-04
  -12.0799999       5.44238370E-04
  -12.0699997       6.31267671E-04
  -12.0600004       7.15525297E-04
  -12.0500002       7.96120847E-04
  -12.0400000       8.72239470E-04
  -12.0299997       9.43145074E-04
  -12.0200005       1.00818486E-03
  -12.0100002       1.06678437E-03
  -12.0000000       1.11843541E-03
  -11.9899998       1.16266939E-03
  -11.9799995       1.19902450E-03
  -11.9700003       1.22701854E-03
  -11.9600000       1.24611286E-03
  -11.9499998       1.25569152E-03
  -11.9399996       1.25505356E-03
  -11.9300003       1.24341913E-03
  -11.9200001       1.21994177E-03
  -11.9099998       1.18373986E-03
  -11.8999996       1.13392493E-03
  -11.8900003       1.06963969E-03
  -11.8800001       9.90100438E-04
  -11.8699999       8.94626719E-04
  -11.8599997       7.82705145E-04
  -11.8500004       6.54025353E-04
  -11.8400002       5.08535479E-04
  -11.8299999       3.46501416E-04
  -11.8199997       1.68544677E-04
  -11.8100004      -2.43253835E-05
  -11.8000002      -2.30712700E-04
  -11.7900000      -4.48858103E-04
  -11.7799997      -6.76687574E-04
  -11.7700005      -9.11899493E-04
  -11.7600002      -1.15204719E-03
  -11.7500000      -1.39463844E-03
  -11.7399998      -1.63719745E-03
  -11.7299995      -1.87733327E-03
  -11.7200003      -2.11275276E-03
  -11.7100000      -2.34127650E-03
  -11.6999998      -2.56081554E-03
  -11.6899996      -2.76936963E-03
  -11.6800003      -2.96502723E-03
  -11.6700001      -3.14598787E-03
  -11.6599998      -3.31058935E-03
  -11.6499996      -3.45736905E-03
  -11.6400003      -3.58509738E-03
  -11.6300001      -3.69278621E-03
  -11.6199999      -3.77967465E-03
  -11.6099997      -3.84515640E-03
  -11.6000004      -3.88867175E-03
  -11.5900002      -3.90957994E-03
  -11.5799999      -3.90703231E-03
  -11.5699997      -3.87987145E-03
  -11.5600004      -3.82660795E-03
  -11.5500002      -3.74543690E-03
  -11.5400000      -3.63435526E-03
  -11.5299997      -3.49133951E-03
  -11.5200005      -3.31455446E-03
  -11.5100002      -3.10255284E-03
  -11.5000000      -2.85447156E-03
  -11.4899998      -2.57014763E-03
  -11.4799995      -2.25014985E-03
  -11.4700003      -1.89571362E-03
  -11.4600000      -1.50862325E-03
  -11.4499998      -1.09098211E-03
  -11.4399996      -6.44985179E-04
  -11.4300003      -1.72684668E-04
  -11.4200001       3.24206339E-04
  -11.4099998       8.44442635E-04
  -11.3999996       1.38729240E-03
  -11.3900003       1.95247051E-03
  -11.3800001       2.53998605E-03
  -11.3699999       3.14994040E-03
  -11.3599997       3.78228212E-03
  -11.3500004       4.43656044E-03
  -11.3400002       5.11177210E-03
  -11.3299999       5.80626307E-03
  -11.3199997       6.51773997E-03
  -11.3100004       7.24342838E-03
  -11.3000002       7.98021816E-03
  -11.2900000       8.72495025E-03
  -11.2799997       9.47462488E-03
  -11.2700005       1.02265943E-02
  -11.2600002       1.09786345E-02
  -11.2500000       1.17289675E-02
  -11.2399998       1.24761481E-02
  -11.2299995       1.32189300E-02
  -11.2200003       1.39561072E-02
  -11.2100000       1.46863535E-02
  -11.1999998       1.54081518E-02
  -11.1899996       1.61197856E-02
  -11.1800003       1.68193355E-02
  -11.1700001       1.75048094E-02
  -11.1599998       1.81741770E-02
  -11.1499996       1.88255273E-02
  -11.1400003       1.94570795E-02
  -11.1300001       2.00673174E-02
  -11.1199999       2.06549950E-02
  -11.1099997       2.12192275E-02
  -11.1000004       2.17595696E-02
  -11.0900002       2.22760849E-02
  -11.0799999       2.27694269E-02
  -11.0699997       2.32407991E-02
  -11.0600004       2.36919839E-02
  -11.0500002       2.41251085E-02
  -11.0400000       2.45425329E-02
  -11.0299997       2.49465294E-02
  -11.0200005       2.53391471E-02
  -11.0100002       2.57220026E-02
  -11.0000000       2.60962714E-02
  -10.9899998       2.64627580E-02
  -10.9799995       2.68220063E-02
  -10.9700003       2.71745138E-02
  -10.9600000       2.75208298E-02
  -10.9499998       2.78616548E-02
  -10.9399996       2.81977002E-02
  -10.9300003       2.85295509E-02
  -10.9200001       2.88574006E-02
  -10.9099998       2.91809160E-02
  -10.8999996       2.94991210E-02
  -10.8900003       2.98104882E-02
  -10.8800001       3.01132239E-02
  -10.8699999       3.04056294E-02
  -10.8599997       3.06864977E-02
  -10.8500004       3.09554301E-02
  -10.8400002       3.12129017E-02
  -10.8299999       3.14601660E-02
  -10.8199997       3.16988453E-02
  -10.8100004       3.19304317E-02
  -10.8000002       3.21557298E-02
  -10.7900000       3.23744863E-02
  -10.7799997       3.25852036E-02
  -10.7700005       3.27851959E-02
  -10.7600002       3.29710767E-02
  -10.7500000       3.31392102E-02
  -10.7399998       3.32863852E-02
  -10.7299995       3.34102474E-02
  -10.7200003       3.35096717E-02
  -10.7100000       3.35847549E-02
  -10.6999998       3.36366445E-02
  -10.6899996       3.36671434E-02
  -10.6800003       3.36784273E-02
  -10.6700001       3.36725265E-02
  -10.6599998       3.36511172E-02
  -10.6499996       3.36154141E-02
  -10.6400003       3.35661508E-02
  -10.6300001       3.35035920E-02
  -10.6199999       3.34277526E-02
  -10.6099997       3.33384089E-02
  -10.6000004       3.32352147E-02
  -10.5900002       3.31177898E-02
  -10.5799999       3.29856947E-02
  -10.5699997       3.28386649E-02
  -10.5600004       3.26766372E-02
  -10.5500002       3.24999280E-02
  -10.5400000       3.23093720E-02
  -10.5299997       3.21064480E-02
  -10.5200005       3.18933316E-02
  -10.5100002       3.16728130E-02
  -10.5000000       3.14482525E-02
  -10.4899998       3.12232524E-02
  -10.4799995       3.10014654E-02
  -10.4700003       3.07861604E-02
  -10.4600000       3.05800624E-02
  -10.4499998       3.03849000E-02
  -10.4399996       3.02013755E-02
  -10.4300003       3.00290082E-02
  -10.4200001       2.98663434E-02
  -10.4099998       2.97112074E-02
  -10.3999996       2.95611285E-02
  -10.3900003       2.94139497E-02
  -10.3800001       2.92683225E-02
  -10.3699999       2.91240718E-02
  -10.3599997       2.89823674E-02
  -10.3500004       2.88455319E-02
  -10.3400002       2.87165400E-02
  -10.3299999       2.85984371E-02
  -10.3199997       2.84935385E-02
  -10.3100004       2.84029730E-02
  -10.3000002       2.83264890E-02
  -10.2900000       2.82626897E-02
  -10.2799997       2.82095820E-02
  -10.2700005       2.81655062E-02
  -10.2600002       2.81298906E-02
  -10.2500000       2.81037576E-02
  -10.2399998       2.80898958E-02
  -10.2299995       2.80922577E-02
  -10.2200003       2.81152911E-02
  -10.2100000       2.81626005E-02
  -10.1999998       2.82361340E-02
  -10.1899996       2.83356179E-02
  -10.1800003       2.84585301E-02
  -10.1700001       2.86007281E-02
  -10.1599998       2.87575535E-02
  -10.1499996       2.89249513E-02
  -10.1400003       2.91005950E-02
  -10.1300001       2.92843021E-02
  -10.1199999       2.94781253E-02
  -10.1099997       2.96856370E-02
  -10.1000004       2.99111158E-02
  -10.0900002       3.01585309E-02
  -10.0799999       3.04309521E-02
  -10.0699997       3.07301860E-02
  -10.0600004       3.10572255E-02
  -10.0500002       3.14127132E-02
  -10.0400000       3.17976028E-02
  -10.0299997       3.22138891E-02
  -10.0200005       3.26645263E-02
  -10.0100002       3.31532657E-02
  -10.0000000       3.36838178E-02
  -9.98999977       3.42591107E-02
  -9.97999954       3.48804854E-02
  -9.97000027       3.55472006E-02
  -9.96000004       3.62568013E-02
  -9.94999981       3.70052531E-02
  -9.93999958       3.77881080E-02
  -9.93000031       3.86013426E-02
  -9.92000008       3.94420139E-02
  -9.90999985       4.03089039E-02
  -9.89999962       4.12023477E-02
  -9.89000034       4.21242863E-02
  -9.88000011       4.30772565E-02
  -9.86999989       4.40641902E-02
  -9.85999966       4.50879484E-02
  -9.85000038       4.61509675E-02
  -9.84000015       4.72552180E-02
  -9.82999992       4.84023578E-02
  -9.81999969       4.95936200E-02
  -9.81000042       5.08297719E-02
  -9.80000019       5.21112345E-02
  -9.78999996       5.34376912E-02
  -9.77999973       5.48083298E-02
  -9.77000046       5.62216938E-02
  -9.76000023       5.76761663E-02
  -9.75000000       5.91703840E-02
  -9.73999977       6.07039258E-02
  -9.72999954       6.22776337E-02
  -9.72000027       6.38937727E-02
  -9.71000004       6.55559972E-02
  -9.69999981       6.72687367E-02
  -9.68999958       6.90362081E-02
  -9.68000031       7.08614811E-02
  -9.67000008       7.27457404E-02
  -9.65999985       7.46880546E-02
  -9.64999962       7.66853020E-02
  -9.64000034       7.87329376E-02
  -9.63000011       8.08260068E-02
  -9.61999989       8.29600394E-02
  -9.60999966       8.51316229E-02
  -9.60000038       8.73388126E-02
  -9.59000015       8.95800069E-02
  -9.57999992       9.18536335E-02
  -9.56999969       9.41560045E-02
  -9.56000042       9.64803994E-02
  -9.55000019       9.88165811E-02
  -9.53999996      0.101150423    
  -9.52999973      0.103465416    
  -9.52000046      0.105744213    
  -9.51000023      0.107970409    
  -9.50000000      0.110130392    
  -9.48999977      0.112214252    
  -9.47999954      0.114215858    
  -9.47000027      0.116131827    
  -9.46000004      0.117960453    
  -9.44999981      0.119699948    
  -9.43999958      0.121347457    
  -9.43000031      0.122899003    
  -9.42000008      0.124349989    
  -9.40999985      0.125697002    
  -9.39999962      0.126938596    
  -9.39000034      0.128077030    
  -9.38000011      0.129118264    
  -9.36999989      0.130071536    
  -9.35999966      0.130947992    
  -9.35000038      0.131758869    
  -9.34000015      0.132514581    
  -9.32999992      0.133224323    
  -9.31999969      0.133896425    
  -9.31000042      0.134539902    
  -9.30000019      0.135166556    
  -9.28999996      0.135791719    
  -9.27999973      0.136434600    
  -9.27000046      0.137117714    
  -9.26000023      0.137864247    
  -9.25000000      0.138695911    
  -9.23999977      0.139630631    
  -9.22999954      0.140681446    
  -9.22000027      0.141856194    
  -9.21000004      0.143160492    
  -9.19999981      0.144598722    
  -9.18999958      0.146177724    
  -9.18000031      0.147906989    
  -9.17000008      0.149799481    
  -9.15999985      0.151868910    
  -9.14999962      0.154128149    
  -9.14000034      0.156585664    
  -9.13000011      0.159244493    
  -9.11999989      0.162100762    
  -9.10999966      0.165146261    
  -9.10000038      0.168369785    
  -9.09000015      0.171760470    
  -9.07999992      0.175309405    
  -9.06999969      0.179009899    
  -9.06000042      0.182857171    
  -9.05000019      0.186844975    
  -9.03999996      0.190964118    
  -9.02999973      0.195200697    
  -9.02000046      0.199535280    
  -9.01000023      0.203945309    
  -9.00000000      0.208407223    
  -8.98999977      0.212898970    
  -8.97999954      0.217402428    
  -8.97000027      0.221902341    
  -8.96000004      0.226385698    
  -8.94999981      0.230838642    
  -8.93999958      0.235243306    
  -8.93000031      0.239576846    
  -8.92000008      0.243810803    
  -8.90999985      0.247914523    
  -8.89999962      0.251859039    
  -8.89000034      0.255620211    
  -8.88000011      0.259182870    
  -8.86999989      0.262540191    
  -8.85999966      0.265692264    
  -8.85000038      0.268642843    
  -8.84000015      0.271393538    
  -8.82999992      0.273941725    
  -8.81999969      0.276278943    
  -8.81000042      0.278392375    
  -8.80000019      0.280269116    
  -8.78999996      0.281899601    
  -8.77999973      0.283282399    
  -8.77000046      0.284424722    
  -8.76000023      0.285341889    
  -8.75000000      0.286052346    
  -8.73999977      0.286573589    
  -8.72999954      0.286918491    
  -8.72000027      0.287091851    
  -8.71000004      0.287092656    
  -8.69999981      0.286916047    
  -8.68999958      0.286560088    
  -8.68000031      0.286027372    
  -8.67000008      0.285328954    
  -8.65999985      0.284483314    
  -8.64999962      0.283513725    
  -8.64000034      0.282441854    
  -8.63000011      0.281285852    
  -8.61999989      0.280056596    
  -8.60999966      0.278757751    
  -8.60000038      0.277390540    
  -8.59000015      0.275956184    
  -8.57999992      0.274462581    
  -8.56999969      0.272924751    
  -8.56000042      0.271367013    
  -8.55000019      0.269818991    
  -8.53999996      0.268310547    
  -8.52999973      0.266867816    
  -8.52000046      0.265509486    
  -8.51000023      0.264245272    
  -8.50000000      0.263078183    
  -8.48999977      0.262008339    
  -8.47999954      0.261036783    
  -8.47000027      0.260168582    
  -8.46000004      0.259413421    
  -8.44999981      0.258785337    
  -8.43999958      0.258298010    
  -8.43000031      0.257961124    
  -8.42000008      0.257778436    
  -8.40999985      0.257745236    
  -8.39999962      0.257851958    
  -8.39000034      0.258084476    
  -8.38000011      0.258430660    
  -8.36999989      0.258881718    
  -8.35999966      0.259435505    
  -8.35000038      0.260093302    
  -8.34000015      0.260860652    
  -8.32999992      0.261741906    
  -8.31999969      0.262739688    
  -8.31000042      0.263852090    
  -8.30000019      0.265073091    
  -8.28999996      0.266395330    
  -8.27999973      0.267811328    
  -8.27000046      0.269315243    
  -8.26000023      0.270904154    
  -8.25000000      0.272578537    
  -8.23999977      0.274340123    
  -8.22999954      0.276190311    
  -8.22000027      0.278129727    
  -8.21000004      0.280157089    
  -8.19999981      0.282268584    
  -8.18999958      0.284462363    
  -8.18000031      0.286737293    
  -8.17000008      0.289095044    
  -8.15999985      0.291541189    
  -8.14999962      0.294084519    
  -8.14000034      0.296736181    
  -8.13000011      0.299508333    
  -8.11999989      0.302412868    
  -8.10999966      0.305460274    
  -8.10000038      0.308660984    
  -8.09000015      0.312022328    
  -8.07999992      0.315551460    
  -8.06999969      0.319253743    
  -8.06000042      0.323134243    
  -8.05000019      0.327196717    
  -8.03999996      0.331444472    
  -8.02999973      0.335880637    
  -8.02000046      0.340508789    
  -8.01000023      0.345334440    
  -8.00000000      0.350363374    
  -7.98999977      0.355602473    
  -7.98000002      0.361059248    
  -7.96999979      0.366737694    
  -7.96000004      0.372641236    
  -7.94999981      0.378769219    
  -7.94000006      0.385117888    
  -7.92999983      0.391684055    
  -7.92000008      0.398462355    
  -7.90999985      0.405449837    
  -7.90000010      0.412646890    
  -7.88999987      0.420055926    
  -7.88000011      0.427679449    
  -7.86999989      0.435518980    
  -7.86000013      0.443569839    
  -7.84999990      0.451825052    
  -7.84000015      0.460270584    
  -7.82999992      0.468891084    
  -7.82000017      0.477669626    
  -7.80999994      0.486590594    
  -7.80000019      0.495644718    
  -7.78999996      0.504823744    
  -7.78000021      0.514123917    
  -7.76999998      0.523539424    
  -7.76000023      0.533063591    
  -7.75000000      0.542682469    
  -7.73999977      0.552378178    
  -7.73000002      0.562129796    
  -7.71999979      0.571916282    
  -7.71000004      0.581719816    
  -7.69999981      0.591526806    
  -7.69000006      0.601332247    
  -7.67999983      0.611133575    
  -7.67000008      0.620930672    
  -7.65999985      0.630722940    
  -7.65000010      0.640507221    
  -7.63999987      0.650272965    
  -7.63000011      0.660011053    
  -7.61999989      0.669710934    
  -7.61000013      0.679364562    
  -7.59999990      0.688969493    
  -7.59000015      0.698531270    
  -7.57999992      0.708057165    
  -7.57000017      0.717557788    
  -7.55999994      0.727040112    
  -7.55000019      0.736508727    
  -7.53999996      0.745962620    
  -7.53000021      0.755395114    
  -7.51999998      0.764800549    
  -7.51000023      0.774175406    
  -7.50000000      0.783517897    
  -7.48999977      0.792838693    
  -7.48000002      0.802149355    
  -7.46999979      0.811466396    
  -7.46000004      0.820803881    
  -7.44999981      0.830175459    
  -7.44000006      0.839587331    