  -16.0000000       0.00000000    
  -15.9899998       0.00000000    
  -15.9799995       0.00000000    
  -15.9700003       0.00000000    
  -15.9600000       0.00000000    
  -15.9499998       0.00000000    
  -15.9399996       0.00000000    
  -15.9300003       0.00000000    
  -15.9200001       0.00000000    
  -15.9099998       0.00000000    
  -15.8999996       0.00000000    
  -15.8900003       0.00000000    
  -15.8800001       0.00000000    
  -15.8699999      -0.00000000    
  -15.8599997      -1.40129846E-45
  -15.8500004      -1.54142831E-44
  -15.8400002      -1.54142831E-43
  -15.8299999      -1.19110369E-42
  -15.8199997      -7.51236107E-42
  -15.8100004      -4.01317867E-41
  -15.8000002      -1.86252184E-40
  -15.7900000      -7.64544238E-40
  -15.7799997      -2.81300297E-39
  -15.7700005      -9.37104475E-39
  -15.7600002      -2.84850739E-38
  -15.7500000      -7.94756513E-38
  -15.7399998      -2.04441262E-37
  -15.7299995      -4.86388276E-37
  -15.7200003      -1.07223197E-36
  -15.7100000      -2.19127834E-36
  -15.6999998      -4.14652727E-36
  -15.6899996      -7.23925871E-36
  -15.6800003      -1.15749029E-35
  -15.6700001      -1.67066661E-35
  -15.6599998      -2.11249967E-35
  -15.6499996      -2.17154975E-35
  -15.6400003      -1.34850640E-35
  -15.6300001       9.94596575E-36
  -15.6199999       5.44683560E-35
  -15.6099997       1.21725849E-34
  -15.6000004       2.03512350E-34
  -15.5900002       2.75463509E-34
  -15.5799999       2.92829533E-34
  -15.5699997       1.92981022E-34
  -15.5600004      -8.94505168E-35
  -15.5500002      -5.89725679E-34
  -15.5400000      -1.26230323E-33
  -15.5299997      -1.92306798E-33
  -15.5200005      -2.21227045E-33
  -15.5100002      -1.62486123E-33
  -15.5000000       3.35701006E-34
  -15.4899998       3.84314176E-33
  -15.4799995       8.30516881E-33
  -15.4700003       1.19500814E-32
  -15.4600000       1.17611633E-32
  -15.4499998       4.18570579E-33
  -15.4399996      -1.30371683E-32
  -15.4300003      -3.80128072E-32
  -15.4200001      -6.17088690E-32
  -15.4099998      -6.68335189E-32
  -15.3999996      -3.13007815E-32
  -15.3900003       6.14299183E-32
  -15.3800001       2.05377389E-31
  -15.3699999       3.53552425E-31
  -15.3599997       4.09207122E-31
  -15.3500004       2.42303075E-31
  -15.3400002      -2.55688336E-31
  -15.3299999      -1.07905755E-30
  -15.3199997      -2.00331415E-30
  -15.3100004      -2.52658969E-30
  -15.3000002      -1.93660042E-30
  -15.2900000       4.27971491E-31
  -15.2799997       4.71714448E-30
  -15.2700005       1.00275040E-29
  -15.2600002       1.40449314E-29
  -15.2500000       1.32453274E-29
  -15.2399998       3.98956576E-30
  -15.2299995      -1.54213243E-29
  -15.2200003      -4.21855936E-29
  -15.2100000      -6.70401769E-29
  -15.1999998      -7.44975943E-29
  -15.1899996      -4.68070310E-29
  -15.1800003       2.78358778E-29
  -15.1700001       1.44329912E-28
  -15.1599998       2.71075434E-28
  -15.1499996       3.48008776E-28
  -15.1400003       2.98683784E-28
  -15.1300001       5.95592993E-29
  -15.1199999      -3.77516190E-28
  -15.1099997      -9.23384030E-28
  -15.1000004      -1.37274095E-27
  -15.0900002      -1.43336855E-27
  -15.0799999      -8.19269702E-28
  -15.0699997       5.99608629E-28
  -15.0600004       2.63219157E-27
  -15.0500002       4.66016922E-27
  -15.0400000       5.68116631E-27
  -15.0299997       4.57068281E-27
  -15.0200005       5.64217018E-28
  -15.0100002      -6.14805795E-27
  -15.0000000      -1.39410427E-26
  -14.9899998      -1.96922084E-26
  -14.9799995      -1.94117792E-26
  -14.9700003      -9.66162170E-27
  -14.9600000       1.04674570E-26
  -14.9499998       3.74493503E-26
  -14.9399996       6.24370279E-26
  -14.9300003       7.23945110E-26
  -14.9200001       5.38465792E-26
  -14.9099998      -1.04802184E-27
  -14.8999996      -8.76351003E-26
  -14.8900003      -1.83851072E-25
  -14.8800001      -2.50580952E-25
  -14.8699999      -2.40000552E-25
  -14.8599997      -1.12458322E-25
  -14.8500004       1.41081474E-25
  -14.8400002       4.78059717E-25
  -14.8299999       7.94865221E-25
  -14.8199997       9.39143838E-25
  -14.8100004       7.49951820E-25
  -14.8000002       1.22938487E-25
  -14.7900000      -9.14393426E-25
  -14.7799997      -2.14414445E-24
  -14.7700005      -3.14939976E-24
  -14.7600002      -3.38445191E-24
  -14.7500000      -2.33441060E-24
  -14.7399998       2.56806642E-25
  -14.7299995       4.14921154E-24
  -14.7200003       8.45164906E-24
  -14.7100000       1.16511411E-23
  -14.6999998       1.19041430E-23
  -14.6899996       7.60023937E-24
  -14.6800003      -1.89317821E-24
  -14.6700001      -1.55096191E-23
  -14.6599998      -3.00750601E-23
  -14.6499996      -4.05139492E-23
  -14.6400003      -4.08737108E-23
  -14.6300001      -2.61535900E-23
  -14.6199999       5.38532936E-24
  -14.6099997       5.00742807E-23
  -14.6000004       9.77232748E-23
  -14.5900002       1.32404055E-22
  -14.5799999       1.35670835E-22
  -14.5699997       9.21035875E-23
  -14.5600004      -3.83454281E-24
  -14.5500002      -1.41529876E-22
  -14.5400000      -2.91029569E-22
  -14.5299997      -4.05351090E-22
  -14.5200005      -4.29749055E-22
  -14.5100002      -3.17532569E-22
  -14.5000000      -4.95648911E-23
  -14.4899998       3.47862466E-22
  -14.4799995       7.93622848E-22
  -14.4700003       1.15740067E-21
  -14.4600000       1.28434643E-21
  -14.4499998       1.03768475E-21
  -14.4399996       3.51668057E-22
  -14.4300003      -7.19113383E-22
  -14.4200001      -1.97206785E-21
  -14.4099998      -3.06790929E-21
  -14.3999996      -3.59153219E-21
  -14.3900003      -3.16023121E-21
  -14.3800001      -1.56048491E-21
  -14.3699999       1.12164247E-21
  -14.3599997       4.42160672E-21
  -14.3500004       7.51274836E-21
  -14.3400002       9.34543729E-21
  -14.3299999       8.90565750E-21
  -14.3199997       5.54971023E-21
  -14.3100004      -6.67399045E-22
  -14.3000002      -8.77709150E-21
  -14.2900000      -1.69015310E-20
  -14.2799997      -2.25459708E-20
  -14.2700005      -2.31780354E-20
  -14.2600002      -1.70012402E-20
  -14.2500000      -3.74012178E-21
  -14.2399998       1.48047801E-20
  -14.2299995       3.46743353E-20
  -14.2200003       5.03071862E-20
  -14.2100000       5.57515985E-20
  -14.1999998       4.63514178E-20
  -14.1899996       2.05266905E-20
  -14.1800003      -1.88662676E-20
  -14.1700001      -6.41263563E-20
  -14.1599998      -1.03637627E-19
  -14.1499996      -1.24225881E-19
  -14.1400003      -1.14623464E-19
  -14.1300001      -6.93062194E-20
  -14.1199999       8.33704919E-21
  -14.1099997       1.04616408E-19
  -14.1000004       1.96804815E-19
  -14.0900002       2.57369596E-19
  -14.0799999       2.60690520E-19
  -14.0699997       1.90940014E-19
  -14.0600004       4.91319661E-20
  -14.0500002      -1.42905700E-19
  -14.0400000      -3.43540826E-19
  -14.0299997      -4.98261651E-19
  -14.0200005      -5.51978657E-19
  -14.0100002      -4.64499913E-19
  -14.0000000      -2.25540462E-19
  -13.9899998       1.35106408E-19
  -13.9799995       5.46267285E-19
  -13.9700003       9.05432829E-19
  -13.9600000       1.10000122E-18
  -13.9499998       1.03637717E-18
  -13.9399996       6.70609798E-19
  -13.9300003       3.23237045E-20
  -13.9200001      -7.66289987E-19
  -13.9099998      -1.54239933E-18
  -13.8999996      -2.07685096E-18
  -13.8900003      -2.16644517E-18
  -13.8800001      -1.68369956E-18
  -13.8699999      -6.29199431E-19
  -13.8599997       8.39657340E-19
  -13.8500004       2.41672624E-18
  -13.8400002       3.69790018E-18
  -13.8299999       4.26992369E-18
  -13.8199997       3.82100119E-18
  -13.8100004       2.24742512E-18
  -13.8000002      -2.73872521E-19
  -13.7900000      -3.27384293E-18
  -13.7799997      -6.05667807E-18
  -13.7700005      -7.83979947E-18
  -13.7600002      -7.94539817E-18
  -13.7500000      -6.00176444E-18
  -13.7399998      -2.10192839E-18
  -13.7299995       3.13118323E-18
  -13.7200003       8.60797150E-18
  -13.7100000       1.29703558E-17
  -13.6999998       1.48962043E-17
  -13.6899996       1.34479575E-17
  -13.6800003       8.38103615E-18
  -13.6700001       3.24165801E-19
  -13.6599998      -9.23605222E-18
  -13.6499996      -1.81933264E-17
  -13.6400003      -2.42550796E-17
  -13.6300001      -2.54883066E-17
  -13.6199999      -2.08542986E-17
  -13.6099997      -1.05939858E-17
  -13.6000004       3.65447567E-18
  -13.5900002       1.90709518E-17
  -13.5799999       3.21896806E-17
  -13.5699997       3.96617156E-17
  -13.5600004       3.90795955E-17
  -13.5500002       2.96650029E-17
  -13.5400000       1.26323259E-17
  -13.5299997      -8.89831934E-18
  -13.5200005      -3.04650587E-17
  -13.5100002      -4.72137422E-17
  -13.5000000      -5.50334908E-17
  -13.4899998      -5.16100483E-17
  -13.4799995      -3.71208186E-17
  -13.4700003      -1.43581663E-17
  -13.4600000       1.18063017E-17
  -13.4499998       3.55382202E-17
  -13.4399996       5.14964301E-17
  -13.4300003       5.62628797E-17
  -13.4200001       4.93441591E-17
  -13.4099998       3.34110326E-17
  -13.3999996       1.36170985E-17
  -13.3900003      -3.91377653E-18
  -13.3800001      -1.40716938E-17
  -13.3699999      -1.46541630E-17
  -13.3599997      -7.52716077E-18
  -13.3500004       1.47315118E-18
  -13.3400002       4.12770818E-18
  -13.3299999      -7.30625309E-18
  -13.3199997      -3.66569588E-17
  -13.3100004      -8.08801652E-17
  -13.3000002      -1.28754567E-16
  -13.2900000      -1.62159428E-16
  -13.2799997      -1.60245584E-16
  -13.2700005      -1.05934910E-16
  -13.2600002       6.75189566E-18
  -13.2500000       1.66727887E-16
  -13.2399998       3.43588671E-16
  -13.2299995       4.90887992E-16
  -13.2200003       5.55477589E-16
  -13.2100000       4.91672980E-16
  -13.1999998       2.77171918E-16
  -13.1899996      -7.36932164E-17
  -13.1800003      -5.04074283E-16
  -13.1700001      -9.19727538E-16
  -13.1599998      -1.20631108E-15
  -13.1499996      -1.25664082E-15
  -13.1400003      -1.00224199E-15
  -13.1300001      -4.40983458E-16
  -13.1199999       3.48008410E-16
  -13.1099997       1.20908130E-15
  -13.1000004       1.93703115E-15
  -13.0900002       2.32300586E-15
  -13.0799999       2.20992463E-15
  -13.0699997       1.54354200E-15
  -13.0600004       4.04091917E-16
  -13.0500002      -9.93614434E-16
  -13.0400000      -2.33681122E-15
  -13.0299997      -3.28367717E-15
  -13.0200005      -3.55027295E-15
  -13.0100002      -2.99396014E-15
  -13.0000000      -1.66961957E-15
  -12.9899998       1.60755829E-16
  -12.9799995       2.07406097E-15
  -12.9700003       3.58217603E-15
  -12.9600000       4.25783811E-15
  -12.9499998       3.85893176E-15
  -12.9399996       2.41629447E-15
  -12.9300003       2.56038790E-16
  -12.9200001      -2.05783542E-15
  -12.9099998      -3.85419388E-15
  -12.8999996      -4.53135225E-15
  -12.8900003      -3.73605523E-15
  -12.8800001      -1.49581127E-15
  -12.8699999       1.73708193E-15
  -12.8599997       5.15188647E-15
  -12.8500004       7.75065979E-15
  -12.8400002       8.59015584E-15
  -12.8299999       7.03810814E-15
  -12.8199997       2.97866039E-15
  -12.8100004      -3.09045985E-15
  -12.8000002      -1.01030211E-14
  -12.7900000      -1.66115680E-14
  -12.7799997      -2.10807341E-14
  -12.7700005      -2.22217552E-14
  -12.7600002      -1.92899844E-14
  -12.7500000      -1.22734405E-14
  -12.7399998      -1.92527900E-15
  -12.7299995       1.03692935E-14
  -12.7200003       2.28605892E-14
  -12.7100000       3.37719693E-14
  -12.6999998       4.16259468E-14
  -12.6899996       4.54814070E-14
  -12.6800003       4.50282478E-14
  -12.6700001       4.05235029E-14
  -12.6599998       3.25939125E-14
  -12.6499996       2.19650111E-14
  -12.6400003       9.19503900E-15
  -12.6300001      -5.50876686E-15
  -12.6199999      -2.23345631E-14
  -12.6099997      -4.17468692E-14
  -12.6000004      -6.42185618E-14
  -12.5900002      -8.98615153E-14
  -12.5799999      -1.18025354E-13
  -12.5699997      -1.46942042E-13
  -12.5600004      -1.73488624E-13
  -12.5500002      -1.93126073E-13
  -12.5400000      -2.00054627E-13
  -12.5299997      -1.87607484E-13
  -12.5200005      -1.48887467E-13
  -12.5100002      -7.76359974E-14
  -12.5000000       3.07038839E-14
  -12.4899998       1.77791402E-13
  -12.4799995       3.61159182E-13
  -12.4700003       5.73090566E-13
  -12.4600000       7.99762654E-13
  -12.4499998       1.02083305E-12
  -12.4399996       1.20961325E-12
  -12.4300003       1.33392310E-12
  -12.4200001       1.35762072E-12
  -12.4099998       1.24270743E-12
  -12.3999996       9.51803632E-13
  -12.3900003       4.50720732E-13
  -12.3800001      -2.89133002E-13
  -12.3699999      -1.28875903E-12
  -12.3599997      -2.56010426E-12
  -12.3500004      -4.10510861E-12
  -12.3400002      -5.91514858E-12
  -12.3299999      -7.97066579E-12
  -12.3199997      -1.02407744E-11
  -12.3100004      -1.26826891E-11
  -12.3000002      -1.52410584E-11
  -12.2900000      -1.78473798E-11
  -12.2799997      -2.04198655E-11
  -12.2700005      -2.28642556E-11
  -12.2600002      -2.50759413E-11
  -12.2500000      -2.69435776E-11
  -12.2399998      -2.83542582E-11
  -12.2299995      -2.91998058E-11
  -12.2200003      -2.93834783E-11
  -12.2100000      -2.88262487E-11
  -12.1999998      -2.74718113E-11
  -12.1899996      -2.52896454E-11
  -12.1800003      -2.22757559E-11
  -12.1700001      -1.84511174E-11
  -12.1599998      -1.38584396E-11
  -12.1499996      -8.55787229E-12
  -12.1400003      -2.62258336E-12
  -12.1300001       3.86499686E-12
  -12.1199999       1.08158968E-11
  -12.1099997       1.81361350E-11
  -12.1000004       2.57274809E-11
  -12.0900002       3.34878965E-11
  -12.0799999       4.13124535E-11
  -12.0699997       4.90950440E-11
  -12.0600004       5.67312586E-11
  -12.0500002       6.41219716E-11
  -12.0400000       7.11772238E-11
  -12.0299997       7.78192649E-11
  -12.0200005       8.39842570E-11
  -12.0100002       8.96217753E-11
  -12.0000000       9.46921638E-11
  -11.9899998       9.91618315E-11
  -11.9799995       1.02997284E-10
  -11.9700003       1.06159158E-10
  -11.9600000       1.08597284E-10
  -11.9499998       1.10247304E-10
  -11.9399996       1.11030067E-10
  -11.9300003       1.10853361E-10
  -11.9200001       1.09615719E-10
  -11.9099998       1.07212191E-10
  -11.8999996       1.03540641E-10
  -11.8900003       9.85087151E-11
  -11.8800001       9.20404447E-11
  -11.8699999       8.40819983E-11
  -11.8599997       7.46070358E-11
  -11.8500004       6.36206643E-11
  -11.8400002       5.11620399E-11
  -11.8299999       3.73050410E-11
  -11.8199997       2.21566793E-11
  -11.8100004       5.85283601E-12
  -11.8000002      -1.14485704E-11
  -11.7900000      -2.95762546E-11
  -11.7799997      -4.83555695E-11
  -11.7700005      -6.76173353E-11
  -11.7600002      -8.72048753E-11
  -11.7500000      -1.06977593E-10
  -11.7399998      -1.26809743E-10
  -11.7299995      -1.46585313E-10
  -11.7200003      -1.66189604E-10
  -11.7100000      -1.85499907E-10
  -11.6999998      -2.04377168E-10
  -11.6899996      -2.22661334E-10
  -11.6800003      -2.40171744E-10
  -11.6700001      -2.56713012E-10
  -11.6599998      -2.72085521E-10
  -11.6499996      -2.86098228E-10
  -11.6400003      -2.98581382E-10
  -11.6300001      -3.09395620E-10
  -11.6199999      -3.18435445E-10
  -11.6099997      -3.25626609E-10
  -11.6000004      -3.30916156E-10
  -11.5900002      -3.34259398E-10
  -11.5799999      -3.35604544E-10
  -11.5699997      -3.34879929E-10
  -11.5600004      -3.31986522E-10
  -11.5500002      -3.26796701E-10
  -11.5400000      -3.19161614E-10
  -11.5299997      -3.08923748E-10
  -11.5200005      -2.95934166E-10
  -11.5100002      -2.80069495E-10
  -11.5000000      -2.61246774E-10
  -11.4899998      -2.39432363E-10
  -11.4799995      -2.14643789E-10
  -11.4700003      -1.86944932E-10
  -11.4600000      -1.56433824E-10
  -11.4499998      -1.23228802E-10
  -11.4399996      -8.74517334E-11
  -11.4300003      -4.92146220E-11
  -11.4200001      -8.60999379E-12
  -11.4099998       3.42929955E-11
  -11.3999996       7.94460470E-11
  -11.3900003       1.26814920E-10
  -11.3800001       1.76368350E-10
  -11.3699999       2.28065636E-10
  -11.3599997       2.81845658E-10
  -11.3500004       3.37619294E-10
  -11.3400002       3.95265126E-10
  -11.3299999       4.54631999E-10
  -11.3199997       5.15544218E-10
  -11.3100004       5.77810799E-10
  -11.3000002       6.41236009E-10
  -11.2900000       7.05627057E-10
  -11.2799997       7.70800646E-10
  -11.2700005       8.36584135E-10
  -11.2600002       9.02813047E-10
  -11.2500000       9.69324510E-10
  -11.2399998       1.03595177E-09
  -11.2299995       1.10251674E-09
  -11.2200003       1.16882837E-09
  -11.2100000       1.23468313E-09
  -11.1999998       1.29987165E-09
  -11.1899996       1.36419154E-09
  -11.1800003       1.42745582E-09
  -11.1700001       1.48950652E-09
  -11.1599998       1.55022417E-09
  -11.1499996       1.60953184E-09
  -11.1400003       1.66739345E-09
  -11.1300001       1.72381476E-09
  -11.1199999       1.77883064E-09
  -11.1099997       1.83249826E-09
  -11.1000004       1.88488714E-09
  -11.0900002       1.93607042E-09
  -11.0799999       1.98611860E-09
  -11.0699997       2.03509032E-09
  -11.0600004       2.08302842E-09
  -11.0500002       2.12995976E-09
  -11.0400000       2.17589147E-09
  -11.0299997       2.22082019E-09
  -11.0200005       2.26473862E-09
  -11.0100002       2.30765251E-09
  -11.0000000       2.34959652E-09
  -10.9899998       2.39064546E-09
  -10.9799995       2.43093012E-09
  -10.9700003       2.47063414E-09
  -10.9600000       2.50998178E-09
  -10.9499998       2.54920529E-09
  -10.9399996       2.58851918E-09
  -10.9300003       2.62807776E-09
  -10.9200001       2.66794609E-09
  -10.9099998       2.70808465E-09
  -10.8999996       2.74834600E-09
  -10.8900003       2.78851386E-09
  -10.8800001       2.82833734E-09
  -10.8699999       2.86758484E-09
  -10.8599997       2.90609470E-09
  -10.8500004       2.94380587E-09
  -10.8400002       2.98076785E-09
  -10.8299999       3.01711056E-09
  -10.8199997       3.05300807E-09
  -10.8100004       3.08862336E-09
  -10.8000002       3.12405435E-09
  -10.7900000       3.15928661E-09
  -10.7799997       3.19419313E-09
  -10.7700005       3.22854565E-09
  -10.7600002       3.26204797E-09
  -10.7500000       3.29442029E-09
  -10.7399998       3.32543859E-09
  -10.7299995       3.35497474E-09
  -10.7200003       3.38304007E-09
  -10.7100000       3.40974449E-09
  -10.6999998       3.43527562E-09
  -10.6899996       3.45983331E-09
  -10.6800003       3.48357809E-09
  -10.6700001       3.50658524E-09
  -10.6599998       3.52882190E-09
  -10.6499996       3.55014951E-09
  -10.6400003       3.57036467E-09
  -10.6300001       3.58923491E-09
  -10.6199999       3.60656371E-09
  -10.6099997       3.62223562E-09
  -10.6000004       3.63622621E-09
  -10.5900002       3.64865516E-09
  -10.5799999       3.65971897E-09
  -10.5699997       3.66968544E-09
  -10.5600004       3.67884501E-09
  -10.5500002       3.68748676E-09
  -10.5400000       3.69586539E-09
  -10.5299997       3.70418318E-09
  -10.5200005       3.71260866E-09
  -10.5100002       3.72127240E-09
  -10.5000000       3.73028985E-09
  -10.4899998       3.73980358E-09
  -10.4799995       3.74996256E-09
  -10.4700003       3.76094000E-09
  -10.4600000       3.77290510E-09
  -10.4499998       3.78599063E-09
  -10.4399996       3.80028542E-09
  -10.4300003       3.81577037E-09
  -10.4200001       3.83234644E-09
  -10.4099998       3.84982402E-09
  -10.3999996       3.86794108E-09
  -10.3900003       3.88642807E-09
  -10.3800001       3.90505006E-09
  -10.3699999       3.92366628E-09
  -10.3599997       3.94225630E-09
  -10.3500004       3.96095690E-09
  -10.3400002       3.98002786E-09
  -10.3299999       3.99982047E-09
  -10.3199997       4.02071221E-09
  -10.3100004       4.04304634E-09
  -10.3000002       4.06706580E-09
  -10.2900000       4.09287493E-09
  -10.2799997       4.12045376E-09
  -10.2700005       4.14964685E-09
  -10.2600002       4.18023527E-09
  -10.2500000       4.21198632E-09
  -10.2399998       4.24471880E-09
  -10.2299995       4.27834923E-09
  -10.2200003       4.31288694E-09
  -10.2100000       4.34846070E-09
  -10.1999998       4.38524239E-09
  -10.1899996       4.42344250E-09
  -10.1800003       4.46322090E-09
  -10.1700001       4.50470283E-09
  -10.1599998       4.54791982E-09
  -10.1499996       4.59284433E-09
  -10.1400003       4.63938177E-09
  -10.1300001       4.68746242E-09
  -10.1199999       4.73705830E-09
  -10.1099997       4.78822182E-09
  -10.1000004       4.84111062E-09
  -10.0900002       4.89598939E-09
  -10.0799999       4.95321695E-09
  -10.0699997       5.01320008E-09
  -10.0600004       5.07636111E-09
  -10.0500002       5.14307708E-09
  -10.0400000       5.21360510E-09
  -10.0299997       5.28811750E-09
  -10.0200005       5.36660671E-09
  -10.0100002       5.44890844E-09
  -10.0000000       5.53476953E-09
  -9.98999977       5.62385516E-09
  -9.97999954       5.71585268E-09
  -9.97000027       5.81051118E-09
  -9.96000004       5.90772586E-09
  -9.94999981       6.00759131E-09
  -9.93999958       6.11037132E-09
  -9.93000031       6.21650909E-09
  -9.92000008       6.32655217E-09
  -9.90999985       6.44105924E-09
  -9.89999962       6.56049348E-09
  -9.89000034       6.68514177E-09
  -9.88000011       6.81507251E-09
  -9.86999989       6.95011693E-09
  -9.85999966       7.08991132E-09
  -9.85000038       7.23398097E-09
  -9.84000015       7.38180672E-09
  -9.82999992       7.53300089E-09
  -9.81999969       7.68730857E-09
  -9.81000042       7.84473109E-09
  -9.80000019       8.00546740E-09
  -9.78999996       8.16989498E-09
  -9.77999973       8.33848102E-09
  -9.77000046       8.51171045E-09
  -9.76000023       8.69001582E-09
  -9.75000000       8.87373641E-09
  -9.73999977       9.06312891E-09
  -9.72999954       9.25840293E-09
  -9.72000027       9.45974143E-09
  -9.71000004       9.66742952E-09
  -9.69999981       9.88182514E-09
  -9.68999958       1.01033759E-08
  -9.68000031       1.03325855E-08
  -9.67000008       1.05699369E-08
  -9.65999985       1.08157963E-08
  -9.64999962       1.10703393E-08
  -9.64000034       1.13335297E-08
  -9.63000011       1.16050805E-08
  -9.61999989       1.18844330E-08
  -9.60999966       1.21709034E-08
  -9.60000038       1.24636221E-08
  -9.59000015       1.27616877E-08
  -9.57999992       1.30640920E-08
  -9.56999969       1.33697586E-08
  -9.56000042       1.36775036E-08
  -9.55000019       1.39859591E-08
  -9.53999996       1.42936836E-08
  -9.52999973       1.45990411E-08
  -9.52000046       1.49003148E-08
  -9.51000023       1.51958108E-08
  -9.50000000       1.54838897E-08
  -9.48999977       1.57630531E-08
  -9.47999954       1.60319793E-08
  -9.47000027       1.62894747E-08
  -9.46000004       1.65345195E-08
  -9.44999981       1.67661600E-08
  -9.43999958       1.69835399E-08
  -9.43000031       1.71858208E-08
  -9.42000008       1.73723258E-08
  -9.40999985       1.75425932E-08
  -9.39999962       1.76964985E-08
  -9.39000034       1.78342763E-08
  -9.38000011       1.79566531E-08
  -9.36999989       1.80648545E-08
  -9.35999966       1.81604456E-08
  -9.35000038       1.82454016E-08
  -9.34000015       1.83218383E-08
  -9.32999992       1.83920772E-08
  -9.31999969       1.84585502E-08
  -9.31000042       1.85237496E-08
  -9.30000019       1.85903613E-08
  -9.28999996       1.86611775E-08
  -9.27999973       1.87391382E-08
  -9.27000046       1.88273077E-08
  -9.26000023       1.89287483E-08
  -9.25000000       1.90464586E-08
  -9.23999977       1.91831511E-08
  -9.22999954       1.93413694E-08
  -9.22000027       1.95233412E-08
  -9.21000004       1.97309689E-08
  -9.19999981       1.99660608E-08
  -9.18999958       2.02302424E-08
  -9.18000031       2.05250519E-08
  -9.17000008       2.08517843E-08
  -9.15999985       2.12116227E-08
  -9.14999962       2.16052669E-08
  -9.14000034       2.20330225E-08
  -9.13000011       2.24946408E-08
  -9.11999989       2.29893882E-08
  -9.10999966       2.35161721E-08
  -9.10000038       2.40737297E-08
  -9.09000015       2.46606948E-08
  -9.07999992       2.52757335E-08
  -9.06999969       2.59175650E-08
  -9.06000042       2.65849192E-08
  -9.05000019       2.72763216E-08
  -9.03999996       2.79899002E-08
  -9.02999973       2.87233313E-08
  -9.02000046       2.94736804E-08
  -9.01000023       3.02375582E-08
  -9.00000000       3.10113357E-08
  -8.98999977       3.17911706E-08
  -8.97999954       3.25733254E-08
  -8.97000027       3.33542367E-08
  -8.96000004       3.41306929E-08
  -8.94999981       3.48994469E-08
  -8.93999958       3.56574539E-08
  -8.93000031       3.64014419E-08
  -8.92000008       3.71281139E-08
  -8.90999985       3.78340452E-08
  -8.89999962       3.85158359E-08
  -8.89000034       3.91702457E-08
  -8.88000011       3.97943154E-08
  -8.86999989       4.03856788E-08
  -8.85999966       4.09422718E-08
  -8.85000038       4.14626236E-08
  -8.84000015       4.19453094E-08
  -8.82999992       4.23891180E-08
  -8.81999969       4.27929479E-08
  -8.81000042       4.31556515E-08
  -8.80000019       4.34762946E-08
  -8.78999996       4.37540777E-08
  -8.77999973       4.39888197E-08
  -8.77000046       4.41806804E-08
  -8.76000023       4.43303847E-08
  -8.75000000       4.44389627E-08
  -8.73999977       4.45076935E-08
  -8.72999954       4.45378596E-08
  -8.72000027       4.45306725E-08
  -8.71000004       4.44872299E-08
  -8.69999981       4.44085515E-08
  -8.68999958       4.42957457E-08
  -8.68000031       4.41502443E-08
  -8.67000008       4.39737597E-08
  -8.65999985       4.37684058E-08
  -8.64999962       4.35366161E-08
  -8.64000034       4.32810623E-08
  -8.63000011       4.30043023E-08
  -8.61999989       4.27087805E-08
  -8.60999966       4.23967279E-08
  -8.60000038       4.20701589E-08
  -8.59000015       4.17309316E-08
  -8.57999992       4.13811279E-08
  -8.56999969       4.10227514E-08
  -8.56000042       4.06581044E-08
  -8.55000019       4.02896454E-08
  -8.53999996       3.99198221E-08
  -8.52999973       3.95511179E-08
  -8.52000046       3.91856432E-08
  -8.51000023       3.88252204E-08
  -8.50000000       3.84714589E-08
  -8.48999977       3.81257870E-08
  -8.47999954       3.77896718E-08
  -8.47000027       3.74645737E-08
  -8.46000004       3.71521089E-08
  -8.44999981       3.68537378E-08
  -8.43999958       3.65713007E-08
  -8.43000031       3.63061403E-08
  -8.42000008       3.60593972E-08
  -8.40999985       3.58317500E-08
  -8.39999962       3.56236498E-08
  -8.39000034       3.54351890E-08
  -8.38000011       3.52662006E-08
  -8.36999989       3.51167095E-08
  -8.35999966       3.49865488E-08
  -8.35000038       3.48757823E-08
  -8.34000015       3.47843603E-08
  -8.32999992       3.47122651E-08
  -8.31999969       3.46593936E-08
  -8.31000042       3.46253515E-08
  -8.30000019       3.46095490E-08
  -8.28999996       3.46113893E-08
  -8.27999973       3.46300340E-08
  -8.27000046       3.46648577E-08
  -8.26000023       3.47153133E-08
  -8.25000000       3.47810989E-08
  -8.23999977       3.48620688E-08
  -8.22999954       3.49582301E-08
  -8.22000027       3.50694087E-08
  -8.21000004       3.51956366E-08
  -8.19999981       3.53370702E-08
  -8.18999958       3.54935175E-08
  -8.18000031       3.56654333E-08
  -8.17000008       3.58530947E-08
  -8.15999985       3.60571910E-08
  -8.14999962       3.62787169E-08
  -8.14000034       3.65187418E-08
  -8.13000011       3.67787223E-08
  -8.11999989       3.70602748E-08
  -8.10999966       3.73651829E-08
  -8.10000038       3.76951235E-08
  -8.09000015       3.80517129E-08
  -8.07999992       3.84368057E-08
  -8.06999969       3.88522245E-08
  -8.06000042       3.92997528E-08
  -8.05000019       3.97812414E-08
  -8.03999996       4.02983460E-08
  -8.02999973       4.08527647E-08
  -8.02000046       4.14460928E-08
  -8.01000023       4.20797406E-08
  -8.00000000       4.27550262E-08
  -7.98999977       4.34726743E-08
  -7.98000002       4.42333707E-08
  -7.96999979       4.50375204E-08
  -7.96000004       4.58847325E-08
  -7.94999981       4.67746730E-08
  -7.94000006       4.77066706E-08
  -7.92999983       4.86795919E-08
  -7.92000008       4.96922574E-08
  -7.90999985       5.07434379E-08
  -7.90000010       5.18317300E-08
  -7.88999987       5.29558477E-08
  -7.88000011       5.41142882E-08
  -7.86999989       5.53057546E-08
  -7.86000013       5.65286058E-08
  -7.84999990       5.77813886E-08
  -7.84000015       5.90621596E-08
  -7.82999992       6.03690609E-08
  -7.82000017       6.17001419E-08
  -7.80999994       6.30531787E-08
  -7.80000019       6.44262244E-08
  -7.78999996       6.58173818E-08
  -7.78000021       6.72248319E-08
  -7.76999998       6.86468766E-08
  -7.76000023       7.00815264E-08
  -7.75000000       7.15270616E-08
  -7.73999977       7.29816421E-08
  -7.73000002       7.44436690E-08
  -7.71999979       7.59109042E-08
  -7.71000004       7.73816993E-08
  -7.69999981       7.88545620E-08
  -7.69000006       8.03278368E-08
  -7.67999983       8.18005290E-08
  -7.67000008       8.32713738E-08
  -7.65999985       8.47394261E-08
  -7.65000010       8.62036131E-08
  -7.63999987       8.76632384E-08
  -7.63000011       8.91173784E-08
  -7.61999989       9.05651945E-08
  -7.61000013       9.20059264E-08
  -7.59999990       9.34392759E-08
  -7.59000015       9.48649301E-08
  -7.57999992       9.62833440E-08
  -7.57000017       9.76943682E-08
  -7.55999994       9.90989193E-08
  -7.55000019       1.00497694E-07
  -7.53999996       1.01891494E-07
  -7.53000021       1.03280961E-07
  -7.51999998       1.04666839E-07
  -7.51000023       1.06049896E-07
  -7.50000000       1.07430857E-07
  -7.48999977       1.08810887E-07
  -7.48000002       1.10190932E-07
  -7.46999979       1.11572191E-07
  -7.46000004       1.12956201E-07
  -7.44999981       1.14344573E-07
  -7.44000006       1.15738800E-07