  -10.00000       -3.4083147E-32
  -9.950000       -1.0224945E-31
  -9.900000       -1.6908082E-31
  -9.850000       -1.5265502E-31
  -9.800000       -3.7243636E-33
  -9.750000        2.0171356E-31
  -9.700000        4.2845448E-31
  -9.650000        5.3202301E-31
  -9.600000        4.5181197E-31
  -9.550000        3.2754008E-31
  -9.500000        1.4764059E-31
  -9.450000       -1.5929375E-32
  -9.400000       -9.5086579E-32
  -9.350000       -6.6563285E-32
  -9.300000        6.3109488E-32
  -9.250000        2.1899323E-31
  -9.200000        3.6850662E-31
  -9.150000        4.4095929E-31
  -9.100000        4.6128011E-31
  -9.050000        4.0231346E-31
  -9.000000        2.7438533E-31
  -8.950000        1.3596740E-31
  -8.900000       -3.4902737E-32
  -8.850000       -2.2268339E-31
  -8.800000       -3.9436883E-31
  -8.750000       -4.3994691E-31
  -8.700000       -3.5107808E-31
  -8.650000       -2.5760362E-31
  -8.600000       -1.6566676E-31
  -8.550000       -6.4971736E-32
  -8.500000        1.3443928E-32
  -8.450000        8.0900213E-32
  -8.400000        9.4678206E-32
  -8.350000       -3.7783509E-32
  -8.300000       -2.1181376E-31
  -8.250000       -3.2699617E-31
  -8.200000       -3.9009906E-31
  -8.150000       -4.2110214E-31
  -8.100000       -3.4915293E-31
  -8.050000       -1.2323323E-31
  -8.000000        9.7638853E-32
  -7.950000        2.5267818E-31
  -7.900000        1.6364492E-31
  -7.850000       -1.4099901E-31
  -7.800000       -4.3822284E-31
  -7.750000       -6.1799232E-31
  -7.700000       -5.9988331E-31
  -7.650000       -3.6017163E-31
  -7.600000       -2.9422001E-32
  -7.550000        2.3041159E-31
  -7.500000        4.0228985E-31
  -7.450000        4.4344513E-31
  -7.400000        3.7418804E-31
  -7.350000        2.4741702E-31
  -7.300000        8.9525773E-32
  -7.250000       -8.7037734E-32
  -7.200000       -2.4615703E-31
  -7.150000       -3.4899358E-31
  -7.100000       -4.4329881E-31
  -7.050000       -5.5394400E-31
  -7.000000       -6.0433665E-31
  -6.950000       -5.0109072E-31
  -6.900000       -2.2342116E-31
  -6.850000        1.7529890E-31
  -6.800000        6.0648155E-31
  -6.750000        8.2686116E-31
  -6.700000        7.7619100E-31
  -6.650000        4.7140262E-31
  -6.600000       -1.9921691E-32
  -6.550000       -4.9446234E-31
  -6.500000       -7.4525232E-31
  -6.450000       -7.0781348E-31
  -6.400000       -4.6779729E-31
  -6.350000       -1.6538940E-31
  -6.300000       -7.0561294E-32
  -6.250000       -3.0240699E-31
  -6.200000       -6.3467423E-31
  -6.150000       -7.0458972E-31
  -6.100000       -4.1301643E-31
  -6.050000        8.2773169E-32
  -6.000000        6.8550307E-31
  -5.950000        1.3006360E-30
  -5.900000        1.6484567E-30
  -5.850000        1.5870105E-30
  -5.800000        1.3189096E-30
  -5.750000        9.8715890E-31
  -5.700000        7.0178061E-31
  -5.650000        5.3831928E-31
  -5.600000        4.6257217E-31
  -5.550000        4.7960673E-31
  -5.500000        5.0843742E-31
  -5.450000        3.3536565E-31
  -5.400000       -7.9956620E-32
  -5.350000       -6.1946173E-31
  -5.300000       -1.1727260E-30
  -5.250000       -1.4664142E-30
  -5.200000       -1.2500570E-30
  -5.150000       -6.1830570E-31
  -5.100000        7.6222157E-32
  -5.050000        4.8573204E-31
  -5.000000        5.4054252E-31
  -4.950000        2.5787885E-31
  -4.900000       -2.9421521E-31
  -4.850000       -9.1664231E-31
  -4.800000       -1.2223722E-30
  -4.750000       -8.9388117E-31
  -4.700000       -1.1288337E-31
  -4.650000        7.7585815E-31
  -4.600000        1.3702928E-30
  -4.550000        1.4178946E-30
  -4.500000        9.7280941E-31
  -4.450000        2.6772862E-31
  -4.400000       -3.1180613E-31
  -4.350000       -4.9505192E-31
  -4.300000       -3.0203928E-31
  -4.250000        1.8252901E-31
  -4.200000        6.4826280E-31
  -4.150000        8.5260900E-31
  -4.100000        7.4296119E-31
  -4.050000        3.7377321E-31
  -4.000000       -4.9636742E-32
  -3.950000       -3.1313373E-31
  -3.900000       -2.9438660E-31
  -3.850000       -1.0390577E-31
  -3.800000        1.2228040E-31
  -3.750000        2.3923764E-31
  -3.700000        1.5964669E-31
  -3.650000       -1.1756709E-31
  -3.600000       -4.6467263E-31
  -3.550000       -7.0647187E-31
  -3.500000       -7.3086338E-31
  -3.450000       -4.9527240E-31
  -3.400000       -2.2124960E-31
  -3.350000       -2.9453851E-32
  -3.300000       -2.6779354E-32
  -3.250000       -2.7473337E-31
  -3.200000       -5.4225616E-31
  -3.150000       -6.6365943E-31
  -3.100000       -6.7762839E-31
  -3.050000       -5.3873922E-31
  -3.000000       -3.1153452E-31
  -2.950000       -9.8656608E-32
  -2.900000        1.0517743E-31
  -2.850000        3.4528113E-31
  -2.800000        6.6283174E-31
  -2.750000        1.0196824E-30
  -2.700000        1.4205244E-30
  -2.650000        1.7166303E-30
  -2.600000        1.7634943E-30
  -2.550000        1.5657018E-30
  -2.500000        1.0264834E-30
  -2.450000        3.1955899E-31
  -2.400000       -2.3283122E-31
  -2.350000       -5.7224715E-31
  -2.300000       -7.3504503E-31
  -2.250000       -8.6368441E-31
  -2.200000       -1.0416388E-30
  -2.150000       -1.3785328E-30
  -2.100000       -1.8413871E-30
  -2.050000       -2.2618962E-30
  -2.000000       -2.3792600E-30
  -1.950000       -1.8856577E-30
  -1.900000       -9.5237311E-31
  -1.850000        1.6047563E-31
  -1.800000        1.3350608E-30
  -1.750000        2.3838642E-30
  -1.700000        2.9984478E-30
  -1.650000        2.9059165E-30
  -1.600000        2.0477317E-30
  -1.550000        3.1294375E-31
  -1.500000       -1.9506136E-30
  -1.450000       -3.9425268E-30
  -1.400000       -4.7368360E-30
  -1.350000       -3.1382297E-30
  -1.300000        1.5721298E-30
  -1.250000        8.6653584E-30
  -1.200000        1.5528967E-29
  -1.150000        1.7662961E-29
  -1.100000        9.5894204E-30
  -1.050000       -1.2423210E-29
  -1.000000       -4.6043009E-29
 -0.9500000       -7.9341952E-29
 -0.9000000       -9.0527422E-29
 -0.8500000       -5.3354693E-29
 -0.8000000        4.9441312E-29
 -0.7500000        2.0787315E-28
 -0.7000000        3.6878975E-28
 -0.6500000        4.3304925E-28
 -0.6000000        2.8074233E-28
 -0.5500000       -1.7076806E-28
 -0.5000000       -8.8510675E-28
 -0.4500000       -1.6340048E-27
 -0.4000000       -1.9875210E-27
 -0.3500000       -1.4188316E-27
 -0.3000000        4.5023846E-28
 -0.2500000        3.5053812E-27
 -0.2000000        6.8341200E-27
 -0.1500000        8.6700413E-27
 -0.1000000        6.8052365E-27
 -5.0000001E-02   -4.3046744E-28
  0.0000000E+00   -1.2792293E-26
  5.0000001E-02   -2.6872236E-26
  0.1000000       -3.5802560E-26
  0.1500000       -3.0758318E-26
  0.2000000       -4.6498162E-27
  0.2500000        4.2606439E-26
  0.3000000        9.9176838E-26
  0.3500000        1.3980834E-25
  0.4000000        1.3089325E-25
  0.4500000        4.3639409E-26
  0.5000000       -1.2667697E-25
  0.5500000       -3.4214054E-25
  0.6000000       -5.1507894E-25
  0.6500000       -5.2372909E-25
  0.7000000       -2.5663723E-25
  0.7500000        3.2031271E-25
  0.8000000        1.0965530E-24
  0.8500000        1.7854750E-24
  0.9000000        1.9681474E-24
  0.9500000        1.2344817E-24
   1.000000       -5.9459360E-25
   1.050000       -3.2334553E-24
   1.100000       -5.8033097E-24
   1.150000       -6.9383567E-24
   1.200000       -5.2076830E-24
   1.250000        1.8478163E-25
   1.300000        8.6262043E-24
   1.350000        1.7604152E-23
   1.400000        2.2910097E-23
   1.450000        1.9818622E-23
   1.500000        5.1792158E-24
   1.550000       -2.0141255E-23
   1.600000       -4.9506964E-23
   1.650000       -7.0700169E-23
   1.700000       -6.8979392E-23
   1.750000       -3.2993524E-23
   1.800000        3.7891804E-23
   1.850000        1.2773791E-22
   1.900000        2.0326595E-22
   1.950000        2.2111791E-22
   2.000000        1.4362294E-22
   2.050000       -4.0355770E-23
   2.100000       -2.9704957E-22
   2.150000       -5.4189605E-22
   2.200000       -6.5493015E-22
   2.250000       -5.2023794E-22
   2.300000       -8.2103356E-23
   2.350000        6.0085160E-22
   2.400000        1.3298671E-21
   2.450000        1.7935630E-21
   2.500000        1.6600161E-21
   2.550000        7.1954545E-22
   2.600000       -9.6529332E-22
   2.650000       -2.9683148E-21
   2.700000       -4.5341198E-21
   2.750000       -4.7765298E-21
   2.800000       -3.0204409E-21
   2.850000        8.0740371E-22
   2.900000        5.8945177E-21
   2.950000        1.0537020E-20
   3.000000        1.2527868E-20
   3.050000        9.9244605E-21
   3.100000        2.0059071E-21
   3.150000       -9.9286222E-21
   3.200000       -2.2334141E-20
   3.250000       -3.0086507E-20
   3.300000       -2.8090359E-20
   3.350000       -1.3482802E-20
   3.400000        1.2301745E-20
   3.450000        4.2550468E-20
   3.500000        6.6194088E-20
   3.550000        7.0923706E-20
   3.600000        4.7952739E-20
   3.650000       -3.0270434E-21
   3.700000       -7.0736757E-20
   3.750000       -1.3300797E-19
   3.800000       -1.6229706E-19
   3.850000       -1.3532604E-19
   3.900000       -4.4183012E-20
   3.950000        9.5284428E-20
   4.000000        2.4218088E-19
   4.050000        3.3922982E-19
   4.100000        3.3100180E-19
   4.150000        1.8720191E-19
   4.200000       -7.7009727E-20
   4.250000       -3.9296748E-19
   4.300000       -6.4982901E-19
   4.350000       -7.2658061E-19
   4.400000       -5.3790682E-19
   4.450000       -7.9376620E-20
   4.500000        5.4665647E-19
   4.550000        1.1406610E-18
   4.600000        1.4575429E-18
   4.650000        1.2915884E-18
   4.700000        5.7003322E-19
   4.750000       -5.7997453E-19
   4.800000       -1.8254749E-18
   4.850000       -2.7023858E-18
   4.900000       -2.7633191E-18
   4.950000       -1.7596437E-18
   5.000000        2.0548443E-19
   5.050000        2.6220424E-18
   5.100000        4.6644665E-18
   5.150000        5.4325083E-18
   5.200000        4.2860591E-18
   5.250000        1.1662757E-18
   5.300000       -3.2276515E-18
   5.350000       -7.5138804E-18
   5.400000       -9.9916155E-18
   5.450000       -9.2248224E-18
   5.500000       -4.6731701E-18
   5.550000        2.8656301E-18
   5.600000        1.1224087E-17
   5.650000        1.7361039E-17
   5.700000        1.8325457E-17
   5.750000        1.2429299E-17
   5.800000        2.2379754E-19
   5.850000       -1.5151174E-17
   5.900000       -2.8537622E-17
   5.950000       -3.4256812E-17
   6.000000       -2.8181134E-17
   6.050000       -9.7175086E-18
   6.100000        1.7089161E-17
   6.150000        4.3976108E-17
   6.200000        6.0616133E-17
   6.250000        5.8093550E-17
   6.300000        3.2680851E-17
   6.350000       -1.1468682E-17
   6.400000       -6.2010753E-17
   6.450000       -1.0117269E-16
   6.500000       -1.1126005E-16
   6.550000       -8.1444792E-17
   6.600000       -1.3534318E-17
   6.650000        7.5728412E-17
   6.700000        1.5752734E-16
   6.750000        1.9910915E-16
   6.800000        1.7531204E-16
   6.850000        7.9876477E-17
   6.900000       -6.7818659E-17
   6.950000       -2.2420266E-16
   7.000000       -3.3245532E-16
   7.050000       -3.4094434E-16
   7.100000       -2.2386017E-16
   7.150000        3.2673671E-18
   7.200000        2.8017409E-16
   7.250000        5.1455430E-16
   7.300000        6.0959770E-16
   7.350000        4.9925350E-16
   7.400000        1.7964183E-16
   7.450000       -2.7601823E-16
   7.500000       -7.2810740E-16
   7.550000       -1.0084029E-15
   7.600000       -9.7658695E-16
   7.650000       -5.7829925E-16
   7.700000        1.1661465E-16
   7.750000        9.1405199E-16
   7.800000        1.5417401E-15
   7.850000        1.7338281E-15
   7.900000        1.3304357E-15
   7.950000        3.5825759E-16
   8.000000       -9.4150391E-16
   8.050000       -2.1588200E-15
   8.100000       -2.8319501E-15
   8.150000       -2.6069050E-15
   8.200000       -1.3887434E-15
   8.250000        5.7272990E-16
   8.300000        2.7072640E-15
   8.350000        4.2708875E-15
   8.400000        4.5847280E-15
   8.450000        3.2958126E-15
   8.500000        5.6824201E-16
   8.550000       -2.8786747E-15
   8.600000       -5.9282629E-15
   8.650000       -7.3993207E-15
   8.700000       -6.4647842E-15
   8.750000       -3.0189645E-15
   8.800000        2.1505487E-15
   8.850000        7.4852183E-15
   8.900000        1.1081482E-14
   8.950000        1.1320279E-14
   9.000000        7.5074826E-15
   9.050000        2.9366667E-16
   9.100000       -8.3197287E-15
   9.150000       -1.5464443E-14
   9.200000       -1.8291268E-14
   9.250000       -1.5007115E-14
   9.300000       -5.7130598E-15
   9.350000        7.2964053E-15
   9.400000        1.9976635E-14
   9.450000        2.7688264E-14
   9.500000        2.6770536E-14
   9.550000        1.6035465E-14
   9.600000       -2.3717846E-15
   9.650000       -2.3167024E-14
   9.700000       -3.9287191E-14
   9.750000       -4.4125626E-14
   9.800000       -3.3985977E-14
   9.850000       -9.9080993E-15
   9.900000        2.1897182E-14
   9.950000        5.1394971E-14
   10.00000        6.7669882E-14
   10.05000        6.2677226E-14
   10.10000        3.4592673E-14
   10.15000       -1.0503784E-14
   10.20000       -5.9483878E-14
   10.25000       -9.5675861E-14
   10.30000       -1.0419844E-13
   10.35000       -7.7520659E-14
   10.40000       -1.9308277E-14
   10.45000        5.5080811E-14
   10.50000        1.2215652E-13
   10.55000        1.5728735E-13
   10.60000        1.4318431E-13
   10.65000        7.7111779E-14
   10.70000       -2.5913785E-14
   10.75000       -1.3567669E-13
   10.80000       -2.1503783E-13
   10.85000       -2.3188200E-13
   10.90000       -1.7108594E-13
   10.95000       -4.2307249E-14
   11.00000        1.1975253E-13
   11.05000        2.6380140E-13
   11.10000        3.3742846E-13
   11.15000        3.0518600E-13
   11.20000        1.6332874E-13
   11.25000       -5.4418753E-14
   11.30000       -2.8334512E-13
   11.35000       -4.4593452E-13
   11.40000       -4.7702321E-13
   11.45000       -3.4811146E-13
   11.50000       -8.2231612E-14
   11.55000        2.4709897E-13
   11.60000        5.3462643E-13
   11.65000        6.7565029E-13
   11.70000        6.0240734E-13
   11.75000        3.1241324E-13
   11.80000       -1.2217072E-13
   11.85000       -5.6989222E-13
   11.90000       -8.7794919E-13
   11.95000       -9.2242511E-13
   12.00000       -6.5490782E-13
   12.05000       -1.2880077E-13
   12.10000        5.0640660E-13
   12.15000        1.0449548E-12
   12.20000        1.2891362E-12
   12.25000        1.1187962E-12
   12.30000        5.4248327E-13
   12.35000       -2.8980651E-13
   12.40000       -1.1214235E-12
   12.45000       -1.6650941E-12
   12.50000       -1.6987546E-12
   12.55000       -1.1502743E-12
   12.60000       -1.4030364E-13
   12.65000        1.0366292E-12
   12.70000        1.9935364E-12
   12.75000        2.3740255E-12
   12.80000        1.9791959E-12
   12.85000        8.5482728E-13
   12.90000       -6.9597811E-13
   12.95000       -2.1876958E-12
   13.00000       -3.0989720E-12
   13.05000       -3.0484107E-12
   13.10000       -1.9421134E-12
   13.15000       -3.8815847E-14
   13.20000        2.0991347E-12
   13.25000        3.7648422E-12
   13.30000        4.3334143E-12
   13.35000        3.4855094E-12
   13.40000        1.3506851E-12
   13.45000       -1.4874164E-12
   13.50000       -4.1407940E-12
   13.55000       -5.6870723E-12
   13.60000       -5.4801571E-12
   13.65000       -3.3996473E-12
   13.70000        5.2583816E-14
   13.75000        3.8574820E-12
   13.80000        6.7705347E-12
   13.85000        7.7198690E-12
   13.90000        6.1861111E-12
   13.95000        2.4331615E-12
   14.00000       -2.5031826E-12
   14.05000       -7.0886053E-12
   14.10000       -9.7584397E-12
   14.15000       -9.4408465E-12
   14.20000       -5.9632854E-12
   14.25000       -1.9399234E-13
   14.30000        6.1538769E-12
   14.35000        1.1020221E-11
   14.40000        1.2657464E-11
   14.45000        1.0243573E-11
   14.50000        4.2378965E-12
   14.55000       -3.6626565E-12
   14.60000       -1.0986919E-11
   14.65000       -1.5252138E-11
   14.70000       -1.4794461E-11
   14.75000       -9.3931867E-12
   14.80000       -4.6133415E-13
   14.85000        9.2972999E-12
   14.90000        1.6692486E-11
   14.95000        1.9079400E-11
   15.00000        1.5288248E-11
   15.05000        6.1300422E-12
   15.10000       -5.7254132E-12
   15.15000       -1.6506997E-11
   15.20000       -2.2528483E-11
   15.25000       -2.1435471E-11
   15.30000       -1.3096038E-11
   15.35000        1.9316336E-13
   15.40000        1.4306547E-11
   15.45000        2.4551874E-11
   15.50000        2.7216267E-11
   15.55000        2.0892144E-11
   15.60000        7.1164758E-12
   15.65000       -9.9441844E-12
   15.70000       -2.4725172E-11
   15.75000       -3.2058713E-11
   15.80000       -2.8961188E-11
   15.85000       -1.5801985E-11
   15.90000        3.5898942E-12
   15.95000        2.2994467E-11
   16.00000        3.5763361E-11
   16.05000        3.7068248E-11
   16.10000        2.5684670E-11
   16.15000        4.6656437E-12
   16.20000       -1.9406166E-11
   16.25000       -3.8433041E-11
   16.30000       -4.5482156E-11
   16.35000       -3.7256882E-11
   16.40000       -1.5493884E-11
   16.45000        1.3272340E-11
   16.50000        3.9614152E-11
   16.55000        5.4249133E-11
   16.60000        5.1247562E-11
   16.65000        3.0317037E-11
   16.70000       -2.6881188E-12
   16.75000       -3.7334410E-11
   16.80000       -6.1862009E-11
   16.85000       -6.7123737E-11
   16.90000       -4.9905049E-11
   16.95000       -1.4441964E-11
   17.00000        2.8508078E-11
   17.05000        6.4891120E-11
   17.10000        8.1927215E-11
   17.15000        7.2550958E-11
   17.20000        3.8193358E-11
   17.25000       -1.1155271E-11
   17.30000       -5.9797924E-11
   17.35000       -9.1309002E-11
   17.40000       -9.4069655E-11
   17.45000       -6.5503089E-11
   17.50000       -1.3483543E-11
   17.55000        4.5732605E-11
   17.60000        9.2553208E-11
   17.65000        1.1052413E-10
   17.70000        9.2100598E-11
   17.75000        4.1702402E-11
   17.80000       -2.5145891E-11
   17.85000       -8.6515677E-11
   17.90000       -1.2122119E-10
   17.95000       -1.1610043E-10
   18.00000       -7.0943175E-11
   18.05000        7.5254646E-13
   18.10000        7.5683161E-11
   18.15000        1.2821706E-10
   18.20000        1.3907590E-10
   18.25000        1.0230493E-10
   18.30000        2.8044813E-11
   18.35000       -6.0077505E-11
   18.40000       -1.3233940E-10
   18.45000       -1.6282022E-10
   18.50000       -1.3854541E-10
   18.55000       -6.4694958E-11
   18.60000        3.6133783E-11
   18.65000        1.3069204E-10
   18.70000        1.8589644E-10
   18.75000        1.8022046E-10
   18.80000        1.1179085E-10
   18.85000        2.2607147E-13
   18.90000       -1.1877788E-10
   18.95000       -2.0469146E-10
   19.00000       -2.2573349E-10
   19.05000       -1.7030080E-10
   19.10000       -5.2225193E-11
   19.15000        9.2302291E-11
   19.20000        2.1560302E-10
   19.25000        2.7397107E-10
   19.30000        2.4277472E-10
   19.35000        1.2607808E-10
   19.40000       -4.2799601E-11
   19.45000       -2.1053892E-10
   19.50000       -3.2039604E-10
   19.55000       -3.3100578E-10
   19.60000       -2.3126891E-10
   19.65000       -4.6116947E-11
   19.70000        1.6933169E-10
   19.75000        3.4600589E-10
   19.80000        4.2277529E-10
   19.85000        3.6712114E-10
   19.90000        1.8769915E-10
   19.95000       -6.5825435E-11
   20.00000       -3.1637892E-10
   20.05000       -4.8285981E-10
   20.10000       -5.0623239E-10
   20.15000       -3.6998188E-10
   20.20000       -1.0795303E-10
   20.25000        2.0367978E-10
   20.30000        4.6857507E-10
   20.35000        6.0009797E-10
   20.40000        5.4964217E-10
   20.45000        3.2415967E-10
   20.50000       -1.3310163E-11
   20.55000       -3.6112502E-10
   20.60000       -6.0976385E-10
   20.65000       -6.7650241E-10
   20.70000       -5.3303650E-10
   20.75000       -2.1682503E-10
   20.80000        1.7821700E-10
   20.85000        5.2955373E-10
   20.90000        7.2417572E-10
   20.95000        6.9515915E-10
   21.00000        4.4476525E-10
   21.05000        4.6100002E-11
   21.10000       -3.7799583E-10
   21.15000       -6.9281447E-10
   21.20000       -7.9472845E-10
   21.25000       -6.4547245E-10
   21.30000       -2.8636085E-10
   21.35000        1.7280501E-10
   21.40000        5.8730609E-10
   21.45000        8.2329971E-10
   21.50000        8.0128926E-10
   21.55000        5.2306287E-10
   21.60000        7.2904217E-11
   21.65000       -4.0794357E-10
   21.70000       -7.6585438E-10
   21.75000       -8.8430568E-10
   21.80000       -7.2222156E-10
   21.85000       -3.2843409E-10
   21.90000        1.7288514E-10
   21.95000        6.2153482E-10
   22.00000        8.7284435E-10
   22.05000        8.4477692E-10
   22.10000        5.4510313E-10
   22.15000        6.9539541E-11
   22.20000       -4.2879661E-10
   22.25000       -7.8882606E-10
   22.30000       -8.9376162E-10
   22.35000       -7.0909068E-10
   22.40000       -2.9383199E-10
   22.45000        2.1861751E-10
   22.50000        6.6373868E-10
   22.55000        8.9904612E-10
   22.60000        8.4976909E-10
   22.65000        5.3226612E-10
   22.70000        4.7819811E-11
   22.75000       -4.5076509E-10
   22.80000       -8.0850343E-10
   22.85000       -9.1727870E-10
   22.90000       -7.4882611E-10
   22.95000       -3.6149658E-10
   23.00000        1.2056292E-10
   23.05000        5.4823135E-10
   23.10000        7.9450535E-10
   23.15000        7.9270357E-10
   23.20000        5.5418714E-10
   23.25000        1.6113431E-10
   23.30000       -2.6191985E-10
   23.35000       -5.8761374E-10
   23.40000       -7.2345591E-10
   23.45000       -6.3639122E-10
   23.50000       -3.5801473E-10
   23.55000        2.9219540E-11
   23.60000        4.1869119E-10
   23.65000        7.0995332E-10
   23.70000        8.3365376E-10
   23.75000        7.6498657E-10
   23.80000        5.2404131E-10
   23.85000        1.6552130E-10
   23.90000       -2.3725197E-10
   23.95000       -6.0886035E-10
   24.00000       -8.8515434E-10
   24.05000       -1.0220239E-09
   24.10000       -9.9998665E-10
   24.15000       -8.2571883E-10
   24.20000       -5.3118465E-10
   24.25000       -1.6997985E-10
   24.30000        1.9019113E-10
   24.35000        4.7961418E-10
   24.40000        6.4235062E-10
   24.45000        6.5256406E-10
   24.50000        5.2640614E-10
   24.55000        3.2417333E-10
   24.60000        1.3930299E-10
   24.65000        7.4566374E-11
   24.70000        2.1041487E-10
   24.75000        5.7420207E-10
   24.80000        1.1203503E-09
   24.85000        1.7295865E-09
   24.90000        2.2303821E-09
   24.95000        2.4390650E-09
   25.00000        2.2088369E-09
   25.05000        1.4742105E-09
   25.10000        2.7760438E-10
   25.15000       -1.2308640E-09
   25.20000       -2.8220828E-09
   25.25000       -4.2387529E-09
   25.30000       -5.2553570E-09
   25.35000       -5.7313145E-09
   25.40000       -5.6426974E-09
   25.45000       -5.0832760E-09
   25.50000       -4.2336130E-09
   25.55000       -3.3053624E-09
   25.60000       -2.4746778E-09
   25.65000       -1.8220768E-09
   25.70000       -1.2953468E-09
   25.75000       -7.0727069E-10
   25.80000        2.2804614E-10
   25.85000        1.8259817E-09
   25.90000        4.3441299E-09
   25.95000        7.8981577E-09
   26.00000        1.2403878E-08
   26.05000        1.7564782E-08
   26.10000        2.2914678E-08
   26.15000        2.7911334E-08
   26.20000        3.2062040E-08
   26.25000        3.5050121E-08
   26.30000        3.6826560E-08
   26.35000        3.7636138E-08
   26.40000        3.7962710E-08
   26.45000        3.8400895E-08
   26.50000        3.9485037E-08
   26.55000        4.1523705E-08
   26.60000        4.4492481E-08
   26.65000        4.8025665E-08
   26.70000        5.1520811E-08
   26.75000        5.4335121E-08
   26.80000        5.6020376E-08
   26.85000        5.6524552E-08
   26.90000        5.6291043E-08
   26.95000        5.6212340E-08
   27.00000        5.7438015E-08
   27.05000        6.1084052E-08
   27.10000        6.7926912E-08
   27.15000        7.8177990E-08
   27.20000        9.1415849E-08
   27.25000        1.0670878E-07
   27.30000        1.2290096E-07
   27.35000        1.3898108E-07
   27.40000        1.5442066E-07
   27.45000        1.6937236E-07
   27.50000        1.8465850E-07
   27.55000        2.0154390E-07
   27.60000        2.2135661E-07
   27.65000        2.4507355E-07
   27.70000        2.7300300E-07
   27.75000        3.0467132E-07
   27.80000        3.3895992E-07
   27.85000        3.7445827E-07
   27.90000        4.0993083E-07
   27.95000        4.4475453E-07
   28.00000        4.7918900E-07
   28.05000        5.1439184E-07
   28.10000        5.5216873E-07
   28.15000        5.9453049E-07
   28.20000        6.4319102E-07
   28.25000        6.9915797E-07
   28.30000        7.6254162E-07
   28.35000        8.3263905E-07
   28.40000        9.0826762E-07
   28.45000        9.8824523E-07
   28.50000        1.0718715E-06
   28.55000        1.1592650E-06
   28.60000        1.2514582E-06
   28.65000        1.3502209E-06
   28.70000        1.4576690E-06
   28.75000        1.5757746E-06
   28.80000        1.7059210E-06
   28.85000        1.8486306E-06
   28.90000        2.0035443E-06
   28.95000        2.1696553E-06
   29.00000        2.3457355E-06
   29.05000        2.5308348E-06
   29.10000        2.7247158E-06
   29.15000        2.9281116E-06
   29.20000        3.1427328E-06
   29.25000        3.3710226E-06
   29.30000        3.6157237E-06
   29.35000        3.8793683E-06
   29.40000        4.1638255E-06
   29.45000        4.4700346E-06
   29.50000        4.7979943E-06
   29.55000        5.1470229E-06
   29.60000        5.5162332E-06
   29.65000        5.9050926E-06
   29.70000        6.3139232E-06
   29.75000        6.7441915E-06
   29.80000        7.1984928E-06
   29.85000        7.6802135E-06
   29.90000        8.1929438E-06
   29.95000        8.7398084E-06
   30.00000        9.3228800E-06
   30.05000        9.9428844E-06
   30.10000        1.0599286E-05
   30.15000        1.1290756E-05
   30.20000        1.2015927E-05
   30.25000        1.2774190E-05
   30.30000        1.3566337E-05
   30.35000        1.4394815E-05
   30.40000        1.5263513E-05
   30.45000        1.6177091E-05
   30.50000        1.7140084E-05
   30.55000        1.8155990E-05
   30.60000        1.9226649E-05
   30.65000        2.0352114E-05
   30.70000        2.1531076E-05
   30.75000        2.2761695E-05
   30.80000        2.4042645E-05
   30.85000        2.5374025E-05
   30.90000        2.6757856E-05
   30.95000        2.8197992E-05
   31.00000        2.9699475E-05
   31.05000        3.1267500E-05
   31.10000        3.2906300E-05
   31.15000        3.4618308E-05
   31.20000        3.6403773E-05
   31.25000        3.8261081E-05
   31.30000        4.0187533E-05
   31.35000        4.2180480E-05
   31.40000        4.4238361E-05
   31.45000        4.6361438E-05
   31.50000        4.8551930E-05
   31.55000        5.0813567E-05
   31.60000        5.3150688E-05
   31.65000        5.5567103E-05
   31.70000        5.8065165E-05
   31.75000        6.0645176E-05
   31.80000        6.3305408E-05
   31.85000        6.6042616E-05
   31.90000        6.8852991E-05
   31.95000        7.1733135E-05
   32.00000        7.4680895E-05
   32.05000        7.7695840E-05
   32.10000        8.0779151E-05
   32.15000        8.3933046E-05
   32.20000        8.7159860E-05
   32.25000        9.0461152E-05
   32.30000        9.3836818E-05
   32.35000        9.7284697E-05
   32.40000        1.0080063E-04
   32.45000        1.0437897E-04
   32.50000        1.0801342E-04
   32.55000        1.1169803E-04
   32.60000        1.1542797E-04
   32.65000        1.1920003E-04
   32.70000        1.2301258E-04
   32.75000        1.2686502E-04
   32.80000        1.3075701E-04
   32.85000        1.3468736E-04
   32.90000        1.3865324E-04
   32.95000        1.4264954E-04
   33.00000        1.4666899E-04
   33.05000        1.5070273E-04
   33.10000        1.5474130E-04
   33.15000        1.5877583E-04
   33.20000        1.6279901E-04
   33.25000        1.6680566E-04
   33.30000        1.7079258E-04
   33.35000        1.7475786E-04
   33.40000        1.7869963E-04
   33.45000        1.8261472E-04
   33.50000        1.8649761E-04
   33.55000        1.9033995E-04
   33.60000        1.9413097E-04
   33.65000        1.9785843E-04
   33.70000        2.0151002E-04
   33.75000        2.0507487E-04
   33.80000        2.0854460E-04
   33.85000        2.1191349E-04
   33.90000        2.1517820E-04
   33.95000        2.1833641E-04
   34.00000        2.2138537E-04
   34.05000        2.2432049E-04
   34.10000        2.2713444E-04
   34.15000        2.2981704E-04
   34.20000        2.3235615E-04
   34.25000        2.3473904E-04
   34.30000        2.3695410E-04
   34.35000        2.3899226E-04
   34.40000        2.4084767E-04
   34.45000        2.4251748E-04
   34.50000        2.4400087E-04
   34.55000        2.4529759E-04
   34.60000        2.4640607E-04
   34.65000        2.4732228E-04
   34.70000        2.4803952E-04
   34.75000        2.4854866E-04
   34.80000        2.4883967E-04
   34.85000        2.4890315E-04
   34.90000        2.4873202E-04
   34.95000        2.4832250E-04
   35.00000        2.4767406E-04
   35.05000        2.4678881E-04
   35.10000        2.4567006E-04
   35.15000        2.4432060E-04
   35.20000        2.4274166E-04
   35.25000        2.4093216E-04
   35.30000        2.3888894E-04
   35.35000        2.3660775E-04
   35.40000        2.3408433E-04