  -10.00000        3.2399760E-32
  -9.950000        9.7199277E-32
  -9.900000        1.3086720E-31
  -9.850000        1.3037273E-31
  -9.800000        1.4128225E-31
  -9.750000        1.6556615E-31
  -9.700000        1.6859649E-31
  -9.650000        1.5024632E-31
  -9.600000        1.3208751E-31
  -9.550000        1.5916620E-31
  -9.500000        1.9973901E-31
  -9.450000        2.0523400E-31
  -9.400000        1.6956140E-31
  -9.350000        9.6983192E-32
  -9.300000       -1.3263812E-32
  -9.250000       -1.7127835E-31
  -9.200000       -3.1264729E-31
  -9.150000       -4.2548617E-31
  -9.100000       -5.1420261E-31
  -9.050000       -5.4782616E-31
  -9.000000       -5.2510207E-31
  -8.950000       -4.8527703E-31
  -8.900000       -4.4138036E-31
  -8.850000       -4.1521907E-31
  -8.800000       -4.3593706E-31
  -8.750000       -4.4399574E-31
  -8.700000       -3.8049652E-31
  -8.650000       -2.6281496E-31
  -8.600000       -1.1863617E-31
  -8.550000        2.7085829E-32
  -8.500000        1.6379303E-31
  -8.450000        3.5733519E-31
  -8.400000        5.9030087E-31
  -8.350000        7.5280520E-31
  -8.300000        8.2393860E-31
  -8.250000        8.1114847E-31
  -8.200000        7.0189149E-31
  -8.150000        5.8706097E-31
  -8.100000        5.0885486E-31
  -8.050000        4.1952730E-31
  -8.000000        3.0984780E-31
  -7.950000        2.4742656E-31
  -7.900000        3.2070829E-31
  -7.850000        5.7437833E-31
  -7.800000        8.4282484E-31
  -7.750000        9.5655458E-31
  -7.700000        9.3790795E-31
  -7.650000        7.1857250E-31
  -7.600000        2.4109716E-31
  -7.550000       -3.9365670E-31
  -7.500000       -9.7690737E-31
  -7.450000       -1.3295806E-30
  -7.400000       -1.3695231E-30
  -7.350000       -1.1552983E-30
  -7.300000       -8.5849023E-31
  -7.250000       -6.3037949E-31
  -7.200000       -4.7033123E-31
  -7.150000       -3.8691662E-31
  -7.100000       -3.9342486E-31
  -7.050000       -4.0255787E-31
  -7.000000       -3.4780666E-31
  -6.950000       -2.5465792E-31
  -6.900000       -2.4095873E-31
  -6.850000       -3.1974314E-31
  -6.800000       -4.5790640E-31
  -6.750000       -6.2477703E-31
  -6.700000       -7.2752441E-31
  -6.650000       -6.7386643E-31
  -6.600000       -4.2652540E-31
  -6.550000       -2.3948405E-32
  -6.500000        3.5469047E-31
  -6.450000        6.0644807E-31
  -6.400000        7.3667065E-31
  -6.350000        7.1879839E-31
  -6.300000        6.0005145E-31
  -6.250000        5.4930136E-31
  -6.200000        6.6117720E-31
  -6.150000        8.2781491E-31
  -6.100000        9.3773501E-31
  -6.050000        9.0259581E-31
  -6.000000        6.9032443E-31
  -5.950000        2.5898064E-31
  -5.900000       -3.4575417E-31
  -5.850000       -9.6030036E-31
  -5.800000       -1.4631652E-30
  -5.750000       -1.8137537E-30
  -5.700000       -1.9957652E-30
  -5.650000       -1.8723218E-30
  -5.600000       -1.5022201E-30
  -5.550000       -1.0426470E-30
  -5.500000       -5.5793184E-31
  -5.450000       -1.5376660E-31
  -5.400000        1.5774762E-31
  -5.350000        4.4777039E-31
  -5.300000        7.3511655E-31
  -5.250000        9.6925829E-31
  -5.200000        1.0754349E-30
  -5.150000        8.5995960E-31
  -5.100000        3.5587106E-31
  -5.050000       -2.2717794E-31
  -5.000000       -7.0660978E-31
  -4.950000       -9.2901481E-31
  -4.900000       -7.4663122E-31
  -4.850000       -1.6673790E-31
  -4.800000        4.9435377E-31
  -4.750000        9.9124050E-31
  -4.700000        1.2579650E-30
  -4.650000        1.2782489E-30
  -4.600000        1.1101546E-30
  -4.550000        9.6266856E-31
  -4.500000        8.9006617E-31
  -4.450000        8.0662281E-31
  -4.400000        7.6280349E-31
  -4.350000        7.1287723E-31
  -4.300000        5.6341322E-31
  -4.250000        3.4563138E-31
  -4.200000        2.4629219E-32
  -4.150000       -3.4657817E-31
  -4.100000       -6.1808927E-31
  -4.050000       -7.6119569E-31
  -4.000000       -7.8008593E-31
  -3.950000       -6.3586021E-31
  -3.900000       -3.6016644E-31
  -3.850000       -1.4971621E-32
  -3.800000        3.6996959E-31
  -3.750000        7.5863133E-31
  -3.700000        1.0932702E-30
  -3.650000        1.1982010E-30
  -3.600000        8.9218244E-31
  -3.550000        3.1228956E-31
  -3.500000       -3.4274138E-31
  -3.450000       -1.0454412E-30
  -3.400000       -1.5824915E-30
  -3.350000       -1.7346638E-30
  -3.300000       -1.5027072E-30
  -3.250000       -1.0258882E-30
  -3.200000       -4.5765606E-31
  -3.150000        1.1867370E-31
  -3.100000        4.7889612E-31
  -3.050000        5.5164911E-31
  -3.000000        5.1365346E-31
  -2.950000        4.2438440E-31
  -2.900000        2.9351445E-31
  -2.850000        2.6911453E-31
  -2.800000        4.3487757E-31
  -2.750000        6.4375845E-31
  -2.700000        6.7095873E-31
  -2.650000        3.5541382E-31
  -2.600000       -3.3790417E-31
  -2.550000       -1.2838242E-30
  -2.500000       -2.3363059E-30
  -2.450000       -3.2126727E-30
  -2.400000       -3.5865345E-30
  -2.350000       -3.3908588E-30
  -2.300000       -2.5704315E-30
  -2.250000       -1.1580888E-30
  -2.200000        4.6439301E-31
  -2.150000        1.7864905E-30
  -2.100000        2.5011943E-30
  -2.050000        2.5678134E-30
  -2.000000        2.1582528E-30
  -1.950000        1.6199941E-30
  -1.900000        1.2478911E-30
  -1.850000        1.1601534E-30
  -1.800000        1.2944752E-30
  -1.750000        1.5098033E-30
  -1.700000        1.7403976E-30
  -1.650000        1.8397814E-30
  -1.600000        1.6343355E-30
  -1.550000        1.2117349E-30
  -1.500000        7.9250202E-31
  -1.450000        3.6217310E-31
  -1.400000       -5.3372622E-32
  -1.350000       -4.1966051E-31
  -1.300000       -7.8130003E-31
  -1.250000       -1.1294490E-30
  -1.200000       -1.3922890E-30
  -1.150000       -1.5203007E-30
  -1.100000       -1.5779889E-30
  -1.050000       -1.5692031E-30
  -1.000000       -1.4145901E-30
 -0.9500000       -1.1888440E-30
 -0.9000000       -1.0102781E-30
 -0.8500000       -9.6387725E-31
 -0.8000000       -1.0050291E-30
 -0.7500000       -9.7753179E-31
 -0.7000000       -8.5431732E-31
 -0.6500000       -5.0617059E-31
 -0.6000000        2.9013340E-31
 -0.5500000        1.5785300E-30
 -0.5000000        3.1369468E-30
 -0.4500000        4.4883850E-30
 -0.4000000        4.8401960E-30
 -0.3500000        3.2116315E-30
 -0.3000000       -1.0584758E-30
 -0.2500000       -7.3279227E-30
 -0.2000000       -1.3119996E-29
 -0.1500000       -1.4529902E-29
 -0.1000000       -7.2743156E-30
 -5.0000001E-02    1.0873024E-29
  0.0000000E+00    3.6496950E-29
  5.0000001E-02    5.7997761E-29
  0.1000000        5.7107946E-29
  0.1500000        1.6059013E-29
  0.2000000       -7.0137602E-29
  0.2500000       -1.8000811E-28
  0.3000000       -2.5876487E-28
  0.3500000       -2.2845208E-28
  0.4000000       -2.1858392E-29
  0.4500000        3.6408596E-28
  0.5000000        8.1621826E-28
  0.5500000        1.0894953E-27
  0.6000000        8.6649379E-28
  0.6500000       -9.0809408E-29
  0.7000000       -1.7263123E-27
  0.7500000       -3.5038852E-27
  0.8000000       -4.3933012E-27
  0.8500000       -3.1626996E-27
  0.9000000        9.8611571E-28
  0.9500000        7.5949032E-27
   1.000000        1.4324947E-26
   1.050000        1.7067265E-26
   1.100000        1.1239107E-26
   1.150000       -5.7079171E-27
   1.200000       -3.1279155E-26
   1.250000       -5.5939483E-26
   1.300000       -6.4052338E-26
   1.350000       -3.9186681E-26
   1.400000        2.6477164E-26
   1.450000        1.2158308E-25
   1.500000        2.0947282E-25
   1.550000        2.3311858E-25
   1.600000        1.3544998E-25
   1.650000       -1.0694627E-25
   1.700000       -4.4801580E-25
   1.750000       -7.5403768E-25
   1.800000       -8.2495588E-25
   1.850000       -4.6787567E-25
   1.900000        3.8708949E-25
   1.950000        1.5690753E-24
   2.000000        2.6133498E-24
   2.050000        2.8429981E-24
   2.100000        1.6212484E-24
   2.150000       -1.2651281E-24
   2.200000       -5.2287988E-24
   2.250000       -8.7268022E-24
   2.300000       -9.5457187E-24
   2.350000       -5.6274304E-24
   2.400000        3.7062437E-24
   2.450000        1.6574125E-23
   2.500000        2.8074843E-23
   2.550000        3.1206627E-23
   2.600000        1.9449643E-23
   2.650000       -9.4524438E-24
   2.700000       -4.9880880E-23
   2.750000       -8.6932175E-23
   2.800000       -9.9173542E-23
   2.850000       -6.6369777E-23
   2.900000        1.9218616E-23
   2.950000        1.4200269E-22
   3.000000        2.5863018E-22
   3.050000        3.0564919E-22
   3.100000        2.2163419E-22
   3.150000       -2.0150865E-23
   3.200000       -3.7994777E-22
   3.250000       -7.3732352E-22
   3.300000       -9.1083016E-22
   3.350000       -7.1858685E-22
   3.400000       -6.9588443E-23
   3.450000        9.4505092E-22
   3.500000        2.0067905E-21
   3.550000        2.6154360E-21
   3.600000        2.2474186E-21
   3.650000        6.0227559E-22
   3.700000       -2.1422449E-21
   3.750000       -5.1878385E-21
   3.800000       -7.2088257E-21
   3.850000       -6.7453546E-21
   3.900000       -2.8445677E-21
   3.950000        4.2464916E-21
   4.000000        1.2646457E-20
   4.050000        1.8989012E-20
   4.100000        1.9346514E-20
   4.150000        1.0832855E-20
   4.200000       -6.5744081E-21
   4.250000       -2.8756860E-20
   4.300000       -4.7560203E-20
   4.350000       -5.2827741E-20
   4.400000       -3.6237713E-20
   4.450000        4.0739877E-21
   4.500000        5.9915613E-20
   4.550000        1.1255215E-19
   4.600000        1.3683930E-19
   4.650000        1.0998276E-19
   4.700000        2.2811391E-20
   4.750000       -1.1054138E-19
   4.800000       -2.4956592E-19
   4.850000       -3.3492210E-19
   4.900000       -3.0739177E-19
   4.950000       -1.3420835E-19
   5.000000        1.6612339E-19
   5.050000        5.1212473E-19
   5.100000        7.7093202E-19
   5.150000        7.9685441E-19
   5.200000        4.9003839E-19
   5.250000       -1.4300594E-19
   5.300000       -9.5276545E-19
   5.350000       -1.6586324E-18
   5.400000       -1.9217573E-18
   5.450000       -1.4692004E-18
   5.500000       -2.3411918E-19
   5.550000        1.5425842E-18
   5.600000        3.3061569E-18
   5.650000        4.3131493E-18
   5.700000        3.8796619E-18
   5.750000        1.6892758E-18
   5.800000       -1.9494567E-18
   5.850000       -6.0214613E-18
   5.900000       -8.9922474E-18
   5.950000       -9.2736112E-18
   6.000000       -5.8640567E-18
   6.050000        1.0466706E-18
   6.100000        9.7719577E-18
   6.150000        1.7343458E-17
   6.200000        2.0322201E-17
   6.250000        1.6057200E-17
   6.300000        4.0120088E-18
   6.350000       -1.3364833E-17
   6.400000       -3.0721299E-17
   6.450000       -4.1089942E-17
   6.500000       -3.8218937E-17
   6.550000       -1.9307453E-17
   6.600000        1.2846481E-17
   6.650000        4.9328525E-17
   6.700000        7.6904126E-17
   6.750000        8.2070094E-17
   6.800000        5.6374258E-17
   6.850000        1.2233040E-18
   6.900000       -6.9896292E-17
   6.950000       -1.3339915E-16
   7.000000       -1.6215944E-16
   7.050000       -1.3529127E-16
   7.100000       -4.8133627E-17
   7.150000        8.1480943E-17
   7.200000        2.1417396E-16
   7.250000        2.9875289E-16
   7.300000        2.8922133E-16
   7.350000        1.6427291E-16
   7.400000       -5.7779704E-17
   7.450000       -3.1573590E-16
   7.500000       -5.1824514E-16
   7.550000       -5.7171653E-16
   7.600000       -4.1637424E-16
   7.650000       -5.8418989E-17
   7.700000        4.1530774E-16
   7.750000        8.5038143E-16
   7.800000        1.0675584E-15
   7.850000        9.2613682E-16
   7.900000        3.8847763E-16
   7.950000       -4.3908666E-16
   8.000000       -1.3107652E-15
   8.050000       -1.9008952E-15
   8.100000       -1.9093571E-15
   8.150000       -1.1835993E-15
   8.200000        1.8553320E-16
   8.250000        1.8374319E-15
   8.300000        3.2120347E-15
   8.350000        3.7136982E-15
   8.400000        2.9290728E-15
   8.450000        8.2932731E-16
   8.500000       -2.1237458E-15
   8.550000       -5.0310818E-15
   8.600000       -6.7873817E-15
   8.650000       -6.4454976E-15
   8.700000       -3.6092972E-15
   8.750000        1.2851284E-15
   8.800000        6.9310656E-15
   8.850000        1.1426760E-14
   8.900000        1.2836020E-14
   8.950000        9.8927316E-15
   9.000000        2.6228674E-15
   9.050000       -7.3632667E-15
   9.100000       -1.7090472E-14
   9.150000       -2.2985017E-14
   9.200000       -2.2031432E-14
   9.250000       -1.2986682E-14
   9.300000        2.7749502E-15
   9.350000        2.1171805E-14
   9.400000        3.6275792E-14
   9.450000        4.2019997E-14
   9.500000        3.4322612E-14
   9.550000        1.2957417E-14
   9.600000       -1.7548005E-14
   9.650000       -4.8506954E-14
   9.700000       -6.9257805E-14
   9.750000       -7.0490129E-14
   9.800000       -4.7771062E-14
   9.850000       -4.0720063E-15
   9.900000        4.9789061E-14
   9.950000        9.7353291E-14
   10.00000        1.2111812E-13
   10.05000        1.0838213E-13
   10.10000        5.6539707E-14
   10.15000       -2.4119106E-14
   10.20000       -1.1154160E-13
   10.25000       -1.7731275E-13
   10.30000       -1.9523520E-13
   10.35000       -1.5069903E-13
   10.40000       -4.7747163E-14
   10.45000        8.9011562E-14
   10.50000        2.1921007E-13
   10.55000        2.9777111E-13
   10.60000        2.8947493E-13
   10.65000        1.8264157E-13
   10.70000       -2.9257276E-15
   10.75000       -2.1743459E-13
   10.80000       -3.9310525E-13
   10.85000       -4.6430953E-13
   10.90000       -3.9028213E-13
   10.95000       -1.7303693E-13
   11.00000        1.3643614E-13
   11.05000        4.4771522E-13
   11.10000        6.5549465E-13
   11.15000        6.7312562E-13
   11.20000        4.6509416E-13
   11.25000        6.7146341E-14
   11.30000       -4.1476929E-13
   11.35000       -8.2969482E-13
   11.40000       -1.0261336E-12
   11.45000       -9.0358190E-13
   11.50000       -4.5460375E-13
   11.55000        2.1836558E-13
   11.60000        9.2107756E-13
   11.65000        1.4195205E-12
   11.70000        1.5133613E-12
   11.75000        1.1089906E-12
   11.80000        2.6727329E-13
   11.85000       -7.9396906E-13
   11.90000       -1.7502556E-12
   11.95000       -2.2642060E-12
   12.00000       -2.0973351E-12
   12.05000       -1.2046887E-12
   12.10000        2.2210453E-13
   12.15000        1.7852096E-12
   12.20000        2.9845087E-12
   12.25000        3.3703771E-12
   12.30000        2.7007431E-12
   12.35000        1.0503057E-12
   12.40000       -1.1712008E-12
   12.45000       -3.3100378E-12
   12.50000       -4.6528979E-12
   12.55000       -4.6554310E-12
   12.60000       -3.1443305E-12
   12.65000       -4.2216811E-13
   12.70000        2.7723698E-12
   12.75000        5.4538839E-12
   12.80000        6.6849928E-12
   12.85000        5.8914006E-12
   12.90000        3.0950724E-12
   12.95000       -1.0219141E-12
   13.00000       -5.2644026E-12
   13.05000       -8.2583732E-12
   13.10000       -8.8834955E-12
   13.15000       -6.6719534E-12
   13.20000       -2.0372647E-12
   13.25000        3.7624218E-12
   13.30000        8.9447763E-12
   13.35000        1.1733436E-11
   13.40000        1.0945741E-11
   13.45000        6.4496529E-12
   13.50000       -6.7614442E-13
   13.55000       -8.3649086E-12
   13.60000       -1.4135703E-11
   13.65000       -1.5867023E-11
   13.70000       -1.2536073E-11
   13.75000       -4.6757177E-12
   13.80000        5.6320291E-12
   13.85000        1.5273189E-11
   13.90000        2.1013200E-11
   13.95000        2.0543843E-11
   14.00000        1.3335651E-11
   14.05000        9.9607887E-13
   14.10000       -1.3034109E-11
   14.15000       -2.4413032E-11
   14.20000       -2.9215703E-11
   14.25000       -2.5244884E-11
   14.30000       -1.2906553E-11
   14.35000        4.6765417E-12
   14.40000        2.2420675E-11
   14.45000        3.4739690E-11
   14.50000        3.7294737E-11
   14.55000        2.8492046E-11
   14.60000        1.0220174E-11
   14.65000       -1.2477223E-11
   14.70000       -3.2775057E-11
   14.75000       -4.4125283E-11
   14.80000       -4.2384780E-11
   14.85000       -2.7324329E-11
   14.90000       -2.9778356E-12
   14.95000        2.3371721E-11
   15.00000        4.3341417E-11
   15.05000        5.0113223E-11
   15.10000        4.0777045E-11
   15.15000        1.7555558E-11
   15.20000       -1.2577992E-11
   15.25000       -3.9884217E-11
   15.30000       -5.4908522E-11
   15.35000       -5.1667452E-11
   15.40000       -2.9921798E-11
   15.45000        4.2915385E-12
   15.50000        4.0183669E-11
   15.55000        6.5450721E-11
   15.60000        7.0284278E-11
   15.65000        5.0884550E-11
   15.70000        1.1268905E-11
   15.75000       -3.7362967E-11
   15.80000       -7.9696458E-11
   15.85000       -1.0098709E-10
   15.90000       -9.1951412E-11
   15.95000       -5.2274931E-11
   16.00000        8.5182677E-12
   16.05000        7.3319253E-11
   16.10000        1.2230993E-10
   16.15000        1.3906742E-10
   16.20000        1.1600649E-10
   16.25000        5.7356696E-11
   16.30000       -2.1443805E-11
   16.35000       -9.7961340E-11
   16.40000       -1.4943743E-10
   16.45000       -1.5989982E-10
   16.50000       -1.2543779E-10
   16.55000       -5.5840898E-11
   16.60000        2.8104888E-11
   16.65000        1.0097732E-10
   16.70000        1.4080638E-10
   16.75000        1.3629171E-10
   16.80000        9.0708031E-11
   16.85000        2.1043115E-11
   16.90000       -4.7555789E-11
   16.95000       -9.0355695E-11
   17.00000       -9.1835595E-11
   17.05000       -5.1668989E-11
   17.10000        1.4368498E-11
   17.15000        7.9220512E-11
   17.20000        1.1381186E-10
   17.25000        9.7821529E-11
   17.30000        2.8280503E-11
   17.35000       -7.7239860E-11
   17.40000       -1.8448335E-10
   17.45000       -2.5274863E-10
   17.50000       -2.4859081E-10
   17.55000       -1.5860090E-10
   17.60000        3.2199100E-12
   17.65000        1.9656360E-10
   17.70000        3.6489950E-10
   17.75000        4.5207693E-10
   17.80000        4.2058260E-10
   17.85000        2.6559821E-10
   17.90000        1.9867040E-11
   17.95000       -2.5304014E-10
   18.00000       -4.7588328E-10
   18.05000       -5.8067023E-10
   18.10000       -5.3042970E-10
   18.15000       -3.3277461E-10
   18.20000       -4.0315043E-11
   18.25000        2.6313582E-10
   18.30000        4.8711196E-10
   18.35000        5.6264243E-10
   18.40000        4.6519094E-10
   18.45000        2.2466942E-10
   18.50000       -8.1529401E-11
   18.55000       -3.5131528E-10
   18.60000       -4.9013760E-10
   18.65000       -4.4282719E-10
   18.70000       -2.1465454E-10
   18.75000        1.2600222E-10
   18.80000        4.6556534E-10
   18.85000        6.7943151E-10
   18.90000        6.7255335E-10
   18.95000        4.1380674E-10
   19.00000       -4.7394144E-11
   19.05000       -5.8893368E-10
   19.10000       -1.0476983E-09
   19.15000       -1.2669783E-09
   19.20000       -1.1459039E-09
   19.25000       -6.7568906E-10
   19.30000        4.9440393E-11
   19.35000        8.5170632E-10
   19.40000        1.5156693E-09
   19.45000        1.8482968E-09
   19.50000        1.7359840E-09
   19.55000        1.1813657E-09
   19.60000        3.0805311E-10
   19.65000       -6.6943012E-10
   19.70000       -1.5029228E-09
   19.75000       -1.9791111E-09
   19.80000       -1.9793931E-09
   19.85000       -1.5133458E-09
   19.90000       -7.1550982E-10
   19.95000        1.9399390E-10
   20.00000        9.7361508E-10
   20.05000        1.4302577E-09
   20.10000        1.4739013E-09
   20.15000        1.1404063E-09
   20.20000        5.7555677E-10
   20.25000       -1.4684880E-11
   20.30000       -4.3217066E-10
   20.35000       -5.5136240E-10
   20.40000       -3.6019349E-10
   20.45000        3.6486765E-11
   20.50000        4.5268844E-10
   20.55000        6.8553146E-10
   20.60000        5.8773131E-10
   20.65000        1.2473106E-10
   20.70000       -6.0307265E-10
   20.75000       -1.3821529E-09
   20.80000       -1.9471467E-09
   20.85000       -2.0641830E-09
   20.90000       -1.6108950E-09
   20.95000       -6.2743388E-10
   21.00000        6.7949057E-10
   21.05000        1.9838811E-09
   21.10000        2.9277367E-09
   21.15000        3.2241718E-09
   21.20000        2.7461007E-09
   21.25000        1.5730948E-09
   21.30000       -1.9727376E-11
   21.35000       -1.6302747E-09
   21.40000       -2.8379075E-09
   21.45000       -3.3215557E-09
   21.50000       -2.9533656E-09
   21.55000       -1.8397147E-09
   21.60000       -2.9595096E-10
   21.65000        1.2397655E-09
   21.70000        2.3301612E-09
   21.75000        2.6651013E-09
   21.80000        2.1537492E-09
   21.85000        9.5501840E-10
   21.90000       -5.6399302E-10
   21.95000       -1.9311754E-09
   22.00000       -2.7056861E-09
   22.05000       -2.6086233E-09
   22.10000       -1.6102596E-09
   22.15000        5.2242585E-11
   22.20000        1.9332018E-09
   22.25000        3.4978318E-09
   22.30000        4.2700674E-09
   22.35000        3.9677182E-09
   22.40000        2.5870068E-09
   22.45000        4.1242695E-10
   22.50000       -2.0514859E-09
   22.55000       -4.2082706E-09
   22.60000       -5.5229354E-09
   22.65000       -5.6593383E-09
   22.70000       -4.5650763E-09
   22.75000       -2.4821867E-09
   22.80000        1.1761006E-10
   22.85000        2.6541400E-09
   22.90000        4.5830122E-09
   22.95000        5.5245257E-09
   23.00000        5.3446563E-09
   23.05000        4.1698458E-09
   23.10000        2.3359228E-09
   23.15000        2.8895411E-10
   23.20000       -1.5325418E-09
   23.25000       -2.8017149E-09
   23.30000       -3.3677168E-09
   23.35000       -3.2670167E-09
   23.40000       -2.6840763E-09
   23.45000       -1.8775133E-09
   23.50000       -1.0960260E-09
   23.55000       -5.0901711E-10
   23.60000       -1.7037505E-10
   23.65000       -2.2609222E-11
   23.70000        6.3938500E-11
   23.75000        2.3209673E-10
   23.80000        5.7920124E-10
   23.85000        1.1174486E-09
   23.90000        1.7650401E-09
   23.95000        2.3698228E-09
   24.00000        2.7570033E-09
   24.05000        2.7852995E-09
   24.10000        2.3936020E-09
   24.15000        1.6234002E-09
   24.20000        6.0980865E-10
   24.25000       -4.5627477E-10
   24.30000       -1.3834026E-09
   24.35000       -2.0352002E-09
   24.40000       -2.3689095E-09
   24.45000       -2.4442246E-09
   24.50000       -2.3986049E-09
   24.55000       -2.3955560E-09
   24.60000       -2.5611175E-09
   24.65000       -2.9283260E-09
   24.70000       -3.4081624E-09
   24.75000       -3.7985277E-09
   24.80000       -3.8318930E-09
   24.85000       -3.2504721E-09
   24.90000       -1.8885506E-09
   24.95000        2.6212521E-10
   25.00000        3.0248366E-09
   25.05000        6.0596403E-09
   25.10000        8.9323491E-09
   25.15000        1.1215102E-08
   25.20000        1.2593102E-08
   25.25000        1.2949063E-08
   25.30000        1.2401800E-08
   25.35000        1.1286994E-08
   25.40000        1.0083359E-08
   25.45000        9.3020027E-09
   25.50000        9.3665564E-09
   25.55000        1.0514088E-08
   25.60000        1.2741083E-08
   25.65000        1.5806858E-08
   25.70000        1.9291921E-08
   25.75000        2.2695197E-08
   25.80000        2.5545468E-08
   25.85000        2.7500505E-08
   25.90000        2.8412583E-08
   25.95000        2.8349039E-08
   26.00000        2.7568332E-08
   26.05000        2.6462228E-08
   26.10000        2.5480917E-08
   26.15000        2.5058755E-08
   26.20000        2.5554995E-08
   26.25000        2.7217512E-08
   26.30000        3.0170987E-08
   26.35000        3.4425618E-08
   26.40000        3.9899859E-08
   26.45000        4.6450300E-08
   26.50000        5.3903179E-08
   26.55000        6.2083906E-08
   26.60000        7.0842418E-08
   26.65000        8.0072574E-08
   26.70000        8.9724097E-08
   26.75000        9.9805597E-08
   26.80000        1.1037806E-07
   26.85000        1.2153970E-07
   26.90000        1.3340548E-07
   26.95000        1.4608588E-07
   27.00000        1.5967019E-07
   27.05000        1.7421867E-07
   27.10000        1.8976496E-07
   27.15000        2.0632750E-07
   27.20000        2.2392585E-07
   27.25000        2.4259739E-07
   27.30000        2.6241054E-07
   27.35000        2.8347316E-07
   27.40000        3.0593779E-07
   27.45000        3.3000575E-07
   27.50000        3.5593277E-07
   27.55000        3.8403525E-07
   27.60000        4.1469363E-07
   27.65000        4.4834658E-07
   27.70000        4.8546946E-07
   27.75000        5.2653434E-07
   27.80000        5.7195462E-07
   27.85000        6.2202355E-07
   27.90000        6.7686312E-07
   27.95000        7.3639859E-07
   28.00000        8.0037341E-07
   28.05000        8.6840760E-07
   28.10000        9.4009437E-07
   28.15000        1.0151172E-06
   28.20000        1.0933633E-06
   28.25000        1.1750079E-06
   28.30000        1.2605507E-06
   28.35000        1.3507932E-06
   28.40000        1.4467612E-06
   28.45000        1.5495865E-06
   28.50000        1.6603730E-06
   28.55000        1.7800708E-06
   28.60000        1.9093859E-06
   28.65000        2.0487385E-06
   28.70000        2.1982764E-06
   28.75000        2.3579428E-06
   28.80000        2.5275788E-06
   28.85000        2.7070437E-06
   28.90000        2.8963295E-06
   28.95000        3.0956462E-06
   29.00000        3.3054637E-06
   29.05000        3.5265036E-06
   29.10000        3.7596812E-06
   29.15000        4.0060145E-06
   29.20000        4.2665174E-06
   29.25000        4.5421043E-06
   29.30000        4.8335219E-06
   29.35000        5.1413281E-06
   29.40000        5.4659181E-06
   29.45000        5.8075939E-06
   29.50000        6.1666533E-06
   29.55000        6.5434815E-06
   29.60000        6.9386206E-06
   29.65000        7.3527949E-06
   29.70000        7.7868963E-06
   29.75000        8.2419301E-06
   29.80000        8.7189310E-06
   29.85000        9.2188793E-06
   29.90000        9.7426282E-06
   29.95000        1.0290863E-05
   30.00000        1.0864102E-05
   30.05000        1.1462726E-05
   30.10000        1.2087031E-05
   30.15000        1.2737300E-05
   30.20000        1.3413859E-05
   30.25000        1.4117132E-05
   30.30000        1.4847659E-05
   30.35000        1.5606103E-05
   30.40000        1.6393222E-05
   30.45000        1.7209833E-05
   30.50000        1.8056764E-05
   30.55000        1.8934792E-05
   30.60000        1.9844587E-05
   30.65000        2.0786658E-05
   30.70000        2.1761316E-05
   30.75000        2.2768660E-05
   30.80000        2.3808594E-05
   30.85000        2.4880876E-05
   30.90000        2.5985173E-05
   30.95000        2.7121150E-05
   31.00000        2.8288525E-05
   31.05000        2.9487110E-05
   31.10000        3.0716808E-05
   31.15000        3.1977601E-05
   31.20000        3.3269484E-05
   31.25000        3.4592395E-05
   31.30000        3.5946196E-05
   31.35000        3.7330610E-05
   31.40000        3.8745213E-05
   31.45000        4.0189432E-05
   31.50000        4.1662541E-05
   31.55000        4.3163625E-05
   31.60000        4.4691580E-05
   31.65000        4.6245103E-05
   31.70000        4.7822683E-05
   31.75000        4.9422641E-05
   31.80000        5.1043204E-05
   31.85000        5.2682550E-05
   31.90000        5.4338896E-05
   31.95000        5.6010529E-05
   32.00000        5.7695805E-05
   32.05000        5.9393085E-05
   32.10000        6.1100640E-05
   32.15000        6.2816558E-05
   32.20000        6.4538690E-05
   32.25000        6.6264642E-05
   32.30000        6.7991830E-05
   32.35000        6.9717571E-05
   32.40000        7.1439223E-05
   32.45000        7.3154260E-05
   32.50000        7.4860276E-05
   32.55000        7.6554912E-05
   32.60000        7.8235789E-05
   32.65000        7.9900346E-05
   32.70000        8.1545732E-05
   32.75000        8.3168743E-05
   32.80000        8.4765881E-05
   32.85000        8.6333479E-05
   32.90000        8.7867782E-05
   32.95000        8.9365138E-05
   33.00000        9.0822097E-05
   33.05000        9.2235445E-05
   33.10000        9.3602175E-05
   33.15000        9.4919444E-05
   33.20000        9.6184420E-05
   33.25000        9.7394266E-05
   33.30000        9.8546050E-05
   33.35000        9.9636782E-05
   33.40000        1.0066337E-04
   33.45000        1.0162267E-04
   33.50000        1.0251150E-04
   33.55000        1.0332681E-04
   33.60000        1.0406560E-04
   33.65000        1.0472504E-04
   33.70000        1.0530256E-04
   33.75000        1.0579581E-04
   33.80000        1.0620273E-04
   33.85000        1.0652147E-04
   33.90000        1.0675042E-04
   33.95000        1.0688802E-04
   34.00000        1.0693271E-04
   34.05000        1.0688298E-04
   34.10000        1.0673718E-04
   34.15000        1.0649363E-04
   34.20000        1.0615060E-04
   34.25000        1.0570652E-04
   34.30000        1.0516009E-04
   34.35000        1.0451049E-04
   34.40000        1.0375739E-04
   34.45000        1.0290105E-04
   34.50000        1.0194213E-04
   34.55000        1.0088159E-04
   34.60000        9.9720506E-05
   34.65000        9.8459830E-05
   34.70000        9.7100339E-05
   34.75000        9.5642790E-05
   34.80000        9.4088013E-05
   34.85000        9.2437091E-05
   34.90000        9.0691559E-05
   34.95000        8.8853456E-05
   35.00000        8.6925349E-05
   35.05000        8.4910105E-05
   35.10000        8.2810737E-05
   35.15000        8.0630278E-05
   35.20000        7.8371551E-05
   35.25000        7.6037191E-05
   35.30000        7.3629715E-05
   35.35000        7.1151786E-05
   35.40000        6.8606292E-05