  -10.00000        1.0000000E-24
  -9.950000        1.0000000E-24
  -9.900000        1.0000000E-24
  -9.850000        1.0000000E-24
  -9.800000        1.0000000E-24
  -9.750000        1.0000000E-24
  -9.700000        1.0000000E-24
  -9.650000        1.0000000E-24
  -9.600000        1.0000000E-24
  -9.550000        1.0000000E-24
  -9.500000        1.0000000E-24
  -9.450000        1.0000000E-24
  -9.400000        1.0000001E-24
  -9.350000        1.0000001E-24
  -9.300000        1.0000001E-24
  -9.250000        1.0000001E-24
  -9.200000        1.0000001E-24
  -9.150000        1.0000001E-24
  -9.100000        1.0000001E-24
  -9.050000        1.0000001E-24
  -9.000000        1.0000001E-24
  -8.950000        1.0000001E-24
  -8.900000        1.0000001E-24
  -8.850000        1.0000001E-24
  -8.800000        1.0000001E-24
  -8.750000        1.0000000E-24
  -8.700000        1.0000000E-24
  -8.650000        1.0000000E-24
  -8.600000        1.0000000E-24
  -8.550000        1.0000000E-24
  -8.500000        1.0000000E-24
  -8.450000        1.0000000E-24
  -8.400000        1.0000001E-24
  -8.350000        1.0000001E-24
  -8.300000        1.0000001E-24
  -8.250000        1.0000001E-24
  -8.200000        1.0000001E-24
  -8.150000        1.0000001E-24
  -8.100000        1.0000001E-24
  -8.050000        1.0000000E-24
  -8.000000        1.0000000E-24
  -7.950000        1.0000000E-24
  -7.900000        1.0000000E-24
  -7.850000        1.0000000E-24
  -7.800000        1.0000000E-24
  -7.750000        1.0000000E-24
  -7.700000        1.0000000E-24
  -7.650000        1.0000000E-24
  -7.600000        1.0000000E-24
  -7.550000        1.0000000E-24
  -7.500000        1.0000000E-24
  -7.450000        1.0000001E-24
  -7.400000        1.0000001E-24
  -7.350000        1.0000001E-24
  -7.300000        1.0000001E-24
  -7.250000        1.0000001E-24
  -7.200000        1.0000000E-24
  -7.150000        1.0000000E-24
  -7.100000        1.0000000E-24
  -7.050000        1.0000000E-24
  -7.000000        9.9999992E-25
  -6.950000        9.9999992E-25
  -6.900000        9.9999992E-25
  -6.850000        1.0000000E-24
  -6.800000        1.0000000E-24
  -6.750000        1.0000001E-24
  -6.700000        1.0000001E-24
  -6.650000        1.0000001E-24
  -6.600000        1.0000001E-24
  -6.550000        1.0000001E-24
  -6.500000        1.0000001E-24
  -6.450000        1.0000000E-24
  -6.400000        1.0000000E-24
  -6.350000        9.9999992E-25
  -6.300000        1.0000000E-24
  -6.250000        1.0000000E-24
  -6.200000        9.9999992E-25
  -6.150000        9.9999982E-25
  -6.100000        9.9999982E-25
  -6.050000        9.9999982E-25
  -6.000000        9.9999982E-25
  -5.950000        9.9999982E-25
  -5.900000        9.9999992E-25
  -5.850000        9.9999992E-25
  -5.800000        9.9999992E-25
  -5.750000        1.0000000E-24
  -5.700000        1.0000000E-24
  -5.650000        1.0000001E-24
  -5.600000        1.0000001E-24
  -5.550000        1.0000001E-24
  -5.500000        1.0000001E-24
  -5.450000        1.0000001E-24
  -5.400000        1.0000001E-24
  -5.350000        1.0000001E-24
  -5.300000        1.0000001E-24
  -5.250000        1.0000000E-24
  -5.200000        9.9999992E-25
  -5.150000        9.9999982E-25
  -5.100000        9.9999982E-25
  -5.050000        9.9999992E-25
  -5.000000        9.9999982E-25
  -4.950000        9.9999992E-25
  -4.900000        9.9999992E-25
  -4.850000        9.9999992E-25
  -4.800000        9.9999982E-25
  -4.750000        9.9999982E-25
  -4.700000        9.9999982E-25
  -4.650000        9.9999982E-25
  -4.600000        9.9999992E-25
  -4.550000        1.0000000E-24
  -4.500000        1.0000000E-24
  -4.450000        1.0000001E-24
  -4.400000        1.0000001E-24
  -4.350000        1.0000000E-24
  -4.300000        1.0000000E-24
  -4.250000        1.0000000E-24
  -4.200000        1.0000000E-24
  -4.150000        1.0000001E-24
  -4.100000        1.0000001E-24
  -4.050000        1.0000002E-24
  -4.000000        1.0000002E-24
  -3.950000        1.0000003E-24
  -3.900000        1.0000003E-24
  -3.850000        1.0000002E-24
  -3.800000        1.0000002E-24
  -3.750000        1.0000002E-24
  -3.700000        1.0000002E-24
  -3.650000        1.0000002E-24
  -3.600000        1.0000002E-24
  -3.550000        1.0000002E-24
  -3.500000        1.0000001E-24
  -3.450000        1.0000001E-24
  -3.400000        1.0000001E-24
  -3.350000        1.0000000E-24
  -3.300000        1.0000001E-24
  -3.250000        1.0000000E-24
  -3.200000        1.0000000E-24
  -3.150000        9.9999992E-25
  -3.100000        9.9999992E-25
  -3.050000        9.9999982E-25
  -3.000000        9.9999982E-25
  -2.950000        9.9999982E-25
  -2.900000        9.9999982E-25
  -2.850000        9.9999982E-25
  -2.800000        9.9999982E-25
  -2.750000        9.9999992E-25
  -2.700000        1.0000000E-24
  -2.650000        1.0000001E-24
  -2.600000        1.0000002E-24
  -2.550000        1.0000003E-24
  -2.500000        1.0000003E-24
  -2.450000        1.0000004E-24
  -2.400000        1.0000004E-24
  -2.350000        1.0000004E-24
  -2.300000        1.0000003E-24
  -2.250000        1.0000003E-24
  -2.200000        1.0000003E-24
  -2.150000        1.0000002E-24
  -2.100000        1.0000001E-24
  -2.050000        1.0000000E-24
  -2.000000        9.9999992E-25
  -1.950000        9.9999972E-25
  -1.900000        9.9999963E-25
  -1.850000        9.9999963E-25
  -1.800000        9.9999972E-25
  -1.750000        9.9999972E-25
  -1.700000        9.9999992E-25
  -1.650000        1.0000001E-24
  -1.600000        1.0000002E-24
  -1.550000        1.0000003E-24
  -1.500000        1.0000002E-24
  -1.450000        1.0000001E-24
  -1.400000        9.9999992E-25
  -1.350000        9.9999963E-25
  -1.300000        9.9999953E-25
  -1.250000        9.9999982E-25
  -1.200000        1.0000004E-24
  -1.150000        1.0000014E-24
  -1.100000        1.0000022E-24
  -1.050000        1.0000023E-24
  -1.000000        1.0000010E-24
 -0.9500000        9.9999765E-25
 -0.9000000        9.9999302E-25
 -0.8500000        9.9998868E-25
 -0.8000000        9.9998769E-25
 -0.7500000        9.9999361E-25
 -0.7000000        1.0000085E-24
 -0.6500000        1.0000305E-24
 -0.6000000        1.0000518E-24
 -0.5500000        1.0000586E-24
 -0.5000000        1.0000347E-24
 -0.4500000        9.9996994E-25
 -0.4000000        9.9987124E-25
 -0.3500000        9.9977125E-25
 -0.3000000        9.9972934E-25
 -0.2500000        9.9981631E-25
 -0.2000000        1.0000799E-24
 -0.1500000        1.0004997E-24
 -0.1000000        1.0009469E-24
 -5.0000001E-02    1.0011803E-24
  0.0000000E+00    1.0009039E-24
  5.0000001E-02    9.9990102E-25
  0.1000000        9.9821670E-25
  0.1500000        9.9632067E-25
  0.2000000        9.9514083E-25
  0.2500000        9.9585584E-25
  0.3000000        9.9940147E-25
  0.3500000        1.0057735E-24
  0.4000000        1.0133824E-24
  0.4500000        1.0188628E-24
  0.5000000        1.0177462E-24
  0.5500000        1.0061951E-24
  0.6000000        9.8353215E-25
  0.6500000        9.5468716E-25
  0.7000000        9.3115928E-25
  0.7500000        9.2902344E-25
  0.8000000        9.6319049E-25
  0.8500000        1.0386788E-24
  0.9000000        1.1417380E-24
  0.9500000        1.2354934E-24
   1.000000        1.2651862E-24
   1.050000        1.1760340E-24
   1.100000        9.4184056E-25
   1.150000        5.9570304E-25
   1.200000        2.4800478E-25
   1.250000        7.4934736E-26
   1.300000        2.6648293E-25
   1.350000        9.3755507E-25
   1.400000        2.0268982E-24
   1.450000        3.2285647E-24
   1.500000        4.0087604E-24
   1.550000        3.7464862E-24
   1.600000        1.9946350E-24
   1.650000       -1.2042103E-24
   1.700000       -5.0753820E-24
   1.750000       -8.1021490E-24
   1.800000       -8.3747335E-24
   1.850000       -4.3129676E-24
   1.900000        4.3990580E-24
   1.950000        1.6013629E-23
   2.000000        2.6510851E-23
   2.050000        3.0375922E-23
   2.100000        2.2475272E-23
   2.150000        6.7096367E-25
   2.200000       -3.1714335E-23
   2.250000       -6.4822051E-23
   2.300000       -8.3738128E-23
   2.350000       -7.3032377E-23
   2.400000       -2.3652966E-23
   2.450000        5.9954338E-23
   2.500000        1.5570333E-22
   2.550000        2.2595594E-22
   2.600000        2.2765791E-22
   2.650000        1.2942662E-22
   2.700000       -6.9173585E-23
   2.750000       -3.2398538E-22
   2.800000       -5.4682662E-22
   2.850000       -6.2602951E-22
   2.900000       -4.6608624E-22
   2.950000       -3.6577764E-23
   3.000000        5.8761570E-22
   3.050000        1.2162090E-21
   3.100000        1.5800618E-21
   3.150000        1.4167997E-21
   3.200000        5.8719948E-22
   3.250000       -8.1661432E-22
   3.300000       -2.4214513E-21
   3.350000       -3.6256502E-21
   3.400000       -3.7697315E-21
   3.450000       -2.3954755E-21
   3.500000        4.8531596E-22
   3.550000        4.2239340E-21
   3.600000        7.5776869E-21
   3.650000        9.0192082E-21
   3.700000        7.2749832E-21
   3.750000        1.9455330E-21
   3.800000       -6.0258133E-21
   3.850000       -1.4284173E-20
   3.900000       -1.9558417E-20
   3.950000       -1.8702474E-20
   4.000000       -1.0029974E-20
   4.050000        5.5156161E-21
   4.100000        2.3893009E-20
   4.150000        3.8615796E-20
   4.200000        4.2613201E-20
   4.250000        3.0914825E-20
   4.300000        3.3164512E-21
   4.350000       -3.4068080E-20
   4.400000       -6.9341607E-20
   4.450000       -8.7858756E-20
   4.500000       -7.7279265E-20
   4.550000       -3.3193104E-20
   4.600000        3.6786825E-20
   4.650000        1.1256119E-19
   4.700000        1.6594568E-19
   4.750000        1.6956450E-19
   4.800000        1.0794823E-19
   4.850000       -1.2982993E-20
   4.900000       -1.6229038E-19
   4.950000       -2.8931492E-19
   5.000000       -3.3825478E-19
   5.050000       -2.6876649E-19
   5.100000       -7.6050520E-20
   5.150000        1.9768020E-19
   5.200000        4.6720035E-19
   5.250000        6.2628610E-19
   5.300000        5.8382790E-19
   5.350000        3.0352090E-19
   5.400000       -1.6756013E-19
   5.450000       -6.9564065E-19
   5.500000       -1.0900424E-18
   5.550000       -1.1629576E-18
   5.600000       -8.0347935E-19
   5.650000       -4.0548807E-20
   5.700000        9.3262453E-19
   5.750000        1.7919968E-18
   5.800000        2.1755543E-18
   5.850000        1.8143764E-18
   5.900000        6.6043672E-19
   5.950000       -1.0393860E-18
   6.000000       -2.7652445E-18
   6.050000       -3.8574993E-18
   6.100000       -3.7369956E-18
   6.150000       -2.1485830E-18
   6.200000        6.6061606E-19
   6.250000        3.9130304E-18
   6.300000        6.4699710E-18
   6.350000        7.1811155E-18
   6.400000        5.3231033E-18
   6.450000        9.8004018E-19
   6.500000       -4.7941659E-18
   6.550000       -1.0145966E-17
   6.600000       -1.2938645E-17
   6.650000       -1.1499398E-17
   6.700000       -5.3658040E-18
   6.750000        4.2533346E-18
   6.800000        1.4545109E-17
   6.850000        2.1784538E-17
   6.900000        2.2532756E-17
   6.950000        1.5002671E-17
   7.000000        1.1248744E-19
   7.050000       -1.8242863E-17
   7.100000       -3.3981943E-17
   7.150000       -4.0628875E-17
   7.200000       -3.3655210E-17
   7.250000       -1.2611469E-17
   7.300000        1.7800217E-17
   7.350000        4.8348306E-17
   7.400000        6.7725578E-17
   7.450000        6.6312489E-17
   7.500000        4.0123752E-17
   7.550000       -6.4982564E-18
   7.600000       -6.0716539E-17
   7.650000       -1.0415695E-16
   7.700000       -1.1854646E-16
   7.750000       -9.2495482E-17
   7.800000       -2.7141248E-17
   7.850000        6.1678544E-17
   7.900000        1.4624156E-16
   7.950000        1.9472213E-16
   8.000000        1.8206732E-16
   8.050000        1.0057174E-16
   8.100000       -3.3814644E-17
   8.150000       -1.8262323E-16
   8.200000       -2.9450515E-16
   8.250000       -3.2149758E-16
   8.300000       -2.3723214E-16
   8.350000       -5.0771188E-17
   8.400000        1.8985660E-16
   8.450000        4.0770163E-16
   8.500000        5.1943787E-16
   8.550000        4.6452589E-16
   8.600000        2.3157042E-16
   8.650000       -1.2830046E-16
   8.700000       -5.0836165E-16
   8.750000       -7.7477887E-16
   8.800000       -8.1025806E-16
   8.850000       -5.5972392E-16
   8.900000       -6.1736122E-17
   8.950000        5.4842435E-16
   9.000000        1.0702917E-15
   9.050000        1.2991726E-15
   9.100000        1.0996583E-15
   9.150000        4.6719976E-16
   9.200000       -4.4678595E-16
   9.250000       -1.3619269E-15
   9.300000       -1.9474973E-15
   9.350000       -1.9332328E-15
   9.400000       -1.2178570E-15
   9.450000        6.4430468E-17
   9.500000        1.5509696E-15
   9.550000        2.7414842E-15
   9.600000        3.1545159E-15
   9.650000        2.5043056E-15
   9.700000        8.3781315E-16
   9.750000       -1.4244135E-15
   9.800000       -3.5747492E-15
   9.850000       -4.8230111E-15
   9.900000       -4.5655593E-15
   9.950000       -2.6332931E-15
   10.00000        5.7393820E-16
   10.05000        4.1336957E-15
   10.10000        6.8416613E-15
   10.15000        7.5929626E-15
   10.20000        5.7912828E-15
   10.25000        1.6445740E-15
   10.30000       -3.7763041E-15
   10.35000       -8.7752698E-15
   10.40000       -1.1528370E-14
   10.45000       -1.0706097E-14
   10.50000       -6.0202888E-15
   10.55000        1.5095551E-15
   10.60000        9.7084485E-15
   10.65000        1.5827986E-14
   10.70000        1.7419626E-14
   10.75000        1.3236607E-14
   10.80000        3.8519560E-15
   10.85000       -8.2671754E-15
   10.90000       -1.9336243E-14
   10.95000       -2.5375769E-14
   11.00000       -2.3566969E-14
   11.05000       -1.3400516E-14
   11.10000        2.8131722E-15
   11.15000        2.0342331E-14
   11.20000        3.3331776E-14
   11.25000        3.6675205E-14
   11.30000        2.7889898E-14
   11.35000        8.3406894E-15
   11.40000       -1.6703557E-14
   11.45000       -3.9361631E-14
   11.50000       -5.1514701E-14
   11.55000       -4.7584793E-14
   11.60000       -2.6804805E-14
   11.65000        5.8778513E-15
   11.70000        4.0760225E-14
   11.75000        6.6118585E-14
   11.80000        7.2001555E-14
   11.85000        5.3901511E-14
   11.90000        1.5012327E-14
   11.95000       -3.3893414E-14
   12.00000       -7.7230187E-14
   12.05000       -9.9384199E-14
   12.10000       -9.0110265E-14
   12.15000       -4.8743534E-14
   12.20000        1.4385227E-14
   12.25000        8.0170090E-14
   12.30000        1.2626486E-13
   12.35000        1.3441841E-13
   12.40000        9.7284194E-14
   12.45000        2.2276052E-14
   12.50000       -6.9225218E-14
   12.55000       -1.4759941E-13
   12.60000       -1.8425266E-13
   12.65000       -1.6162978E-13
   12.70000       -8.0589744E-14
   12.75000        3.7723856E-14
   12.80000        1.5681280E-13
   12.85000        2.3564345E-13
   12.90000        2.4229555E-13
   12.95000        1.6604564E-13
   13.00000        2.3525956E-14
   13.05000       -1.4385158E-13
   13.10000       -2.8131512E-13
   13.15000       -3.3806291E-13
   13.20000       -2.8519670E-13
   13.25000       -1.2814944E-13
   13.30000        9.1287485E-14
   13.35000        3.0519202E-13
   13.40000        4.3983846E-13
   13.45000        4.4026054E-13
   13.50000        2.9109682E-13
   13.55000        2.6181106E-14
   13.60000       -2.7761048E-13
   13.65000       -5.2183458E-13
   13.70000       -6.1757522E-13
   13.75000       -5.1657620E-13
   13.80000       -2.3182698E-13
   13.85000        1.6047730E-13
   13.90000        5.4015993E-13
   13.95000        7.7908844E-13
   14.00000        7.8347609E-13
   14.05000        5.2877012E-13
   14.10000        7.4615485E-14
   14.15000       -4.4707388E-13
   14.20000       -8.6946916E-13
   14.25000       -1.0434025E-12
   14.30000       -8.8886841E-13
   14.35000       -4.2801480E-13
   14.40000        2.1315379E-13
   14.45000        8.3773163E-13
   14.50000        1.2375112E-12
   14.55000        1.2615214E-12
   14.60000        8.7124562E-13
   14.65000        1.6282948E-13
   14.70000       -6.5396814E-13
   14.75000       -1.3166167E-12
   14.80000       -1.5932869E-12
   14.85000       -1.3627502E-12
   14.90000       -6.6355688E-13
   14.95000        3.0649834E-13
   15.00000        1.2443831E-12
   15.05000        1.8353231E-12
   15.10000        1.8573873E-12
   15.15000        1.2627819E-12
   15.20000        2.0668745E-13
   15.25000       -9.9006643E-13
   15.30000       -1.9368597E-12
   15.35000       -2.2996702E-12
   15.40000       -1.9175434E-12
   15.45000       -8.6901574E-13
   15.50000        5.3764388E-13
   15.55000        1.8526112E-12
   15.60000        2.6268584E-12
   15.65000        2.5642585E-12
   15.70000        1.6324396E-12
   15.75000        9.1741115E-14
   15.80000       -1.5734318E-12
   15.85000       -2.8043776E-12
   15.90000       -3.1536301E-12
   15.95000       -2.4453881E-12
   16.00000       -8.5418331E-13
   16.05000        1.1309481E-12
   16.10000        2.8526415E-12
   16.15000        3.6994149E-12
   16.20000        3.3192056E-12
   16.25000        1.7587981E-12
   16.30000       -5.2409840E-13
   16.35000       -2.7894176E-12
   16.40000       -4.2497872E-12
   16.45000       -4.3388062E-12
   16.50000       -2.9225533E-12
   16.55000       -3.7739148E-13
   16.60000        2.5023596E-12
   16.65000        4.7473644E-12
   16.70000        5.5340632E-12
   16.75000        4.4785525E-12
   16.80000        1.8006222E-12
   16.85000       -1.7076481E-12
   16.90000       -4.9117516E-12
   16.95000       -6.6981529E-12
   17.00000       -6.3559479E-12
   17.05000       -3.8473443E-12
   17.10000        1.3316476E-13
   17.15000        4.3453769E-12
   17.20000        7.3882601E-12
   17.25000        8.1647128E-12
   17.30000        6.2727332E-12
   17.35000        2.1849204E-12
   17.40000       -2.8581670E-12
   17.45000       -7.2220450E-12
   17.50000       -9.4084757E-12
   17.55000       -8.5703987E-12
   17.60000       -4.8352143E-12
   17.65000        6.8492201E-13
   17.70000        6.2171999E-12
   17.75000        9.8949833E-12
   17.80000        1.0387441E-11
   17.85000        7.3803940E-12
   17.90000        1.7358728E-12
   17.95000       -4.7417235E-12
   18.00000       -9.8741683E-12
   18.05000       -1.1836040E-11
   18.10000       -9.7989143E-12
   18.15000       -4.2677242E-12
   18.20000        3.0227925E-12
   18.25000        9.6398670E-12
   18.30000        1.3253286E-11
   18.35000        1.2444348E-11
   18.40000        7.2455345E-12
   18.45000       -7.8959300E-13
   18.50000       -9.0364860E-12
   18.55000       -1.4644133E-11
   18.60000       -1.5505982E-11
   18.65000       -1.1030754E-11
   18.70000       -2.4367773E-12
   18.75000        7.5588910E-12
   18.80000        1.5585271E-11
   18.85000        1.8737976E-11
   18.90000        1.5607876E-11
   18.95000        6.8601878E-12
   19.00000       -4.8612694E-12
   19.05000       -1.5713162E-11
   19.10000       -2.1891350E-11
   19.15000       -2.0935682E-11
   19.20000       -1.2661120E-11
   19.25000        6.2462064E-13
   19.30000        1.4735987E-11
   19.35000        2.4902094E-11
   19.40000        2.7343794E-11
   19.45000        2.0622132E-11
   19.50000        6.2899009E-12
   19.55000       -1.1417475E-11
   19.60000       -2.6810677E-11
   19.65000       -3.4544364E-11
   19.70000       -3.1422372E-11
   19.75000       -1.7611195E-11
   19.80000        3.1782168E-12
   19.85000        2.4666333E-11
   19.90000        3.9890331E-11
   19.95000        4.3436251E-11
   20.00000        3.3307787E-11
   20.05000        1.1798353E-11
   20.10000       -1.4978198E-11
   20.15000       -3.8824884E-11
   20.20000       -5.1976385E-11
   20.25000       -4.9620186E-11
   20.30000       -3.1608400E-11
   20.35000       -2.7626777E-12
   20.40000        2.8401399E-11
   20.45000        5.2201542E-11
   20.50000        6.0817372E-11
   20.55000        5.0870527E-11
   20.60000        2.4704865E-11
   20.65000       -1.0105858E-11
   20.70000       -4.2945376E-11
   20.75000       -6.3409507E-11
   20.80000       -6.4627879E-11
   20.85000       -4.5587801E-11
   20.90000       -1.1672503E-11
   20.95000        2.6829768E-11
   21.00000        5.7843411E-11
   21.05000        7.1306294E-11
   21.10000        6.2453410E-11
   21.15000        3.3506708E-11
   21.20000       -6.8280347E-12
   21.25000       -4.5966137E-11
   21.30000       -7.1375281E-11
   21.35000       -7.4602220E-11
   21.40000       -5.4094781E-11
   21.45000       -1.5871611E-11
   21.50000        2.8235187E-11
   21.55000        6.4257315E-11
   21.60000        8.0541476E-11
   21.65000        7.1547740E-11
   21.70000        3.9747119E-11
   21.75000       -5.0376951E-12
   21.80000       -4.8683450E-11
   21.85000       -7.7259851E-11
   21.90000       -8.1526855E-11
   21.95000       -5.9971333E-11
   22.00000       -1.9373374E-11
   22.05000        2.7313105E-11
   22.10000        6.5104325E-11
   22.15000        8.1823416E-11
   22.20000        7.2058276E-11
   22.25000        3.8943751E-11
   22.30000       -6.8243319E-12
   22.35000       -5.0432408E-11
   22.40000       -7.7733396E-11
   22.45000       -7.9815606E-11
   22.50000       -5.5871641E-11
   22.55000       -1.3441736E-11
   22.60000        3.4032971E-11
   22.65000        7.1535174E-11
   22.70000        8.7259582E-11
   22.75000        7.6317154E-11
   22.80000        4.2183073E-11
   22.85000       -4.5331894E-12
   22.90000       -4.9544802E-11
   22.95000       -7.9415800E-11
   23.00000       -8.5694465E-11
   23.05000       -6.7359507E-11
   23.10000       -3.0871330E-11
   23.15000        1.2091024E-11
   23.20000        4.8399035E-11
   23.25000        6.7509734E-11
   23.30000        6.4512465E-11
   23.35000        4.1317755E-11
   23.40000        5.7510897E-12
   23.45000       -3.1027843E-11
   23.50000       -5.7888035E-11
   23.55000       -6.6829313E-11
   23.60000       -5.4966077E-11
   23.65000       -2.4960190E-11
   23.70000        1.6029260E-11
   23.75000        5.8405190E-11
   23.80000        9.2527916E-11
   23.85000        1.1080932E-10
   23.90000        1.0908004E-10
   23.95000        8.7084118E-11
   24.00000        4.8194011E-11
   24.05000       -1.4313187E-12
   24.10000       -5.4008392E-11
   24.15000       -1.0142999E-10
   24.20000       -1.3658027E-10
   24.25000       -1.5454846E-10
   24.30000       -1.5357826E-10
   24.35000       -1.3552932E-10
   24.40000       -1.0561683E-10
   24.45000       -7.1294269E-11
   24.50000       -4.0360416E-11
   24.55000       -1.8653643E-11
   24.60000       -7.9430906E-12
   24.65000       -4.7233445E-12
   24.70000       -4.8645750E-13
   24.75000        1.6318138E-11
   24.80000        5.6933760E-11
   24.85000        1.2835316E-10
   24.90000        2.2989242E-10
   24.95000        3.5139139E-10
   25.00000        4.7379894E-10
   25.05000        5.7227506E-10
   25.10000        6.2121996E-10
   25.15000        6.0003552E-10
   25.20000        4.9813359E-10
   25.25000        3.1782726E-10
   25.30000        7.4258343E-11
   25.35000       -2.0770846E-10
   25.40000       -4.9887317E-10
   25.45000       -7.7197820E-10
   25.50000       -1.0072008E-09
   25.55000       -1.1953395E-09
   25.60000       -1.3377370E-09
   25.65000       -1.4428074E-09
   25.70000       -1.5199447E-09
   25.75000       -1.5723421E-09
   25.80000       -1.5906719E-09
   25.85000       -1.5495375E-09
   25.90000       -1.4080737E-09
   25.95000       -1.1151247E-09
   26.00000       -6.1825811E-10
   26.05000        1.2526313E-10
   26.10000        1.1382200E-09
   26.15000        2.4167308E-09
   26.20000        3.9293537E-09
   26.25000        5.6229355E-09
   26.30000        7.4343660E-09
   26.35000        9.3055919E-09
   26.40000        1.1197980E-08
   26.45000        1.3101863E-08
   26.50000        1.5038069E-08
   26.55000        1.7050366E-08
   26.60000        1.9190439E-08
   26.65000        2.1499613E-08
   26.70000        2.3993007E-08
   26.75000        2.6651696E-08
   26.80000        2.9426520E-08
   26.85000        3.2253734E-08
   26.90000        3.5078976E-08
   26.95000        3.7882838E-08
   27.00000        4.0700208E-08
   27.05000        4.3626642E-08
   27.10000        4.6808616E-08
   27.15000        5.0419331E-08
   27.20000        5.4626412E-08
   27.25000        5.9560914E-08
   27.30000        6.5297293E-08
   27.35000        7.1851012E-08
   27.40000        7.9195395E-08
   27.45000        8.7293074E-08
   27.50000        9.6132631E-08
   27.55000        1.0575893E-07
   27.60000        1.1628702E-07
   27.65000        1.2789458E-07
   27.70000        1.4079438E-07
   27.75000        1.5519488E-07
   27.80000        1.7126150E-07
   27.85000        1.8909087E-07
   27.90000        2.0870733E-07
   27.95000        2.3008397E-07
   28.00000        2.5318280E-07
   28.05000        2.7800286E-07
   28.10000        3.0462198E-07
   28.15000        3.3321973E-07
   28.20000        3.6407502E-07
   28.25000        3.9753886E-07
   28.30000        4.3399086E-07
   28.35000        4.7379302E-07
   28.40000        5.1725476E-07
   28.45000        5.6461982E-07
   28.50000        6.1607932E-07
   28.55000        6.7180696E-07
   28.60000        7.3200579E-07
   28.65000        7.9695280E-07
   28.70000        8.6702789E-07
   28.75000        9.4271968E-07
   28.80000        1.0246054E-06
   28.85000        1.1133118E-06
   28.90000        1.2094685E-06
   28.95000        1.3136662E-06
   29.00000        1.4264340E-06
   29.05000        1.5482398E-06
   29.10000        1.6795175E-06
   29.15000        1.8207114E-06
   29.20000        1.9723286E-06
   29.25000        2.1349845E-06
   29.30000        2.3094306E-06
   29.35000        2.4965568E-06
   29.40000        2.6973673E-06
   29.45000        2.9129392E-06
   29.50000        3.1443708E-06
   29.55000        3.3927386E-06
   29.60000        3.6590729E-06
   29.65000        3.9443617E-06
   29.70000        4.2495822E-06
   29.75000        4.5757542E-06
   29.80000        4.9240011E-06
   29.85000        5.2956034E-06
   29.90000        5.6920226E-06
   29.95000        6.1148980E-06
   30.00000        6.5660038E-06
   30.05000        7.0471860E-06
   30.10000        7.5602916E-06
   30.15000        8.1071139E-06
   30.20000        8.6893670E-06
   30.25000        9.3087065E-06
   30.30000        9.9667859E-06
   30.35000        1.0665341E-05
   30.40000        1.1406268E-05
   30.45000        1.2191692E-05
   30.50000        1.3023977E-05
   30.55000        1.3905700E-05
   30.60000        1.4839577E-05
   30.65000        1.5828366E-05
   30.70000        1.6874787E-05
   30.75000        1.7981472E-05
   30.80000        1.9150957E-05
   30.85000        2.0385738E-05
   30.90000        2.1688360E-05
   30.95000        2.3061522E-05
   31.00000        2.4508159E-05
   31.05000        2.6031470E-05
   31.10000        2.7634909E-05
   31.15000        2.9322100E-05
   31.20000        3.1096741E-05
   31.25000        3.2962478E-05
   31.30000        3.4922847E-05
   31.35000        3.6981230E-05
   31.40000        3.9140894E-05
   31.45000        4.1405066E-05
   31.50000        4.3777040E-05
   31.55000        4.6260262E-05
   31.60000        4.8858397E-05
   31.65000        5.1575327E-05
   31.70000        5.4415104E-05
   31.75000        5.7381843E-05
   31.80000        6.0479622E-05
   31.85000        6.3712389E-05
   31.90000        6.7083885E-05
   31.95000        7.0597685E-05
   32.00000        7.4257201E-05
   32.05000        7.8065772E-05
   32.10000        8.2026781E-05
   32.15000        8.6143686E-05
   32.20000        9.0420086E-05
   32.25000        9.4859679E-05
   32.30000        9.9466204E-05
   32.35000        1.0424336E-04
   32.40000        1.0919467E-04
   32.45000        1.1432342E-04
   32.50000        1.1963257E-04
   32.55000        1.2512476E-04
   32.60000        1.3080236E-04
   32.65000        1.3666756E-04
   32.70000        1.4272238E-04
   32.75000        1.4896881E-04
   32.80000        1.5540888E-04
   32.85000        1.6204453E-04
   32.90000        1.6887761E-04
   32.95000        1.7590984E-04
   33.00000        1.8314256E-04
   33.05000        1.9057673E-04
   33.10000        1.9821283E-04
   33.15000        2.0605086E-04
   33.20000        2.1409043E-04
   33.25000        2.2233077E-04
   33.30000        2.3077099E-04
   33.35000        2.3941003E-04
   33.40000        2.4824677E-04
   33.45000        2.5727999E-04
   33.50000        2.6650826E-04
   33.55000        2.7592975E-04
   33.60000        2.8554225E-04
   33.65000        2.9534285E-04
   33.70000        3.0532811E-04
   33.75000        3.1549387E-04
   33.80000        3.2583557E-04
   33.85000        3.3634831E-04
   33.90000        3.4702691E-04
   33.95000        3.5786611E-04
   34.00000        3.6886055E-04
   34.05000        3.8000464E-04
   34.10000        3.9129259E-04
   34.15000        4.0271808E-04
   34.20000        4.1427431E-04
   34.25000        4.2595371E-04
   34.30000        4.3774818E-04
   34.35000        4.4964912E-04
   34.40000        4.6164743E-04
   34.45000        4.7373390E-04
   34.50000        4.8589919E-04
   34.55000        4.9813400E-04
   34.60000        5.1042897E-04
   34.65000        5.2277459E-04
   34.70000        5.3516118E-04
   34.75000        5.4757856E-04
   34.80000        5.6001608E-04
   34.85000        5.7246257E-04
   34.90000        5.8490643E-04
   34.95000        5.9733575E-04
   35.00000        6.0973864E-04
   35.05000        6.2210317E-04
   35.10000        6.3441752E-04
   35.15000        6.4667017E-04
   35.20000        6.5884960E-04
   35.25000        6.7094434E-04
   35.30000        6.8294280E-04
   35.35000        6.9483323E-04
   35.40000        7.0660358E-04