  -16.0000000       0.00000000    
  -15.9899998       0.00000000    
  -15.9799995       0.00000000    
  -15.9700003       0.00000000    
  -15.9600000       0.00000000    
  -15.9499998       0.00000000    
  -15.9399996       0.00000000    
  -15.9300003       0.00000000    
  -15.9200001       0.00000000    
  -15.9099998       0.00000000    
  -15.8999996       9.24856986E-44
  -15.8900003       1.28078680E-42
  -15.8800001       6.48520929E-42
  -15.8699999      -9.50921138E-42
  -15.8599997      -3.98127111E-40
  -15.8500004      -3.53861774E-39
  -15.8400002      -2.10556193E-38
  -15.8299999      -9.86291032E-38
  -15.8199997      -3.88121021E-37
  -15.8100004      -1.32918823E-36
  -15.8000002      -4.05047487E-36
  -15.7900000      -1.11502096E-35
  -15.7799997      -2.80255790E-35
  -15.7700005      -6.48066796E-35
  -15.7600002      -1.38592724E-34
  -15.7500000      -2.74960320E-34
  -15.7399998      -5.06571255E-34
  -15.7299995      -8.65331258E-34
  -15.7200003      -1.36349474E-33
  -15.7100000      -1.95943723E-33
  -15.6999998      -2.50700564E-33
  -15.6899996      -2.69500300E-33
  -15.6800003      -1.99634812E-33
  -15.6700001       3.36022338E-34
  -15.6599998       5.17113961E-33
  -15.6499996       1.32328132E-32
  -15.6400003       2.46019580E-32
  -15.6300001       3.79625665E-32
  -15.6199999       4.96403036E-32
  -15.6099997       5.25984057E-32
  -15.6000004       3.56998927E-32
  -15.5900002      -1.63124262E-32
  -15.5799999      -1.21577678E-31
  -15.5699997      -2.98099584E-31
  -15.5600004      -5.58625902E-31
  -15.5500002      -9.03496243E-31
  -15.5400000      -1.31213128E-30
  -15.5299997      -1.73454912E-30
  -15.5200005      -2.08499746E-30
  -15.5100002      -2.24026071E-30
  -15.5000000      -2.04521949E-30
  -15.4899998      -1.32763558E-30
  -15.4799995       7.72167487E-32
  -15.4700003       2.29347957E-30
  -15.4600000       5.36702471E-30
  -15.4499998       9.22942944E-30
  -15.4399996       1.36717524E-29
  -15.4300003       1.83369280E-29
  -15.4200001       2.27387492E-29
  -15.4099998       2.63126748E-29
  -15.3999996       2.84991981E-29
  -15.3900003       2.88549204E-29
  -15.3800001       2.71804567E-29
  -15.3699999       2.36486443E-29
  -15.3599997       1.89131451E-29
  -15.3500004       1.41759729E-29
  -15.3400002       1.11944971E-29
  -15.3299999       1.22132990E-29
  -15.3199997       1.98138559E-29
  -15.3100004       3.66845930E-29
  -15.3000002       6.53239627E-29
  -15.2900000       1.07699736E-28
  -15.2799997       1.64896027E-28
  -15.2700005       2.36787381E-28
  -15.2600002       3.21782257E-28
  -15.2500000       4.16680047E-28
  -15.2399998       5.16682226E-28
  -15.2299995       6.15591296E-28
  -15.2200003       7.06218336E-28
  -15.2100000       7.81003159E-28
  -15.1999998       8.32829212E-28
  -15.1899996       8.55988616E-28
  -15.1800003       8.47224768E-28
  -15.1700001       8.06755106E-28
  -15.1599998       7.39148513E-28
  -15.1499996       6.53926498E-28
  -15.1400003       5.65751310E-28
  -15.1300001       4.94082883E-28
  -15.1199999       4.62224439E-28
  -15.1099997       4.95727627E-28
  -15.1000004       6.20202261E-28
  -15.0900002       8.58648903E-28
  -15.0799999       1.22852153E-27
  -15.0699997       1.73879041E-27
  -15.0600004       2.38733346E-27
  -15.0500002       3.15900409E-27
  -15.0400000       4.02471557E-27
  -15.0299997       4.94181413E-27
  -15.0200005       5.85593829E-27
  -15.0100002       6.70441636E-27
  -15.0000000       7.42112345E-27
  -14.9899998       7.94252508E-27
  -14.9799995       8.21454034E-27
  -14.9700003       8.19965598E-27
  -14.9600000       7.88369100E-27
  -14.9499998       7.28154900E-27
  -14.9399996       6.44130197E-27
  -14.9300003       5.44603261E-27
  -14.9200001       4.41298112E-27
  -14.9099998       3.48972767E-27
  -14.8999996       2.84733277E-27
  -14.8900003       2.67060174E-27
  -14.8800001       3.14585403E-27
  -14.8699999       4.44685399E-27
  -14.8599997       6.71972134E-27
  -14.8500004       1.00678620E-26
  -14.8400002       1.45380301E-26
  -14.8299999       2.01087840E-26
  -14.8199997       2.66825021E-26
  -14.8100004       3.40821623E-26
  -14.8000002       4.20538390E-26
  -14.7900000       5.02758126E-26
  -14.7799997       5.83748503E-26
  -14.7700005       6.59500597E-26
  -14.7600002       7.26043850E-26
  -14.7500000       7.79839295E-26
  -14.7399998       8.18245974E-26
  -14.7299995       8.40061121E-26
  -14.7200003       8.46132577E-26
  -14.7100000       8.40039427E-26
  -14.6999998       8.28845738E-26
  -14.6899996       8.23926142E-26
  -14.6800003       8.41869400E-26
  -14.6700001       9.05463114E-26
  -14.6599998       1.04476689E-25
  -14.6499996       1.29827745E-25
  -14.6400003       1.71418809E-25
  -14.6300001       2.35174424E-25
  -14.6199999       3.28268886E-25
  -14.6099997       4.59279059E-25
  -14.6000004       6.38343188E-25
  -14.5900002       8.77323373E-25
  -14.5799999       1.18996867E-24
  -14.5699997       1.59207366E-24
  -14.5600004       2.10162623E-24
  -14.5500002       2.73893847E-24
  -14.5400000       3.52675098E-24
  -14.5299997       4.49029882E-24
  -14.5200005       5.65732703E-24
  -14.5100002       7.05804659E-24
  -14.5000000       8.72499725E-24
  -14.4899998       1.06928234E-23
  -14.4799995       1.29978971E-23
  -14.4700003       1.56778201E-23
  -14.4600000       1.87707149E-23
  -14.4499998       2.23143128E-23
  -14.4399996       2.63447625E-23
  -14.4300003       3.08951725E-23
  -14.4200001       3.59937762E-23
  -14.4099998       4.16617039E-23
  -14.3999996       4.79103122E-23
  -14.3900003       5.47379601E-23
  -14.3800001       6.21263115E-23
  -14.3699999       7.00358285E-23
  -14.3599997       7.84007265E-23
  -14.3500004       8.71230353E-23
  -14.3400002       9.60658339E-23
  -14.3299999       1.05045608E-22
  -14.3199997       1.13823516E-22
  -14.3100004       1.22095675E-22
  -14.3000002       1.29482304E-22
  -14.2900000       1.35515588E-22
  -14.2799997       1.39626449E-22
  -14.2700005       1.41129803E-22
  -14.2600002       1.39208681E-22
  -14.2500000       1.32896860E-22
  -14.2399998       1.21060122E-22
  -14.2299995       1.02376153E-22
  -14.2200003       7.53129608E-23
  -14.2100000       3.81062479E-23
  -14.1999998      -1.12649732E-23
  -14.1899996      -7.51035845E-23
  -14.1800003      -1.56020935E-22
  -14.1700001      -2.56964233E-22
  -14.1599998      -3.81244939E-22
  -14.1499996      -5.32567696E-22
  -14.1400003      -7.15059623E-22
  -14.1300001      -9.33300655E-22
  -14.1199999      -1.19235258E-21
  -14.1099997      -1.49778811E-21
  -14.1000004      -1.85571973E-21
  -14.0900002      -2.27282797E-21
  -14.0799999      -2.75638653E-21
  -14.0699997      -3.31428572E-21
  -14.0600004      -3.95505666E-21
  -14.0500002      -4.68788699E-21
  -14.0400000      -5.52264066E-21
  -14.0299997      -6.46986263E-21
  -14.0200005      -7.54079334E-21
  -14.0100002      -8.74736632E-21
  -14.0000000      -1.01022050E-20
  -13.9899998      -1.16186128E-20
  -13.9799995      -1.33105558E-20
  -13.9700003      -1.51926389E-20
  -13.9600000      -1.72800712E-20
  -13.9499998      -1.95886208E-20
  -13.9399996      -2.21345729E-20
  -13.9300003      -2.49346665E-20
  -13.9200001      -2.80060059E-20
  -13.9099998      -3.13659974E-20
  -13.8999996      -3.50322525E-20
  -13.8900003      -3.90224716E-20
  -13.8800001      -4.33543292E-20
  -13.8699999      -4.80453545E-20
  -13.8599997      -5.31127598E-20
  -13.8500004      -5.85733119E-20
  -13.8400002      -6.44431341E-20
  -13.8299999      -7.07375650E-20
  -13.8199997      -7.74709057E-20
  -13.8100004      -8.46562682E-20
  -13.8000002      -9.23053301E-20
  -13.7900000      -1.00428076E-19
  -13.7799997      -1.09032615E-19
  -13.7700005      -1.18124855E-19
  -13.7600002      -1.27708376E-19
  -13.7500000      -1.37783927E-19
  -13.7399998      -1.48349402E-19
  -13.7299995      -1.59399384E-19
  -13.7200003      -1.70924931E-19
  -13.7100000      -1.82913324E-19
  -13.6999998      -1.95347607E-19
  -13.6899996      -2.08206556E-19
  -13.6800003      -2.21464193E-19
  -13.6700001      -2.35089616E-19
  -13.6599998      -2.49046582E-19
  -13.6499996      -2.63293398E-19
  -13.6400003      -2.77782708E-19
  -13.6300001      -2.92461079E-19
  -13.6199999      -3.07268853E-19
  -13.6099997      -3.22140035E-19
  -13.6000004      -3.37002015E-19
  -13.5900002      -3.51775435E-19
  -13.5799999      -3.66374191E-19
  -13.5699997      -3.80705198E-19
  -13.5600004      -3.94668317E-19
  -13.5500002      -4.08156531E-19
  -13.5400000      -4.21055741E-19
  -13.5299997      -4.33245126E-19
  -13.5200005      -4.44596810E-19
  -13.5100002      -4.54976427E-19
  -13.5000000      -4.64243280E-19
  -13.4899998      -4.72250336E-19
  -13.4799995      -4.78844827E-19
  -13.4700003      -4.83868450E-19
  -13.4600000      -4.87157940E-19
  -13.4499998      -4.88545433E-19
  -13.4399996      -4.87859131E-19
  -13.4300003      -4.84923622E-19
  -13.4200001      -4.79561165E-19
  -13.4099998      -4.71591746E-19
  -13.3999996      -4.60834107E-19
  -13.3900003      -4.47106941E-19
  -13.3800001      -4.30229354E-19
  -13.3699999      -4.10021849E-19
  -13.3599997      -3.86307692E-19
  -13.3500004      -3.58913564E-19
  -13.3400002      -3.27670979E-19
  -13.3299999      -2.92417394E-19
  -13.3199997      -2.52997275E-19
  -13.3100004      -2.09263395E-19
  -13.3000002      -1.61078121E-19
  -13.2900000      -1.08314584E-19
  -13.2799997      -5.08581175E-20
  -13.2700005       1.13926188E-20
  -13.2600002       7.85242297E-20
  -13.2500000       1.50607346E-19
  -13.2399998       2.27695474E-19
  -13.2299995       3.09823626E-19
  -13.2200003       3.97007455E-19
  -13.2100000       4.89241712E-19
  -13.1999998       5.86499747E-19
  -13.1899996       6.88732085E-19
  -13.1800003       7.95866191E-19
  -13.1700001       9.07804976E-19
  -13.1599998       1.02442721E-18
  -13.1499996       1.14558621E-18
  -13.1400003       1.27111004E-18
  -13.1300001       1.40080173E-18
  -13.1199999       1.53443896E-18
  -13.1099997       1.67177482E-18
  -13.1000004       1.81253822E-18
  -13.0900002       1.95643497E-18
  -13.0799999       2.10314910E-18
  -13.0699997       2.25234498E-18
  -13.0600004       2.40366651E-18
  -13.0500002       2.55674414E-18
  -13.0400000       2.71119323E-18
  -13.0299997       2.86661902E-18
  -13.0200005       3.02262094E-18
  -13.0100002       3.17879388E-18
  -13.0000000       3.33473583E-18
  -12.9899998       3.49005037E-18
  -12.9799995       3.64435429E-18
  -12.9700003       3.79728179E-18
  -12.9600000       3.94849247E-18
  -12.9499998       4.09767781E-18
  -12.9399996       4.24456978E-18
  -12.9300003       4.38894961E-18
  -12.9200001       4.53065474E-18
  -12.9099998       4.66959214E-18
  -12.8999996       4.80574731E-18
  -12.8900003       4.93919470E-18
  -12.8800001       5.07011133E-18
  -12.8699999       5.19879003E-18
  -12.8599997       5.32565224E-18
  -12.8500004       5.45126210E-18
  -12.8400002       5.57634297E-18
  -12.8299999       5.70179194E-18
  -12.8199997       5.82869965E-18
  -12.8100004       5.95836476E-18
  -12.8000002       6.09231549E-18
  -12.7900000       6.23232615E-18
  -12.7799997       6.38044152E-18
  -12.7700005       6.53899468E-18
  -12.7600002       6.71062804E-18
  -12.7500000       6.89832235E-18
  -12.7399998       7.10541198E-18
  -12.7299995       7.33561800E-18
  -12.7200003       7.59306390E-18
  -12.7100000       7.88231242E-18
  -12.6999998       8.20838288E-18
  -12.6899996       8.57678596E-18
  -12.6800003       8.99354272E-18
  -12.6700001       9.46522509E-18
  -12.6599998       9.99897662E-18
  -12.6499996       1.06025480E-17
  -12.6400003       1.12843210E-17
  -12.6300001       1.20533458E-17
  -12.6199999       1.29193709E-17
  -12.6099997       1.38928723E-17
  -12.6000004       1.49850915E-17
  -12.5900002       1.62080565E-17
  -12.5799999       1.75746284E-17
  -12.5699997       1.90985300E-17
  -12.5600004       2.07943644E-17
  -12.5500002       2.26776760E-17
  -12.5400000       2.47649471E-17
  -12.5299997       2.70736727E-17
  -12.5200005       2.96223436E-17
  -12.5100002       3.24305258E-17
  -12.5000000       3.55188642E-17
  -12.4899998       3.89091003E-17
  -12.4799995       4.26241504E-17
  -12.4700003       4.66880855E-17
  -12.4600000       5.11261675E-17
  -12.4499998       5.59649160E-17
  -12.4399996       6.12320845E-17
  -12.4300003       6.69567104E-17
  -12.4200001       7.31691214E-17
  -12.4099998       7.99009951E-17
  -12.3999996       8.71853130E-17
  -12.3900003       9.50564064E-17
  -12.3800001       1.03550056E-16
  -12.3699999       1.12703358E-16
  -12.3599997       1.22554868E-16
  -12.3500004       1.33144447E-16
  -12.3400002       1.44513482E-16
  -12.3299999       1.56704722E-16
  -12.3199997       1.69762357E-16
  -12.3100004       1.83731942E-16
  -12.3000002       1.98660513E-16
  -12.2900000       2.14596446E-16
  -12.2799997       2.31589502E-16
  -12.2700005       2.49690834E-16
  -12.2600002       2.68953025E-16
  -12.2500000       2.89429729E-16
  -12.2399998       3.11176241E-16
  -12.2299995       3.34248810E-16
  -12.2200003       3.58705059E-16
  -12.2100000       3.84603780E-16
  -12.1999998       4.12004872E-16
  -12.1899996       4.40969323E-16
  -12.1800003       4.71559177E-16
  -12.1700001       5.03837326E-16
  -12.1599998       5.37867616E-16
  -12.1499996       5.73714738E-16
  -12.1400003       6.11444286E-16
  -12.1300001       6.51122009E-16
  -12.1199999       6.92814770E-16
  -12.1099997       7.36589327E-16
  -12.1000004       7.82513442E-16
  -12.0900002       8.30654612E-16
  -12.0799999       8.81080707E-16
  -12.0699997       9.33859330E-16
  -12.0600004       9.89058244E-16
  -12.0500002       1.04674489E-15
  -12.0400000       1.10698609E-15
  -12.0299997       1.16984864E-15
  -12.0200005       1.23539766E-15
  -12.0100002       1.30369837E-15
  -12.0000000       1.37481441E-15
  -11.9899998       1.44880835E-15
  -11.9799995       1.52574107E-15
  -11.9700003       1.60567208E-15
  -11.9600000       1.68865907E-15
  -11.9499998       1.77475775E-15
  -11.9399996       1.86402094E-15
  -11.9300003       1.95649957E-15
  -11.9200001       2.05224203E-15
  -11.9099998       2.15129322E-15
  -11.8999996       2.25369527E-15
  -11.8900003       2.35948693E-15
  -11.8800001       2.46870209E-15
  -11.8699999       2.58137208E-15
  -11.8599997       2.69752359E-15
  -11.8500004       2.81717864E-15
  -11.8400002       2.94035417E-15
  -11.8299999       3.06706183E-15
  -11.8199997       3.19730903E-15
  -11.8100004       3.33109619E-15
  -11.8000002       3.46841865E-15
  -11.7900000       3.60926414E-15
  -11.7799997       3.75361465E-15
  -11.7700005       3.90144561E-15
  -11.7600002       4.05272316E-15
  -11.7500000       4.20740789E-15
  -11.7399998       4.36545153E-15
  -11.7299995       4.52679733E-15
  -11.7200003       4.69137965E-15
  -11.7100000       4.85912351E-15
  -11.6999998       5.02994507E-15
  -11.6899996       5.20375157E-15
  -11.6800003       5.38043756E-15
  -11.6700001       5.55988869E-15
  -11.6599998       5.74197917E-15
  -11.6499996       5.92657434E-15
  -11.6400003       6.11352340E-15
  -11.6300001       6.30266670E-15
  -11.6199999       6.49383188E-15
  -11.6099997       6.68683215E-15
  -11.6000004       6.88146973E-15
  -11.5900002       7.07753245E-15
  -11.5799999       7.27479244E-15
  -11.5699997       7.47301255E-15
  -11.5600004       7.67193570E-15
  -11.5500002       7.87129168E-15
  -11.5400000       8.07079589E-15
  -11.5299997       8.27014764E-15
  -11.5200005       8.46903012E-15
  -11.5100002       8.66711301E-15
  -11.5000000       8.86404140E-15
  -11.4899998       9.05945275E-15
  -11.4799995       9.25296250E-15
  -11.4700003       9.44417003E-15
  -11.4600000       9.63265688E-15
  -11.4499998       9.81798261E-15
  -11.4399996       9.99969659E-15
  -11.4300003       1.01773211E-14
  -11.4200001       1.03503665E-14
  -11.4099998       1.05183205E-14
  -11.3999996       1.06806509E-14
  -11.3900003       1.08368091E-14
  -11.3800001       1.09862248E-14
  -11.3699999       1.11283112E-14
  -11.3599997       1.12624550E-14
  -11.3500004       1.13880327E-14
  -11.3400002       1.15043905E-14
  -11.3299999       1.16108617E-14
  -11.3199997       1.17067568E-14
  -11.3100004       1.17913678E-14
  -11.3000002       1.18639661E-14
  -11.2900000       1.19238014E-14
  -11.2799997       1.19701044E-14
  -11.2700005       1.20020867E-14
  -11.2600002       1.20189393E-14
  -11.2500000       1.20198354E-14
  -11.2399998       1.20039265E-14
  -11.2299995       1.19703467E-14
  -11.2200003       1.19182101E-14
  -11.2100000       1.18466130E-14
  -11.1999998       1.17546345E-14
  -11.1899996       1.16413320E-14
  -11.1800003       1.15057491E-14
  -11.1700001       1.13469084E-14
  -11.1599998       1.11638222E-14
  -11.1499996       1.09554809E-14
  -11.1400003       1.07208621E-14
  -11.1300001       1.04589265E-14
  -11.1199999       1.01686246E-14
  -11.1099997       9.84888830E-15
  -11.1000004       9.49864102E-15
  -11.0900002       9.11679010E-15
  -11.0799999       8.70223439E-15
  -11.0699997       8.25386004E-15
  -11.0600004       7.77054812E-15
  -11.0500002       7.25116615E-15
  -11.0400000       6.69457869E-15
  -11.0299997       6.09964053E-15
  -11.0200005       5.46520057E-15
  -11.0100002       4.79010769E-15
  -11.0000000       4.07320611E-15
  -10.9899998       3.31333518E-15
  -10.9799995       2.50933765E-15
  -10.9700003       1.66005667E-15
  -10.9600000       7.64338497E-16
  -10.9499998      -1.78967474E-16
  -10.9399996      -1.17100579E-15
  -10.9300003      -2.21291360E-15
  -10.9200001      -3.30582073E-15
  -10.9099998      -4.45084431E-15
  -10.8999996      -5.64909015E-15
  -10.8900003      -6.90164944E-15
  -10.8800001      -8.20959748E-15
  -10.8699999      -9.57399053E-15
  -10.8599997      -1.09958675E-14
  -10.8500004      -1.24762405E-14
  -10.8400002      -1.40161015E-14
  -10.8299999      -1.56164178E-14
  -10.8199997      -1.72781203E-14
  -10.8100004      -1.90021169E-14
  -10.8000002      -2.07892768E-14
  -10.7900000      -2.26404334E-14
  -10.7799997      -2.45563932E-14
  -10.7700005      -2.65379014E-14
  -10.7600002      -2.85856781E-14
  -10.7500000      -3.07003907E-14
  -10.7399998      -3.28826627E-14
  -10.7299995      -3.51330564E-14
  -10.7200003      -3.74520869E-14
  -10.7100000      -3.98402116E-14
  -10.6999998      -4.22978371E-14
  -10.6899996      -4.48252919E-14
  -10.6800003      -4.74228506E-14
  -10.6700001      -5.00907062E-14
  -10.6599998      -5.28290045E-14
  -10.6499996      -5.56377928E-14
  -10.6400003      -5.85170543E-14
  -10.6300001      -6.14666941E-14
  -10.6199999      -6.44865089E-14
  -10.6099997      -6.75762479E-14
  -10.6000004      -7.07355452E-14
  -10.5900002      -7.39639469E-14
  -10.5799999      -7.72608838E-14
  -10.5699997      -8.06257323E-14
  -10.5600004      -8.40577269E-14
  -10.5500002      -8.75560000E-14
  -10.5400000      -9.11195896E-14
  -10.5299997      -9.47474317E-14
  -10.5200005      -9.84382999E-14
  -10.5100002      -1.02190893E-13
  -10.5000000      -1.06003781E-13
  -10.4899998      -1.09875359E-13
  -10.4799995      -1.13803972E-13
  -10.4700003      -1.17787792E-13
  -10.4600000      -1.21824846E-13
  -10.4499998      -1.25913006E-13
  -10.4399996      -1.30050064E-13
  -10.4300003      -1.34233594E-13
  -10.4200001      -1.38461088E-13
  -10.4099998      -1.42729836E-13
  -10.3999996      -1.47037032E-13
  -10.3900003      -1.51379641E-13
  -10.3800001      -1.55754533E-13
  -10.3699999      -1.60158331E-13
  -10.3599997      -1.64587582E-13
  -10.3500004      -1.69038611E-13
  -10.3400002      -1.73507611E-13
  -10.3299999      -1.77990543E-13
  -10.3199997      -1.82483260E-13
  -10.3100004      -1.86981358E-13
  -10.3000002      -1.91480349E-13
  -10.2900000      -1.95975492E-13
  -10.2799997      -2.00461812E-13
  -10.2700005      -2.04934323E-13
  -10.2600002      -2.09387669E-13
  -10.2500000      -2.13816418E-13
  -10.2399998      -2.18214850E-13
  -10.2299995      -2.22577165E-13
  -10.2200003      -2.26897209E-13
  -10.2100000      -2.31168817E-13
  -10.1999998      -2.35385523E-13
  -10.1899996      -2.39540646E-13
  -10.1800003      -2.43627330E-13
  -10.1700001      -2.47638580E-13
  -10.1599998      -2.51567105E-13
  -10.1499996      -2.55405560E-13
  -10.1400003      -2.59146193E-13
  -10.1300001      -2.62781198E-13
  -10.1199999      -2.66302524E-13
  -10.1099997      -2.69701931E-13
  -10.1000004      -2.72971045E-13
  -10.0900002      -2.76101163E-13
  -10.0799999      -2.79083533E-13
  -10.0699997      -2.81909072E-13
  -10.0600004      -2.84568538E-13
  -10.0500002      -2.87052690E-13
  -10.0400000      -2.89351822E-13
  -10.0299997      -2.91456285E-13
  -10.0200005      -2.93356051E-13
  -10.0100002      -2.95041037E-13
  -10.0000000      -2.96500915E-13
  -9.98999977      -2.97725278E-13
  -9.97999954      -2.98703526E-13
  -9.97000027      -2.99424873E-13
  -9.96000004      -2.99878368E-13
  -9.94999981      -3.00052897E-13
  -9.93999958      -2.99937267E-13
  -9.93000031      -2.99520147E-13
  -9.92000008      -2.98790045E-13
  -9.90999985      -2.97735279E-13
  -9.89999962      -2.96344112E-13
  -9.89000034      -2.94604700E-13
  -9.88000011      -2.92505169E-13
  -9.86999989      -2.90033378E-13
  -9.85999966      -2.87177183E-13
  -9.85000038      -2.83924414E-13
  -9.84000015      -2.80262711E-13
  -9.82999992      -2.76179849E-13
  -9.81999969      -2.71663253E-13
  -9.81000042      -2.66700697E-13
  -9.80000019      -2.61279551E-13
  -9.78999996      -2.55387400E-13
  -9.77999973      -2.49011722E-13
  -9.77000046      -2.42139994E-13
  -9.76000023      -2.34759830E-13
  -9.75000000      -2.26858679E-13
  -9.73999977      -2.18424237E-13
  -9.72999954      -2.09444048E-13
  -9.72000027      -1.99905942E-13
  -9.71000004      -1.89797586E-13
  -9.69999981      -1.79106946E-13
  -9.68999958      -1.67822028E-13
  -9.68000031      -1.55930946E-13
  -9.67000008      -1.43421977E-13
  -9.65999985      -1.30283561E-13
  -9.64999962      -1.16504313E-13
  -9.64000034      -1.02073013E-13
  -9.63000011      -8.69786624E-14
  -9.61999989      -7.12104936E-14
  -9.60999966      -5.47580237E-14
  -9.60000038      -3.76109632E-14
  -9.59000015      -1.97593085E-14
  -9.57999992      -1.19338027E-15
  -9.56999969       1.80961677E-14
  -9.56000042       3.81183969E-14
  -9.55000019       5.88819358E-14
  -9.53999996       8.03951090E-14
  -9.52999973       1.02665801E-13
  -9.52000046       1.25701505E-13
  -9.51000023       1.49509203E-13
  -9.50000000       1.74095547E-13
  -9.48999977       1.99466542E-13
  -9.47999954       2.25627866E-13
  -9.47000027       2.52584493E-13
  -9.46000004       2.80341044E-13
  -9.44999981       3.08901369E-13
  -9.43999958       3.38268828E-13
  -9.43000031       3.68446213E-13
  -9.42000008       3.99435584E-13
  -9.40999985       4.31238324E-13
  -9.39999962       4.63855245E-13
  -9.39000034       4.97286294E-13
  -9.38000011       5.31530820E-13
  -9.36999989       5.66587359E-13
  -9.35999966       6.02453742E-13
  -9.35000038       6.39126718E-13
  -9.34000015       6.76602654E-13
  -9.32999992       7.14876726E-13
  -9.31999969       7.53943240E-13
  -9.31000042       7.93795856E-13
  -9.30000019       8.34427037E-13
  -9.28999996       8.75828490E-13
  -9.27999973       9.17990944E-13
  -9.27000046       9.60903666E-13
  -9.26000023       1.00455571E-12
  -9.25000000       1.04893481E-12
  -9.23999977       1.09402710E-12
  -9.22999954       1.13981817E-12
  -9.22000027       1.18629249E-12
  -9.21000004       1.23343317E-12
  -9.19999981       1.28122242E-12
  -9.18999958       1.32964104E-12
  -9.18000031       1.37866888E-12
  -9.17000008       1.42828414E-12
  -9.15999985       1.47846416E-12
  -9.14999962       1.52918531E-12
  -9.14000034       1.58042199E-12
  -9.13000011       1.63214776E-12
  -9.11999989       1.68433485E-12
  -9.10999966       1.73695357E-12
  -9.10000038       1.78997409E-12
  -9.09000015       1.84336400E-12
  -9.07999992       1.89709034E-12
  -9.06999969       1.95111830E-12
  -9.06000042       2.00541190E-12
  -9.05000019       2.05993339E-12
  -9.03999996       2.11464418E-12
  -9.02999973       2.16950394E-12
  -9.02000046       2.22447082E-12
  -9.01000023       2.27950146E-12
  -9.00000000       2.33455096E-12
  -8.98999977       2.38957357E-12
  -8.97999954       2.44452115E-12
  -8.97000027       2.49934492E-12
  -8.96000004       2.55399369E-12
  -8.94999981       2.60841544E-12
  -8.93999958       2.66255702E-12
  -8.93000031       2.71636273E-12
  -8.92000008       2.76977573E-12
  -8.90999985       2.82273792E-12
  -8.89999962       2.87519054E-12
  -8.89000034       2.92707091E-12
  -8.88000011       2.97831746E-12
  -8.86999989       3.02886557E-12
  -8.85999966       3.07864997E-12
  -8.85000038       3.12760278E-12
  -8.84000015       3.17565657E-12
  -8.82999992       3.22274087E-12
  -8.81999969       3.26878390E-12
  -8.81000042       3.31371367E-12
  -8.80000019       3.35745537E-12
  -8.78999996       3.39993355E-12
  -8.77999973       3.44107121E-12
  -8.77000046       3.48079009E-12
  -8.76000023       3.51901082E-12
  -8.75000000       3.55565295E-12
  -8.73999977       3.59063387E-12
  -8.72999954       3.62387008E-12
  -8.72000027       3.65527747E-12
  -8.71000004       3.68477080E-12
  -8.69999981       3.71226270E-12
  -8.68999958       3.73766599E-12
  -8.68000031       3.76089004E-12
  -8.67000008       3.78184766E-12
  -8.65999985       3.80044650E-12
  -8.64999962       3.81659504E-12
  -8.64000034       3.83020091E-12
  -8.63000011       3.84117044E-12
  -8.61999989       3.84940951E-12
  -8.60999966       3.85482358E-12
  -8.60000038       3.85731681E-12
  -8.59000015       3.85679336E-12
  -8.57999992       3.85315694E-12
  -8.56999969       3.84630999E-12
  -8.56000042       3.83615448E-12
  -8.55000019       3.82259415E-12
  -8.53999996       3.80552924E-12
  -8.52999973       3.78486261E-12
  -8.52000046       3.76049495E-12
  -8.51000023       3.73232912E-12
  -8.50000000       3.70026579E-12
  -8.48999977       3.66420609E-12
  -8.47999954       3.62405353E-12
  -8.47000027       3.57970814E-12
  -8.46000004       3.53107409E-12
  -8.44999981       3.47805422E-12
  -8.43999958       3.42055139E-12
  -8.43000031       3.35847040E-12
  -8.42000008       3.29171542E-12
  -8.40999985       3.22019299E-12
  -8.39999962       3.14380856E-12
  -8.39000034       3.06247150E-12
  -8.38000011       2.97608834E-12
  -8.36999989       2.88457084E-12
  -8.35999966       2.78782943E-12
  -8.35000038       2.68577738E-12
  -8.34000015       2.57832861E-12
  -8.32999992       2.46539941E-12
  -8.31999969       2.34690739E-12
  -8.31000042       2.22277210E-12
  -8.30000019       2.09291525E-12
  -8.28999996       1.95726096E-12
  -8.27999973       1.81573474E-12
  -8.27000046       1.66826568E-12
  -8.26000023       1.51478374E-12
  -8.25000000       1.35522323E-12
  -8.23999977       1.18952005E-12
  -8.22999954       1.01761319E-12
  -8.22000027       8.39444996E-13
  -8.21000004       6.54960461E-13
  -8.19999981       4.64108244E-13
  -8.18999958       2.66840152E-13
  -8.18000031       6.31113881E-14
  -8.17000008      -1.47118564E-13
  -8.15999985      -3.63887523E-13
  -8.14999962      -5.87228562E-13
  -8.14000034      -8.17170604E-13
  -8.13000011      -1.05373891E-12
  -8.11999989      -1.29695408E-12
  -8.10999966      -1.54683287E-12
  -8.10000038      -1.80338611E-12
  -8.09000015      -2.06662140E-12
  -8.07999992      -2.33654047E-12
  -8.06999969      -2.61314017E-12
  -8.06000042      -2.89641271E-12
  -8.05000019      -3.18634507E-12
  -8.03999996      -3.48291730E-12
  -8.02999973      -3.78610684E-12
  -8.02000046      -4.09588292E-12
  -8.01000023      -4.41220845E-12
  -8.00000000      -4.73504439E-12
  -7.98999977      -5.06434131E-12
  -7.98000002      -5.40004499E-12
  -7.96999979      -5.74209603E-12
  -7.96000004      -6.09042677E-12
  -7.94999981      -6.44496435E-12
  -7.94000006      -6.80562854E-12
  -7.92999983      -7.17233261E-12
  -7.92000008      -7.54498200E-12
  -7.90999985      -7.92347785E-12
  -7.90000010      -8.30771042E-12
  -7.88999987      -8.69756177E-12
  -7.88000011      -9.09291479E-12
  -7.86999989      -9.49363418E-12
  -7.86000013      -9.89958462E-12
  -7.84999990      -1.03106204E-11
  -7.84000015      -1.07265863E-11
  -7.82999992      -1.11473226E-11
  -7.82000017      -1.15726586E-11
  -7.80999994      -1.20024190E-11
  -7.80000019      -1.24364147E-11
  -7.78999996      -1.28744541E-11
  -7.78000021      -1.33163324E-11
  -7.76999998      -1.37618441E-11
  -7.76000023      -1.42107636E-11
  -7.75000000      -1.46628664E-11
  -7.73999977      -1.51179139E-11
  -7.73000002      -1.55756658E-11
  -7.71999979      -1.60358636E-11
  -7.71000004      -1.64982455E-11
  -7.69999981      -1.69625425E-11
  -7.69000006      -1.74284719E-11
  -7.67999983      -1.78957439E-11
  -7.67000008      -1.83640655E-11
  -7.65999985      -1.88331226E-11
  -7.65000010      -1.93026047E-11
  -7.63999987      -1.97721839E-11
  -7.63000011      -2.02415289E-11
  -7.61999989      -2.07102963E-11
  -7.61000013      -2.11781322E-11
  -7.59999990      -2.16446808E-11
  -7.59000015      -2.21095676E-11
  -7.57999992      -2.25724196E-11
  -7.57000017      -2.30328447E-11
  -7.55999994      -2.34904526E-11
  -7.55000019      -2.39448357E-11
  -7.53999996      -2.43955810E-11
  -7.53000021      -2.48422706E-11
  -7.51999998      -2.52844672E-11
  -7.51000023      -2.57217407E-11
  -7.50000000      -2.61536418E-11
  -7.48999977      -2.65797107E-11
  -7.48000002      -2.69994912E-11
  -7.46999979      -2.74125098E-11
  -7.46000004      -2.78182911E-11
  -7.44999981      -2.82163425E-11
  -7.44000006      -2.86061799E-11