  -16.0000000       0.00000000    
  -15.9899998       0.00000000    
  -15.9799995       0.00000000    
  -15.9700003       0.00000000    
  -15.9600000       0.00000000    
  -15.9499998       0.00000000    
  -15.9399996       0.00000000    
  -15.9300003       0.00000000    
  -15.9200001       0.00000000    
  -15.9099998       0.00000000    
  -15.8999996       0.00000000    
  -15.8900003       0.00000000    
  -15.8800001       0.00000000    
  -15.8699999       0.00000000    
  -15.8599997       0.00000000    
  -15.8500004       0.00000000    
  -15.8400002       0.00000000    
  -15.8299999       0.00000000    
  -15.8199997       0.00000000    
  -15.8100004       0.00000000    
  -15.8000002       0.00000000    
  -15.7900000       0.00000000    
  -15.7799997       0.00000000    
  -15.7700005       0.00000000    
  -15.7600002       0.00000000    
  -15.7500000       0.00000000    
  -15.7399998       0.00000000    
  -15.7299995       0.00000000    
  -15.7200003       0.00000000    
  -15.7100000       0.00000000    
  -15.6999998       0.00000000    
  -15.6899996       0.00000000    
  -15.6800003       0.00000000    
  -15.6700001       0.00000000    
  -15.6599998       0.00000000    
  -15.6499996       0.00000000    
  -15.6400003       0.00000000    
  -15.6300001       0.00000000    
  -15.6199999       0.00000000    
  -15.6099997       0.00000000    
  -15.6000004       0.00000000    
  -15.5900002       0.00000000    
  -15.5799999       0.00000000    
  -15.5699997       0.00000000    
  -15.5600004       0.00000000    
  -15.5500002       0.00000000    
  -15.5400000       0.00000000    
  -15.5299997       0.00000000    
  -15.5200005       0.00000000    
  -15.5100002       0.00000000    
  -15.5000000       0.00000000    
  -15.4899998       0.00000000    
  -15.4799995       0.00000000    
  -15.4700003       0.00000000    
  -15.4600000       0.00000000    
  -15.4499998       0.00000000    
  -15.4399996       0.00000000    
  -15.4300003       0.00000000    
  -15.4200001       0.00000000    
  -15.4099998       0.00000000    
  -15.3999996       0.00000000    
  -15.3900003       0.00000000    
  -15.3800001       0.00000000    
  -15.3699999       0.00000000    
  -15.3599997       0.00000000    
  -15.3500004       0.00000000    
  -15.3400002       0.00000000    
  -15.3299999       1.40129846E-45
  -15.3199997       1.40129846E-45
  -15.3100004       1.40129846E-45
  -15.3000002       1.40129846E-45
  -15.2900000       1.40129846E-45
  -15.2799997       2.80259693E-45
  -15.2700005       2.80259693E-45
  -15.2600002       1.40129846E-45
  -15.2500000       1.40129846E-45
  -15.2399998       2.80259693E-45
  -15.2299995       2.80259693E-45
  -15.2200003       5.60519386E-45
  -15.2100000       7.00649232E-45
  -15.1999998       8.40779079E-45
  -15.1899996       5.60519386E-45
  -15.1800003       0.00000000    
  -15.1700001      -4.20389539E-45
  -15.1599998      -1.12103877E-44
  -15.1499996      -1.54142831E-44
  -15.1400003      -2.38220739E-44
  -15.1300001      -2.66246708E-44
  -15.1199999      -2.52233724E-44
  -15.1099997      -1.54142831E-44
  -15.1000004       8.40779079E-45
  -15.0900002       3.36311631E-44
  -15.0799999       5.60519386E-44
  -15.0699997       7.42688186E-44
  -15.0600004       6.16571324E-44
  -15.0500002      -1.40129846E-45
  -15.0400000      -1.12103877E-43
  -15.0299997      -2.52233724E-43
  -15.0200005      -3.90962272E-43
  -15.0100002      -4.55422001E-43
  -15.0000000      -3.54528511E-43
  -14.9899998      -7.00649232E-45
  -14.9799995       6.43195995E-43
  -14.9700003       1.54282961E-42
  -14.9600000       2.49150867E-42
  -14.9499998       3.13050077E-42
  -14.9399996       2.96094366E-42
  -14.9300003       1.47836988E-42
  -14.9200001      -1.61709843E-42
  -14.9099998      -6.20775220E-42
  -14.8999996      -1.14934500E-41
  -14.8900003      -1.58683038E-41
  -14.8800001      -1.70355854E-41
  -14.8699999      -1.24687537E-41
  -14.8599997      -2.52233724E-43
  -14.8500004       1.98521953E-41
  -14.8400002       4.52829599E-41
  -14.8299999       6.99416090E-41
  -14.8199997       8.43609701E-41
  -14.8100004       7.72367688E-41
  -14.8000002       3.84376169E-41
  -14.7900000      -3.66593691E-41
  -14.7799997      -1.42460206E-40
  -14.7700005      -2.59420983E-40
  -14.7600002      -3.53284158E-40
  -14.7500000      -3.79047031E-40
  -14.7399998      -2.90761024E-40
  -14.7299995      -5.67231605E-41
  -14.7200003       3.22342087E-40
  -14.7100000       7.96778307E-40
  -14.6999998       1.25966643E-39
  -14.6899996       1.55338699E-39
  -14.6800003       1.49614255E-39
  -14.6700001       9.29297701E-40
  -14.6599998      -2.20205646E-40
  -14.6499996      -1.87548665E-39
  -14.6400003      -3.76306371E-39
  -14.6300001      -5.40706146E-39
  -14.6199999      -6.18444160E-39
  -14.6099997      -5.45088287E-39
  -14.6000004      -2.72933985E-39
  -14.5900002       2.06968280E-39
  -14.5799999       8.45020529E-39
  -14.5699997       1.52244226E-38
  -14.5600004       2.05683303E-38
  -14.5500002       2.22894513E-38
  -14.5400000       1.83133286E-38
  -14.5299997       7.33400100E-39
  -14.5200005      -1.04960604E-38
  -14.5100002      -3.30209930E-38
  -14.5000000      -5.58930874E-38
  -14.4899998      -7.29305505E-38
  -14.4799995      -7.71257411E-38
  -14.4700003      -6.22627904E-38
  -14.4600000      -2.49191813E-38
  -14.4499998       3.35610730E-38
  -14.4399996       1.05670942E-37
  -14.4300003       1.77499921E-37
  -14.4200001       2.30113947E-37
  -14.4099998       2.42740565E-37
  -14.3999996       1.97525619E-37
  -14.3900003       8.51354286E-38
  -14.3800001      -8.99692973E-38
  -14.3699999      -3.06050176E-37
  -14.3599997      -5.23851508E-37
  -14.3500004      -6.90668310E-37
  -14.3400002      -7.49021786E-37
  -14.3299999      -6.49173284E-37
  -14.3199997      -3.63528166E-37
  -14.3100004       1.00035177E-37
  -14.3000002       6.89440638E-37
  -14.2900000       1.30768168E-36
  -14.2799997       1.82245659E-36
  -14.2700005       2.08671646E-36
  -14.2600002       1.96823773E-36
  -14.2500000       1.38373932E-36
  -14.2399998       3.30908830E-37
  -14.2299995      -1.08943059E-36
  -14.2200003      -2.66841002E-36
  -14.2100000      -4.10666349E-36
  -14.1999998      -5.05573634E-36
  -14.1899996      -5.17979892E-36
  -14.1800003      -4.22884810E-36
  -14.1700001      -2.11032177E-36
  -14.1599998       1.05638084E-36
  -14.1499996       4.91739621E-36
  -14.1400003       8.90501256E-36
  -14.1300001       1.23056580E-35
  -14.1199999       1.43705060E-35
  -14.1099997       1.44545369E-35
  -14.1000004       1.21616657E-35
  -14.0900002       7.46875705E-36
  -14.0799999       8.01353759E-37
  -14.0699997      -6.96102299E-36
  -14.0600004      -1.45615109E-35
  -14.0500002      -2.05223721E-35
  -14.0400000      -2.33639403E-35
  -14.0299997      -2.18552367E-35
  -14.0200005      -1.52562780E-35
  -14.0100002      -3.50947411E-36
  -14.0000000       1.26575516E-35
  -13.9899998       3.17436912E-35
  -13.9799995       5.16094883E-35
  -13.9700003       6.97246139E-35
  -13.9600000       8.34986928E-35
  -13.9499998       9.06523335E-35
  -13.9399996       8.95775655E-35
  -13.9300003       7.96376932E-35
  -13.9200001       6.13643523E-35
  -13.9099998       3.65234475E-35
  -13.8999996       8.03722954E-36
  -13.8900003      -2.02330717E-35
  -13.8800001      -4.38264673E-35
  -13.8699999      -5.81155109E-35
  -13.8599997      -5.88002593E-35
  -13.8500004      -4.24262658E-35
  -13.8400002      -6.88796355E-36
  -13.8299999       4.81239553E-35
  -13.8199997       1.20775467E-34
  -13.8100004       2.06893572E-34
  -13.8000002       2.99974105E-34
  -13.7900000       3.91442971E-34
  -13.7799997       4.71211007E-34
  -13.7700005       5.28535642E-34
  -13.7600002       5.53167254E-34
  -13.7500000       5.36706843E-34
  -13.7399998       4.74049642E-34
  -13.7299995       3.64736152E-34
  -13.7200003       2.13998815E-34
  -13.7100000       3.32791433E-35
  -13.6999998      -1.59979960E-34
  -13.6899996      -3.43404672E-34
  -13.6800003      -4.91658961E-34
  -13.6700001      -5.79222913E-34
  -13.6599998      -5.83758163E-34
  -13.6499996      -4.89709477E-34
  -13.6400003      -2.91701724E-34
  -13.6300001       2.76032928E-36
  -13.6199999       3.71756815E-34
  -13.6099997       7.78970719E-34
  -13.6000004       1.17548912E-33
  -13.5900002       1.50343395E-33
  -13.5799999       1.70123383E-33
  -13.5699997       1.71012130E-33
  -13.5600004       1.48124906E-33
  -13.5500002       9.82672502E-34
  -13.5400000       2.05355465E-34
  -13.5299997      -8.32608985E-34
  -13.5200005      -2.08430816E-33
  -13.5100002      -3.47535933E-33
  -13.5000000      -4.90859588E-33
  -13.4899998      -6.27203819E-33
  -13.4799995      -7.44974761E-33
  -13.4700003      -8.33478098E-33
  -13.4600000      -8.84313527E-33
  -13.4499998      -8.92729185E-33
  -13.4399996      -8.58775104E-33
  -13.4300003      -7.88095861E-33
  -13.4200001      -6.92213432E-33
  -13.4099998      -5.88178692E-33
  -13.3999996      -4.97537902E-33
  -13.3900003      -4.44614942E-33
  -13.3800001      -4.54205985E-33
  -13.3699999      -5.48869573E-33
  -13.3599997      -7.46077522E-33
  -13.3500004      -1.05555962E-32
  -13.3400002      -1.47720452E-32
  -13.3299999      -1.99988735E-32
  -13.3199997      -2.60151447E-32
  -13.3100004      -3.25049667E-32
  -13.3000002      -3.90868358E-32
  -13.2900000      -4.53563437E-32
  -13.2799997      -5.09387840E-32
  -13.2700005      -5.55462987E-32
  -13.2600002      -5.90328972E-32
  -13.2500000      -6.14390695E-32
  -13.2399998      -6.30183109E-32
  -13.2299995      -6.42381332E-32
  -13.2200003      -6.57499893E-32
  -13.2100000      -6.83255092E-32
  -13.1999998      -7.27600499E-32
  -13.1899996      -7.97481816E-32
  -13.1800003      -8.97417350E-32
  -13.1700001      -1.02802905E-31
  -13.1599998      -1.18471987E-31
  -13.1499996      -1.35669057E-31
  -13.1400003      -1.52653152E-31
  -13.1300001      -1.67060728E-31
  -13.1199999      -1.76044644E-31
  -13.1099997      -1.76528653E-31
  -13.1000004      -1.65588668E-31
  -13.0900002      -1.40961944E-31
  -13.0799999      -1.01676523E-31
  -13.0699997      -4.87740612E-32
  -13.0600004       1.38968338E-32
  -13.0500002       7.88733200E-32
  -13.0400000       1.34311738E-31
  -13.0299997       1.63327276E-31
  -13.0200005       1.43515999E-31
  -13.0100002       4.67284777E-32
  -13.0000000      -1.60826553E-31
  -12.9899998      -5.18097489E-31
  -12.9799995      -1.06829914E-30
  -12.9700003      -1.85757880E-30
  -12.9600000      -2.93329475E-30
  -12.9499998      -4.34194436E-30
  -12.9399996      -6.12686125E-30
  -12.9300003      -8.32580944E-30
  -12.9200001      -1.09686420E-29
  -12.9099998      -1.40752001E-29
  -12.8999996      -1.76536201E-29
  -12.8900003      -2.16991924E-29
  -12.8800001      -2.61937005E-29
  -12.8699999      -3.11053003E-29
  -12.8599997      -3.63880810E-29
  -12.8500004      -4.19815232E-29
  -12.8400002      -4.78074794E-29
  -12.8299999      -5.37640075E-29
  -12.8199997      -5.97130126E-29
  -12.8100004      -6.54577968E-29
  -12.8000002      -7.07076290E-29
  -12.7900000      -7.50209056E-29
  -12.7799997      -7.77205418E-29
  -12.7700005      -7.77743836E-29
  -12.7600002      -7.36223976E-29
  -12.7500000      -6.29447290E-29
  -12.7399998      -4.23442872E-29
  -12.7299995      -6.93034531E-30
  -12.7200003       5.02215272E-29
  -12.7100000       1.38767863E-28
  -12.6999998       2.71990540E-28
  -12.6899996       4.67885469E-28
  -12.6800003       7.50556759E-28
  -12.6700001       1.15192354E-27
  -12.6599998       1.71372867E-27
  -12.6499996       2.49010454E-27
  -12.6400003       3.55052465E-27
  -12.6300001       4.98335875E-27
  -12.6199999       6.90013552E-27
  -12.6099997       9.44039475E-27
  -12.6000004       1.27775321E-26
  -12.5900002       1.71255278E-26
  -12.5799999       2.27465900E-26
  -12.5699997       2.99600435E-26
  -12.5600004       3.91525965E-26
  -12.5500002       5.07894535E-26
  -12.5400000       6.54276859E-26
  -12.5299997       8.37306641E-26
  -12.5200005       1.06484328E-25
  -12.5100002       1.34615490E-25
  -12.5000000       1.69211552E-25
  -12.4899998       2.11543751E-25
  -12.4799995       2.63090092E-25
  -12.4700003       3.25563389E-25
  -12.4600000       4.00939911E-25
  -12.4499998       4.91491011E-25
  -12.4399996       5.99816651E-25
  -12.4300003       7.28883416E-25
  -12.4200001       8.82062356E-25
  -12.4099998       1.06317210E-24
  -12.3999996       1.27652160E-24
  -12.3900003       1.52695970E-24
  -12.3800001       1.81992242E-24
  -12.3699999       2.16148480E-24
  -12.3599997       2.55841712E-24
  -12.3500004       3.01823704E-24
  -12.3400002       3.54926981E-24
  -12.3299999       4.16070524E-24
  -12.3199997       4.86266405E-24
  -12.3100004       5.66624589E-24
  -12.3000002       6.58360790E-24
  -12.2900000       7.62800333E-24
  -12.2799997       8.81386401E-24
  -12.2700005       1.01568437E-23
  -12.2600002       1.16738800E-23
  -12.2500000       1.33832461E-23
  -12.2399998       1.53046052E-23
  -12.2299995       1.74590522E-23
  -12.2200003       1.98691595E-23
  -12.2100000       2.25589985E-23
  -12.1999998       2.55541740E-23
  -12.1899996       2.88818417E-23
  -12.1800003       3.25707320E-23
  -12.1700001       3.66511340E-23
  -12.1599998       4.11548640E-23
  -12.1499996       4.61152750E-23
  -12.1400003       5.15671937E-23
  -12.1300001       5.75468477E-23
  -12.1199999       6.40918688E-23
  -12.1099997       7.12411070E-23
  -12.1000004       7.90345668E-23
  -12.0900002       8.75132943E-23
  -12.0799999       9.67192064E-23
  -12.0699997       1.06694939E-22
  -12.0600004       1.17483527E-22
  -12.0500002       1.29128389E-22
  -12.0400000       1.41672931E-22
  -12.0299997       1.55160319E-22
  -12.0200005       1.69633178E-22
  -12.0100002       1.85133285E-22
  -12.0000000       2.01701106E-22
  -11.9899998       2.19375528E-22
  -11.9799995       2.38193433E-22
  -11.9700003       2.58189176E-22
  -11.9600000       2.79394287E-22
  -11.9499998       3.01836610E-22
  -11.9399996       3.25540176E-22
  -11.9300003       3.50524525E-22
  -11.9200001       3.76803993E-22
  -11.9099998       4.04387114E-22
  -11.8999996       4.33276286E-22
  -11.8900003       4.63466813E-22
  -11.8800001       4.94946276E-22
  -11.8699999       5.27694076E-22
  -11.8599997       5.61680324E-22
  -11.8500004       5.96865691E-22
  -11.8400002       6.33200246E-22
  -11.8299999       6.70622949E-22
  -11.8199997       7.09060746E-22
  -11.8100004       7.48428060E-22
  -11.8000002       7.88626090E-22
  -11.7900000       8.29541945E-22
  -11.7799997       8.71048145E-22
  -11.7700005       9.13002015E-22
  -11.7600002       9.55244772E-22
  -11.7500000       9.97601326E-22
  -11.7399998       1.03987922E-21
  -11.7299995       1.08186934E-21
  -11.7200003       1.12334338E-21
  -11.7100000       1.16405547E-21
  -11.6999998       1.20374146E-21
  -11.6899996       1.24211781E-21
  -11.6800003       1.27888131E-21
  -11.6700001       1.31371114E-21
  -11.6599998       1.34626613E-21
  -11.6499996       1.37618630E-21
  -11.6400003       1.40309330E-21
  -11.6300001       1.42659070E-21
  -11.6199999       1.44626270E-21
  -11.6099997       1.46167722E-21
  -11.6000004       1.47238482E-21
  -11.5900002       1.47792013E-21
  -11.5799999       1.47780279E-21
  -11.5699997       1.47153825E-21
  -11.5600004       1.45861901E-21
  -11.5500002       1.43852605E-21
  -11.5400000       1.41073038E-21
  -11.5299997       1.37469441E-21
  -11.5200005       1.32987307E-21
  -11.5100002       1.27571698E-21
  -11.5000000       1.21167298E-21
  -11.4899998       1.13718755E-21
  -11.4799995       1.05170744E-21
  -11.4700003       9.54682951E-22
  -11.4600000       8.45569831E-22
  -11.4499998       7.23831756E-22
  -11.4399996       5.88942953E-22
  -11.4300003       4.40389868E-22
  -11.4200001       2.77674772E-22
  -11.4099998       1.00317037E-22
  -11.3999996      -9.21433461E-23
  -11.3900003      -3.00144081E-22
  -11.3800001      -5.24098486E-22
  -11.3699999      -7.64392939E-22
  -11.3599997      -1.02138388E-21
  -11.3500004      -1.29539867E-21
  -11.3400002      -1.58673043E-21
  -11.3299999      -1.89564088E-21
  -11.3199997      -2.22235481E-21
  -11.3100004      -2.56706375E-21
  -11.3000002      -2.92992200E-21
  -11.2900000      -3.31104910E-21
  -11.2799997      -3.71053149E-21
  -11.2700005      -4.12841805E-21
  -11.2600002      -4.56473159E-21
  -11.2500000      -5.01946282E-21
  -11.2399998      -5.49257620E-21
  -11.2299995      -5.98401842E-21
  -11.2200003      -6.49371678E-21
  -11.2100000      -7.02159210E-21
  -11.1999998      -7.56755796E-21
  -11.1899996      -8.13153681E-21
  -11.1800003      -8.71346726E-21
  -11.1700001      -9.31330972E-21
  -11.1599998      -9.93106339E-21
  -11.1499996      -1.05667840E-20
  -11.1400003      -1.12205911E-20
  -11.1300001      -1.18926794E-20
  -11.1199999      -1.25833655E-20
  -11.1099997      -1.32930719E-20
  -11.1000004      -1.40223738E-20
  -11.0900002      -1.47720159E-20
  -11.0799999      -1.55429402E-20
  -11.0699997      -1.63363098E-20
  -11.0600004      -1.71535465E-20
  -11.0500002      -1.79963660E-20
  -11.0400000      -1.88668039E-20
  -11.0299997      -1.97672660E-20
  -11.0200005      -2.07005583E-20
  -11.0100002      -2.16699445E-20
  -11.0000000      -2.26791727E-20
  -10.9899998      -2.37325630E-20
  -10.9799995      -2.48349993E-20
  -10.9700003      -2.59920666E-20
  -10.9600000      -2.72100222E-20
  -10.9499998      -2.84959359E-20
  -10.9399996      -2.98576917E-20
  -10.9300003      -3.13041204E-20
  -10.9200001      -3.28450028E-20
  -10.9099998      -3.44912214E-20
  -10.8999996      -3.62547640E-20
  -10.8900003      -3.81488687E-20
  -10.8800001      -4.01880692E-20
  -10.8699999      -4.23883309E-20
  -10.8599997      -4.47670697E-20
  -10.8500004      -4.73433366E-20
  -10.8400002      -5.01378823E-20
  -10.8299999      -5.31731925E-20
  -10.8199997      -5.64737530E-20
  -10.8100004      -6.00660045E-20
  -10.8000002      -6.39785365E-20
  -10.7900000      -6.82422067E-20
  -10.7799997      -7.28902379E-20
  -10.7700005      -7.79583283E-20
  -10.7600002      -8.34848641E-20
  -10.7500000      -8.95109137E-20
  -10.7399998      -9.60804920E-20
  -10.7299995      -1.03240606E-19
  -10.7200003      -1.11041436E-19
  -10.7100000      -1.19536465E-19
  -10.6999998      -1.28782625E-19
  -10.6899996      -1.38840443E-19
  -10.6800003      -1.49774078E-19
  -10.6700001      -1.61651694E-19
  -10.6599998      -1.74545410E-19
  -10.6499996      -1.88531548E-19
  -10.6400003      -2.03690718E-19
  -10.6300001      -2.20107953E-19
  -10.6199999      -2.37872949E-19
  -10.6099997      -2.57080057E-19
  -10.6000004      -2.77828771E-19
  -10.5900002      -3.00223135E-19
  -10.5799999      -3.24372828E-19
  -10.5699997      -3.50392544E-19
  -10.5600004      -3.78402586E-19
  -10.5500002      -4.08528607E-19
  -10.5400000      -4.40901949E-19
  -10.5299997      -4.75660078E-19
  -10.5200005      -5.12945865E-19
  -10.5100002      -5.52908304E-19
  -10.5000000      -5.95702804E-19
  -10.4899998      -6.41490559E-19
  -10.4799995      -6.90439127E-19
  -10.4700003      -7.42722473E-19
  -10.4600000      -7.98520769E-19
  -10.4499998      -8.58020646E-19
  -10.4399996      -9.21415303E-19
  -10.4300003      -9.88903935E-19
  -10.4200001      -1.06069256E-18
  -10.4099998      -1.13699367E-18
  -10.3999996      -1.21802635E-18
  -10.3900003      -1.30401498E-18
  -10.3800001      -1.39519179E-18
  -10.3699999      -1.49179439E-18
  -10.3599997      -1.59406617E-18
  -10.3500004      -1.70225695E-18
  -10.3400002      -1.81662221E-18
  -10.3299999      -1.93742367E-18
  -10.3199997      -2.06492715E-18
  -10.3100004      -2.19940604E-18
  -10.3000002      -2.34113620E-18
  -10.2900000      -2.49039970E-18
  -10.2799997      -2.64748295E-18
  -10.2700005      -2.81267526E-18
  -10.2600002      -2.98627194E-18
  -10.2500000      -3.16856931E-18
  -10.2399998      -3.35986785E-18
  -10.2299995      -3.56047073E-18
  -10.2200003      -3.77068256E-18
  -10.2100000      -3.99080814E-18
  -10.1999998      -4.22115643E-18
  -10.1899996      -4.46203474E-18
  -10.1800003      -4.71374745E-18
  -10.1700001      -4.97660312E-18
  -10.1599998      -5.25090448E-18
  -10.1499996      -5.53695263E-18
  -10.1400003      -5.83504619E-18
  -10.1300001      -6.14548004E-18
  -10.1199999      -6.46854164E-18
  -10.1099997      -6.80451469E-18
  -10.1000004      -7.15367466E-18
  -10.0900002      -7.51628913E-18
  -10.0799999      -7.89261743E-18
  -10.0699997      -8.28290689E-18
  -10.0600004      -8.68739490E-18
  -10.0500002      -9.10630729E-18
  -10.0400000      -9.53985415E-18
  -10.0299997      -9.98822906E-18
  -10.0200005      -1.04516123E-17
  -10.0100002      -1.09301644E-17
  -10.0000000      -1.14240285E-17
  -9.98999977      -1.19333219E-17
  -9.97999954      -1.24581432E-17
  -9.97000027      -1.29985693E-17
  -9.96000004      -1.35546464E-17
  -9.94999981      -1.41263920E-17
  -9.93999958      -1.47138044E-17
  -9.93000031      -1.53168438E-17
  -9.92000008      -1.59354327E-17
  -9.90999985      -1.65694699E-17
  -9.89999962      -1.72188100E-17
  -9.89000034      -1.78832710E-17
  -9.88000011      -1.85626294E-17
  -9.86999989      -1.92566257E-17
  -9.85999966      -1.99649454E-17
  -9.85000038      -2.06872329E-17
  -9.84000015      -2.14230895E-17
  -9.82999992      -2.21720535E-17
  -9.81999969      -2.29336172E-17
  -9.81000042      -2.37072164E-17
  -9.80000019      -2.44922306E-17
  -9.78999996      -2.52879718E-17
  -9.77999973      -2.60937019E-17
  -9.77000046      -2.69086138E-17
  -9.76000023      -2.77318256E-17
  -9.75000000      -2.85624010E-17
  -9.73999977      -2.93993059E-17
  -9.72999954      -3.02414750E-17
  -9.72000027      -3.10877238E-17
  -9.71000004      -3.19368181E-17
  -9.69999981      -3.27874179E-17
  -9.68999958      -3.36381334E-17
  -9.68000031      -3.44874560E-17
  -9.67000008      -3.53338173E-17
  -9.65999985      -3.61755331E-17
  -9.64999962      -3.70108399E-17
  -9.64000034      -3.78378849E-17
  -9.63000011      -3.86547125E-17
  -9.61999989      -3.94592714E-17
  -9.60999966      -4.02493976E-17
  -9.60000038      -4.10228512E-17
  -9.59000015      -4.17772565E-17
  -9.57999992      -4.25101716E-17
  -9.56999969      -4.32189992E-17
  -9.56000042      -4.39010658E-17
  -9.55000019      -4.45535724E-17
  -9.53999996      -4.51736170E-17
  -9.52999973      -4.57581823E-17
  -9.52000046      -4.63041215E-17
  -9.51000023      -4.68082020E-17
  -9.50000000      -4.72670358E-17
  -9.48999977      -4.76771486E-17
  -9.47999954      -4.80349208E-17
  -9.47000027      -4.83366432E-17
  -9.46000004      -4.85784579E-17
  -9.44999981      -4.87564208E-17
  -9.43999958      -4.88664226E-17
  -9.43000031      -4.89042744E-17
  -9.42000008      -4.88656550E-17
  -9.40999985      -4.87461141E-17
  -9.39999962      -4.85410958E-17
  -9.39000034      -4.82459213E-17
  -9.38000011      -4.78557998E-17
  -9.36999989      -4.73658210E-17
  -9.35999966      -4.67709458E-17
  -9.35000038      -4.60660821E-17
  -9.34000015      -4.52459490E-17
  -9.32999992      -4.43052131E-17
  -9.31999969      -4.32384148E-17
  -9.31000042      -4.20400120E-17
  -9.30000019      -4.07043403E-17
  -9.28999996      -3.92256557E-17
  -9.27999973      -3.75981315E-17
  -9.27000046      -3.58158253E-17
  -9.26000023      -3.38727417E-17
  -9.25000000      -3.17628058E-17
  -9.23999977      -2.94798568E-17
  -9.22999954      -2.70176710E-17
  -9.22000027      -2.43699651E-17
  -9.21000004      -2.15304145E-17
  -9.19999981      -1.84926218E-17
  -9.18999958      -1.52501665E-17
  -9.18000031      -1.17965890E-17
  -9.17000008      -8.12540426E-18
  -9.15999985      -4.23010818E-18
  -9.14999962      -1.04186836E-19
  -9.14000034       4.25887049E-18
  -9.13000011       8.86557953E-18
  -9.11999989       1.37224160E-17
  -9.10999966       1.88358538E-17
  -9.10000038       2.42122945E-17
  -9.09000015       2.98581397E-17
  -9.07999992       3.57796742E-17
  -9.06999969       4.19831616E-17
  -9.06000042       4.84747360E-17
  -9.05000019       5.52604626E-17
  -9.03999996       6.23463101E-17
  -9.02999973       6.97380754E-17
  -9.02000046       7.74414695E-17
  -9.01000023       8.54620179E-17
  -9.00000000       9.38051071E-17
  -8.98999977       1.02475892E-16
  -8.97999954       1.11479422E-16
  -8.97000027       1.20820449E-16
  -8.96000004       1.30503518E-16
  -8.94999981       1.40532983E-16
  -8.93999958       1.50912856E-16
  -8.93000031       1.61646921E-16
  -8.92000008       1.72738632E-16
  -8.90999985       1.84191179E-16
  -8.89999962       1.96007342E-16
  -8.89000034       2.08189634E-16
  -8.88000011       2.20740134E-16
  -8.86999989       2.33660550E-16
  -8.85999966       2.46952165E-16
  -8.85000038       2.60615891E-16
  -8.84000015       2.74652127E-16
  -8.82999992       2.89060793E-16
  -8.81999969       3.03841333E-16
  -8.81000042       3.18992661E-16
  -8.80000019       3.34513216E-16
  -8.78999996       3.50400828E-16
  -8.77999973       3.66652796E-16
  -8.77000046       3.83265680E-16
  -8.76000023       4.00235614E-16
  -8.75000000       4.17557888E-16
  -8.73999977       4.35227339E-16
  -8.72999954       4.53237801E-16
  -8.72000027       4.71582841E-16
  -8.71000004       4.90254941E-16
  -8.69999981       5.09245737E-16
  -8.68999958       5.28546494E-16
  -8.68000031       5.48147419E-16
  -8.67000008       5.68037817E-16
  -8.65999985       5.88206360E-16
  -8.64999962       6.08640712E-16
  -8.64000034       6.29327692E-16
  -8.63000011       6.50253006E-16
  -8.61999989       6.71401883E-16
  -8.60999966       6.92758072E-16
  -8.60000038       7.14304790E-16
  -8.59000015       7.36024039E-16
  -8.57999992       7.57896864E-16
  -8.56999969       7.79902939E-16
  -8.56000042       8.02021246E-16
  -8.55000019       8.24229973E-16
  -8.53999996       8.46505563E-16
  -8.52999973       8.68823770E-16
  -8.52000046       8.91158917E-16
  -8.51000023       9.13484694E-16
  -8.50000000       9.35773095E-16
  -8.48999977       9.57995004E-16
  -8.47999954       9.80120564E-16
  -8.47000027       1.00211833E-15
  -8.46000004       1.02395579E-15
  -8.44999981       1.04559886E-15
  -8.43999958       1.06701280E-15
  -8.43000031       1.08816142E-15
  -8.42000008       1.10900711E-15
  -8.40999985       1.12951092E-15
  -8.39999962       1.14963293E-15
  -8.39000034       1.16933184E-15
  -8.38000011       1.18856542E-15
  -8.36999989       1.20728951E-15
  -8.35999966       1.22545900E-15
  -8.35000038       1.24302752E-15
  -8.34000015       1.25994753E-15
  -8.32999992       1.27617033E-15
  -8.31999969       1.29164541E-15
  -8.31000042       1.30632163E-15
  -8.30000019       1.32014638E-15
  -8.28999996       1.33306575E-15
  -8.27999973       1.34502458E-15
  -8.27000046       1.35596676E-15
  -8.26000023       1.36583470E-15
  -8.25000000       1.37457004E-15
  -8.23999977       1.38211277E-15
  -8.22999954       1.38840230E-15
  -8.22000027       1.39337661E-15
  -8.21000004       1.39697279E-15
  -8.19999981       1.39912669E-15
  -8.18999958       1.39977330E-15
  -8.18000031       1.39884664E-15
  -8.17000008       1.39627982E-15
  -8.15999985       1.39200495E-15
  -8.14999962       1.38595332E-15
  -8.14000034       1.37805548E-15
  -8.13000011       1.36824165E-15
  -8.11999989       1.35644015E-15
  -8.10999966       1.34257973E-15
  -8.10000038       1.32658859E-15
  -8.09000015       1.30839348E-15
  -8.07999992       1.28792133E-15
  -8.06999969       1.26509834E-15
  -8.06000042       1.23985072E-15
  -8.05000019       1.21210425E-15
  -8.03999996       1.18178397E-15
  -8.02999973       1.14881586E-15
  -8.02000046       1.11312464E-15
  -8.01000023       1.07463578E-15
  -8.00000000       1.03327485E-15
  -7.98999977       9.88966870E-16
  -7.98000002       9.41638163E-16
  -7.96999979       8.91214821E-16
  -7.96000004       8.37623205E-16
  -7.94999981       7.80790630E-16
  -7.94000006       7.20644991E-16
  -7.92999983       6.57114555E-16
  -7.92000008       5.90128913E-16
  -7.90999985       5.19618450E-16
  -7.90000010       4.45514343E-16
  -7.88999987       3.67749439E-16
  -7.88000011       2.86257511E-16
  -7.86999989       2.00973880E-16
  -7.86000013       1.11835401E-16
  -7.84999990       1.87806726E-17
  -7.84000015      -7.82501014E-17
  -7.82999992      -1.79314559E-16
  -7.82000017      -2.84468657E-16
  -7.80999994      -3.93765977E-16
  -7.80000019      -5.07257486E-16
  -7.78999996      -6.24992101E-16
  -7.78000021      -7.47016144E-16
  -7.76999998      -8.73372813E-16
  -7.76000023      -1.00410271E-15
  -7.75000000      -1.13924333E-15
  -7.73999977      -1.27882906E-15
  -7.73000002      -1.42289084E-15
  -7.71999979      -1.57145639E-15
  -7.71000004      -1.72454934E-15
  -7.69999981      -1.88218979E-15
  -7.69000006      -2.04439385E-15
  -7.67999983      -2.21117337E-15
  -7.67000008      -2.38253660E-15
  -7.65999985      -2.55848589E-15
  -7.65000010      -2.73902080E-15
  -7.63999987      -2.92413413E-15
  -7.63000011      -3.11381636E-15
  -7.61999989      -3.30804969E-15
  -7.61000013      -3.50681402E-15
  -7.59999990      -3.71008181E-15
  -7.59000015      -3.91782257E-15
  -7.57999992      -4.12999458E-15
  -7.57000017      -4.34655677E-15
  -7.55999994      -4.56745830E-15
  -7.55000019      -4.79264159E-15
  -7.53999996      -5.02204564E-15
  -7.53000021      -5.25560015E-15
  -7.51999998      -5.49322932E-15
  -7.51000023      -5.73484885E-15
  -7.50000000      -5.98037109E-15
  -7.48999977      -6.22969736E-15
  -7.48000002      -6.48272389E-15
  -7.46999979      -6.73933760E-15
  -7.46000004      -6.99941907E-15
  -7.44999981      -7.26284081E-15
  -7.44000006      -7.52946730E-15