  -16.0000000       0.00000000    
  -15.9899998       0.00000000    
  -15.9799995       0.00000000    
  -15.9700003       0.00000000    
  -15.9600000       0.00000000    
  -15.9499998       0.00000000    
  -15.9399996       0.00000000    
  -15.9300003       0.00000000    
  -15.9200001       0.00000000    
  -15.9099998       0.00000000    
  -15.8999996       0.00000000    
  -15.8900003       0.00000000    
  -15.8800001      -0.00000000    
  -15.8699999      -1.40129846E-45
  -15.8599997      -0.00000000    
  -15.8500004      -1.68155816E-44
  -15.8400002      -1.33123354E-43
  -15.8299999      -6.97846635E-43
  -15.8199997      -3.03941637E-42
  -15.8100004      -1.15340877E-41
  -15.8000002      -3.91186479E-41
  -15.7900000      -1.20381347E-40
  -15.7799997      -3.39690162E-40
  -15.7700005      -8.86273635E-40
  -15.7600002      -2.15282464E-39
  -15.7500000      -4.89702946E-39
  -15.7399998      -1.04844689E-38
  -15.7299995      -2.12253123E-38
  -15.7200003      -4.08110774E-38
  -15.7100000      -7.48668480E-38
  -15.6999998      -1.31689501E-37
  -15.6899996      -2.23391548E-37
  -15.6800003      -3.67964341E-37
  -15.6700001      -5.93243673E-37
  -15.6599998      -9.44357770E-37
  -15.6499996      -1.49679769E-36
  -15.6400003      -2.37736917E-36
  -15.6300001      -3.79444504E-36
  -15.6199999      -6.07630421E-36
  -15.6099997      -9.71128588E-36
  -15.6000004      -1.53756082E-35
  -15.5900002      -2.39244941E-35
  -15.5799999      -3.63111697E-35
  -15.5699997      -5.33899547E-35
  -15.5600004      -7.55581136E-35
  -15.5500002      -1.02202736E-34
  -15.5400000      -1.30948222E-34
  -15.5299997      -1.56750048E-34
  -15.5200005      -1.70949526E-34
  -15.5100002      -1.60485870E-34
  -15.5000000      -1.07538057E-34
  -15.4899998       1.00777318E-35
  -15.4799995       2.17430203E-34
  -15.4700003       5.39660089E-34
  -15.4600000       9.97739677E-34
  -15.4499998       1.60296361E-33
  -15.4399996       2.35064377E-33
  -15.4300003       3.21382066E-33
  -15.4200001       4.13810048E-33
  -15.4099998       5.03890090E-33
  -15.3999996       5.80237934E-33
  -15.3900003       6.29104446E-33
  -15.3800001       6.35454761E-33
  -15.3699999       5.84536460E-33
  -15.3599997       4.63819141E-33
  -15.3500004       2.65090360E-33
  -15.3400002      -1.35801671E-34
  -15.3299999      -3.66359712E-33
  -15.3199997      -7.78999812E-33
  -15.3100004      -1.22932207E-32
  -15.3000002      -1.68905196E-32
  -15.2900000      -2.12706584E-32
  -15.2799997      -2.51392926E-32
  -15.2700005      -2.82743361E-32
  -15.2600002      -3.05863748E-32
  -15.2500000      -3.21780588E-32
  -15.2399998      -3.33952009E-32
  -15.2299995      -3.48626204E-32
  -15.2200003      -3.74981963E-32
  -15.2100000      -4.25001981E-32
  -15.1999998      -5.13055853E-32
  -15.1899996      -6.55185051E-32
  -15.1800003      -8.68135198E-32
  -15.1700001      -1.16818454E-31
  -15.1599998      -1.56987282E-31
  -15.1499996      -2.08472371E-31
  -15.1400003      -2.72011532E-31
  -15.1300001      -3.47840486E-31
  -15.1199999      -4.35644319E-31
  -15.1099997      -5.34559771E-31
  -15.1000004      -6.43232719E-31
  -15.0900002      -7.59938807E-31
  -15.0799999      -8.82763344E-31
  -15.0699997      -1.00983626E-30
  -15.0600004      -1.13960933E-30
  -15.0500002      -1.27115975E-30
  -15.0400000      -1.40449814E-30
  -15.0299997      -1.54085520E-30
  -15.0200005      -1.68291633E-30
  -15.0100002      -1.83498599E-30
  -15.0000000      -2.00303880E-30
  -14.9899998      -2.19465341E-30
  -14.9799995      -2.41879874E-30
  -14.9700003      -2.68548117E-30
  -14.9600000      -3.00525005E-30
  -14.9499998      -3.38859625E-30
  -14.9399996      -3.84525041E-30
  -14.9300003      -4.38346320E-30
  -14.9200001      -5.00928398E-30
  -14.9099998      -5.72594094E-30
  -14.8999996      -6.53333516E-30
  -14.8900003      -7.42776110E-30
  -14.8800001      -8.40186035E-30
  -14.8699999      -9.44487706E-30
  -14.8599997      -1.05432048E-29
  -14.8500004      -1.16812669E-29
  -14.8400002      -1.28426726E-29
  -14.8299999      -1.40116083E-29
  -14.8199997      -1.51744261E-29
  -14.8100004      -1.63212753E-29
  -14.8000002      -1.74477773E-29
  -14.7900000      -1.85564539E-29
  -14.7799997      -1.96579669E-29
  -14.7700005      -2.07718812E-29
  -14.7600002      -2.19269035E-29
  -14.7500000      -2.31604451E-29
  -14.7399998      -2.45174237E-29
  -14.7299995      -2.60482386E-29
  -14.7200003      -2.78058453E-29
  -14.7100000      -2.98419745E-29
  -14.6999998      -3.22025207E-29
  -14.6899996      -3.49220692E-29
  -14.6800003      -3.80177638E-29
  -14.6700001      -4.14825148E-29
  -14.6599998      -4.52776199E-29
  -14.6499996      -4.93248925E-29
  -14.6400003      -5.34983496E-29
  -14.6300001      -5.76153318E-29
  -14.6199999      -6.14271624E-29
  -14.6099997      -6.46088950E-29
  -14.6000004      -6.67483925E-29
  -14.5900002      -6.73340678E-29
  -14.5799999      -6.57411131E-29
  -14.5699997      -6.12160504E-29
  -14.5600004      -5.28590432E-29
  -14.5500002      -3.96037762E-29
  -14.5400000      -2.01942677E-29
  -14.5299997       6.84035247E-30
  -14.5200005       4.32156592E-29
  -14.5100002       9.09236642E-29
  -14.5000000       1.52266934E-28
  -14.4899998       2.29896187E-28
  -14.4799995       3.26848849E-28
  -14.4700003       4.46588632E-28
  -14.4600000       5.93043952E-28
  -14.4499998       7.70644882E-28
  -14.4399996       9.84355313E-28
  -14.4300003       1.23969896E-27
  -14.4200001       1.54277167E-27
  -14.4099998       1.90025383E-27
  -14.3999996       2.31938645E-27
  -14.3900003       2.80794153E-27
  -14.3800001       3.37416917E-27
  -14.3699999       4.02669542E-27
  -14.3599997       4.77439266E-27
  -14.3500004       5.62623147E-27
  -14.3400002       6.59103147E-27
  -14.3299999       7.67718509E-27
  -14.3199997       8.89232131E-27
  -14.3100004       1.02428674E-26
  -14.3000002       1.17335325E-26
  -14.2900000       1.33666903E-26
  -14.2799997       1.51416905E-26
  -14.2700005       1.70539694E-26
  -14.2600002       1.90940808E-26
  -14.2500000       2.12465495E-26
  -14.2399998       2.34885815E-26
  -14.2299995       2.57885825E-26
  -14.2200003       2.81043931E-26
  -14.2100000       3.03815295E-26
  -14.1999998       3.25508600E-26
  -14.1899996       3.45263557E-26
  -14.1800003       3.62023985E-26
  -14.1700001       3.74507370E-26
  -14.1599998       3.81172474E-26
  -14.1499996       3.80184611E-26
  -14.1400003       3.69374258E-26
  -14.1300001       3.46196385E-26
  -14.1199999       3.07682100E-26
  -14.1099997       2.50389104E-26
  -14.1000004       1.70347363E-26
  -14.0900002       6.29997454E-27
  -14.0799999      -7.68592033E-27
  -14.0699997      -2.55150635E-26
  -14.0600004      -4.78580310E-26
  -14.0500002      -7.54714445E-26
  -14.0400000      -1.09206107E-25
  -14.0299997      -1.50014609E-25
  -14.0200005      -1.98960211E-25
  -14.0100002      -2.57225897E-25
  -14.0000000      -3.26123924E-25
  -13.9899998      -4.07103281E-25
  -13.9799995      -5.01762522E-25
  -13.9700003      -6.11856493E-25
  -13.9600000      -7.39307917E-25
  -13.9499998      -8.86218667E-25
  -13.9399996      -1.05487683E-24
  -13.9300003      -1.24776535E-24
  -13.9200001      -1.46757780E-24
  -13.9099998      -1.71722141E-24
  -13.8999996      -1.99983339E-24
  -13.8900003      -2.31878189E-24
  -13.8800001      -2.67766784E-24
  -13.8699999      -3.08034682E-24
  -13.8599997      -3.53092918E-24
  -13.8500004      -4.03378817E-24
  -13.8400002      -4.59354652E-24
  -13.8299999      -5.21510975E-24
  -13.8199997      -5.90363188E-24
  -13.8100004      -6.66455094E-24
  -13.8000002      -7.50355027E-24
  -13.7900000      -8.42656801E-24
  -13.7799997      -9.43981567E-24
  -13.7700005      -1.05497398E-23
  -13.7600002      -1.17629889E-23
  -13.7500000      -1.30864633E-23
  -13.7399998      -1.45272680E-23
  -13.7299995      -1.60926520E-23
  -13.7200003      -1.77900772E-23
  -13.7100000      -1.96270707E-23
  -13.6999998      -2.16112736E-23
  -13.6899996      -2.37504278E-23
  -13.6800003      -2.60522702E-23
  -13.6700001      -2.85245635E-23
  -13.6599998      -3.11749815E-23
  -13.6499996      -3.40111163E-23
  -13.6400003      -3.70404211E-23
  -13.6300001      -4.02700744E-23
  -13.6199999      -4.37070372E-23
  -13.6099997      -4.73578760E-23
  -13.6000004      -5.12288323E-23
  -13.5900002      -5.53256173E-23
  -13.5799999      -5.96534092E-23
  -13.5699997      -6.42168118E-23
  -13.5600004      -6.90195611E-23
  -13.5500002      -7.40647557E-23
  -13.5400000      -7.93545414E-23
  -13.5299997      -8.48900351E-23
  -13.5200005      -9.06712749E-23
  -13.5100002      -9.66973707E-23
  -13.5000000      -1.02965925E-22
  -13.4899998      -1.09473270E-22
  -13.4799995      -1.16214206E-22
  -13.4700003      -1.23181905E-22
  -13.4600000      -1.30368062E-22
  -13.4499998      -1.37762705E-22
  -13.4399996      -1.45353403E-22
  -13.4300003      -1.53126472E-22
  -13.4200001      -1.61065505E-22
  -13.4099998      -1.69152629E-22
  -13.3999996      -1.77367511E-22
  -13.3900003      -1.85687040E-22
  -13.3800001      -1.94086415E-22
  -13.3699999      -2.02537715E-22
  -13.3599997      -2.11011015E-22
  -13.3500004      -2.19473524E-22
  -13.3400002      -2.27889925E-22
  -13.3299999      -2.36222164E-22
  -13.3199997      -2.44429145E-22
  -13.3100004      -2.52467246E-22
  -13.3000002      -2.60290575E-22
  -13.2900000      -2.67849554E-22
  -13.2799997      -2.75092837E-22
  -13.2700005      -2.81965570E-22
  -13.2600002      -2.88410803E-22
  -13.2500000      -2.94369240E-22
  -13.2399998      -2.99777999E-22
  -13.2299995      -3.04571774E-22
  -13.2200003      -3.08683973E-22
  -13.2100000      -3.12044495E-22
  -13.1999998      -3.14582457E-22
  -13.1899996      -3.16224095E-22
  -13.1800003      -3.16894463E-22
  -13.1700001      -3.16516693E-22
  -13.1599998      -3.15011218E-22
  -13.1499996      -3.12298799E-22
  -13.1400003      -3.08299236E-22
  -13.1300001      -3.02930943E-22
  -13.1199999      -2.96111853E-22
  -13.1099997      -2.87759848E-22
  -13.1000004      -2.77792079E-22
  -13.0900002      -2.66126758E-22
  -13.0799999      -2.52682170E-22
  -13.0699997      -2.37377334E-22
  -13.0600004      -2.20133062E-22
  -13.0500002      -2.00870555E-22
  -13.0400000      -1.79513162E-22
  -13.0299997      -1.55986137E-22
  -13.0200005      -1.30216235E-22
  -13.0100002      -1.02133866E-22
  -13.0000000      -7.16704934E-23
  -12.9899998      -3.87618197E-23
  -12.9799995      -3.34479548E-24
  -12.9700003       3.46393683E-23
  -12.9600000       7.52467786E-23
  -12.9499998       1.18529885E-22
  -12.9399996       1.64538576E-22
  -12.9300003       2.13320257E-22
  -12.9200001       2.64918627E-22
  -12.9099998       3.19375020E-22
  -12.8999996       3.76728666E-22
  -12.8900003       4.37015966E-22
  -12.8800001       5.00272160E-22
  -12.8699999       5.66533548E-22
  -12.8599997       6.35834410E-22
  -12.8500004       7.08210997E-22
  -12.8400002       7.83700669E-22
  -12.8299999       8.62343665E-22
  -12.8199997       9.44185573E-22
  -12.8100004       1.02927703E-21
  -12.8000002       1.11767530E-21
  -12.7900000       1.20944832E-21
  -12.7799997       1.30467476E-21
  -12.7700005       1.40344812E-21
  -12.7600002       1.50587554E-21
  -12.7500000       1.61208808E-21
  -12.7399998       1.72223588E-21
  -12.7299995       1.83649202E-21
  -12.7200003       1.95506056E-21
  -12.7100000       2.07818022E-21
  -12.6999998       2.20612725E-21
  -12.6899996       2.33921406E-21
  -12.6800003       2.47780256E-21
  -12.6700001       2.62230794E-21
  -12.6599998       2.77320722E-21
  -12.6499996       2.93103069E-21
  -12.6400003       3.09638179E-21
  -12.6300001       3.26994008E-21
  -12.6199999       3.45247497E-21
  -12.6099997       3.64484414E-21
  -12.6000004       3.84799897E-21
  -12.5900002       4.06301060E-21
  -12.5799999       4.29105920E-21
  -12.5699997       4.53345099E-21
  -12.5600004       4.79162828E-21
  -12.5500002       5.06718121E-21
  -12.5400000       5.36186309E-21
  -12.5299997       5.67758476E-21
  -12.5200005       6.01645416E-21
  -12.5100002       6.38076502E-21
  -12.5000000       6.77302675E-21
  -12.4899998       7.19596323E-21
  -12.4799995       7.65253057E-21
  -12.4700003       8.14593896E-21
  -12.4600000       8.67967645E-21
  -12.4499998       9.25749118E-21
  -12.4399996       9.88344880E-21
  -12.4300003       1.05619348E-20
  -12.4200001       1.12976344E-20
  -12.4099998       1.20956068E-20
  -12.3999996       1.29613071E-20
  -12.3900003       1.39005262E-20
  -12.3800001       1.49195126E-20
  -12.3699999       1.60248973E-20
  -12.3599997       1.72238116E-20
  -12.3500004       1.85238584E-20
  -12.3400002       1.99330607E-20
  -12.3299999       2.14600248E-20
  -12.3199997       2.31139046E-20
  -12.3100004       2.49044049E-20
  -12.3000002       2.68417750E-20
  -12.2900000       2.89369104E-20
  -12.2799997       3.12013464E-20
  -12.2700005       3.36472322E-20
  -12.2600002       3.62875217E-20
  -12.2500000       3.91357016E-20
  -12.2399998       4.22060410E-20
  -12.2299995       4.55136487E-20
  -12.2200003       4.90743704E-20
  -12.2100000       5.29048564E-20
  -12.1999998       5.70225744E-20
  -12.1899996       6.14458452E-20
  -12.1800003       6.61938942E-20
  -12.1700001       7.12870133E-20
  -12.1599998       7.67461210E-20
  -12.1499996       8.25934349E-20
  -12.1400003       8.88519028E-20
  -12.1300001       9.55452544E-20
  -12.1199999       1.02698816E-19
  -12.1099997       1.10338656E-19
  -12.1000004       1.18491955E-19
  -12.0900002       1.27186722E-19
  -12.0799999       1.36452580E-19
  -12.0699997       1.46320043E-19
  -12.0600004       1.56820623E-19
  -12.0500002       1.67987070E-19
  -12.0400000       1.79853506E-19
  -12.0299997       1.92454866E-19
  -12.0200005       2.05827688E-19
  -12.0100002       2.20009338E-19
  -12.0000000       2.35038977E-19
  -11.9899998       2.50956000E-19
  -11.9799995       2.67802334E-19
  -11.9700003       2.85620011E-19
  -11.9600000       3.04452949E-19
  -11.9499998       3.24345893E-19
  -11.9399996       3.45344804E-19
  -11.9300003       3.67496778E-19
  -11.9200001       3.90851008E-19
  -11.9099998       4.15456555E-19
  -11.8999996       4.41364912E-19
  -11.8900003       4.68628164E-19
  -11.8800001       4.97299537E-19
  -11.8699999       5.27432279E-19
  -11.8599997       5.59082019E-19
  -11.8500004       5.92305004E-19
  -11.8400002       6.27159138E-19
  -11.8299999       6.63701082E-19
  -11.8199997       7.01991273E-19
  -11.8100004       7.42089163E-19
  -11.8000002       7.84054724E-19
  -11.7900000       8.27948960E-19
  -11.7799997       8.73834840E-19
  -11.7700005       9.21773265E-19
  -11.7600002       9.71828549E-19
  -11.7500000       1.02406490E-18
  -11.7399998       1.07854250E-18
  -11.7299995       1.13532855E-18
  -11.7200003       1.19448448E-18
  -11.7100000       1.25607438E-18
  -11.6999998       1.32016351E-18
  -11.6899996       1.38681276E-18
  -11.6800003       1.45608779E-18
  -11.6700001       1.52804640E-18
  -11.6599998       1.60275436E-18
  -11.6499996       1.68027038E-18
  -11.6400003       1.76065207E-18
  -11.6300001       1.84396157E-18
  -11.6199999       1.93025367E-18
  -11.6099997       2.01958111E-18
  -11.6000004       2.11199973E-18
  -11.5900002       2.20756535E-18
  -11.5799999       2.30632079E-18
  -11.5699997       2.40831361E-18
  -11.5600004       2.51359116E-18
  -11.5500002       2.62219563E-18
  -11.5400000       2.73416073E-18
  -11.5299997       2.84952616E-18
  -11.5200005       2.96831447E-18
  -11.5100002       3.09055956E-18
  -11.5000000       3.21628171E-18
  -11.4899998       3.34550097E-18
  -11.4799995       3.47822830E-18
  -11.4700003       3.61447157E-18
  -11.4600000       3.75423242E-18
  -11.4499998       3.89751705E-18
  -11.4399996       4.04430894E-18
  -11.4300003       4.19458946E-18
  -11.4200001       4.34833132E-18
  -11.4099998       4.50551383E-18
  -11.3999996       4.66609606E-18
  -11.3900003       4.83003457E-18
  -11.3800001       4.99726857E-18
  -11.3699999       5.16774181E-18
  -11.3599997       5.34137033E-18
  -11.3500004       5.51808671E-18
  -11.3400002       5.69779004E-18
  -11.3299999       5.88038272E-18
  -11.3199997       6.06575720E-18
  -11.3100004       6.25377288E-18
  -11.3000002       6.44431021E-18
  -11.2900000       6.63720252E-18
  -11.2799997       6.83230341E-18
  -11.2700005       7.02942138E-18
  -11.2600002       7.22837569E-18
  -11.2500000       7.42896864E-18
  -11.2399998       7.63098269E-18
  -11.2299995       7.83418126E-18
  -11.2200003       8.03831206E-18
  -11.2100000       8.24311785E-18
  -11.1999998       8.44830579E-18
  -11.1899996       8.65359216E-18
  -11.1800003       8.85864279E-18
  -11.1700001       9.06312515E-18
  -11.1599998       9.26670174E-18
  -11.1499996       9.46900779E-18
  -11.1400003       9.66963052E-18
  -11.1300001       9.86816296E-18
  -11.1199999       1.00641924E-17
  -11.1099997       1.02572274E-17
  -11.1000004       1.04468163E-17
  -11.0900002       1.06324547E-17
  -11.0799999       1.08136337E-17
  -11.0699997       1.09898058E-17
  -11.0600004       1.11604110E-17
  -11.0500002       1.13248843E-17
  -11.0400000       1.14825813E-17
  -11.0299997       1.16328676E-17
  -11.0200005       1.17750906E-17
  -11.0100002       1.19085305E-17
  -11.0000000       1.20325274E-17
  -10.9899998       1.21463251E-17
  -10.9799995       1.22491602E-17
  -10.9700003       1.23401988E-17
  -10.9600000       1.24186553E-17
  -10.9499998       1.24837122E-17
  -10.9399996       1.25344804E-17
  -10.9300003       1.25700517E-17
  -10.9200001       1.25895202E-17
  -10.9099998       1.25919124E-17
  -10.8999996       1.25762456E-17
  -10.8900003       1.25415321E-17
  -10.8800001       1.24867364E-17
  -10.8699999       1.24108045E-17
  -10.8599997       1.23126124E-17
  -10.8500004       1.21910689E-17
  -10.8400002       1.20450261E-17
  -10.8299999       1.18733240E-17
  -10.8199997       1.16747411E-17
  -10.8100004       1.14480804E-17
  -10.8000002       1.11920763E-17
  -10.7900000       1.09054632E-17
  -10.7799997       1.05869507E-17
  -10.7700005       1.02351979E-17
  -10.7600002       9.84886815E-18
  -10.7500000       9.42659824E-18
  -10.7399998       8.96697368E-18
  -10.7299995       8.46860811E-18
  -10.7200003       7.93006307E-18
  -10.7100000       7.34984633E-18
  -10.6999998       6.72651156E-18
  -10.6899996       6.05855784E-18
  -10.6800003       5.34446895E-18
  -10.6700001       4.58275885E-18
  -10.6599998       3.77185219E-18
  -10.6499996       2.91021578E-18
  -10.6400003       1.99628295E-18
  -10.6300001       1.02847274E-18
  -10.6199999       5.20648924E-21
  -10.6099997      -1.07510794E-18
  -10.6000004      -2.21405127E-18
  -10.5900002      -3.41323817E-18
  -10.5799999      -4.67425123E-18
  -10.5699997      -5.99869312E-18
  -10.5600004      -7.38815389E-18
  -10.5500002      -8.84422007E-18
  -10.5400000      -1.03684749E-17
  -10.5299997      -1.19624991E-17
  -10.5200005      -1.36278420E-17
  -10.5100002      -1.53660512E-17
  -10.5000000      -1.71786587E-17
  -10.4899998      -1.90671732E-17
  -10.4799995      -2.10330440E-17
  -10.4700003      -2.30777634E-17
  -10.4600000      -2.52027474E-17
  -10.4499998      -2.74093906E-17
  -10.4399996      -2.96990464E-17
  -10.4300003      -3.20730481E-17
  -10.4200001      -3.45326829E-17
  -10.4099998      -3.70791849E-17
  -10.3999996      -3.97136857E-17
  -10.3900003      -4.24373400E-17
  -10.3800001      -4.52512297E-17
  -10.3699999      -4.81563377E-17
  -10.3599997      -5.11536200E-17
  -10.3500004      -5.42439535E-17
  -10.3400002      -5.74280993E-17
  -10.3299999      -6.07068844E-17
  -10.3199997      -6.40808350E-17
  -10.3100004      -6.75505996E-17
  -10.3000002      -7.11165024E-17
  -10.2900000      -7.47789141E-17
  -10.2799997      -7.85382448E-17
  -10.2700005      -8.23945542E-17
  -10.2600002      -8.63479151E-17
  -10.2500000      -9.03982612E-17
  -10.2399998      -9.45453610E-17
  -10.2299995      -9.87888902E-17
  -10.2200003      -1.03128366E-16
  -10.2100000      -1.07563192E-16
  -10.1999998      -1.12092833E-16
  -10.1899996      -1.16716362E-16
  -10.1800003      -1.21432443E-16
  -10.1700001      -1.26240123E-16
  -10.1599998      -1.31138011E-16
  -10.1499996      -1.36124640E-16
  -10.1400003      -1.41197997E-16
  -10.1300001      -1.46356692E-16
  -10.1199999      -1.51598172E-16
  -10.1099997      -1.56920636E-16
  -10.1000004      -1.62321159E-16
  -10.0900002      -1.67797531E-16
  -10.0799999      -1.73346365E-16
  -10.0699997      -1.78964986E-16
  -10.0600004      -1.84650112E-16
  -10.0500002      -1.90397866E-16
  -10.0400000      -1.96204819E-16
  -10.0299997      -2.02067028E-16
  -10.0200005      -2.07979821E-16
  -10.0100002      -2.13938711E-16
  -10.0000000      -2.19939159E-16
  -9.98999977      -2.25976347E-16
  -9.97999954      -2.32044782E-16
  -9.97000027      -2.38139131E-16
  -9.96000004      -2.44253279E-16
  -9.94999981      -2.50381139E-16
  -9.93999958      -2.56516199E-16
  -9.93000031      -2.62652132E-16
  -9.92000008      -2.68781792E-16
  -9.90999985      -2.74898058E-16
  -9.89999962      -2.80993836E-16
  -9.89000034      -2.87060207E-16
  -9.88000011      -2.93089573E-16
  -9.86999989      -2.99073358E-16
  -9.85999966      -3.05002906E-16
  -9.85000038      -3.10868847E-16
  -9.84000015      -3.16662076E-16
  -9.82999992      -3.22372455E-16
  -9.81999969      -3.27989739E-16
  -9.81000042      -3.33504506E-16
  -9.80000019      -3.38904658E-16
  -9.78999996      -3.44179741E-16
  -9.77999973      -3.49318981E-16
  -9.77000046      -3.54310255E-16
  -9.76000023      -3.59140884E-16
  -9.75000000      -3.63798374E-16
  -9.73999977      -3.68270311E-16
  -9.72999954      -3.72544148E-16
  -9.72000027      -3.76605460E-16
  -9.71000004      -3.80440401E-16
  -9.69999981      -3.84036083E-16
  -9.68999958      -3.87377548E-16
  -9.68000031      -3.90449472E-16
  -9.67000008      -3.93237322E-16
  -9.65999985      -3.95725561E-16
  -9.64999962      -3.97897618E-16
  -9.64000034      -3.99739465E-16
  -9.63000011      -4.01233234E-16
  -9.61999989      -4.02362911E-16
  -9.60999966      -4.03111238E-16
  -9.60000038      -4.03461116E-16
  -9.59000015      -4.03395656E-16
  -9.57999992      -4.02895986E-16
  -9.56999969      -4.01945218E-16
  -9.56000042      -4.00524373E-16
  -9.55000019      -3.98613758E-16
  -9.53999996      -3.96196564E-16
  -9.52999973      -3.93252622E-16
  -9.52000046      -3.89763719E-16
  -9.51000023      -3.85709079E-16
  -9.50000000      -3.81069826E-16
  -9.48999977      -3.75826586E-16
  -9.47999954      -3.69958845E-16
  -9.47000027      -3.63446062E-16
  -9.46000004      -3.56268516E-16
  -9.44999981      -3.48406330E-16
  -9.43999958      -3.39838989E-16
  -9.43000031      -3.30545105E-16
  -9.42000008      -3.20504879E-16
  -9.40999985      -3.09696686E-16
  -9.39999962      -2.98100752E-16
  -9.39000034      -2.85696722E-16
  -9.38000011      -2.72462944E-16
  -9.36999989      -2.58378877E-16
  -9.35999966      -2.43424802E-16
  -9.35000038      -2.27579992E-16
  -9.34000015      -2.10823033E-16
  -9.32999992      -1.93134934E-16
  -9.31999969      -1.74494822E-16
  -9.31000042      -1.54883429E-16
  -9.30000019      -1.34280649E-16
  -9.28999996      -1.12667757E-16
  -9.27999973      -9.00250439E-17
  -9.27000046      -6.63336250E-17
  -9.26000023      -4.15746832E-17
  -9.25000000      -1.57305979E-17
  -9.23999977       1.12167627E-17
  -9.22999954       3.92844848E-17
  -9.22000027       6.84896349E-17
  -9.21000004       9.88486391E-17
  -9.19999981       1.30377376E-16
  -9.18999958       1.63090966E-16
  -9.18000031       1.97004246E-16
  -9.17000008       2.32131550E-16
  -9.15999985       2.68486098E-16
  -9.14999962       3.06080385E-16
  -9.14000034       3.44926507E-16
  -9.13000011       3.85035661E-16
  -9.11999989       4.26417985E-16
  -9.10999966       4.69082982E-16
  -9.10000038       5.13039333E-16
  -9.09000015       5.58294662E-16
  -9.07999992       6.04855640E-16
  -9.06999969       6.52727666E-16
  -9.06000042       7.01915028E-16
  -9.05000019       7.52421538E-16
  -9.03999996       8.04249737E-16
  -9.02999973       8.57399731E-16
  -9.02000046       9.11870990E-16
  -9.01000023       9.67663356E-16
  -9.00000000       1.02477244E-15
  -8.98999977       1.08319452E-15
  -8.97999954       1.14292337E-15
  -8.97000027       1.20395389E-15
  -8.96000004       1.26627529E-15
  -8.94999981       1.32987730E-15
  -8.93999958       1.39474923E-15
  -8.93000031       1.46087783E-15
  -8.92000008       1.52824660E-15
  -8.90999985       1.59683911E-15
  -8.89999962       1.66663463E-15
  -8.89000034       1.73761525E-15
  -8.88000011       1.80975492E-15
  -8.86999989       1.88303302E-15
  -8.85999966       1.95742157E-15
  -8.85000038       2.03289093E-15
  -8.84000015       2.10941210E-15
  -8.82999992       2.18695564E-15
  -8.81999969       2.26548025E-15
  -8.81000042       2.34495333E-15
  -8.80000019       2.42533167E-15
  -8.78999996       2.50657844E-15
  -8.77999973       2.58864767E-15
  -8.77000046       2.67149088E-15
  -8.76000023       2.75506212E-15
  -8.75000000       2.83931013E-15
  -8.73999977       2.92418177E-15
  -8.72999954       3.00961775E-15
  -8.72000027       3.09556619E-15
  -8.71000004       3.18196164E-15
  -8.69999981       3.26874250E-15
  -8.68999958       3.35584141E-15
  -8.68000031       3.44318808E-15
  -8.67000008       3.53071412E-15
  -8.65999985       3.61834222E-15
  -8.64999962       3.70599954E-15
  -8.64000034       3.79360604E-15
  -8.63000011       3.88107108E-15
  -8.61999989       3.96831886E-15
  -8.60999966       4.05525875E-15
  -8.60000038       4.14179418E-15
  -8.59000015       4.22784087E-15
  -8.57999992       4.31329378E-15
  -8.56999969       4.39806018E-15
  -8.56000042       4.48203461E-15
  -8.55000019       4.56511837E-15
  -8.53999996       4.64720264E-15
  -8.52999973       4.72817349E-15
  -8.52000046       4.80791063E-15
  -8.51000023       4.88630183E-15
  -8.50000000       4.96323064E-15
  -8.48999977       5.03857887E-15
  -8.47999954       5.11221018E-15
  -8.47000027       5.18401231E-15
  -8.46000004       5.25384425E-15
  -8.44999981       5.32158317E-15
  -8.43999958       5.38709016E-15
  -8.43000031       5.45022122E-15
  -8.42000008       5.51083405E-15
  -8.40999985       5.56880159E-15
  -8.39999962       5.62396758E-15
  -8.39000034       5.67617742E-15
  -8.38000011       5.72528543E-15
  -8.36999989       5.77113447E-15
  -8.35999966       5.81357802E-15
  -8.35000038       5.85245726E-15
  -8.34000015       5.88761209E-15
  -8.32999992       5.91887057E-15
  -8.31999969       5.94608023E-15
  -8.31000042       5.96908395E-15
  -8.30000019       5.98770132E-15
  -8.28999996       6.00175867E-15
  -8.27999973       6.01110272E-15
  -8.27000046       6.01553566E-15
  -8.26000023       6.01490505E-15
  -8.25000000       6.00902495E-15
  -8.23999977       5.99772171E-15
  -8.22999954       5.98081409E-15
  -8.22000027       5.95813139E-15
  -8.21000004       5.92948178E-15
  -8.19999981       5.89469456E-15
  -8.18999958       5.85358042E-15
  -8.18000031       5.80595896E-15
  -8.17000008       5.75164636E-15
  -8.15999985       5.69046729E-15
  -8.14999962       5.62223497E-15
  -8.14000034       5.54677408E-15
  -8.13000011       5.46389741E-15
  -8.11999989       5.37341735E-15
  -8.10999966       5.27515264E-15
  -8.10000038       5.16893640E-15
  -8.09000015       5.05457721E-15
  -8.07999992       4.93190947E-15
  -8.06999969       4.80073202E-15
  -8.06000042       4.66088731E-15
  -8.05000019       4.51219703E-15
  -8.03999996       4.35448500E-15
  -8.02999973       4.18758181E-15
  -8.02000046       4.01133120E-15
  -8.01000023       3.82554850E-15
  -8.00000000       3.63008463E-15
  -7.98999977       3.42478036E-15
  -7.98000002       3.20947602E-15
  -7.96999979       2.98401766E-15
  -7.96000004       2.74824731E-15
  -7.94999981       2.50202013E-15
  -7.94000006       2.24521096E-15
  -7.92999983       1.97767095E-15
  -7.92000008       1.69927049E-15
  -7.90999985       1.40987607E-15
  -7.90000010       1.10937102E-15
  -7.88999987       7.97628904E-16
  -7.88000011       4.74547509E-16
  -7.86999989       1.40013196E-16
  -7.86000013      -2.06068505E-16
  -7.84999990      -5.63790212E-16
  -7.84000015      -9.33241949E-16
  -7.82999992      -1.31450620E-15
  -7.82000017      -1.70765040E-15
  -7.80999994      -2.11274433E-15
  -7.80000019      -2.52984347E-15
  -7.78999996      -2.95899462E-15
  -7.78000021      -3.40024732E-15
  -7.76999998      -3.85362594E-15
  -7.76000023      -4.31915695E-15
  -7.75000000      -4.79685346E-15
  -7.73999977      -5.28672268E-15
  -7.73000002      -5.78875911E-15
  -7.71999979      -6.30294665E-15
  -7.71000004      -6.82925862E-15
  -7.69999981      -7.36766283E-15
  -7.69000006      -7.91811142E-15
  -7.67999983      -8.48054554E-15
  -7.67000008      -9.05489232E-15
  -7.65999985      -9.64107808E-15
  -7.65000010      -1.02390020E-14
  -7.63999987      -1.08485574E-14
  -7.63000011      -1.14696367E-14
  -7.61999989      -1.21020984E-14
  -7.61000013      -1.27457926E-14
  -7.59999990      -1.34005796E-14
  -7.59000015      -1.40662721E-14
  -7.57999992      -1.47426982E-14
  -7.57000017      -1.54296470E-14
  -7.55999994      -1.61269195E-14
  -7.55000019      -1.68342733E-14
  -7.53999996      -1.75514425E-14
  -7.53000021      -1.82782087E-14
  -7.51999998      -1.90142854E-14
  -7.51000023      -1.97593728E-14
  -7.50000000      -2.05131576E-14
  -7.48999977      -2.12753365E-14
  -7.48000002      -2.20455469E-14
  -7.46999979      -2.28234739E-14
  -7.46000004      -2.36087073E-14
  -7.44999981      -2.44008576E-14
  -7.44000006      -2.51995605E-14