  -16.0000000       0.00000000    
  -15.9899998       0.00000000    
  -15.9799995       0.00000000    
  -15.9700003       0.00000000    
  -15.9600000       0.00000000    
  -15.9499998       0.00000000    
  -15.9399996       0.00000000    
  -15.9300003       0.00000000    
  -15.9200001       0.00000000    
  -15.9099998       0.00000000    
  -15.8999996       0.00000000    
  -15.8900003       0.00000000    
  -15.8800001       0.00000000    
  -15.8699999       0.00000000    
  -15.8599997       0.00000000    
  -15.8500004       0.00000000    
  -15.8400002       0.00000000    
  -15.8299999       0.00000000    
  -15.8199997       0.00000000    
  -15.8100004       0.00000000    
  -15.8000002       0.00000000    
  -15.7900000       0.00000000    
  -15.7799997       0.00000000    
  -15.7700005       0.00000000    
  -15.7600002       0.00000000    
  -15.7500000       0.00000000    
  -15.7399998       0.00000000    
  -15.7299995       0.00000000    
  -15.7200003       0.00000000    
  -15.7100000       0.00000000    
  -15.6999998       0.00000000    
  -15.6899996       0.00000000    
  -15.6800003       0.00000000    
  -15.6700001       0.00000000    
  -15.6599998       0.00000000    
  -15.6499996       0.00000000    
  -15.6400003       0.00000000    
  -15.6300001       0.00000000    
  -15.6199999       0.00000000    
  -15.6099997       0.00000000    
  -15.6000004       0.00000000    
  -15.5900002       0.00000000    
  -15.5799999       0.00000000    
  -15.5699997       0.00000000    
  -15.5600004       0.00000000    
  -15.5500002       0.00000000    
  -15.5400000       0.00000000    
  -15.5299997       0.00000000    
  -15.5200005       0.00000000    
  -15.5100002       0.00000000    
  -15.5000000       0.00000000    
  -15.4899998       0.00000000    
  -15.4799995       0.00000000    
  -15.4700003       0.00000000    
  -15.4600000       0.00000000    
  -15.4499998       0.00000000    
  -15.4399996       0.00000000    
  -15.4300003       0.00000000    
  -15.4200001       0.00000000    
  -15.4099998       0.00000000    
  -15.3999996       0.00000000    
  -15.3900003       0.00000000    
  -15.3800001       0.00000000    
  -15.3699999       0.00000000    
  -15.3599997       0.00000000    
  -15.3500004       0.00000000    
  -15.3400002       0.00000000    
  -15.3299999       0.00000000    
  -15.3199997       0.00000000    
  -15.3100004       0.00000000    
  -15.3000002       0.00000000    
  -15.2900000       0.00000000    
  -15.2799997       0.00000000    
  -15.2700005       0.00000000    
  -15.2600002       0.00000000    
  -15.2500000       0.00000000    
  -15.2399998       0.00000000    
  -15.2299995       0.00000000    
  -15.2200003       0.00000000    
  -15.2100000       0.00000000    
  -15.1999998       0.00000000    
  -15.1899996       0.00000000    
  -15.1800003       0.00000000    
  -15.1700001       0.00000000    
  -15.1599998       0.00000000    
  -15.1499996       0.00000000    
  -15.1400003       0.00000000    
  -15.1300001       0.00000000    
  -15.1199999       0.00000000    
  -15.1099997       0.00000000    
  -15.1000004       0.00000000    
  -15.0900002       0.00000000    
  -15.0799999       0.00000000    
  -15.0699997       0.00000000    
  -15.0600004       0.00000000    
  -15.0500002       0.00000000    
  -15.0400000       0.00000000    
  -15.0299997       0.00000000    
  -15.0200005       0.00000000    
  -15.0100002       0.00000000    
  -15.0000000       0.00000000    
  -14.9899998       0.00000000    
  -14.9799995       0.00000000    
  -14.9700003       0.00000000    
  -14.9600000       0.00000000    
  -14.9499998       0.00000000    
  -14.9399996       0.00000000    
  -14.9300003       0.00000000    
  -14.9200001       0.00000000    
  -14.9099998       0.00000000    
  -14.8999996       0.00000000    
  -14.8900003       0.00000000    
  -14.8800001       0.00000000    
  -14.8699999       0.00000000    
  -14.8599997       0.00000000    
  -14.8500004       0.00000000    
  -14.8400002       0.00000000    
  -14.8299999       0.00000000    
  -14.8199997       0.00000000    
  -14.8100004       0.00000000    
  -14.8000002       0.00000000    
  -14.7900000       0.00000000    
  -14.7799997       0.00000000    
  -14.7700005       0.00000000    
  -14.7600002       0.00000000    
  -14.7500000       0.00000000    
  -14.7399998       0.00000000    
  -14.7299995       0.00000000    
  -14.7200003       0.00000000    
  -14.7100000       0.00000000    
  -14.6999998       0.00000000    
  -14.6899996       0.00000000    
  -14.6800003       0.00000000    
  -14.6700001       0.00000000    
  -14.6599998       0.00000000    
  -14.6499996       0.00000000    
  -14.6400003       0.00000000    
  -14.6300001       0.00000000    
  -14.6199999       0.00000000    
  -14.6099997       0.00000000    
  -14.6000004       0.00000000    
  -14.5900002       0.00000000    
  -14.5799999       0.00000000    
  -14.5699997       0.00000000    
  -14.5600004       0.00000000    
  -14.5500002       0.00000000    
  -14.5400000       0.00000000    
  -14.5299997       0.00000000    
  -14.5200005       0.00000000    
  -14.5100002       0.00000000    
  -14.5000000       0.00000000    
  -14.4899998       0.00000000    
  -14.4799995       0.00000000    
  -14.4700003       0.00000000    
  -14.4600000       0.00000000    
  -14.4499998       0.00000000    
  -14.4399996       0.00000000    
  -14.4300003       0.00000000    
  -14.4200001       0.00000000    
  -14.4099998       0.00000000    
  -14.3999996       0.00000000    
  -14.3900003       0.00000000    
  -14.3800001       0.00000000    
  -14.3699999       0.00000000    
  -14.3599997       0.00000000    
  -14.3500004       0.00000000    
  -14.3400002       0.00000000    
  -14.3299999       0.00000000    
  -14.3199997       0.00000000    
  -14.3100004       0.00000000    
  -14.3000002       0.00000000    
  -14.2900000       0.00000000    
  -14.2799997       0.00000000    
  -14.2700005       0.00000000    
  -14.2600002       0.00000000    
  -14.2500000       0.00000000    
  -14.2399998       0.00000000    
  -14.2299995       0.00000000    
  -14.2200003       0.00000000    
  -14.2100000       0.00000000    
  -14.1999998       0.00000000    
  -14.1899996       0.00000000    
  -14.1800003       0.00000000    
  -14.1700001       0.00000000    
  -14.1599998       0.00000000    
  -14.1499996       0.00000000    
  -14.1400003       0.00000000    
  -14.1300001       0.00000000    
  -14.1199999       0.00000000    
  -14.1099997       0.00000000    
  -14.1000004       0.00000000    
  -14.0900002       0.00000000    
  -14.0799999       0.00000000    
  -14.0699997       0.00000000    
  -14.0600004       0.00000000    
  -14.0500002       0.00000000    
  -14.0400000       0.00000000    
  -14.0299997       0.00000000    
  -14.0200005       0.00000000    
  -14.0100002       0.00000000    
  -14.0000000       0.00000000    
  -13.9899998       0.00000000    
  -13.9799995       0.00000000    
  -13.9700003       0.00000000    
  -13.9600000       0.00000000    
  -13.9499998       0.00000000    
  -13.9399996       0.00000000    
  -13.9300003       0.00000000    
  -13.9200001       0.00000000    
  -13.9099998       0.00000000    
  -13.8999996       0.00000000    
  -13.8900003       0.00000000    
  -13.8800001       0.00000000    
  -13.8699999       0.00000000    
  -13.8599997       0.00000000    
  -13.8500004       0.00000000    
  -13.8400002       0.00000000    
  -13.8299999       0.00000000    
  -13.8199997       0.00000000    
  -13.8100004       0.00000000    
  -13.8000002       0.00000000    
  -13.7900000       0.00000000    
  -13.7799997       0.00000000    
  -13.7700005       0.00000000    
  -13.7600002       0.00000000    
  -13.7500000       0.00000000    
  -13.7399998       0.00000000    
  -13.7299995       0.00000000    
  -13.7200003       0.00000000    
  -13.7100000       0.00000000    
  -13.6999998       0.00000000    
  -13.6899996       0.00000000    
  -13.6800003       0.00000000    
  -13.6700001       0.00000000    
  -13.6599998       0.00000000    
  -13.6499996       0.00000000    
  -13.6400003       0.00000000    
  -13.6300001       0.00000000    
  -13.6199999       0.00000000    
  -13.6099997       0.00000000    
  -13.6000004       0.00000000    
  -13.5900002       0.00000000    
  -13.5799999       0.00000000    
  -13.5699997       0.00000000    
  -13.5600004       0.00000000    
  -13.5500002       0.00000000    
  -13.5400000       0.00000000    
  -13.5299997       0.00000000    
  -13.5200005       0.00000000    
  -13.5100002       0.00000000    
  -13.5000000       0.00000000    
  -13.4899998       0.00000000    
  -13.4799995       0.00000000    
  -13.4700003       0.00000000    
  -13.4600000       0.00000000    
  -13.4499998       0.00000000    
  -13.4399996       0.00000000    
  -13.4300003       0.00000000    
  -13.4200001       0.00000000    
  -13.4099998       0.00000000    
  -13.3999996       0.00000000    
  -13.3900003       0.00000000    
  -13.3800001       0.00000000    
  -13.3699999       0.00000000    
  -13.3599997       0.00000000    
  -13.3500004       0.00000000    
  -13.3400002       0.00000000    
  -13.3299999       0.00000000    
  -13.3199997       0.00000000    
  -13.3100004       0.00000000    
  -13.3000002       0.00000000    
  -13.2900000       0.00000000    
  -13.2799997       0.00000000    
  -13.2700005       0.00000000    
  -13.2600002       0.00000000    
  -13.2500000       0.00000000    
  -13.2399998       0.00000000    
  -13.2299995       0.00000000    
  -13.2200003       0.00000000    
  -13.2100000       0.00000000    
  -13.1999998       0.00000000    
  -13.1899996       0.00000000    
  -13.1800003       0.00000000    
  -13.1700001       0.00000000    
  -13.1599998       0.00000000    
  -13.1499996       2.94272678E-44
  -13.1400003       2.94272678E-44
  -13.1300001      -5.88545355E-44
  -13.1199999      -5.88545355E-44
  -13.1099997      -1.13505176E-43
  -13.1000004       1.86372696E-43
  -13.0900002       4.63829792E-43
  -13.0799999       3.22298647E-43
  -13.0699997       1.49798806E-42
  -13.0600004      -1.02294788E-43
  -13.0500002      -4.04975256E-43
  -13.0400000      -4.25153954E-42
  -13.0299997       1.05097385E-42
  -13.0200005       3.54528511E-43
  -13.0100002       1.93098928E-42
  -13.0000000      -9.39570620E-42
  -12.9899998       7.83746231E-42
  -12.9799995       5.42302506E-42
  -12.9700003      -4.29778239E-42
  -12.9600000      -3.47087617E-41
  -12.9499998      -1.11865656E-41
  -12.9399996       2.03440511E-41
  -12.9300003       2.68797071E-41
  -12.9200001      -3.29445269E-42
  -12.9099998       4.31599927E-43
  -12.8999996      -7.34014149E-41
  -12.8900003       3.27035036E-41
  -12.8800001       1.31021406E-42
  -12.8699999       2.65546059E-42
  -12.8599997      -7.67603273E-41
  -12.8500004      -5.82743979E-41
  -12.8400002      -5.55488724E-41
  -12.8299999       2.60095008E-41
  -12.8199997      -1.61184356E-40
  -12.8100004      -9.90984261E-41
  -12.8000002       1.12321078E-40
  -12.7900000       2.07149748E-40
  -12.7799997      -2.91237465E-40
  -12.7700005      -4.80365114E-41
  -12.7600002       1.39043840E-40
  -12.7500000      -1.00865463E-41
  -12.7399998      -1.11274308E-40
  -12.7299995      -4.15754044E-40
  -12.7200003      -2.62290843E-40
  -12.7100000      -7.28581314E-40
  -12.6999998      -2.88479710E-40
  -12.6899996      -5.18788717E-40
  -12.6800003      -8.68748996E-40
  -12.6700001      -1.07852057E-39
  -12.6599998      -1.42338153E-39
  -12.6499996      -1.78744167E-39
  -12.6400003      -2.20180282E-39
  -12.6300001      -2.97579041E-39
  -12.6199999      -3.71987990E-39
  -12.6099997      -4.58616401E-39
  -12.6000004      -5.45781650E-39
  -12.5900002      -6.65409939E-39
  -12.5799999      -8.30058865E-39
  -12.5699997      -1.06030972E-38
  -12.5600004      -1.30962272E-38
  -12.5500002      -1.56319118E-38
  -12.5400000      -1.92907735E-38
  -12.5299997      -2.36488790E-38
  -12.5200005      -2.88119800E-38
  -12.5100002      -3.52875540E-38
  -12.5000000      -4.25107319E-38
  -12.4899998      -5.16964843E-38
  -12.4799995      -6.25114088E-38
  -12.4700003      -7.53604750E-38
  -12.4600000      -9.05192341E-38
  -12.4499998      -1.08582212E-37
  -12.4399996      -1.30591107E-37
  -12.4300003      -1.56416387E-37
  -12.4200001      -1.86275087E-37
  -12.4099998      -2.21749563E-37
  -12.3999996      -2.64558648E-37
  -12.3900003      -3.13721220E-37
  -12.3800001      -3.71606999E-37
  -12.3699999      -4.39722167E-37
  -12.3599997      -5.19150230E-37
  -12.3500004      -6.12925213E-37
  -12.3400002      -7.22117842E-37
  -12.3299999      -8.48037222E-37
  -12.3199997      -9.95080738E-37
  -12.3100004      -1.16607870E-36
  -12.3000002      -1.36470220E-36
  -12.2900000      -1.59361849E-36
  -12.2799997      -1.85859834E-36
  -12.2700005      -2.16492299E-36
  -12.2600002      -2.51622031E-36
  -12.2500000      -2.92203922E-36
  -12.2399998      -3.38722313E-36
  -12.2299995      -3.92231879E-36
  -12.2200003      -4.53508325E-36
  -12.2100000      -5.23532460E-36
  -12.1999998      -6.03680562E-36
  -12.1899996      -6.95061473E-36
  -12.1800003      -7.99304160E-36
  -12.1700001      -9.17931873E-36
  -12.1599998      -1.05274717E-35
  -12.1499996      -1.20593064E-35
  -12.1400003      -1.37960592E-35
  -12.1300001      -1.57630894E-35
  -12.1199999      -1.79894717E-35
  -12.1099997      -2.05041069E-35
  -12.1000004      -2.33427966E-35
  -12.0900002      -2.65430585E-35
  -12.0799999      -3.01483077E-35
  -12.0699997      -3.42017686E-35
  -12.0600004      -3.87569757E-35
  -12.0500002      -4.38688322E-35
  -12.0400000      -4.95992954E-35
  -12.0299997      -5.60171731E-35
  -12.0200005      -6.31953971E-35
  -12.0100002      -7.12172391E-35
  -12.0000000      -8.01709475E-35
  -11.9899998      -9.01562095E-35
  -11.9799995      -1.01278619E-34
  -11.9700003      -1.13655002E-34
  -11.9600000      -1.27414588E-34
  -11.9499998      -1.42693420E-34
  -11.9399996      -1.59644955E-34
  -11.9300003      -1.78433097E-34
  -11.9200001      -1.99235571E-34
  -11.9099998      -2.22246630E-34
  -11.8999996      -2.47674754E-34
  -11.8900003      -2.75749853E-34
  -11.8800001      -3.06715450E-34
  -11.8699999      -3.40837939E-34
  -11.8599997      -3.78404511E-34
  -11.8500004      -4.19721875E-34
  -11.8400002      -4.65126401E-34
  -11.8299999      -5.14974341E-34
  -11.8199997      -5.69650578E-34
  -11.8100004      -6.29571081E-34
  -11.8000002      -6.95178038E-34
  -11.7900000      -7.66946743E-34
  -11.7799997      -8.45387344E-34
  -11.7700005      -9.31045617E-34
  -11.7600002      -1.02450045E-33
  -11.7500000      -1.12637724E-33
  -11.7399998      -1.23733683E-33
  -11.7299995      -1.35808545E-33
  -11.7200003      -1.48937403E-33
  -11.7100000      -1.63199795E-33
  -11.6999998      -1.78680927E-33
  -11.6899996      -1.95470880E-33
  -11.6800003      -2.13664447E-33
  -11.6700001      -2.33363124E-33
  -11.6599998      -2.54673110E-33
  -11.6499996      -2.77706959E-33
  -11.6400003      -3.02583762E-33
  -11.6300001      -3.29428949E-33
  -11.6199999      -3.58375167E-33
  -11.6099997      -3.89559122E-33
  -11.6000004      -4.23127494E-33
  -11.5900002      -4.59234272E-33
  -11.5799999      -4.98037524E-33
  -11.5699997      -5.39706227E-33
  -11.5600004      -5.84414722E-33
  -11.5500002      -6.32345651E-33
  -11.5400000      -6.83690877E-33
  -11.5299997      -7.38646193E-33
  -11.5200005      -7.97422160E-33
  -11.5100002      -8.60227060E-33
  -11.5000000      -9.27287102E-33
  -11.4899998      -9.98832244E-33
  -11.4799995      -1.07509751E-32
  -11.4700003      -1.15632909E-32
  -11.4600000      -1.24278112E-32
  -11.4499998      -1.33470639E-32
  -11.4399996      -1.43237895E-32
  -11.4300003      -1.53607004E-32
  -11.4200001      -1.64605458E-32
  -11.4099998      -1.76262424E-32
  -11.3999996      -1.88606379E-32
  -11.3900003      -2.01666635E-32
  -11.3800001      -2.15473213E-32
  -11.3699999      -2.30056411E-32
  -11.3599997      -2.45446012E-32
  -11.3500004      -2.61673771E-32
  -11.3400002      -2.78768544E-32
  -11.3299999      -2.96761572E-32
  -11.3199997      -3.15682916E-32
  -11.3100004      -3.35562201E-32
  -11.3000002      -3.56428578E-32
  -11.2900000      -3.78311286E-32
  -11.2799997      -4.01236806E-32
  -11.2700005      -4.25233318E-32
  -11.2600002      -4.50324539E-32
  -11.2500000      -4.76536035E-32
  -11.2399998      -5.03888466E-32
  -11.2299995      -5.32402844E-32
  -11.2200003      -5.62096772E-32
  -11.2100000      -5.92986413E-32
  -11.1999998      -6.25083580E-32
  -11.1899996      -6.58397619E-32
  -11.1800003      -6.92933760E-32
  -11.1700001      -7.28695061E-32
  -11.1599998      -7.65678170E-32
  -11.1499996      -8.03875389E-32
  -11.1400003      -8.43275373E-32
  -11.1300001      -8.83860726E-32
  -11.1199999      -9.25605117E-32
  -11.1099997      -9.68477864E-32
  -11.1000004      -1.01244388E-31
  -11.0900002      -1.05745344E-31
  -11.0799999      -1.10345559E-31
  -11.0699997      -1.15038520E-31
  -11.0600004      -1.19816987E-31
  -11.0500002      -1.24672613E-31
  -11.0400000      -1.29595666E-31
  -11.0299997      -1.34576036E-31
  -11.0200005      -1.39601662E-31
  -11.0100002      -1.44658709E-31
  -11.0000000      -1.49733177E-31
  -10.9899998      -1.54808069E-31
  -10.9799995      -1.59866280E-31
  -10.9700003      -1.64887674E-31
  -10.9600000      -1.69851011E-31
  -10.9499998      -1.74732216E-31
  -10.9399996      -1.79506557E-31
  -10.9300003      -1.84145916E-31
  -10.9200001      -1.88620023E-31
  -10.9099998      -1.92896824E-31
  -10.8999996      -1.96940572E-31
  -10.8900003      -2.00714203E-31
  -10.8800001      -2.04175799E-31
  -10.8699999      -2.07282677E-31
  -10.8599997      -2.09986573E-31
  -10.8500004      -2.12237809E-31
  -10.8400002      -2.13981255E-31
  -10.8299999      -2.15159806E-31
  -10.8199997      -2.15709961E-31
  -10.8100004      -2.15567444E-31
  -10.8000002      -2.14659304E-31
  -10.7900000      -2.12910803E-31
  -10.7799997      -2.10241537E-31
  -10.7700005      -2.06565179E-31
  -10.7600002      -2.01790015E-31
  -10.7500000      -1.95819115E-31
  -10.7399998      -1.88547401E-31
  -10.7299995      -1.79865999E-31
  -10.7200003      -1.69656831E-31
  -10.7100000      -1.57795599E-31
  -10.6999998      -1.44148392E-31
  -10.6899996      -1.28575784E-31
  -10.6800003      -1.10927382E-31
  -10.6700001      -9.10448058E-32
  -10.6599998      -6.87585613E-32
  -10.6499996      -4.38894326E-32
  -10.6400003      -1.62477197E-32
  -10.6300001       1.43689785E-32
  -10.6199999       4.81750293E-32
  -10.6099997       8.53981423E-32
  -10.6000004       1.26279937E-31
  -10.5900002       1.71077169E-31
  -10.5799999       2.20062722E-31
  -10.5699997       2.73524746E-31
  -10.5600004       3.31771855E-31
  -10.5500002       3.95129731E-31
  -10.5400000       4.63944769E-31
  -10.5299997       5.38585463E-31
  -10.5200005       6.19444145E-31
  -10.5100002       7.06934591E-31
  -10.5000000       8.01499068E-31
  -10.4899998       9.03607962E-31
  -10.4799995       1.01376090E-30
  -10.4700003       1.13248706E-30
  -10.4600000       1.26034896E-30
  -10.4499998       1.39795092E-30
  -10.4399996       1.54592864E-30
  -10.4300003       1.70496127E-30
  -10.4200001       1.87577282E-30
  -10.4099998       2.05912568E-30
  -10.3999996       2.25584908E-30
  -10.3900003       2.46679916E-30
  -10.3800001       2.69290672E-30
  -10.3699999       2.93516407E-30
  -10.3599997       3.19460695E-30
  -10.3500004       3.47236179E-30
  -10.3400002       3.76961328E-30
  -10.3299999       4.08762230E-30
  -10.3199997       4.42773739E-30
  -10.3100004       4.79138908E-30
  -10.3000002       5.18009854E-30
  -10.2900000       5.59549342E-30
  -10.2799997       6.03928749E-30
  -10.2700005       6.51332354E-30
  -10.2600002       7.01954219E-30
  -10.2500000       7.56005142E-30
  -10.2399998       8.13703370E-30
  -10.2299995       8.75281369E-30
  -10.2200003       9.40993572E-30
  -10.2100000       1.01110525E-29
  -10.1999998       1.08589166E-29
  -10.1899996       1.16566000E-29
  -10.1800003       1.25072569E-29
  -10.1700001       1.34142480E-29
  -10.1599998       1.43811988E-29
  -10.1499996       1.54118782E-29
  -10.1400003       1.65103760E-29
  -10.1300001       1.76809562E-29
  -10.1199999       1.89281087E-29
  -10.1099997       2.02567732E-29
  -10.1000004       2.16719600E-29
  -10.0900002       2.31791702E-29
  -10.0799999       2.47840085E-29
  -10.0699997       2.64926951E-29
  -10.0600004       2.83114952E-29
  -10.0500002       3.02473527E-29
  -10.0400000       3.23073906E-29
  -10.0299997       3.44992734E-29
  -10.0200005       3.68309366E-29
  -10.0100002       3.93109144E-29
  -10.0000000       4.19481535E-29
  -9.98999977       4.47521330E-29
  -9.97999954       4.77327954E-29
  -9.97000027       5.09007275E-29
  -9.96000004       5.42669160E-29
  -9.94999981       5.78433619E-29
  -9.93999958       6.16418856E-29
  -9.93000031       6.56756977E-29
  -9.92000008       6.99585386E-29
  -9.90999985       7.45045217E-29
  -9.89999962       7.93290002E-29
  -9.89000034       8.44475623E-29
  -9.88000011       8.98770417E-29
  -9.86999989       9.56345491E-29
  -9.85999966       1.01738971E-28
  -9.85000038       1.08209132E-28
  -9.84000015       1.15065298E-28
  -9.82999992       1.22328702E-28
  -9.81999969       1.30021071E-28
  -9.81000042       1.38165998E-28
  -9.80000019       1.46787206E-28
  -9.78999996       1.55910409E-28
  -9.77999973       1.65561508E-28
  -9.77000046       1.75768985E-28
  -9.76000023       1.86560705E-28
  -9.75000000       1.97967194E-28
  -9.73999977       2.10020181E-28
  -9.72999954       2.22751180E-28
  -9.72000027       2.36194772E-28
  -9.71000004       2.50386830E-28
  -9.69999981       2.65363583E-28
  -9.68999958       2.81162805E-28
  -9.68000031       2.97826023E-28
  -9.67000008       3.15391925E-28
  -9.65999985       3.33906130E-28
  -9.64999962       3.53410528E-28
  -9.64000034       3.73952136E-28
  -9.63000011       3.95578933E-28
  -9.61999989       4.18339140E-28
  -9.60999966       4.42285864E-28
  -9.60000038       4.67468746E-28
  -9.59000015       4.93944071E-28
  -9.57999992       5.21767741E-28
  -9.56999969       5.50997098E-28
  -9.56000042       5.81692184E-28
  -9.55000019       6.13913233E-28
  -9.53999996       6.47724907E-28
  -9.52999973       6.83190570E-28
  -9.52000046       7.20378351E-28
  -9.51000023       7.59354792E-28
  -9.50000000       8.00190718E-28
  -9.48999977       8.42958544E-28
  -9.47999954       8.87731312E-28
  -9.47000027       9.34582543E-28
  -9.46000004       9.83589467E-28
  -9.44999981       1.03483057E-27
  -9.43999958       1.08838509E-27
  -9.43000031       1.14433413E-27
  -9.42000008       1.20276126E-27
  -9.40999985       1.26374785E-27
  -9.39999962       1.32737740E-27
  -9.39000034       1.39373792E-27
  -9.38000011       1.46291395E-27
  -9.36999989       1.53499775E-27
  -9.35999966       1.61007127E-27
  -9.35000038       1.68822647E-27
  -9.34000015       1.76954963E-27
  -9.32999992       1.85412685E-27
  -9.31999969       1.94205267E-27
  -9.31000042       2.03341725E-27
  -9.30000019       2.12830531E-27
  -9.28999996       2.22679718E-27
  -9.27999973       2.32899049E-27
  -9.27000046       2.43497210E-27
  -9.26000023       2.54481309E-27
  -9.25000000       2.65860223E-27
  -9.23999977       2.77642350E-27
  -9.22999954       2.89835239E-27
  -9.22000027       3.02445207E-27
  -9.21000004       3.15480383E-27
  -9.19999981       3.28946832E-27
  -9.18999958       3.42852084E-27
  -9.18000031       3.57200725E-27
  -9.17000008       3.71997875E-27
  -9.15999985       3.87250393E-27
  -9.14999962       4.02959742E-27
  -9.14000034       4.19131082E-27
  -9.13000011       4.35765994E-27
  -9.11999989       4.52867674E-27
  -9.10999966       4.70436315E-27
  -9.10000038       4.88471955E-27
  -9.09000015       5.06975212E-27
  -9.07999992       5.25941770E-27
  -9.06999969       5.45371283E-27
  -9.06000042       5.65257126E-27
  -9.05000019       5.85594715E-27
  -9.03999996       6.06375923E-27
  -9.02999973       6.27593662E-27
  -9.02000046       6.49235915E-27
  -9.01000023       6.71293436E-27
  -9.00000000       6.93752090E-27
  -8.98999977       7.16592695E-27
  -8.97999954       7.39803078E-27
  -8.97000027       7.63359205E-27
  -8.96000004       7.87242354E-27
  -8.94999981       8.11425563E-27
  -8.93999958       8.35885797E-27
  -8.93000031       8.60591704E-27
  -8.92000008       8.85507382E-27
  -8.90999985       9.10603790E-27
  -8.89999962       9.35842178E-27
  -8.89000034       9.61178248E-27
  -8.88000011       9.86569555E-27
  -8.86999989       1.01197088E-26
  -8.85999966       1.03732382E-26
  -8.85000038       1.06258216E-26
  -8.84000015       1.08768142E-26
  -8.82999992       1.11255981E-26
  -8.81999969       1.13714816E-26
  -8.81000042       1.16137720E-26
  -8.80000019       1.18517268E-26
  -8.78999996       1.20844832E-26
  -8.77999973       1.23112052E-26
  -8.77000046       1.25309838E-26
  -8.76000023       1.27429039E-26
  -8.75000000       1.29458777E-26
  -8.73999977       1.31388682E-26
  -8.72999954       1.33207545E-26
  -8.72000027       1.34902718E-26
  -8.71000004       1.36462814E-26
  -8.69999981       1.37873473E-26
  -8.68999958       1.39121938E-26
  -8.68000031       1.40193078E-26
  -8.67000008       1.41072088E-26
  -8.65999985       1.41742497E-26
  -8.64999962       1.42188311E-26
  -8.64000034       1.42391843E-26
  -8.63000011       1.42334913E-26
  -8.61999989       1.41998414E-26
  -8.60999966       1.41362749E-26
  -8.60000038       1.40407658E-26
  -8.59000015       1.39111661E-26
  -8.57999992       1.37452126E-26
  -8.56999969       1.35405956E-26
  -8.56000042       1.32949733E-26
  -8.55000019       1.30058296E-26
  -8.53999996       1.26705506E-26
  -8.52999973       1.22864485E-26
  -8.52000046       1.18507985E-26
  -8.51000023       1.13607749E-26
  -8.50000000       1.08133270E-26
  -8.48999977       1.02054696E-26
  -8.47999954       9.53403038E-27
  -8.47000027       8.79568585E-27
  -8.46000004       7.98715272E-27
  -8.44999981       7.10501749E-27
  -8.43999958       6.14566248E-27
  -8.43000031       5.10539492E-27
  -8.42000008       3.98058943E-27
  -8.40999985       2.76735545E-27
  -8.39999962       1.46169849E-27
  -8.39000034       5.95822239E-29
  -8.38000011      -1.44313927E-27
  -8.36999989      -3.05071136E-27
  -8.35999966      -4.76747395E-27
  -8.35000038      -6.59779611E-27
  -8.34000015      -8.54625481E-27
  -8.32999992      -1.06174823E-26
  -8.31999969      -1.28161416E-26
  -8.31000042      -1.51470091E-26
  -8.30000019      -1.76150067E-26
  -8.28999996      -2.02250270E-26
  -8.27999973      -2.29821051E-26
  -8.27000046      -2.58913055E-26
  -8.26000023      -2.89578297E-26
  -8.25000000      -3.21868376E-26
  -8.23999977      -3.55836481E-26
  -8.22999954      -3.91535518E-26
  -8.22000027      -4.29019168E-26
  -8.21000004      -4.68341789E-26
  -8.19999981      -5.09557306E-26
  -8.18999958      -5.52720570E-26
  -8.18000031      -5.97886308E-26
  -8.17000008      -6.45109001E-26
  -8.15999985      -6.94443807E-26
  -8.14999962      -7.45945208E-26
  -8.14000034      -7.99667683E-26
  -8.13000011      -8.55665653E-26
  -8.11999989      -9.13992734E-26
  -8.10999966      -9.74701189E-26
  -8.10000038      -1.03784451E-25
  -8.09000015      -1.10347453E-25
  -8.07999992      -1.17164111E-25
  -8.06999969      -1.24239356E-25
  -8.06000042      -1.31578400E-25
  -8.05000019      -1.39185496E-25
  -8.03999996      -1.47065317E-25
  -8.02999973      -1.55222274E-25
  -8.02000046      -1.63660695E-25
  -8.01000023      -1.72384461E-25
  -8.00000000      -1.81397098E-25
  -7.98999977      -1.90702440E-25
  -7.98000002      -2.00303678E-25
  -7.96999979      -2.10203747E-25
  -7.96000004      -2.20405346E-25
  -7.94999981      -2.30910483E-25
  -7.94000006      -2.41721378E-25
  -7.92999983      -2.52839608E-25
  -7.92000008      -2.64266382E-25
  -7.90999985      -2.76001994E-25
  -7.90000010      -2.88047333E-25
  -7.88999987      -3.00402078E-25
  -7.88000011      -3.13064898E-25
  -7.86999989      -3.26035473E-25
  -7.86000013      -3.39311016E-25
  -7.84999990      -3.52889629E-25
  -7.84000015      -3.66768330E-25
  -7.82999992      -3.80942632E-25
  -7.82000017      -3.95408665E-25
  -7.80999994      -4.10160857E-25
  -7.80000019      -4.25194204E-25
  -7.78999996      -4.40500521E-25
  -7.78000021      -4.56073276E-25
  -7.76999998      -4.71903348E-25
  -7.76000023      -4.87981812E-25
  -7.75000000      -5.04296787E-25
  -7.73999977      -5.20839693E-25
  -7.73000002      -5.37594902E-25
  -7.71999979      -5.54551467E-25
  -7.71000004      -5.71693908E-25
  -7.69999981      -5.89005904E-25
  -7.69000006      -6.06471334E-25
  -7.67999983      -6.24072595E-25
  -7.67000008      -6.41788143E-25
  -7.65999985      -6.59598946E-25
  -7.65000010      -6.77481683E-25
  -7.63999987      -6.95413281E-25
  -7.63000011      -7.13369037E-25
  -7.61999989      -7.31323264E-25
  -7.61000013      -7.49245691E-25
  -7.59999990      -7.67107129E-25
  -7.59000015      -7.84878144E-25
  -7.57999992      -8.02523828E-25
  -7.57000017      -8.20010409E-25
  -7.55999994      -8.37301106E-25
  -7.55000019      -8.54357857E-25
  -7.53999996      -8.71139788E-25
  -7.53000021      -8.87605780E-25
  -7.51999998      -9.03714123E-25
  -7.51000023      -9.19414624E-25
  -7.50000000      -9.34661530E-25
  -7.48999977      -9.49404157E-25
  -7.48000002      -9.63591426E-25
  -7.46999979      -9.77170188E-25
  -7.46000004      -9.90081080E-25
  -7.44999981      -1.00226829E-24
  -7.44000006      -1.01366812E-24