  -16.0000000       0.00000000    
  -15.9899998       0.00000000    
  -15.9799995       0.00000000    
  -15.9700003       0.00000000    
  -15.9600000       0.00000000    
  -15.9499998       0.00000000    
  -15.9399996       0.00000000    
  -15.9300003       0.00000000    
  -15.9200001       0.00000000    
  -15.9099998       0.00000000    
  -15.8999996       0.00000000    
  -15.8900003       0.00000000    
  -15.8800001       0.00000000    
  -15.8699999       0.00000000    
  -15.8599997       0.00000000    
  -15.8500004       0.00000000    
  -15.8400002       0.00000000    
  -15.8299999       0.00000000    
  -15.8199997       0.00000000    
  -15.8100004       0.00000000    
  -15.8000002       0.00000000    
  -15.7900000       0.00000000    
  -15.7799997       0.00000000    
  -15.7700005       0.00000000    
  -15.7600002       0.00000000    
  -15.7500000       0.00000000    
  -15.7399998       0.00000000    
  -15.7299995       0.00000000    
  -15.7200003       0.00000000    
  -15.7100000       0.00000000    
  -15.6999998       0.00000000    
  -15.6899996       0.00000000    
  -15.6800003       0.00000000    
  -15.6700001       0.00000000    
  -15.6599998       0.00000000    
  -15.6499996       0.00000000    
  -15.6400003       0.00000000    
  -15.6300001       0.00000000    
  -15.6199999       0.00000000    
  -15.6099997       0.00000000    
  -15.6000004       0.00000000    
  -15.5900002       0.00000000    
  -15.5799999       0.00000000    
  -15.5699997       0.00000000    
  -15.5600004       0.00000000    
  -15.5500002       0.00000000    
  -15.5400000       0.00000000    
  -15.5299997       0.00000000    
  -15.5200005       0.00000000    
  -15.5100002       0.00000000    
  -15.5000000       0.00000000    
  -15.4899998       0.00000000    
  -15.4799995       0.00000000    
  -15.4700003       0.00000000    
  -15.4600000       0.00000000    
  -15.4499998       0.00000000    
  -15.4399996       0.00000000    
  -15.4300003       0.00000000    
  -15.4200001       0.00000000    
  -15.4099998       0.00000000    
  -15.3999996       0.00000000    
  -15.3900003       0.00000000    
  -15.3800001       0.00000000    
  -15.3699999       0.00000000    
  -15.3599997       0.00000000    
  -15.3500004       0.00000000    
  -15.3400002       0.00000000    
  -15.3299999       0.00000000    
  -15.3199997       0.00000000    
  -15.3100004       0.00000000    
  -15.3000002       0.00000000    
  -15.2900000       0.00000000    
  -15.2799997       0.00000000    
  -15.2700005       0.00000000    
  -15.2600002       0.00000000    
  -15.2500000       0.00000000    
  -15.2399998       0.00000000    
  -15.2299995       0.00000000    
  -15.2200003       0.00000000    
  -15.2100000       0.00000000    
  -15.1999998       0.00000000    
  -15.1899996       0.00000000    
  -15.1800003       0.00000000    
  -15.1700001       0.00000000    
  -15.1599998       0.00000000    
  -15.1499996       0.00000000    
  -15.1400003       0.00000000    
  -15.1300001       0.00000000    
  -15.1199999       0.00000000    
  -15.1099997       0.00000000    
  -15.1000004       0.00000000    
  -15.0900002       0.00000000    
  -15.0799999       0.00000000    
  -15.0699997       0.00000000    
  -15.0600004       0.00000000    
  -15.0500002       0.00000000    
  -15.0400000       0.00000000    
  -15.0299997       0.00000000    
  -15.0200005       0.00000000    
  -15.0100002       0.00000000    
  -15.0000000       0.00000000    
  -14.9899998       0.00000000    
  -14.9799995       0.00000000    
  -14.9700003       0.00000000    
  -14.9600000       0.00000000    
  -14.9499998       0.00000000    
  -14.9399996       0.00000000    
  -14.9300003       0.00000000    
  -14.9200001       0.00000000    
  -14.9099998       0.00000000    
  -14.8999996       0.00000000    
  -14.8900003       0.00000000    
  -14.8800001       0.00000000    
  -14.8699999       0.00000000    
  -14.8599997       0.00000000    
  -14.8500004       0.00000000    
  -14.8400002       0.00000000    
  -14.8299999       0.00000000    
  -14.8199997       0.00000000    
  -14.8100004       0.00000000    
  -14.8000002       0.00000000    
  -14.7900000       0.00000000    
  -14.7799997       0.00000000    
  -14.7700005       0.00000000    
  -14.7600002       0.00000000    
  -14.7500000       0.00000000    
  -14.7399998       0.00000000    
  -14.7299995       0.00000000    
  -14.7200003       0.00000000    
  -14.7100000       0.00000000    
  -14.6999998       0.00000000    
  -14.6899996       0.00000000    
  -14.6800003       0.00000000    
  -14.6700001       0.00000000    
  -14.6599998       0.00000000    
  -14.6499996       0.00000000    
  -14.6400003       0.00000000    
  -14.6300001       0.00000000    
  -14.6199999       0.00000000    
  -14.6099997       0.00000000    
  -14.6000004       0.00000000    
  -14.5900002       0.00000000    
  -14.5799999       0.00000000    
  -14.5699997       0.00000000    
  -14.5600004       0.00000000    
  -14.5500002       0.00000000    
  -14.5400000       0.00000000    
  -14.5299997       0.00000000    
  -14.5200005       0.00000000    
  -14.5100002       0.00000000    
  -14.5000000       0.00000000    
  -14.4899998       0.00000000    
  -14.4799995       0.00000000    
  -14.4700003       0.00000000    
  -14.4600000       0.00000000    
  -14.4499998       0.00000000    
  -14.4399996       0.00000000    
  -14.4300003       0.00000000    
  -14.4200001       0.00000000    
  -14.4099998       0.00000000    
  -14.3999996       0.00000000    
  -14.3900003       0.00000000    
  -14.3800001       0.00000000    
  -14.3699999       0.00000000    
  -14.3599997       0.00000000    
  -14.3500004       0.00000000    
  -14.3400002       0.00000000    
  -14.3299999       0.00000000    
  -14.3199997       0.00000000    
  -14.3100004       0.00000000    
  -14.3000002       0.00000000    
  -14.2900000       0.00000000    
  -14.2799997       0.00000000    
  -14.2700005       0.00000000    
  -14.2600002       0.00000000    
  -14.2500000       0.00000000    
  -14.2399998       0.00000000    
  -14.2299995       0.00000000    
  -14.2200003       0.00000000    
  -14.2100000       0.00000000    
  -14.1999998       0.00000000    
  -14.1899996       0.00000000    
  -14.1800003       0.00000000    
  -14.1700001       0.00000000    
  -14.1599998       0.00000000    
  -14.1499996       0.00000000    
  -14.1400003       0.00000000    
  -14.1300001       0.00000000    
  -14.1199999       0.00000000    
  -14.1099997       0.00000000    
  -14.1000004       0.00000000    
  -14.0900002       0.00000000    
  -14.0799999       0.00000000    
  -14.0699997       0.00000000    
  -14.0600004       0.00000000    
  -14.0500002       0.00000000    
  -14.0400000       0.00000000    
  -14.0299997       0.00000000    
  -14.0200005       0.00000000    
  -14.0100002       0.00000000    
  -14.0000000       0.00000000    
  -13.9899998       0.00000000    
  -13.9799995       0.00000000    
  -13.9700003       0.00000000    
  -13.9600000       0.00000000    
  -13.9499998       0.00000000    
  -13.9399996       0.00000000    
  -13.9300003       0.00000000    
  -13.9200001       0.00000000    
  -13.9099998       0.00000000    
  -13.8999996       0.00000000    
  -13.8900003       0.00000000    
  -13.8800001       0.00000000    
  -13.8699999       0.00000000    
  -13.8599997       0.00000000    
  -13.8500004       0.00000000    
  -13.8400002       0.00000000    
  -13.8299999       0.00000000    
  -13.8199997       0.00000000    
  -13.8100004       0.00000000    
  -13.8000002       0.00000000    
  -13.7900000       0.00000000    
  -13.7799997       0.00000000    
  -13.7700005       0.00000000    
  -13.7600002       0.00000000    
  -13.7500000       0.00000000    
  -13.7399998       0.00000000    
  -13.7299995       0.00000000    
  -13.7200003       0.00000000    
  -13.7100000       0.00000000    
  -13.6999998       0.00000000    
  -13.6899996       0.00000000    
  -13.6800003       0.00000000    
  -13.6700001       0.00000000    
  -13.6599998       0.00000000    
  -13.6499996       0.00000000    
  -13.6400003       0.00000000    
  -13.6300001       0.00000000    
  -13.6199999       0.00000000    
  -13.6099997       0.00000000    
  -13.6000004       0.00000000    
  -13.5900002       0.00000000    
  -13.5799999       0.00000000    
  -13.5699997       0.00000000    
  -13.5600004       0.00000000    
  -13.5500002       0.00000000    
  -13.5400000       0.00000000    
  -13.5299997       0.00000000    
  -13.5200005       0.00000000    
  -13.5100002       0.00000000    
  -13.5000000       0.00000000    
  -13.4899998       0.00000000    
  -13.4799995       0.00000000    
  -13.4700003       0.00000000    
  -13.4600000       0.00000000    
  -13.4499998       0.00000000    
  -13.4399996       0.00000000    
  -13.4300003       0.00000000    
  -13.4200001       0.00000000    
  -13.4099998       0.00000000    
  -13.3999996       0.00000000    
  -13.3900003       0.00000000    
  -13.3800001       0.00000000    
  -13.3699999       0.00000000    
  -13.3599997       0.00000000    
  -13.3500004       0.00000000    
  -13.3400002       0.00000000    
  -13.3299999       0.00000000    
  -13.3199997       0.00000000    
  -13.3100004       0.00000000    
  -13.3000002       0.00000000    
  -13.2900000       0.00000000    
  -13.2799997       0.00000000    
  -13.2700005       0.00000000    
  -13.2600002       0.00000000    
  -13.2500000       0.00000000    
  -13.2399998       0.00000000    
  -13.2299995       0.00000000    
  -13.2200003       0.00000000    
  -13.2100000       0.00000000    
  -13.1999998       0.00000000    
  -13.1899996       0.00000000    
  -13.1800003       0.00000000    
  -13.1700001       0.00000000    
  -13.1599998       0.00000000    
  -13.1499996       0.00000000    
  -13.1400003       0.00000000    
  -13.1300001       0.00000000    
  -13.1199999       0.00000000    
  -13.1099997       0.00000000    
  -13.1000004       0.00000000    
  -13.0900002       0.00000000    
  -13.0799999       0.00000000    
  -13.0699997       0.00000000    
  -13.0600004       0.00000000    
  -13.0500002       0.00000000    
  -13.0400000       0.00000000    
  -13.0299997       0.00000000    
  -13.0200005       0.00000000    
  -13.0100002       0.00000000    
  -13.0000000       0.00000000    
  -12.9899998       0.00000000    
  -12.9799995       0.00000000    
  -12.9700003       0.00000000    
  -12.9600000       0.00000000    
  -12.9499998       0.00000000    
  -12.9399996       0.00000000    
  -12.9300003       0.00000000    
  -12.9200001       0.00000000    
  -12.9099998       0.00000000    
  -12.8999996       0.00000000    
  -12.8900003       0.00000000    
  -12.8800001       0.00000000    
  -12.8699999       0.00000000    
  -12.8599997       0.00000000    
  -12.8500004       0.00000000    
  -12.8400002       0.00000000    
  -12.8299999       0.00000000    
  -12.8199997       0.00000000    
  -12.8100004       0.00000000    
  -12.8000002       0.00000000    
  -12.7900000       0.00000000    
  -12.7799997       0.00000000    
  -12.7700005       0.00000000    
  -12.7600002       0.00000000    
  -12.7500000       0.00000000    
  -12.7399998       0.00000000    
  -12.7299995       0.00000000    
  -12.7200003       0.00000000    
  -12.7100000       0.00000000    
  -12.6999998       0.00000000    
  -12.6899996       0.00000000    
  -12.6800003       0.00000000    
  -12.6700001       0.00000000    
  -12.6599998       0.00000000    
  -12.6499996       0.00000000    
  -12.6400003       0.00000000    
  -12.6300001       0.00000000    
  -12.6199999       0.00000000    
  -12.6099997       0.00000000    
  -12.6000004      -0.00000000    
  -12.5900002      -0.00000000    
  -12.5799999       0.00000000    
  -12.5699997      -0.00000000    
  -12.5600004      -0.00000000    
  -12.5500002       0.00000000    
  -12.5400000      -0.00000000    
  -12.5299997       0.00000000    
  -12.5200005      -1.40129846E-45
  -12.5100002      -0.00000000    
  -12.5000000       0.00000000    
  -12.4899998       0.00000000    
  -12.4799995       0.00000000    
  -12.4700003      -1.40129846E-45
  -12.4600000      -0.00000000    
  -12.4499998       1.40129846E-45
  -12.4399996       2.80259693E-45
  -12.4300003       2.80259693E-45
  -12.4200001       2.80259693E-45
  -12.4099998       2.80259693E-45
  -12.3999996       1.40129846E-45
  -12.3900003       2.80259693E-45
  -12.3800001       2.80259693E-45
  -12.3699999       5.60519386E-45
  -12.3599997       5.60519386E-45
  -12.3500004       5.60519386E-45
  -12.3400002       8.40779079E-45
  -12.3299999       8.40779079E-45
  -12.3199997       7.00649232E-45
  -12.3100004       8.40779079E-45
  -12.3000002       1.40129846E-44
  -12.2900000       2.10194770E-44
  -12.2799997       1.68155816E-44
  -12.2700005       9.80908925E-45
  -12.2600002       1.26116862E-44
  -12.2500000       1.68155816E-44
  -12.2399998       5.60519386E-45
  -12.2299995      -4.20389539E-45
  -12.2200003      -4.20389539E-45
  -12.2100000      -4.20389539E-45
  -12.1999998      -1.40129846E-45
  -12.1899996       9.80908925E-45
  -12.1800003       1.82168800E-44
  -12.1700001       3.22298647E-44
  -12.1599998       4.34402524E-44
  -12.1499996       5.46506401E-44
  -12.1400003       7.56701171E-44
  -12.1300001       9.66895940E-44
  -12.1199999       1.31722056E-43
  -12.1099997       1.80767502E-43
  -12.1000004       2.31214247E-43
  -12.0900002       2.85864887E-43
  -12.0799999       3.47522019E-43
  -12.0699997       4.21790838E-43
  -12.0600004       5.24085626E-43
  -12.0500002       6.43195995E-43
  -12.0400000       7.86128438E-43
  -12.0299997       9.64093343E-43
  -12.0200005       1.18409720E-42
  -12.0100002       1.45735040E-42
  -12.0000000       1.78945814E-42
  -11.9899998       2.18042041E-42
  -11.9799995       2.63724371E-42
  -11.9700003       3.19075660E-42
  -11.9600000       3.85216948E-42
  -11.9499998       4.63969922E-42
  -11.9399996       5.57436529E-42
  -11.9300003       6.67858848E-42
  -11.9200001       7.99300644E-42
  -11.9099998       9.54424384E-42
  -11.8999996       1.13757409E-41
  -11.8900003       1.35225302E-41
  -11.8800001       1.60420648E-41
  -11.8699999       1.90072124E-41
  -11.8599997       2.25062546E-41
  -11.8500004       2.66204669E-41
  -11.8400002       3.14115064E-41
  -11.8299999       3.69970821E-41
  -11.8199997       4.35243303E-41
  -11.8100004       5.11291771E-41
  -11.8000002       5.99503509E-41
  -11.7900000       7.01798297E-41
  -11.7799997       8.20376173E-41
  -11.7700005       9.57549280E-41
  -11.7600002       1.11602212E-40
  -11.7500000       1.29880749E-40
  -11.7399998       1.50928252E-40
  -11.7299995       1.75130078E-40
  -11.7200003       2.02933241E-40
  -11.7100000       2.34836603E-40
  -11.6999998       2.71390875E-40
  -11.6899996       3.13223838E-40
  -11.6800003       3.61023530E-40
  -11.6700001       4.15556461E-40
  -11.6599998       4.77708252E-40
  -11.6499996       5.48442996E-40
  -11.6400003       6.28856508E-40
  -11.6300001       7.20170721E-40
  -11.6199999       8.23725276E-40
  -11.6099997       9.41025168E-40
  -11.6000004       1.07374215E-39
  -11.5900002       1.22369650E-39
  -11.5799999       1.39292290E-39
  -11.5699997       1.58370689E-39
  -11.5600004       1.79854696E-39
  -11.5500002       2.04018827E-39
  -11.5400000       2.31170526E-39
  -11.5299997       2.61642882E-39
  -11.5200005       2.95803596E-39
  -11.5100002       3.34058904E-39
  -11.5000000       3.76854980E-39
  -11.4899998       4.24677372E-39
  -11.4799995       4.78057315E-39
  -11.4700003       5.37583633E-39
  -11.4600000       6.03895178E-39
  -11.4499998       6.77688116E-39
  -11.4399996       7.59722230E-39
  -11.4300003       8.50824987E-39
  -11.4200001       9.51900786E-39
  -11.4099998       1.06392941E-38
  -11.3999996       1.18797305E-38
  -11.3900003       1.32518862E-38
  -11.3800001       1.47682691E-38
  -11.3699999       1.64424578E-38
  -11.3599997       1.82891254E-38
  -11.3500004       2.03240574E-38
  -11.3400002       2.25643805E-38
  -11.3299999       2.50285330E-38
  -11.3199997       2.77363405E-38
  -11.3100004       3.07092008E-38
  -11.3000002       3.39701148E-38
  -11.2900000       3.75436725E-38
  -11.2799997       4.14563781E-38
  -11.2700005       4.57366134E-38
  -11.2600002       5.04146606E-38
  -11.2500000       5.55230381E-38
  -11.2399998       6.10964729E-38
  -11.2299995       6.71718977E-38
  -11.2200003       7.37888403E-38
  -11.2100000       8.09892611E-38
  -11.1999998       8.88178896E-38
  -11.1899996       9.73223868E-38
  -11.1800003       1.06553143E-37
  -11.1700001       1.16563751E-37
  -11.1599998       1.27410742E-37
  -11.1499996       1.39154195E-37
  -11.1400003       1.51857750E-37
  -11.1300001       1.65588076E-37
  -11.1199999       1.80416124E-37
  -11.1099997       1.96416194E-37
  -11.1000004       2.13666694E-37
  -11.0900002       2.32249862E-37
  -11.0799999       2.52252086E-37
  -11.0699997       2.73764148E-37
  -11.0600004       2.96881111E-37
  -11.0500002       3.21702523E-37
  -11.0400000       3.48331633E-37
  -11.0299997       3.76877227E-37
  -11.0200005       4.07451810E-37
  -11.0100002       4.40172600E-37
  -11.0000000       4.75162328E-37
  -10.9899998       5.12547177E-37
  -10.9799995       5.52458444E-37
  -10.9700003       5.95031775E-37
  -10.9600000       6.40407299E-37
  -10.9499998       6.88729272E-37
  -10.9399996       7.40147912E-37
  -10.9300003       7.94814068E-37
  -10.9200001       8.52885939E-37
  -10.9099998       9.14523161E-37
  -10.8999996       9.79891291E-37
  -10.8900003       1.04915570E-36
  -10.8800001       1.12248635E-36
  -10.8699999       1.20005712E-36
  -10.8599997       1.28204164E-36
  -10.8500004       1.36861606E-36
  -10.8400002       1.45995722E-36
  -10.8299999       1.55624073E-36
  -10.8199997       1.65764757E-36
  -10.8100004       1.76435557E-36
  -10.8000002       1.87653317E-36
  -10.7900000       1.99435380E-36
  -10.7799997       2.11798716E-36
  -10.7700005       2.24759843E-36
  -10.7600002       2.38334278E-36
  -10.7500000       2.52537803E-36
  -10.7399998       2.67383782E-36
  -10.7299995       2.82886475E-36
  -10.7200003       2.99058042E-36
  -10.7100000       3.15909730E-36
  -10.6999998       3.33451027E-36
  -10.6899996       3.51689844E-36
  -10.6800003       3.70632816E-36
  -10.6700001       3.90284429E-36
  -10.6599998       4.10646403E-36
  -10.6499996       4.31719385E-36
  -10.6400003       4.53500612E-36
  -10.6300001       4.75983986E-36
  -10.6199999       4.99159822E-36
  -10.6099997       5.23016531E-36
  -10.6000004       5.47538295E-36
  -10.5900002       5.72704736E-36
  -10.5799999       5.98491068E-36
  -10.5699997       6.24868231E-36
  -10.5600004       6.51802147E-36
  -10.5500002       6.79253355E-36
  -10.5400000       7.07176942E-36
  -10.5299997       7.35519457E-36
  -10.5200005       7.64222498E-36
  -10.5100002       7.93220417E-36
  -10.5000000       8.22440678E-36
  -10.4899998       8.51801491E-36
  -10.4799995       8.81211521E-36
  -10.4700003       9.10571329E-36
  -10.4600000       9.39771071E-36
  -10.4499998       9.68691647E-36
  -10.4399996       9.97201546E-36
  -10.4300003       1.02515928E-35
  -10.4200001       1.05240709E-35
  -10.4099998       1.07877780E-35
  -10.3999996       1.10408788E-35
  -10.3900003       1.12814110E-35
  -10.3800001       1.15072488E-35
  -10.3699999       1.17160906E-35
  -10.3599997       1.19054712E-35
  -10.3500004       1.20727402E-35
  -10.3400002       1.22150408E-35
  -10.3299999       1.23293229E-35
  -10.3199997       1.24123135E-35
  -10.3100004       1.24605142E-35
  -10.3000002       1.24701727E-35
  -10.2900000       1.24372913E-35
  -10.2799997       1.23576053E-35
  -10.2700005       1.22265647E-35
  -10.2600002       1.20393236E-35
  -10.2500000       1.17906941E-35
  -10.2399998       1.14751538E-35
  -10.2299995       1.10868640E-35
  -10.2200003       1.06195727E-35
  -10.2100000       1.00666362E-35
  -10.1999998       9.42101899E-36
  -10.1899996       8.67523297E-36
  -10.1800003       7.82129559E-36
  -10.1700001       6.85071995E-36
  -10.1599998       5.75456106E-36
  -10.1499996       4.52325369E-36
  -10.1400003       3.14663745E-36
  -10.1300001       1.61397369E-36
  -10.1199999      -8.61885492E-38
  -10.1099997      -1.96598202E-36
  -10.1000004      -4.03827904E-36
  -10.0900002      -6.31676039E-36
  -10.0799999      -8.81596656E-36
  -10.0699997      -1.15512940E-35
  -10.0600004      -1.45391489E-35
  -10.0500002      -1.77969386E-35
  -10.0400000      -2.13430888E-35
  -10.0299997      -2.51972609E-35
  -10.0200005      -2.93802989E-35
  -10.0100002      -3.39143465E-35
  -10.0000000      -3.88229653E-35
  -9.98999977      -4.41311459E-35
  -9.97999954      -4.98655265E-35
  -9.97000027      -5.60543894E-35
  -9.96000004      -6.27277707E-35
  -9.94999981      -6.99176234E-35
  -9.93999958      -7.76579380E-35
  -9.93000031      -8.59849437E-35
  -9.92000008      -9.49371539E-35
  -9.90999985      -1.04555459E-34
  -9.89999962      -1.14883393E-34
  -9.89000034      -1.25967329E-34
  -9.88000011      -1.37856720E-34
  -9.86999989      -1.50603980E-34
  -9.85999966      -1.64265004E-34
  -9.85000038      -1.78899335E-34
  -9.84000015      -1.94570350E-34
  -9.82999992      -2.11345412E-34
  -9.81999969      -2.29296474E-34
  -9.81000042      -2.48499644E-34
  -9.80000019      -2.69036632E-34
  -9.78999996      -2.90993718E-34
  -9.77999973      -3.14462968E-34
  -9.77000046      -3.39542347E-34
  -9.76000023      -3.66336455E-34
  -9.75000000      -3.94956643E-34
  -9.73999977      -4.25520828E-34
  -9.72999954      -4.58154433E-34
  -9.72000027      -4.92991448E-34
  -9.71000004      -5.30173942E-34
  -9.69999981      -5.69853075E-34
  -9.68999958      -6.12189330E-34
  -9.68000031      -6.57352834E-34
  -9.67000008      -7.05525510E-34
  -9.65999985      -7.56900858E-34
  -9.64999962      -8.11682063E-34
  -9.64000034      -8.70088337E-34
  -9.63000011      -9.32348212E-34
  -9.61999989      -9.98708082E-34
  -9.60999966      -1.06942646E-33
  -9.60000038      -1.14478080E-33
  -9.59000015      -1.22506100E-33
  -9.57999992      -1.31057729E-33
  -9.56999969      -1.40165506E-33
  -9.56000042      -1.49864262E-33
  -9.55000019      -1.60190676E-33
  -9.53999996      -1.71184028E-33
  -9.52999973      -1.82885046E-33
  -9.52000046      -1.95337296E-33
  -9.51000023      -2.08586660E-33
  -9.50000000      -2.22682105E-33
  -9.48999977      -2.37674617E-33
  -9.47999954      -2.53618508E-33
  -9.47000027      -2.70570955E-33
  -9.46000004      -2.88592385E-33
  -9.44999981      -3.07746166E-33
  -9.43999958      -3.28099575E-33
  -9.43000031      -3.49722390E-33
  -9.42000008      -3.72689713E-33
  -9.40999985      -3.97079677E-33
  -9.39999962      -4.22974679E-33
  -9.39000034      -4.50461558E-33
  -9.38000011      -4.79630311E-33
  -9.36999989      -5.10577771E-33
  -9.35999966      -5.43403267E-33
  -9.35000038      -5.78211565E-33
  -9.34000015      -6.15113933E-33
  -9.32999992      -6.54226671E-33
  -9.31999969      -6.95670634E-33
  -9.31000042      -7.39572777E-33
  -9.30000019      -7.86066664E-33
  -9.28999996      -8.35290049E-33
  -9.27999973      -8.87389428E-33
  -9.27000046      -9.42517174E-33
  -9.26000023      -1.00083176E-32
  -9.25000000      -1.06249841E-32
  -9.23999977      -1.12769023E-32
  -9.22999954      -1.19658852E-32
  -9.22000027      -1.26937991E-32
  -9.21000004      -1.34626062E-32
  -9.19999981      -1.42743497E-32
  -9.18999958      -1.51311690E-32
  -9.18000031      -1.60352226E-32
  -9.17000008      -1.69888174E-32
  -9.15999985      -1.79943426E-32
  -9.14999962      -1.90542447E-32
  -9.14000034      -2.01711025E-32
  -9.13000011      -2.13475725E-32
  -9.11999989      -2.25863599E-32
  -9.10999966      -2.38903696E-32
  -9.10000038      -2.52624991E-32
  -9.09000015      -2.67057887E-32
  -9.07999992      -2.82233519E-32
  -9.06999969      -2.98184419E-32
  -9.06000042      -3.14943971E-32
  -9.05000019      -3.32546970E-32
  -9.03999996      -3.51028356E-32
  -9.02999973      -3.70424689E-32
  -9.02000046      -3.90772908E-32
  -9.01000023      -4.12111892E-32
  -9.00000000      -4.34480873E-32
  -8.98999977      -4.57920877E-32
  -8.97999954      -4.82472252E-32
  -8.97000027      -5.08178727E-32
  -8.96000004      -5.35081737E-32
  -8.94999981      -5.63226833E-32
  -8.93999958      -5.92658038E-32
  -8.93000031      -6.23422665E-32
  -8.92000008      -6.55566911E-32
  -8.90999985      -6.89137090E-32
  -8.89999962      -7.24183219E-32
  -8.89000034      -7.60752966E-32
  -8.88000011      -7.98895231E-32
  -8.86999989      -8.38662087E-32
  -8.85999966      -8.80102612E-32
  -8.85000038      -9.23267881E-32
  -8.84000015      -9.68207677E-32
  -8.82999992      -1.01497354E-31
  -8.81999969      -1.06361867E-31
  -8.81000042      -1.11419338E-31
  -8.80000019      -1.16674973E-31
  -8.78999996      -1.22133651E-31
  -8.77999973      -1.27800498E-31
  -8.77000046      -1.33680603E-31
  -8.76000023      -1.39778891E-31
  -8.75000000      -1.46099971E-31
  -8.73999977      -1.52648509E-31
  -8.72999954      -1.59429525E-31
  -8.72000027      -1.66446838E-31
  -8.71000004      -1.73705210E-31
  -8.69999981      -1.81208614E-31
  -8.68999958      -1.88960893E-31
  -8.68000031      -1.96965751E-31
  -8.67000008      -2.05226432E-31
  -8.65999985      -2.13746250E-31
  -8.64999962      -2.22527170E-31
  -8.64000034      -2.31572223E-31
  -8.63000011      -2.40883125E-31
  -8.61999989      -2.50461335E-31
  -8.60999966      -2.60307958E-31
  -8.60000038      -2.70423957E-31
  -8.59000015      -2.80808838E-31
  -8.57999992      -2.91462508E-31
  -8.56999969      -3.02382991E-31
  -8.56000042      -3.13568972E-31
  -8.55000019      -3.25018240E-31
  -8.53999996      -3.36727175E-31
  -8.52999973      -3.48690862E-31
  -8.52000046      -3.60905377E-31
  -8.51000023      -3.73363760E-31
  -8.50000000      -3.86060133E-31
  -8.48999977      -3.98985446E-31
  -8.47999954      -4.12130811E-31
  -8.47000027      -4.25486684E-31
  -8.46000004      -4.39040510E-31
  -8.44999981      -4.52780441E-31
  -8.43999958      -4.66691570E-31
  -8.43000031      -4.80758711E-31
  -8.42000008      -4.94964090E-31
  -8.40999985      -5.09289134E-31
  -8.39999962      -5.23714942E-31
  -8.39000034      -5.38217486E-31
  -8.38000011      -5.52774244E-31
  -8.36999989      -5.67358884E-31
  -8.35999966      -5.81942866E-31
  -8.35000038      -5.96495628E-31
  -8.34000015      -6.10986134E-31
  -8.32999992      -6.25379169E-31
  -8.31999969      -6.39638621E-31
  -8.31000042      -6.53725040E-31
  -8.30000019      -6.67596485E-31
  -8.28999996      -6.81208662E-31
  -8.27999973      -6.94514271E-31
  -8.27000046      -7.07463846E-31
  -8.26000023      -7.20003267E-31
  -8.25000000      -7.32078368E-31
  -8.23999977      -7.43626895E-31
  -8.22999954      -7.54586922E-31
  -8.22000027      -7.64893469E-31
  -8.21000004      -7.74478262E-31
  -8.19999981      -7.83266163E-31
  -8.18999958      -7.91181519E-31
  -8.18000031      -7.98143925E-31
  -8.17000008      -8.04069545E-31
  -8.15999985      -8.08868571E-31
  -8.14999962      -8.12447246E-31
  -8.14000034      -8.14711249E-31
  -8.13000011      -8.15557228E-31
  -8.11999989      -8.14880238E-31
  -8.10999966      -8.12570344E-31
  -8.10000038      -8.08512538E-31
  -8.09000015      -8.02586071E-31
  -8.07999992      -7.94666531E-31
  -8.06999969      -7.84628702E-31
  -8.06000042      -7.72334865E-31
  -8.05000019      -7.57644618E-31
  -8.03999996      -7.40412623E-31
  -8.02999973      -7.20490063E-31
  -8.02000046      -6.97720314E-31
  -8.01000023      -6.71943416E-31
  -8.00000000      -6.42988545E-31
  -7.98999977      -6.10689346E-31
  -7.98000002      -5.74867613E-31
  -7.96999979      -5.35337713E-31
  -7.96000004      -4.91913494E-31
  -7.94999981      -4.44396815E-31
  -7.94000006      -3.92588077E-31
  -7.92999983      -3.36282391E-31
  -7.92000008      -2.75267181E-31
  -7.90999985      -2.09324511E-31
  -7.90000010      -1.38231906E-31
  -7.88999987      -6.17610257E-32
  -7.88000011       2.03255478E-32
  -7.86999989       1.08266133E-31
  -7.86000013       2.02308032E-31
  -7.84999990       3.02700140E-31
  -7.84000015       4.09703980E-31
  -7.82999992       5.23580089E-31
  -7.82000017       6.44593518E-31
  -7.80999994       7.73015476E-31
  -7.80000019       9.09124510E-31
  -7.78999996       1.05320109E-30
  -7.78000021       1.20553133E-30
  -7.76999998       1.36640338E-30
  -7.76000023       1.53611335E-30
  -7.75000000       1.71495899E-30
  -7.73999977       1.90324027E-30
  -7.73000002       2.10126179E-30
  -7.71999979       2.30932918E-30
  -7.71000004       2.52775183E-30
  -7.69999981       2.75684251E-30
  -7.69000006       2.99690987E-30
  -7.67999983       3.24827232E-30
  -7.67000008       3.51124037E-30
  -7.65999985       3.78613113E-30
  -7.65000010       4.07325682E-30
  -7.63999987       4.37293302E-30
  -7.63000011       4.68546895E-30
  -7.61999989       5.01117417E-30
  -7.61000013       5.35035451E-30
  -7.59999990       5.70331352E-30
  -7.59000015       6.07035477E-30
  -7.57999992       6.45176149E-30
  -7.57000017       6.84782823E-30
  -7.55999994       7.25883372E-30
  -7.55000019       7.68505782E-30
  -7.53999996       8.12675405E-30
  -7.53000021       8.58418047E-30
  -7.51999998       9.05758684E-30
  -7.51000023       9.54721164E-30
  -7.50000000       1.00532678E-29
  -7.48999977       1.05759652E-29
  -7.48000002       1.11154964E-29
  -7.46999979       1.16720307E-29
  -7.46000004       1.22457389E-29
  -7.44999981       1.28367639E-29
  -7.44000006       1.34452043E-29