  -16.0000000       0.00000000    
  -15.9899998       0.00000000    
  -15.9799995       0.00000000    
  -15.9700003       0.00000000    
  -15.9600000       0.00000000    
  -15.9499998       0.00000000    
  -15.9399996       0.00000000    
  -15.9300003       0.00000000    
  -15.9200001       0.00000000    
  -15.9099998       0.00000000    
  -15.8999996       0.00000000    
  -15.8900003       0.00000000    
  -15.8800001       0.00000000    
  -15.8699999       0.00000000    
  -15.8599997       0.00000000    
  -15.8500004       0.00000000    
  -15.8400002       0.00000000    
  -15.8299999       0.00000000    
  -15.8199997       0.00000000    
  -15.8100004       0.00000000    
  -15.8000002       0.00000000    
  -15.7900000       0.00000000    
  -15.7799997       0.00000000    
  -15.7700005       0.00000000    
  -15.7600002       0.00000000    
  -15.7500000       0.00000000    
  -15.7399998       0.00000000    
  -15.7299995       0.00000000    
  -15.7200003       0.00000000    
  -15.7100000       0.00000000    
  -15.6999998       0.00000000    
  -15.6899996       0.00000000    
  -15.6800003       0.00000000    
  -15.6700001       0.00000000    
  -15.6599998       0.00000000    
  -15.6499996       0.00000000    
  -15.6400003       0.00000000    
  -15.6300001       0.00000000    
  -15.6199999       0.00000000    
  -15.6099997       0.00000000    
  -15.6000004       0.00000000    
  -15.5900002       0.00000000    
  -15.5799999       0.00000000    
  -15.5699997       0.00000000    
  -15.5600004       0.00000000    
  -15.5500002       0.00000000    
  -15.5400000       0.00000000    
  -15.5299997       0.00000000    
  -15.5200005       0.00000000    
  -15.5100002       0.00000000    
  -15.5000000       0.00000000    
  -15.4899998       0.00000000    
  -15.4799995       0.00000000    
  -15.4700003       0.00000000    
  -15.4600000       0.00000000    
  -15.4499998       0.00000000    
  -15.4399996       0.00000000    
  -15.4300003       0.00000000    
  -15.4200001       0.00000000    
  -15.4099998       0.00000000    
  -15.3999996       0.00000000    
  -15.3900003       0.00000000    
  -15.3800001       0.00000000    
  -15.3699999       0.00000000    
  -15.3599997       0.00000000    
  -15.3500004       0.00000000    
  -15.3400002       0.00000000    
  -15.3299999       0.00000000    
  -15.3199997       0.00000000    
  -15.3100004       0.00000000    
  -15.3000002       0.00000000    
  -15.2900000       0.00000000    
  -15.2799997       0.00000000    
  -15.2700005       0.00000000    
  -15.2600002       0.00000000    
  -15.2500000       0.00000000    
  -15.2399998       0.00000000    
  -15.2299995       0.00000000    
  -15.2200003       0.00000000    
  -15.2100000       0.00000000    
  -15.1999998       0.00000000    
  -15.1899996       0.00000000    
  -15.1800003       0.00000000    
  -15.1700001       0.00000000    
  -15.1599998       0.00000000    
  -15.1499996       0.00000000    
  -15.1400003       0.00000000    
  -15.1300001       0.00000000    
  -15.1199999       0.00000000    
  -15.1099997       0.00000000    
  -15.1000004       0.00000000    
  -15.0900002       0.00000000    
  -15.0799999       0.00000000    
  -15.0699997       0.00000000    
  -15.0600004       0.00000000    
  -15.0500002       0.00000000    
  -15.0400000       0.00000000    
  -15.0299997       0.00000000    
  -15.0200005       0.00000000    
  -15.0100002       0.00000000    
  -15.0000000       0.00000000    
  -14.9899998       0.00000000    
  -14.9799995       0.00000000    
  -14.9700003       0.00000000    
  -14.9600000       0.00000000    
  -14.9499998       0.00000000    
  -14.9399996       0.00000000    
  -14.9300003       0.00000000    
  -14.9200001       0.00000000    
  -14.9099998       0.00000000    
  -14.8999996       0.00000000    
  -14.8900003       0.00000000    
  -14.8800001       0.00000000    
  -14.8699999       0.00000000    
  -14.8599997       0.00000000    
  -14.8500004       0.00000000    
  -14.8400002       0.00000000    
  -14.8299999       0.00000000    
  -14.8199997       0.00000000    
  -14.8100004       0.00000000    
  -14.8000002       0.00000000    
  -14.7900000       0.00000000    
  -14.7799997       0.00000000    
  -14.7700005       0.00000000    
  -14.7600002       0.00000000    
  -14.7500000       0.00000000    
  -14.7399998       0.00000000    
  -14.7299995       0.00000000    
  -14.7200003       0.00000000    
  -14.7100000       0.00000000    
  -14.6999998       0.00000000    
  -14.6899996       0.00000000    
  -14.6800003       0.00000000    
  -14.6700001       0.00000000    
  -14.6599998       0.00000000    
  -14.6499996       0.00000000    
  -14.6400003       0.00000000    
  -14.6300001       0.00000000    
  -14.6199999       0.00000000    
  -14.6099997       0.00000000    
  -14.6000004       0.00000000    
  -14.5900002       0.00000000    
  -14.5799999       0.00000000    
  -14.5699997       0.00000000    
  -14.5600004       0.00000000    
  -14.5500002       0.00000000    
  -14.5400000       0.00000000    
  -14.5299997       0.00000000    
  -14.5200005       0.00000000    
  -14.5100002       0.00000000    
  -14.5000000       0.00000000    
  -14.4899998       0.00000000    
  -14.4799995       0.00000000    
  -14.4700003       0.00000000    
  -14.4600000       0.00000000    
  -14.4499998       0.00000000    
  -14.4399996       0.00000000    
  -14.4300003       0.00000000    
  -14.4200001       0.00000000    
  -14.4099998       0.00000000    
  -14.3999996       0.00000000    
  -14.3900003       0.00000000    
  -14.3800001       0.00000000    
  -14.3699999       0.00000000    
  -14.3599997       0.00000000    
  -14.3500004       0.00000000    
  -14.3400002       0.00000000    
  -14.3299999       0.00000000    
  -14.3199997       0.00000000    
  -14.3100004       0.00000000    
  -14.3000002       0.00000000    
  -14.2900000       0.00000000    
  -14.2799997       0.00000000    
  -14.2700005       0.00000000    
  -14.2600002       0.00000000    
  -14.2500000       0.00000000    
  -14.2399998       0.00000000    
  -14.2299995       0.00000000    
  -14.2200003       0.00000000    
  -14.2100000       0.00000000    
  -14.1999998       0.00000000    
  -14.1899996       0.00000000    
  -14.1800003       0.00000000    
  -14.1700001       0.00000000    
  -14.1599998       0.00000000    
  -14.1499996       0.00000000    
  -14.1400003       0.00000000    
  -14.1300001       0.00000000    
  -14.1199999       0.00000000    
  -14.1099997       0.00000000    
  -14.1000004       0.00000000    
  -14.0900002       0.00000000    
  -14.0799999       0.00000000    
  -14.0699997       0.00000000    
  -14.0600004       0.00000000    
  -14.0500002       0.00000000    
  -14.0400000       0.00000000    
  -14.0299997       0.00000000    
  -14.0200005       0.00000000    
  -14.0100002       0.00000000    
  -14.0000000       0.00000000    
  -13.9899998       0.00000000    
  -13.9799995       0.00000000    
  -13.9700003       0.00000000    
  -13.9600000       0.00000000    
  -13.9499998       0.00000000    
  -13.9399996       0.00000000    
  -13.9300003       0.00000000    
  -13.9200001       0.00000000    
  -13.9099998       0.00000000    
  -13.8999996       0.00000000    
  -13.8900003       0.00000000    
  -13.8800001       0.00000000    
  -13.8699999       0.00000000    
  -13.8599997       0.00000000    
  -13.8500004       0.00000000    
  -13.8400002       0.00000000    
  -13.8299999       0.00000000    
  -13.8199997       0.00000000    
  -13.8100004       0.00000000    
  -13.8000002       0.00000000    
  -13.7900000       0.00000000    
  -13.7799997       0.00000000    
  -13.7700005       0.00000000    
  -13.7600002       0.00000000    
  -13.7500000       0.00000000    
  -13.7399998       0.00000000    
  -13.7299995       0.00000000    
  -13.7200003       0.00000000    
  -13.7100000       0.00000000    
  -13.6999998       0.00000000    
  -13.6899996       0.00000000    
  -13.6800003       0.00000000    
  -13.6700001       0.00000000    
  -13.6599998       0.00000000    
  -13.6499996       0.00000000    
  -13.6400003       0.00000000    
  -13.6300001       0.00000000    
  -13.6199999       0.00000000    
  -13.6099997       0.00000000    
  -13.6000004       0.00000000    
  -13.5900002       0.00000000    
  -13.5799999       0.00000000    
  -13.5699997       0.00000000    
  -13.5600004       0.00000000    
  -13.5500002       0.00000000    
  -13.5400000       0.00000000    
  -13.5299997       0.00000000    
  -13.5200005       0.00000000    
  -13.5100002       0.00000000    
  -13.5000000       0.00000000    
  -13.4899998       0.00000000    
  -13.4799995       0.00000000    
  -13.4700003       0.00000000    
  -13.4600000       0.00000000    
  -13.4499998       0.00000000    
  -13.4399996       0.00000000    
  -13.4300003       0.00000000    
  -13.4200001       0.00000000    
  -13.4099998       0.00000000    
  -13.3999996       0.00000000    
  -13.3900003       0.00000000    
  -13.3800001       0.00000000    
  -13.3699999       0.00000000    
  -13.3599997       0.00000000    
  -13.3500004      -0.00000000    
  -13.3400002      -0.00000000    
  -13.3299999       0.00000000    
  -13.3199997       0.00000000    
  -13.3100004       0.00000000    
  -13.3000002       0.00000000    
  -13.2900000       0.00000000    
  -13.2799997      -0.00000000    
  -13.2700005      -0.00000000    
  -13.2600002      -0.00000000    
  -13.2500000      -0.00000000    
  -13.2399998       0.00000000    
  -13.2299995       0.00000000    
  -13.2200003      -0.00000000    
  -13.2100000      -0.00000000    
  -13.1999998      -0.00000000    
  -13.1899996       0.00000000    
  -13.1800003       0.00000000    
  -13.1700001       0.00000000    
  -13.1599998       0.00000000    
  -13.1499996       0.00000000    
  -13.1400003       1.40129846E-45
  -13.1300001       0.00000000    
  -13.1199999      -0.00000000    
  -13.1099997      -1.40129846E-45
  -13.1000004      -2.80259693E-45
  -13.0900002      -2.80259693E-45
  -13.0799999      -2.80259693E-45
  -13.0699997      -1.40129846E-45
  -13.0600004      -1.40129846E-45
  -13.0500002      -4.20389539E-45
  -13.0400000      -7.00649232E-45
  -13.0299997      -7.00649232E-45
  -13.0200005      -4.20389539E-45
  -13.0100002      -2.80259693E-45
  -13.0000000      -5.60519386E-45
  -12.9899998      -7.00649232E-45
  -12.9799995      -4.20389539E-45
  -12.9700003      -8.40779079E-45
  -12.9600000      -1.12103877E-44
  -12.9499998      -1.26116862E-44
  -12.9399996      -1.40129846E-44
  -12.9300003      -1.82168800E-44
  -12.9200001      -2.52233724E-44
  -12.9099998      -3.50324616E-44
  -12.8999996      -4.90454463E-44
  -12.8900003      -6.58610278E-44
  -12.8800001      -8.68805048E-44
  -12.8699999      -1.10702579E-43
  -12.8599997      -1.40129846E-43
  -12.8500004      -1.75162308E-43
  -12.8400002      -2.17201262E-43
  -12.8299999      -2.70450604E-43
  -12.8199997      -3.40515527E-43
  -12.8100004      -4.20389539E-43
  -12.8000002      -5.15677835E-43
  -12.7900000      -6.34788204E-43
  -12.7799997      -7.80523245E-43
  -12.7700005      -9.58488150E-43
  -12.7600002      -1.17568941E-42
  -12.7500000      -1.43492963E-42
  -12.7399998      -1.74461659E-42
  -12.7299995      -2.11736198E-42
  -12.7200003      -2.56858009E-42
  -12.7100000      -3.10667870E-42
  -12.6999998      -3.74426950E-42
  -12.6899996      -4.50377326E-42
  -12.6800003      -5.41041337E-42
  -12.6700001      -6.48380799E-42
  -12.6599998      -7.75478570E-42
  -12.6499996      -9.25417506E-42
  -12.6400003      -1.10212124E-41
  -12.6300001      -1.31077458E-41
  -12.6199999      -1.55684259E-41
  -12.6099997      -1.84508969E-41
  -12.6000004      -2.18252236E-41
  -12.5900002      -2.57726814E-41
  -12.5799999      -3.03843546E-41
  -12.5699997      -3.57667420E-41
  -12.5600004      -4.20375526E-41
  -12.5500002      -4.93271072E-41
  -12.5400000      -5.77881474E-41
  -12.5299997      -6.75986379E-41
  -12.5200005      -7.89533594E-41
  -12.5100002      -9.20737169E-41
  -12.5000000      -1.07211944E-40
  -12.4899998      -1.24663715E-40
  -12.4799995      -1.44756934E-40
  -12.4700003      -1.67857339E-40
  -12.4600000      -1.94375511E-40
  -12.4499998      -2.24783688E-40
  -12.4399996      -2.59589139E-40
  -12.4300003      -2.99377608E-40
  -12.4200001      -3.44823118E-40
  -12.4099998      -3.96659951E-40
  -12.3999996      -4.55710668E-40
  -12.3900003      -5.22894522E-40
  -12.3800001      -5.99223249E-40
  -12.3699999      -6.85851520E-40
  -12.3599997      -7.84055918E-40
  -12.3500004      -8.95246149E-40
  -12.3400002      -1.02099587E-39
  -12.3299999      -1.16305671E-39
  -12.3199997      -1.32335965E-39
  -12.3100004      -1.50404167E-39
  -12.3000002      -1.70746536E-39
  -12.2900000      -1.93623855E-39
  -12.2799997      -2.19323528E-39
  -12.2700005      -2.48164493E-39
  -12.2600002      -2.80496793E-39
  -12.2500000      -3.16703682E-39
  -12.2399998      -3.57207234E-39
  -12.2299995      -4.02470715E-39
  -12.2200003      -4.53003079E-39
  -12.2100000      -5.09360361E-39
  -12.1999998      -5.72151284E-39
  -12.1899996      -6.42040064E-39
  -12.1800003      -7.19753695E-39
  -12.1700001      -8.06086152E-39
  -12.1599998      -9.01899233E-39
  -12.1499996      -1.00813237E-38
  -12.1400003      -1.12580851E-38
  -12.1300001      -1.25603804E-38
  -12.1199999      -1.40002609E-38
  -12.1099997      -1.55908243E-38
  -12.1000004      -1.73462099E-38
  -12.0900002      -1.92817506E-38
  -12.0799999      -2.14140364E-38
  -12.0699997      -2.37609689E-38
  -12.0600004      -2.63418636E-38
  -12.0500002      -2.91775760E-38
  -12.0400000      -3.22905465E-38
  -12.0299997      -3.57049167E-38
  -12.0200005      -3.94466863E-38
  -12.0100002      -4.35437327E-38
  -12.0000000      -4.80260128E-38
  -11.9899998      -5.29256585E-38
  -11.9799995      -5.82770212E-38
  -11.9700003      -6.41169213E-38
  -11.9600000      -7.04847578E-38
  -11.9499998      -7.74224688E-38
  -11.9399996      -8.49749182E-38
  -11.9300003      -9.31899913E-38
  -11.9200001      -1.02118538E-37
  -11.9099998      -1.11814817E-37
  -11.8999996      -1.22336439E-37
  -11.8900003      -1.33744623E-37
  -11.8800001      -1.46104333E-37
  -11.8699999      -1.59484368E-37
  -11.8599997      -1.73957685E-37
  -11.8500004      -1.89601332E-37
  -11.8400002      -2.06496844E-37
  -11.8299999      -2.24730383E-37
  -11.8199997      -2.44392932E-37
  -11.8100004      -2.65579802E-37
  -11.8000002      -2.88391753E-37
  -11.7900000      -3.12935036E-37
  -11.7799997      -3.39320724E-37
  -11.7700005      -3.67665763E-37
  -11.7600002      -3.98092661E-37
  -11.7500000      -4.30729149E-37
  -11.7399998      -4.65709280E-37
  -11.7299995      -5.03173185E-37
  -11.7200003      -5.43267272E-37
  -11.7100000      -5.86144449E-37
  -11.6999998      -6.31962379E-37
  -11.6899996      -6.80886574E-37
  -11.6800003      -7.33088238E-37
  -11.6700001      -7.88744853E-37
  -11.6599998      -8.48040540E-37
  -11.6499996      -9.11165247E-37
  -11.6400003      -9.78315828E-37
  -11.6300001      -1.04969461E-36
  -11.6199999      -1.12551064E-36
  -11.6099997      -1.20597818E-36
  -11.6000004      -1.29131766E-36
  -11.5900002      -1.38175517E-36
  -11.5799999      -1.47752013E-36
  -11.5699997      -1.57884823E-36
  -11.5600004      -1.68598097E-36
  -11.5500002      -1.79916194E-36
  -11.5400000      -1.91863759E-36
  -11.5299997      -2.04465975E-36
  -11.5200005      -2.17747845E-36
  -11.5100002      -2.31734785E-36
  -11.5000000      -2.46452392E-36
  -11.4899998      -2.61926225E-36
  -11.4799995      -2.78181646E-36
  -11.4700003      -2.95243981E-36
  -11.4600000      -3.13137948E-36
  -11.4499998      -3.31887923E-36
  -11.4399996      -3.51517760E-36
  -11.4300003      -3.72050814E-36
  -11.4200001      -3.93509218E-36
  -11.4099998      -4.15914460E-36
  -11.3999996      -4.39286450E-36
  -11.3900003      -4.63643986E-36
  -11.3800001      -4.89004179E-36
  -11.3699999      -5.15382060E-36
  -11.3599997      -5.42791045E-36
  -11.3500004      -5.71242687E-36
  -11.3400002      -6.00744732E-36
  -11.3299999      -6.31302527E-36
  -11.3199997      -6.62919049E-36
  -11.3100004      -6.95592468E-36
  -11.3000002      -7.29317835E-36
  -11.2900000      -7.64086610E-36
  -11.2799997      -7.99885450E-36
  -11.2700005      -8.36695843E-36
  -11.2600002      -8.74492965E-36
  -11.2500000      -9.13247832E-36
  -11.2399998      -9.52923851E-36
  -11.2299995      -9.93478693E-36
  -11.2200003      -1.03486163E-35
  -11.2100000      -1.07701570E-35
  -11.1999998      -1.11987275E-35
  -11.1899996      -1.16335678E-35
  -11.1800003      -1.20738509E-35
  -11.1700001      -1.25185901E-35
  -11.1599998      -1.29667272E-35
  -11.1499996      -1.34170627E-35
  -11.1400003      -1.38682863E-35
  -11.1300001      -1.43189332E-35
  -11.1199999      -1.47674104E-35
  -11.1099997      -1.52119559E-35
  -11.1000004      -1.56506540E-35
  -11.0900002      -1.60814027E-35
  -11.0799999      -1.65019217E-35
  -11.0699997      -1.69097287E-35
  -11.0600004      -1.73021189E-35
  -11.0500002      -1.76761734E-35
  -11.0400000      -1.80287486E-35
  -11.0299997      -1.83564205E-35
  -11.0200005      -1.86555273E-35
  -11.0100002      -1.89221013E-35
  -11.0000000      -1.91518766E-35
  -10.9899998      -1.93402499E-35
  -10.9799995      -1.94823208E-35
  -10.9700003      -1.95727874E-35
  -10.9600000      -1.96059644E-35
  -10.9499998      -1.95757835E-35
  -10.9399996      -1.94757101E-35
  -10.9300003      -1.92988206E-35
  -10.9200001      -1.90376218E-35
  -10.9099998      -1.86841584E-35
  -10.8999996      -1.82299027E-35
  -10.8900003      -1.76657874E-35
  -10.8800001      -1.69820578E-35
  -10.8699999      -1.61683609E-35
  -10.8599997      -1.52136333E-35
  -10.8500004      -1.41060599E-35
  -10.8400002      -1.28330707E-35
  -10.8299999      -1.13812627E-35
  -10.8199997      -9.73627016E-36
  -10.8100004      -7.88285479E-36
  -10.8000002      -5.80479364E-36
  -10.7900000      -3.48477108E-36
  -10.7799997      -9.04344578E-37
  -10.7700005       1.95614252E-36
  -10.7600002       5.11762378E-36
  -10.7500000       8.60237227E-36
  -10.7399998       1.24341588E-35
  -10.7299995       1.66382487E-35
  -10.7200003       2.12415632E-35
  -10.7100000       2.62728153E-35
  -10.6999998       3.17624916E-35
  -10.6899996       3.77431118E-35
  -10.6800003       4.42493267E-35
  -10.6700001       5.13179909E-35
  -10.6599998       5.89883613E-35
  -10.6499996       6.73022632E-35
  -10.6400003       7.63041680E-35
  -10.6300001       8.60415488E-35
  -10.6199999       9.65648750E-35
  -10.6099997       1.07927842E-34
  -10.6000004       1.20187674E-34
  -10.5900002       1.33405385E-34
  -10.5799999       1.47645787E-34
  -10.5699997       1.62977907E-34
  -10.5600004       1.79475235E-34
  -10.5500002       1.97216131E-34
  -10.5400000       2.16284027E-34
  -10.5299997       2.36767475E-34
  -10.5200005       2.58760699E-34
  -10.5100002       2.82364419E-34
  -10.5000000       3.07685371E-34
  -10.4899998       3.34837477E-34
  -10.4799995       3.63941821E-34
  -10.4700003       3.95126814E-34
  -10.4600000       4.28529542E-34
  -10.4499998       4.64295748E-34
  -10.4399996       5.02580130E-34
  -10.4300003       5.43547210E-34
  -10.4200001       5.87372211E-34
  -10.4099998       6.34241053E-34
  -10.3999996       6.84351138E-34
  -10.3900003       7.37912538E-34
  -10.3800001       7.95147817E-34
  -10.3699999       8.56294554E-34
  -10.3599997       9.21603459E-34
  -10.3500004       9.91341038E-34
  -10.3400002       1.06579051E-33
  -10.3299999       1.14525154E-33
  -10.3199997       1.23004381E-33
  -10.3100004       1.32050398E-33
  -10.3000002       1.41699011E-33
  -10.2900000       1.51988077E-33
  -10.2799997       1.62957808E-33
  -10.2700005       1.74650708E-33
  -10.2600002       1.87111848E-33
  -10.2500000       2.00388800E-33
  -10.2399998       2.14531980E-33
  -10.2299995       2.29594985E-33
  -10.2200003       2.45633944E-33
  -10.2100000       2.62708422E-33
  -10.1999998       2.80881381E-33
  -10.1899996       3.00219420E-33
  -10.1800003       3.20792592E-33
  -10.1700001       3.42674860E-33
  -10.1599998       3.65944542E-33
  -10.1499996       3.90684143E-33
  -10.1400003       4.16980356E-33
  -10.1300001       4.44924759E-33
  -10.1199999       4.74613852E-33
  -10.1099997       5.06149060E-33
  -10.1000004       5.39637792E-33
  -10.0900002       5.75191941E-33
  -10.0799999       6.12930048E-33
  -10.0699997       6.52975871E-33
  -10.0600004       6.95460588E-33
  -10.0500002       7.40520886E-33
  -10.0400000       7.88301132E-33
  -10.0299997       8.38952449E-33
  -10.0200005       8.92633088E-33
  -10.0100002       9.49509015E-33
  -10.0000000       1.00975501E-32
  -9.98999977       1.07355240E-32
  -9.97999954       1.14109454E-32
  -9.97000027       1.21257951E-32
  -9.96000004       1.28821647E-32
  -9.94999981       1.36822429E-32
  -9.93999958       1.45283299E-32
  -9.93000031       1.54227989E-32
  -9.92000008       1.63681417E-32
  -9.90999985       1.73669622E-32
  -9.89999962       1.84219845E-32
  -9.89000034       1.95360211E-32
  -9.88000011       2.07120224E-32
  -9.86999989       2.19530638E-32
  -9.85999966       2.32623353E-32
  -9.85000038       2.46431473E-32
  -9.84000015       2.60989868E-32
  -9.82999992       2.76334448E-32
  -9.81999969       2.92502432E-32
  -9.81000042       3.09532495E-32
  -9.80000019       3.27464720E-32
  -9.78999996       3.46340838E-32
  -9.77999973       3.66204106E-32
  -9.77000046       3.87099223E-32
  -9.76000023       4.09072769E-32
  -9.75000000       4.32172114E-32
  -9.73999977       4.56447131E-32
  -9.72999954       4.81949334E-32
  -9.72000027       5.08731033E-32
  -9.71000004       5.36846977E-32
  -9.69999981       5.66353707E-32
  -9.68999958       5.97308529E-32
  -9.68000031       6.29771157E-32
  -9.67000008       6.63803188E-32
  -9.65999985       6.99467628E-32
  -9.64999962       7.36829246E-32
  -9.64000034       7.75954636E-32
  -9.63000011       8.16912797E-32
  -9.61999989       8.59773378E-32
  -9.60999966       9.04608143E-32
  -9.60000038       9.51490619E-32
  -9.59000015       1.00049580E-31
  -9.57999992       1.05169998E-31
  -9.56999969       1.10518263E-31
  -9.56000042       1.16102272E-31
  -9.55000019       1.21930103E-31
  -9.53999996       1.28010030E-31
  -9.52999973       1.34350517E-31
  -9.52000046       1.40960110E-31
  -9.51000023       1.47847414E-31
  -9.50000000       1.55021127E-31
  -9.48999977       1.62490124E-31
  -9.47999954       1.70263562E-31
  -9.47000027       1.78350258E-31
  -9.46000004       1.86759345E-31
  -9.44999981       1.95499980E-31
  -9.43999958       2.04581250E-31
  -9.43000031       2.14012335E-31
  -9.42000008       2.23802440E-31
  -9.40999985       2.33960592E-31
  -9.39999962       2.44496289E-31
  -9.39000034       2.55418160E-31
  -9.38000011       2.66735255E-31
  -9.36999989       2.78456392E-31
  -9.35999966       2.90590197E-31
  -9.35000038       3.03145323E-31
  -9.34000015       3.16129975E-31
  -9.32999992       3.29552192E-31
  -9.31999969       3.43419523E-31
  -9.31000042       3.57739583E-31
  -9.30000019       3.72519285E-31
  -9.28999996       3.87765588E-31
  -9.27999973       4.03484768E-31
  -9.27000046       4.19682375E-31
  -9.26000023       4.36363533E-31
  -9.25000000       4.53533086E-31
  -9.23999977       4.71194936E-31
  -9.22999954       4.89352656E-31
  -9.22000027       5.08008645E-31
  -9.21000004       5.27164454E-31
  -9.19999981       5.46821258E-31
  -9.18999958       5.66979105E-31
  -9.18000031       5.87636162E-31
  -9.17000008       6.08790828E-31
  -9.15999985       6.30439720E-31
  -9.14999962       6.52577899E-31
  -9.14000034       6.75199629E-31
  -9.13000011       6.98297623E-31
  -9.11999989       7.21862993E-31
  -9.10999966       7.45884926E-31
  -9.10000038       7.70351759E-31
  -9.09000015       7.95249952E-31
  -9.07999992       8.20563424E-31
  -9.06999969       8.46273554E-31
  -9.06000042       8.72361817E-31
  -9.05000019       8.98805644E-31
  -9.03999996       9.25580208E-31
  -9.02999973       9.52658896E-31
  -9.02000046       9.80012556E-31
  -9.01000023       1.00760855E-30
  -9.00000000       1.03541125E-30
  -8.98999977       1.06338482E-30
  -8.97999954       1.09148600E-30
  -8.97000027       1.11967191E-30
  -8.96000004       1.14789393E-30
  -8.94999981       1.17610119E-30
  -8.93999958       1.20423923E-30
  -8.93000031       1.23224835E-30
  -8.92000008       1.26006797E-30
  -8.90999985       1.28762852E-30
  -8.89999962       1.31486058E-30
  -8.89000034       1.34168903E-30
  -8.88000011       1.36803177E-30
  -8.86999989       1.39380528E-30
  -8.85999966       1.41891638E-30
  -8.85000038       1.44327168E-30
  -8.84000015       1.46677010E-30
  -8.82999992       1.48930611E-30
  -8.81999969       1.51076847E-30
  -8.81000042       1.53103860E-30
  -8.80000019       1.54999322E-30
  -8.78999996       1.56749877E-30
  -8.77999973       1.58342324E-30
  -8.77000046       1.59762001E-30
  -8.76000023       1.60993731E-30
  -8.75000000       1.62022186E-30
  -8.73999977       1.62830550E-30
  -8.72999954       1.63401840E-30
  -8.72000027       1.63718132E-30
  -8.71000004       1.63760619E-30
  -8.69999981       1.63509609E-30
  -8.68999958       1.62944883E-30
  -8.68000031       1.62045225E-30
  -8.67000008       1.60788293E-30
  -8.65999985       1.59151403E-30
  -8.64999962       1.57110857E-30
  -8.64000034       1.54641727E-30
  -8.63000011       1.51718470E-30
  -8.61999989       1.48314511E-30
  -8.60999966       1.44402362E-30
  -8.60000038       1.39953154E-30
  -8.59000015       1.34937667E-30
  -8.57999992       1.29325190E-30
  -8.56999969       1.23084481E-30
  -8.56000042       1.16182946E-30
  -8.55000019       1.08586874E-30
  -8.53999996       1.00261769E-30
  -8.52999973       9.11721694E-31
  -8.52000046       8.12813436E-31
  -8.51000023       7.05514124E-31
  -8.50000000       5.89435467E-31
  -8.48999977       4.64178269E-31
  -8.47999954       3.29335596E-31
  -8.47000027       1.84486468E-31
  -8.46000004       2.92009077E-32
  -8.44999981      -1.36962442E-31
  -8.43999958      -3.14456024E-31
  -8.43000031      -5.03741083E-31
  -8.42000008      -7.05289793E-31
  -8.40999985      -9.19583588E-31
  -8.39999962      -1.14711585E-30
  -8.39000034      -1.38838738E-30
  -8.38000011      -1.64391004E-30
  -8.36999989      -1.91420472E-30
  -8.35999966      -2.19980132E-30
  -8.35000038      -2.50123813E-30
  -8.34000015      -2.81906190E-30
  -8.32999992      -3.15382802E-30
  -8.31999969      -3.50609942E-30
  -8.31000042      -3.87644333E-30
  -8.30000019      -4.26543830E-30
  -8.28999996      -4.67366586E-30
  -8.27999973      -5.10171582E-30
  -8.27000046      -5.55017839E-30
  -8.26000023      -6.01965015E-30
  -8.25000000      -6.51073482E-30
  -8.23999977      -7.02403202E-30
  -8.22999954      -7.56014847E-30
  -8.22000027      -8.11969055E-30
  -8.21000004      -8.70327290E-30
  -8.19999981      -9.31149738E-30
  -8.18999958      -9.94496884E-30
  -8.18000031      -1.06042869E-29
  -8.17000008      -1.12900436E-29
  -8.15999985      -1.20028506E-29
  -8.14999962      -1.27432781E-29
  -8.14000034      -1.35119167E-29
  -8.13000011      -1.43093345E-29
  -8.11999989      -1.51360881E-29
  -8.10999966      -1.59927252E-29
  -8.10000038      -1.68797889E-29
  -8.09000015      -1.77978045E-29
  -8.07999992      -1.87472534E-29
  -8.06999969      -1.97286456E-29
  -8.06000042      -2.07424355E-29
  -8.05000019      -2.17890716E-29
  -8.03999996      -2.28689661E-29
  -8.02999973      -2.39825193E-29
  -8.02000046      -2.51300696E-29
  -8.01000023      -2.63119797E-29
  -8.00000000      -2.75285415E-29
  -7.98999977      -2.87800408E-29
  -7.98000002      -3.00667005E-29
  -7.96999979      -3.13886648E-29
  -7.96000004      -3.27461114E-29
  -7.94999981      -3.41391485E-29
  -7.94000006      -3.55677823E-29
  -7.92999983      -3.70320638E-29
  -7.92000008      -3.85319239E-29
  -7.90999985      -4.00672542E-29
  -7.90000010      -4.16378561E-29
  -7.88999987      -4.32435250E-29
  -7.88000011      -4.48839478E-29
  -7.86999989      -4.65587245E-29
  -7.86000013      -4.82674095E-29
  -7.84999990      -5.00095185E-29
  -7.84000015      -5.17844585E-29
  -7.82999992      -5.35914623E-29
  -7.82000017      -5.54298286E-29
  -7.80999994      -5.72986547E-29
  -7.80000019      -5.91969416E-29
  -7.78999996      -6.11236720E-29
  -7.78000021      -6.30776362E-29
  -7.76999998      -6.50575584E-29
  -7.76000023      -6.70620603E-29
  -7.75000000      -6.90895770E-29
  -7.73999977      -7.11385378E-29
  -7.73000002      -7.32071310E-29
  -7.71999979      -7.52934909E-29
  -7.71000004      -7.73957036E-29
  -7.69999981      -7.95114340E-29
  -7.69000006      -8.16384551E-29
  -7.67999983      -8.37743054E-29
  -7.67000008      -8.59163547E-29
  -7.65999985      -8.80618046E-29
  -7.65000010      -9.02077239E-29
  -7.63999987      -9.23509830E-29
  -7.63000011      -9.44884282E-29
  -7.61999989      -9.66164664E-29
  -7.61000013      -9.87316129E-29
  -7.59999990      -1.00829871E-28
  -7.59000015      -1.02907360E-28
  -7.57999992      -1.04959884E-28
  -7.57000017      -1.06982929E-28
  -7.55999994      -1.08971752E-28
  -7.55000019      -1.10921768E-28
  -7.53999996      -1.12827705E-28
  -7.53000021      -1.14684362E-28
  -7.51999998      -1.16486346E-28
  -7.51000023      -1.18227796E-28
  -7.50000000      -1.19902789E-28
  -7.48999977      -1.21505079E-28
  -7.48000002      -1.23028212E-28
  -7.46999979      -1.24465558E-28
  -7.46000004      -1.25810254E-28
  -7.44999981      -1.27054923E-28
  -7.44000006      -1.28192124E-28