  -16.0000000       0.00000000    
  -15.9899998       0.00000000    
  -15.9799995       0.00000000    
  -15.9700003       0.00000000    
  -15.9600000       0.00000000    
  -15.9499998       0.00000000    
  -15.9399996       0.00000000    
  -15.9300003       0.00000000    
  -15.9200001       0.00000000    
  -15.9099998       1.80418579E-40
  -15.8999996       1.28009455E-39
  -15.8900003      -2.84322057E-40
  -15.8800001      -3.66965540E-38
  -15.8699999      -1.46836506E-37
  -15.8599997       2.63510791E-37
  -15.8500004       5.75374208E-36
  -15.8400002       3.57112199E-35
  -15.8299999       1.51139025E-34
  -15.8199997       5.11470954E-34
  -15.8100004       1.49512366E-33
  -15.8000002       3.98159626E-33
  -15.7900000       1.00324762E-32
  -15.7799997       2.43686811E-32
  -15.7700005       5.69230965E-32
  -15.7600002       1.25705826E-31
  -15.7500000       2.56517271E-31
  -15.7399998       4.71793497E-31
  -15.7299995       7.57598257E-31
  -15.7200003       1.00157131E-30
  -15.7100000       9.13675460E-31
  -15.6999998      -1.98430970E-32
  -15.6899996      -2.45100127E-30
  -15.6800003      -6.83151576E-30
  -15.6700001      -1.27555258E-29
  -15.6599998      -1.81031366E-29
  -15.6499996      -1.84130925E-29
  -15.6400003      -7.23135386E-30
  -15.6300001       2.17244191E-29
  -15.6199999       7.01630482E-29
  -15.6099997       1.29251542E-28
  -15.6000004       1.74354799E-28
  -15.5900002       1.64264310E-28
  -15.5799999       4.91868635E-29
  -15.5699997      -2.09615784E-28
  -15.5600004      -6.09169475E-28
  -15.5500002      -1.06890248E-27
  -15.5400000      -1.40111143E-27
  -15.5299997      -1.30502689E-27
  -15.5200005      -4.07120068E-28
  -15.5100002       1.62538107E-27
  -15.5000000       4.87227612E-27
  -15.4899998       8.84367848E-27
  -15.4799995       1.21106874E-26
  -15.4700003       1.20475677E-26
  -15.4600000       5.00474351E-27
  -15.4499998      -1.26411154E-26
  -15.4399996      -4.21645075E-26
  -15.4300003      -7.89285534E-26
  -15.4200001      -1.08559747E-25
  -15.4099998      -1.05198287E-25
  -15.3999996      -3.53976125E-26
  -15.3900003       1.28691576E-25
  -15.3800001       3.85643750E-25
  -15.3699999       6.75180823E-25
  -15.3599997       8.55918815E-25
  -15.3500004       7.12066134E-25
  -15.3400002       1.30984206E-26
  -15.3299999      -1.36033768E-24
  -15.3199997      -3.24017004E-24
  -15.3100004      -5.00566441E-24
  -15.3000002      -5.53858689E-24
  -15.2900000      -3.43140176E-24
  -15.2799997       2.45504439E-24
  -15.2700005       1.21112442E-23
  -15.2600002       2.34116436E-23
  -15.2500000       3.15367058E-23
  -15.2399998       2.94226406E-23
  -15.2299995       9.80587395E-24
  -15.2200003      -3.10090020E-23
  -15.2100000      -8.83701108E-23
  -15.1999998      -1.45277924E-22
  -15.1899996      -1.71863635E-22
  -15.1800003      -1.31184640E-22
  -15.1700001       7.07656589E-24
  -15.1599998       2.46364845E-22
  -15.1499996       5.42093198E-22
  -15.1400003       7.89553386E-22
  -15.1300001       8.33130265E-22
  -15.1199999       5.06744757E-22
  -15.1099997      -2.93236158E-22
  -15.1000004      -1.51627073E-21
  -15.0900002      -2.87853017E-21
  -15.0799999      -3.84182945E-21
  -15.0699997      -3.69729377E-21
  -15.0600004      -1.78072235E-21
  -15.0500002       2.19749799E-21
  -15.0400000       7.78755892E-21
  -15.0299997       1.35432739E-20
  -15.0200005       1.70515609E-20
  -15.0100002       1.54037008E-20
  -15.0000000       6.15894491E-21
  -14.9899998      -1.13341685E-20
  -14.9799995      -3.46228239E-20
  -14.9700003      -5.74032520E-20
  -14.9600000      -6.99706910E-20
  -14.9499998      -6.13295940E-20
  -14.9399996      -2.29850002E-20
  -14.9300003       4.62462851E-20
  -14.9200001       1.35825318E-19
  -14.9099998       2.21466882E-19
  -14.8999996       2.67531794E-19
  -14.8900003       2.35118670E-19
  -14.8800001       9.55222485E-20
  -14.8699999      -1.53544768E-19
  -14.8599997      -4.73891928E-19
  -14.8500004      -7.81385412E-19
  -14.8400002      -9.55238718E-19
  -14.8299999      -8.65469873E-19
  -14.8199997      -4.16656846E-19
  -14.8100004       4.00820111E-19
  -14.8000002       1.46756068E-18
  -14.7900000       2.51935226E-18
  -14.7799997       3.17660909E-18
  -14.7700005       3.02809977E-18
  -14.7600002       1.76230871E-18
  -14.7500000      -6.80053719E-19
  -14.7399998      -3.97728953E-18
  -14.7299995      -7.37660811E-18
  -14.7200003      -9.77212895E-18
  -14.7100000      -9.93566504E-18
  -14.6999998      -6.88182010E-18
  -14.6899996      -2.95906183E-19
  -14.6800003       9.09560771E-18
  -14.6700001       1.93583524E-17
  -14.6599998       2.75191409E-17
  -14.6499996       3.01397285E-17
  -14.6400003       2.42547405E-17
  -14.6300001       8.49914265E-18
  -14.6199999      -1.58727440E-17
  -14.6099997      -4.44428791E-17
  -14.6000004      -6.98987338E-17
  -14.5900002      -8.33068153E-17
  -14.5799999      -7.63270058E-17
  -14.5699997      -4.39836218E-17
  -14.5600004       1.26885345E-17
  -14.5500002       8.49828818E-17
  -14.5400000       1.56666923E-16
  -14.5299997       2.06452992E-16
  -14.5200005       2.12754877E-16
  -14.5100002       1.59983758E-16
  -14.5000000       4.49492989E-17
  -14.4899998      -1.18510590E-16
  -14.4799995      -2.98551029E-16
  -14.4700003      -4.49310268E-16
  -14.4600000      -5.20073359E-16
  -14.4499998      -4.68348710E-16
  -14.4399996      -2.74121832E-16
  -14.4300003       4.85076744E-17
  -14.4200001       4.46297848E-16
  -14.4099998       8.31545320E-16
  -14.3999996       1.09754739E-15
  -14.3900003       1.14311702E-15
  -14.3800001       9.01447614E-16
  -14.3699999       3.66328356E-16
  -14.3599997      -3.92137635E-16
  -14.3500004      -1.22895576E-15
  -14.3400002      -1.94615222E-15
  -14.3299999      -2.33357217E-15
  -14.3199997      -2.22146143E-15
  -14.3100004      -1.53308697E-15
  -14.3000002      -3.23320337E-16
  -14.2900000       1.20979630E-15
  -14.2799997       2.74863843E-15
  -14.2700005       3.91498374E-15
  -14.2600002       4.35521048E-15
  -14.2500000       3.83399384E-15
  -14.2399998       2.31354979E-15
  -14.2299995      -4.50531200E-18
  -14.2200003      -2.69145460E-15
  -14.2100000      -5.16314862E-15
  -14.1999998      -6.80160257E-15
  -14.1899996      -7.10265036E-15
  -14.1800003      -5.81569052E-15
  -14.1700001      -3.03882853E-15
  -14.1599998       7.60662003E-16
  -14.1499996       4.81535732E-15
  -14.1400003       8.20987701E-15
  -14.1300001       1.00877431E-14
  -14.1199999       9.86696229E-15
  -14.1099997       7.41075055E-15
  -14.1000004       3.10521241E-15
  -14.0900002      -2.18572913E-15
  -14.0799999      -7.28956470E-15
  -14.0699997      -1.09882484E-14
  -14.0600004      -1.23174328E-14
  -14.0500002      -1.08289181E-14
  -14.0400000      -6.74546038E-15
  -14.0299997      -9.57680332E-16
  -14.0200005       5.15114108E-15
  -14.0100002       1.00235728E-14
  -14.0000000       1.23205660E-14
  -13.9899998       1.12928847E-14
  -13.9799995       7.03198071E-15
  -13.9700003       5.22484756E-16
  -13.9600000      -6.53747948E-15
  -13.9499998      -1.21245872E-14
  -13.9399996      -1.44066972E-14
  -13.9300003      -1.22646483E-14
  -13.9200001      -5.68259327E-15
  -13.9099998       4.11020747E-15
  -13.8999996       1.48109488E-14
  -13.8900003       2.35186050E-14
  -13.8800001       2.74236370E-14
  -13.8699999       2.45579127E-14
  -13.8599997       1.44189877E-14
  -13.8500004      -1.70457334E-15
  -13.8400002      -2.08218842E-14
  -13.8299999      -3.87647745E-14
  -13.8199997      -5.10631508E-14
  -13.8100004      -5.39896463E-14
  -13.8000002      -4.55326694E-14
  -13.7900000      -2.60533731E-14
  -13.7799997       1.56111529E-15
  -13.7700005       3.23274224E-14
  -13.7600002       6.01215854E-14
  -13.7500000       7.89707316E-14
  -13.7399998       8.43957269E-14
  -13.7299995       7.44890125E-14
  -13.7200003       5.04566075E-14
  -13.7100000       1.64688904E-14
  -13.6999998      -2.11759016E-14
  -13.6899996      -5.54019213E-14
  -13.6800003      -7.99139468E-14
  -13.6700001      -9.05922879E-14
  -13.6599998      -8.63795119E-14
  -13.6499996      -6.94284311E-14
  -13.6400003      -4.44583809E-14
  -13.6300001      -1.74672661E-14
  -13.6199999       5.88047626E-15
  -13.6099997       2.17717656E-14
  -13.6000004       2.92552881E-14
  -13.5900002       3.04430418E-14
  -13.5799999       2.98023325E-14
  -13.5699997       3.26758918E-14
  -13.5600004       4.33897303E-14
  -13.5500002       6.34522681E-14
  -13.5400000       9.03730351E-14
  -13.5299997       1.17517229E-13
  -13.5200005       1.35181905E-13
  -13.5100002       1.32776250E-13
  -13.5000000       1.01684625E-13
  -13.4899998       3.81591053E-14
  -13.4799995      -5.45037512E-14
  -13.4700003      -1.65163754E-13
  -13.4600000      -2.75822388E-13
  -13.4499998      -3.64415502E-13
  -13.4399996      -4.09002693E-13
  -13.4300003      -3.92562176E-13
  -13.4200001      -3.07361260E-13
  -13.4099998      -1.57859091E-13
  -13.3999996       3.86765611E-14
  -13.3900003       2.54216353E-13
  -13.3800001       4.54481179E-13
  -13.3699999       6.05145491E-13
  -13.3599997       6.78501146E-13
  -13.3500004       6.59155998E-13
  -13.3400002       5.47449618E-13
  -13.3299999       3.59708574E-13
  -13.3199997       1.25134590E-13
  -13.3100004      -1.20106372E-13
  -13.3000002      -3.40342039E-13
  -13.2900000      -5.07707754E-13
  -13.2799997      -6.07581314E-13
  -13.2700005      -6.40774109E-13
  -13.2600002      -6.21850173E-13
  -13.2500000      -5.73881112E-13
  -13.2399998      -5.20870022E-13
  -13.2299995      -4.79750029E-13
  -13.2200003      -4.54092059E-13
  -13.2100000      -4.31368916E-13
  -13.1999998      -3.84833035E-13
  -13.1899996      -2.79953225E-13
  -13.1800003      -8.41729843E-14
  -13.1700001       2.22204972E-13
  -13.1599998       6.36683414E-13
  -13.1499996       1.12929707E-12
  -13.1400003       1.64314601E-12
  -13.1300001       2.10119270E-12
  -13.1199999       2.41831945E-12
  -13.1099997       2.51634130E-12
  -13.1000004       2.33881621E-12
  -13.0900002       1.86235120E-12
  -13.0799999       1.10172570E-12
  -13.0699997       1.07453407E-13
  -13.0600004      -1.04400310E-12
  -13.0500002      -2.26545822E-12
  -13.0400000      -3.47651530E-12
  -13.0299997      -4.61962326E-12
  -13.0200005      -5.67113110E-12
  -13.0100002      -6.64489817E-12
  -13.0000000      -7.58753217E-12
  -12.9899998      -8.56609662E-12
  -12.9799995      -9.65086257E-12
  -12.9700003      -1.08966334E-11
  -12.9600000      -1.23265339E-11
  -12.9499998      -1.39215549E-11
  -12.9399996      -1.56180260E-11
  -12.9300003      -1.73134354E-11
  -12.9200001      -1.88792940E-11
  -12.9099998      -2.01783451E-11
  -12.8999996      -2.10827137E-11
  -12.8900003      -2.14893346E-11
  -12.8800001      -2.13298303E-11
  -12.8699999      -2.05733677E-11
  -12.8599997      -1.92223754E-11
  -12.8500004      -1.73026333E-11
  -12.8400002      -1.48504768E-11
  -12.8299999      -1.19002265E-11
  -12.8199997      -8.47479899E-12
  -12.8100004      -4.58180152E-12
  -12.8000002      -2.15967923E-13
  -12.7900000       4.63282060E-12
  -12.7799997       9.96754242E-12
  -12.7700005       1.57710268E-11
  -12.7600002       2.19950985E-11
  -12.7500000       2.85543724E-11
  -12.7399998       3.53267242E-11
  -12.7299995       4.21604106E-11
  -12.7200003       4.88871513E-11
  -12.7100000       5.53384491E-11
  -12.6999998       6.13622417E-11
  -12.6899996       6.68366196E-11
  -12.6800003       7.16777956E-11
  -12.6700001       7.58410487E-11
  -12.6599998       7.93144855E-11
  -12.6499996       8.21071058E-11
  -12.6400003       8.42339740E-11
  -12.6300001       8.57020496E-11
  -12.6199999       8.64994326E-11
  -12.6099997       8.65909289E-11
  -12.6000004       8.59205901E-11
  -12.5900002       8.44209147E-11
  -12.5799999       8.20260665E-11
  -12.5699997       7.86860230E-11
  -12.5600004       7.43781217E-11
  -12.5500002       6.91125768E-11
  -12.5400000       6.29307023E-11
  -12.5299997       5.58953231E-11
  -12.5200005       4.80763276E-11
  -12.5100002       3.95333939E-11
  -12.5000000       3.03019103E-11
  -12.4899998       2.03849524E-11
  -12.4799995       9.75384790E-12
  -12.4700003      -1.64103345E-12
  -12.4600000      -1.38521191E-11
  -12.4499998      -2.69123335E-11
  -12.4399996      -4.08134464E-11
  -12.4300003      -5.54904976E-11
  -12.4200001      -7.08162279E-11
  -12.4099998      -8.66066663E-11
  -12.3999996      -1.02637794E-10
  -12.3900003      -1.18668894E-10
  -12.3800001      -1.34468311E-10
  -12.3699999      -1.49835533E-10
  -12.3599997      -1.64615196E-10
  -12.3500004      -1.78700124E-10
  -12.3400002      -1.92023286E-10
  -12.3299999      -2.04541106E-10
  -12.3199997      -2.16213325E-10
  -12.3100004      -2.26982655E-10
  -12.3000002      -2.36761194E-10
  -12.2900000      -2.45423959E-10
  -12.2799997      -2.52812604E-10
  -12.2700005      -2.58745969E-10
  -12.2600002      -2.63035566E-10
  -12.2500000      -2.65501676E-10
  -12.2399998      -2.65986205E-10
  -12.2299995      -2.64361977E-10
  -12.2200003      -2.60534705E-10
  -12.2100000      -2.54442939E-10
  -12.1999998      -2.46052789E-10
  -12.1899996      -2.35353514E-10
  -12.1800003      -2.22353663E-10
  -12.1700001      -2.07079326E-10
  -12.1599998      -1.89572871E-10
  -12.1499996      -1.69894640E-10
  -12.1400003      -1.48122153E-10
  -12.1300001      -1.24349905E-10
  -12.1199999      -9.86874124E-11
  -12.1099997      -7.12551546E-11
  -12.1000004      -4.21815777E-11
  -12.0900002      -1.15982614E-11
  -12.0799999       2.03646041E-11
  -12.0699997       5.35827875E-11
  -12.0600004       8.79441242E-11
  -12.0500002       1.23355909E-10
  -12.0400000       1.59753780E-10
  -12.0299997       1.97110009E-10
  -12.0200005       2.35441722E-10
  -12.0100002       2.74814227E-10
  -12.0000000       3.15338061E-10
  -11.9899998       3.57158858E-10
  -11.9799995       4.00439654E-10
  -11.9700003       4.45336518E-10
  -11.9600000       4.91972407E-10
  -11.9499998       5.40412715E-10
  -11.9399996       5.90647531E-10
  -11.9300003       6.42582765E-10
  -11.9200001       6.96043390E-10
  -11.9099998       7.50786711E-10
  -11.8999996       8.06521849E-10
  -11.8900003       8.62936056E-10
  -11.8800001       9.19716192E-10
  -11.8699999       9.76566938E-10
  -11.8599997       1.03322140E-09
  -11.8500004       1.08944398E-09
  -11.8400002       1.14502585E-09
  -11.8299999       1.19978105E-09
  -11.8199997       1.25354005E-09
  -11.8100004       1.30614786E-09
  -11.8000002       1.35746880E-09
  -11.7900000       1.40739831E-09
  -11.7799997       1.45587498E-09
  -11.7700005       1.50289736E-09
  -11.7600002       1.54853763E-09
  -11.7500000       1.59294622E-09
  -11.7399998       1.63635283E-09
  -11.7299995       1.67904601E-09
  -11.7200003       1.72135683E-09
  -11.7100000       1.76363213E-09
  -11.6999998       1.80620063E-09
  -11.6899996       1.84935012E-09
  -11.6800003       1.89331040E-09
  -11.6700001       1.93823646E-09
  -11.6599998       1.98421413E-09
  -11.6499996       2.03125805E-09
  -11.6400003       2.07932782E-09
  -11.6300001       2.12833062E-09
  -11.6199999       2.17812657E-09
  -11.6099997       2.22853735E-09
  -11.6000004       2.27934049E-09
  -11.5900002       2.33026665E-09
  -11.5799999       2.38101028E-09
  -11.5699997       2.43122478E-09
  -11.5600004       2.48054421E-09
  -11.5500002       2.52859733E-09
  -11.5400000       2.57504573E-09
  -11.5299997       2.61958810E-09
  -11.5200005       2.66199618E-09
  -11.5100002       2.70211431E-09
  -11.5000000       2.73987300E-09
  -11.4899998       2.77528223E-09
  -11.4799995       2.80841461E-09
  -11.4700003       2.83939938E-09
  -11.4600000       2.86839463E-09
  -11.4499998       2.89557978E-09
  -11.4399996       2.92113578E-09
  -11.4300003       2.94522717E-09
  -11.4200001       2.96798053E-09
  -11.4099998       2.98948954E-09
  -11.3999996       3.00978309E-09
  -11.3900003       3.02883518E-09
  -11.3800001       3.04657832E-09
  -11.3699999       3.06291814E-09
  -11.3599997       3.07778381E-09
  -11.3500004       3.09114823E-09
  -11.3400002       3.10308246E-09
  -11.3299999       3.11377435E-09
  -11.3199997       3.12352944E-09
  -11.3100004       3.13275095E-09
  -11.3000002       3.14191206E-09
  -11.2900000       3.15147664E-09
  -11.2799997       3.16184989E-09
  -11.2700005       3.17330429E-09
  -11.2600002       3.18596438E-09
  -11.2500000       3.19978510E-09
  -11.2399998       3.21457616E-09
  -11.2299995       3.23005866E-09
  -11.2200003       3.24590199E-09
  -11.2100000       3.26180527E-09
  -11.1999998       3.27752492E-09
  -11.1899996       3.29290972E-09
  -11.1800003       3.30789640E-09
  -11.1700001       3.32248296E-09
  -11.1599998       3.33669026E-09
  -11.1499996       3.35052230E-09
  -11.1400003       3.36389960E-09
  -11.1300001       3.37666362E-09
  -11.1199999       3.38855055E-09
  -11.1099997       3.39920536E-09
  -11.1000004       3.40822726E-09
  -11.0900002       3.41523920E-09
  -11.0799999       3.41992812E-09
  -11.0699997       3.42212148E-09
  -11.0600004       3.42184636E-09
  -11.0500002       3.41932904E-09
  -11.0400000       3.41502493E-09
  -11.0299997       3.40955597E-09
  -11.0200005       3.40366824E-09
  -11.0100002       3.39815598E-09
  -11.0000000       3.39376682E-09
  -10.9899998       3.39114425E-09
  -10.9799995       3.39077877E-09
  -10.9700003       3.39298922E-09
  -10.9600000       3.39791595E-09
  -10.9499998       3.40555939E-09
  -10.9399996       3.41581718E-09
  -10.9300003       3.42853346E-09
  -10.9200001       3.44349749E-09
  -10.9099998       3.46050855E-09
  -10.8999996       3.47935192E-09
  -10.8900003       3.49982932E-09
  -10.8800001       3.52175555E-09
  -10.8699999       3.54498653E-09
  -10.8599997       3.56942431E-09
  -10.8500004       3.59503849E-09
  -10.8400002       3.62187258E-09
  -10.8299999       3.65004449E-09
  -10.8199997       3.67971986E-09
  -10.8100004       3.71109232E-09
  -10.8000002       3.74433107E-09
  -10.7900000       3.77959442E-09
  -10.7799997       3.81697829E-09
  -10.7700005       3.85655685E-09
  -10.7600002       3.89839938E-09
  -10.7500000       3.94261246E-09
  -10.7399998       3.98936173E-09
  -10.7299995       4.03887590E-09
  -10.7200003       4.09143519E-09
  -10.7100000       4.14732071E-09
  -10.6999998       4.20675361E-09
  -10.6899996       4.26985469E-09
  -10.6800003       4.33660086E-09
  -10.6700001       4.40682824E-09
  -10.6599998       4.48026771E-09
  -10.6499996       4.55661286E-09
  -10.6400003       4.63559413E-09
  -10.6300001       4.71702766E-09
  -10.6199999       4.80086415E-09
  -10.6099997       4.88714536E-09
  -10.6000004       4.97599428E-09
  -10.5900002       5.06753217E-09
  -10.5799999       5.16180876E-09
  -10.5699997       5.25875787E-09
  -10.5600004       5.35818900E-09
  -10.5500002       5.45980949E-09
  -10.5400000       5.56327251E-09
  -10.5299997       5.66823788E-09
  -10.5200005       5.77445247E-09
  -10.5100002       5.88179239E-09
  -10.5000000       5.99024963E-09
  -10.4899998       6.09995299E-09
  -10.4799995       6.21111118E-09
  -10.4700003       6.32396802E-09
  -10.4600000       6.43876907E-09
  -10.4499998       6.55570442E-09
  -10.4399996       6.67489486E-09
  -10.4300003       6.79638568E-09
  -10.4200001       6.92012980E-09
  -10.4099998       7.04598424E-09
  -10.3999996       7.17374560E-09
  -10.3900003       7.30312699E-09
  -10.3800001       7.43379269E-09
  -10.3699999       7.56538387E-09
  -10.3599997       7.69753683E-09
  -10.3500004       7.82990561E-09
  -10.3400002       7.96219268E-09
  -10.3299999       8.09414935E-09
  -10.3199997       8.22557933E-09
  -10.3100004       8.35632807E-09
  -10.3000002       8.48628456E-09
  -10.2900000       8.61538307E-09
  -10.2799997       8.74357653E-09
  -10.2700005       8.87088092E-09
  -10.2600002       8.99736108E-09
  -10.2500000       9.12314846E-09
  -10.2399998       9.24845889E-09
  -10.2299995       9.37354105E-09
  -10.2200003       9.49865075E-09
  -10.2100000       9.62402957E-09
  -10.1999998       9.74986847E-09
  -10.1899996       9.87629356E-09
  -10.1800003       1.00033857E-08
  -10.1700001       1.01312274E-08
  -10.1599998       1.02599316E-08
  -10.1499996       1.03897095E-08
  -10.1400003       1.05208793E-08
  -10.1300001       1.06538627E-08
  -10.1199999       1.07891660E-08
  -10.1099997       1.09273035E-08
  -10.1000004       1.10687504E-08
  -10.0900002       1.12138876E-08
  -10.0799999       1.13629950E-08
  -10.0699997       1.15162244E-08
  -10.0600004       1.16736949E-08
  -10.0500002       1.18354597E-08
  -10.0400000       1.20015944E-08
  -10.0299997       1.21721877E-08
  -10.0200005       1.23473578E-08
  -10.0100002       1.25271944E-08
  -10.0000000       1.27117223E-08
  -9.98999977       1.29009150E-08
  -9.97999954       1.30946551E-08
  -9.97000027       1.32927784E-08
  -9.96000004       1.34951001E-08
  -9.94999981       1.37014737E-08
  -9.93999958       1.39118237E-08
  -9.93000031       1.41261625E-08
  -9.92000008       1.43445522E-08
  -9.90999985       1.45671271E-08
  -9.89999962       1.47940273E-08
  -9.89000034       1.50253712E-08
  -9.88000011       1.52613069E-08
  -9.86999989       1.55019571E-08
  -9.85999966       1.57475117E-08
  -9.85000038       1.59981823E-08
  -9.84000015       1.62542637E-08
  -9.82999992       1.65160863E-08
  -9.81999969       1.67839609E-08
  -9.81000042       1.70581380E-08
  -9.80000019       1.73387402E-08
  -9.78999996       1.76257569E-08
  -9.77999973       1.79190156E-08
  -9.77000046       1.82182127E-08
  -9.76000023       1.85229716E-08
  -9.75000000       1.88328944E-08
  -9.73999977       1.91475564E-08
  -9.72999954       1.94665386E-08
  -9.72000027       1.97894519E-08
  -9.71000004       2.01158485E-08
  -9.69999981       2.04452331E-08
  -9.68999958       2.07770920E-08
  -9.68000031       2.11108464E-08
  -9.67000008       2.14459579E-08
  -9.65999985       2.17819771E-08
  -9.64999962       2.21185488E-08
  -9.64000034       2.24554455E-08
  -9.63000011       2.27925661E-08
  -9.61999989       2.31298145E-08
  -9.60999966       2.34672015E-08
  -9.60000038       2.38046471E-08
  -9.59000015       2.41421194E-08
  -9.57999992       2.44795366E-08
  -9.56999969       2.48168472E-08
  -9.56000042       2.51540353E-08
  -9.55000019       2.54911594E-08
  -9.53999996       2.58283261E-08
  -9.52999973       2.61656457E-08
  -9.52000046       2.65031481E-08
  -9.51000023       2.68408265E-08
  -9.50000000       2.71784941E-08
  -9.48999977       2.75158953E-08
  -9.47999954       2.78527743E-08
  -9.47000027       2.81887687E-08
  -9.46000004       2.85237114E-08
  -9.44999981       2.88574320E-08
  -9.43999958       2.91897937E-08
  -9.43000031       2.95206330E-08
  -9.42000008       2.98496872E-08
  -9.40999985       3.01764054E-08
  -9.39999962       3.05000931E-08
  -9.39000034       3.08198871E-08
  -9.38000011       3.11349204E-08
  -9.36999989       3.14444364E-08
  -9.35999966       3.17478204E-08
  -9.35000038       3.20447242E-08
  -9.34000015       3.23350591E-08
  -9.32999992       3.26187823E-08
  -9.31999969       3.28958123E-08
  -9.31000042       3.31659571E-08
  -9.30000019       3.34288579E-08
  -9.28999996       3.36839818E-08
  -9.27999973       3.39307107E-08
  -9.27000046       3.41686288E-08
  -9.26000023       3.43975763E-08
  -9.25000000       3.46176847E-08
  -9.23999977       3.48293945E-08
  -9.22999954       3.50333167E-08
  -9.22000027       3.52300980E-08
  -9.21000004       3.54200473E-08
  -9.19999981       3.56033745E-08
  -9.18999958       3.57799408E-08
  -9.18000031       3.59495189E-08
  -9.17000008       3.61118104E-08
  -9.15999985       3.62668473E-08
  -9.14999962       3.64148498E-08
  -9.14000034       3.65564858E-08
  -9.13000011       3.66926081E-08
  -9.11999989       3.68240549E-08
  -9.10999966       3.69515476E-08
  -9.10000038       3.70755338E-08
  -9.09000015       3.71960951E-08
  -9.07999992       3.73131996E-08
  -9.06999969       3.74268225E-08
  -9.06000042       3.75370632E-08
  -9.05000019       3.76445293E-08
  -9.03999996       3.77501621E-08
  -9.02999973       3.78553118E-08
  -9.02000046       3.79614811E-08
  -9.01000023       3.80701799E-08
  -9.00000000       3.81825949E-08
  -8.98999977       3.82996248E-08
  -8.97999954       3.84218772E-08
  -8.97000027       3.85497962E-08
  -8.96000004       3.86837904E-08
  -8.94999981       3.88245169E-08
  -8.93999958       3.89727575E-08
  -8.93000031       3.91295529E-08
  -8.92000008       3.92959443E-08
  -8.90999985       3.94729085E-08
  -8.89999962       3.96611419E-08
  -8.89000034       3.98610887E-08
  -8.88000011       4.00728517E-08
  -8.86999989       4.02964595E-08
  -8.85999966       4.05320222E-08
  -8.85000038       4.07798275E-08
  -8.84000015       4.10404546E-08
  -8.82999992       4.13147667E-08
  -8.81999969       4.16036947E-08
  -8.81000042       4.19079385E-08
  -8.80000019       4.22280380E-08
  -8.78999996       4.25642419E-08
  -8.77999973       4.29163372E-08
  -8.77000046       4.32840181E-08
  -8.76000023       4.36669865E-08
  -8.75000000       4.40651284E-08
  -8.73999977       4.44787638E-08
  -8.72999954       4.49084538E-08
  -8.72000027       4.53551294E-08
  -8.71000004       4.58197214E-08
  -8.69999981       4.63031746E-08
  -8.68999958       4.68060897E-08
  -8.68000031       4.73288715E-08
  -8.67000008       4.78715521E-08
  -8.65999985       4.84339893E-08
  -8.64999962       4.90160730E-08
  -8.64000034       4.96176114E-08
  -8.63000011       5.02385475E-08
  -8.61999989       5.08788425E-08
  -8.60999966       5.15384890E-08
  -8.60000038       5.22173842E-08
  -8.59000015       5.29155209E-08
  -8.57999992       5.36324336E-08
  -8.56999969       5.43677849E-08
  -8.56000042       5.51210491E-08
  -8.55000019       5.58916504E-08
  -8.53999996       5.66790916E-08
  -8.52999973       5.74831205E-08
  -8.52000046       5.83033142E-08
  -8.51000023       5.91395697E-08
  -8.50000000       5.99916632E-08
  -8.48999977       6.08595201E-08
  -8.47999954       6.17431226E-08
  -8.47000027       6.26423784E-08
  -8.46000004       6.35572590E-08
  -8.44999981       6.44876437E-08
  -8.43999958       6.54334684E-08
  -8.43000031       6.63944704E-08
  -8.42000008       6.73703795E-08
  -8.40999985       6.83608761E-08
  -8.39999962       6.93656119E-08
  -8.39000034       7.03840541E-08
  -8.38000011       7.14158404E-08
  -8.36999989       7.24606224E-08
  -8.35999966       7.35181445E-08
  -8.35000038       7.45879802E-08
  -8.34000015       7.56697816E-08
  -8.32999992       7.67633921E-08
  -8.31999969       7.78680445E-08
  -8.31000042       7.89832555E-08
  -8.30000019       8.01083857E-08
  -8.28999996       8.12427601E-08
  -8.27999973       8.23860731E-08
  -8.27000046       8.35378273E-08
  -8.26000023       8.46978594E-08
  -8.25000000       8.58660911E-08
  -8.23999977       8.70423662E-08
  -8.22999954       8.82265567E-08
  -8.22000027       8.94184708E-08
  -8.21000004       9.06176325E-08
  -8.19999981       9.18236935E-08
  -8.18999958       9.30361637E-08
  -8.18000031       9.42548226E-08
  -8.17000008       9.54794288E-08
  -8.15999985       9.67100320E-08
  -8.14999962       9.79466321E-08
  -8.14000034       9.91894566E-08
  -8.13000011       1.00438605E-07
  -8.11999989       1.01694170E-07
  -8.10999966       1.02955994E-07
  -8.10000038       1.04224007E-07
  -8.09000015       1.05497655E-07
  -8.07999992       1.06776760E-07
  -8.06999969       1.08060931E-07
  -8.06000042       1.09350090E-07
  -8.05000019       1.10643953E-07
  -8.03999996       1.11942676E-07
  -8.02999973       1.13246294E-07
  -8.02000046       1.14554815E-07
  -8.01000023       1.15868502E-07
  -8.00000000       1.17187298E-07
  -7.98999977       1.18511295E-07
  -7.98000002       1.19840507E-07
  -7.96999979       1.21174722E-07
  -7.96000004       1.22513953E-07
  -7.94999981       1.23858129E-07
  -7.94000006       1.25207094E-07
  -7.92999983       1.26561204E-07
  -7.92000008       1.27920558E-07
  -7.90999985       1.29285695E-07
  -7.90000010       1.30657298E-07
  -7.88999987       1.32035709E-07
  -7.88000011       1.33421480E-07
  -7.86999989       1.34814911E-07
  -7.86000013       1.36216499E-07
  -7.84999990       1.37626344E-07
  -7.84000015       1.39044573E-07
  -7.82999992       1.40471784E-07
  -7.82000017       1.41908544E-07
  -7.80999994       1.43355763E-07
  -7.80000019       1.44814393E-07
  -7.78999996       1.46285572E-07
  -7.78000021       1.47770137E-07
  -7.76999998       1.49268786E-07
  -7.76000023       1.50781588E-07
  -7.75000000       1.52308445E-07
  -7.73999977       1.53849214E-07
  -7.73000002       1.55403399E-07
  -7.71999979       1.56971055E-07
  -7.71000004       1.58552453E-07
  -7.69999981       1.60148275E-07
  -7.69000006       1.61759090E-07
  -7.67999983       1.63386005E-07
  -7.67000008       1.65029675E-07
  -7.65999985       1.66690384E-07
  -7.65000010       1.68368203E-07
  -7.63999987       1.70062819E-07
  -7.63000011       1.71773905E-07
  -7.61999989       1.73501348E-07
  -7.61000013       1.75245376E-07
  -7.59999990       1.77006555E-07
  -7.59000015       1.78785612E-07
  -7.57999992       1.80583243E-07
  -7.57000017       1.82400285E-07
  -7.55999994       1.84236924E-07
  -7.55000019       1.86093075E-07
  -7.53999996       1.87968496E-07
  -7.53000021       1.89862462E-07
  -7.51999998       1.91774717E-07
  -7.51000023       1.93705446E-07
  -7.50000000       1.95654778E-07
  -7.48999977       1.97623265E-07
  -7.48000002       1.99611648E-07
  -7.46999979       2.01620026E-07
  -7.46000004       2.03648938E-07
  -7.44999981       2.05698228E-07
  -7.44000006       2.07767485E-07