  -16.0000000       0.00000000    
  -15.9899998       0.00000000    
  -15.9799995       0.00000000    
  -15.9700003       0.00000000    
  -15.9600000       0.00000000    
  -15.9499998       4.60053432E-39
  -15.9399996       7.70717863E-29
  -15.9300003       6.53828853E-28
  -15.9200001       1.82842319E-27
  -15.9099998      -3.93884143E-27
  -15.8999996      -5.75172722E-26
  -15.8900003      -2.83249654E-25
  -15.8800001      -9.30834174E-25
  -15.8699999      -2.30452106E-24
  -15.8599997      -4.44058560E-24
  -15.8500004      -6.53936660E-24
  -15.8400002      -6.56087963E-24
  -15.8299999      -1.77431778E-24
  -15.8199997       9.43393550E-24
  -15.8100004       2.65914062E-23
  -15.8000002       5.33222262E-23
  -15.7900000       1.19773811E-22
  -15.7799997       3.24484113E-22
  -15.7700005       8.76112910E-22
  -15.7600002       2.07550178E-21
  -15.7500000       4.14107617E-21
  -15.7399998       6.79186692E-21
  -15.7299995       8.62215023E-21
  -15.7200003       6.56064409E-21
  -15.7100000      -3.95707211E-21
  -15.6999998      -2.72700995E-20
  -15.6899996      -6.36547082E-20
  -15.6800003      -1.03831077E-19
  -15.6700001      -1.24106056E-19
  -15.6599998      -8.64816555E-20
  -15.6499996       5.10038532E-20
  -15.6400003       3.10329964E-19
  -15.6300001       6.58602341E-19
  -15.6199999       9.74633622E-19
  -15.6099997       1.03965229E-18
  -15.6000004       5.79317700E-19
  -15.5900002      -6.24449501E-19
  -15.5799999      -2.56014075E-18
  -15.5699997      -4.80278683E-18
  -15.5600004      -6.41548875E-18
  -15.5500002      -6.05534135E-18
  -15.5400000      -2.37584036E-18
  -15.5299997       5.27804469E-18
  -15.5200005       1.60435750E-17
  -15.5100002       2.69191670E-17
  -15.5000000       3.27959643E-17
  -15.4899998       2.75415426E-17
  -15.4799995       6.25836952E-18
  -15.4700003      -3.16583130E-17
  -15.4600000      -7.96374355E-17
  -15.4499998      -1.22663817E-16
  -15.4399996      -1.39105402E-16
  -15.4300003      -1.06495130E-16
  -15.4200001      -1.07968527E-17
  -15.4099998       1.43099096E-16
  -15.3999996       3.23555469E-16
  -15.3900003       4.71681149E-16
  -15.3800001       5.11852163E-16
  -15.3699999       3.74062587E-16
  -15.3599997       2.43818169E-17
  -15.3500004      -5.05127198E-16
  -15.3400002      -1.09912361E-15
  -15.3299999      -1.56642332E-15
  -15.3199997      -1.67943022E-15
  -15.3100004      -1.24333743E-15
  -15.3000002      -1.80686130E-16
  -15.2900000       1.39426769E-15
  -15.2799997       3.14234189E-15
  -15.2700005       4.53414238E-15
  -15.2600002       4.96398068E-15
  -15.2500000       3.92973990E-15
  -15.2399998       1.23788963E-15
  -15.2299995      -2.82859792E-15
  -15.2200003      -7.44772692E-15
  -15.2100000      -1.13538566E-14
  -15.1999998      -1.31053852E-14
  -15.1899996      -1.14860920E-14
  -15.1800003      -5.94753120E-15
  -15.1700001       3.03688120E-15
  -15.1599998       1.38391546E-14
  -15.1499996       2.38603676E-14
  -15.1400003       3.00490020E-14
  -15.1300001       2.96736749E-14
  -15.1199999       2.11763387E-14
  -15.1099997       4.87327828E-15
  -15.1000004      -1.67288008E-14
  -15.0900002      -3.91642895E-14
  -15.0799999      -5.68220364E-14
  -15.0699997      -6.42152144E-14
  -15.0600004      -5.74357592E-14
  -15.0500002      -3.54298500E-14
  -15.0400000      -7.29678544E-16
  -15.0299997       4.06253942E-14
  -15.0200005       8.00626248E-14
  -15.0100002       1.08205186E-13
  -15.0000000       1.17006461E-13
  -14.9899998       1.01802152E-13
  -14.9799995       6.27677231E-14
  -14.9700003       5.37455407E-15
  -14.9600000      -6.03475061E-14
  -14.9499998      -1.21655453E-13
  -14.9399996      -1.65686976E-13
  -14.9300003      -1.82242107E-13
  -14.9200001      -1.66116022E-13
  -14.9099998      -1.18422945E-13
  -14.8999996      -4.65654025E-14
  -14.8900003       3.71863117E-14
  -14.8800001       1.18207297E-13
  -14.8699999       1.82551064E-13
  -14.8599997       2.19786944E-13
  -14.8500004       2.24954102E-13
  -14.8400002       1.99156962E-13
  -14.8299999       1.48672781E-13
  -14.8199997       8.28457854E-14
  -14.8100004       1.13925643E-14
  -14.8000002      -5.80595684E-14
  -14.7900000      -1.21416142E-13
  -14.7799997      -1.78036608E-13
  -14.7700005      -2.29100864E-13
  -14.7600002      -2.74932312E-13
  -14.7500000      -3.12237134E-13
  -14.7399998      -3.32412456E-13
  -14.7299995      -3.21912527E-13
  -14.7200003      -2.65129227E-13
  -14.7100000      -1.49449558E-13
  -14.6999998       2.86797970E-14
  -14.6899996       2.58474286E-13
  -14.6800003       5.12268450E-13
  -14.6700001       7.47228993E-13
  -14.6599998       9.11857395E-13
  -14.6499996       9.56485650E-13
  -14.6400003       8.45655902E-13
  -14.6300001       5.69373596E-13
  -14.6199999       1.50063338E-13
  -14.6099997      -3.57214502E-13
  -14.6000004      -8.72234468E-13
  -14.5900002      -1.30378369E-12
  -14.5799999      -1.56773650E-12
  -14.5699997      -1.60498199E-12
  -14.5600004      -1.39495197E-12
  -14.5500002      -9.61369547E-13
  -14.5400000      -3.68666875E-13
  -14.5299997       2.90234471E-13
  -14.5200005       9.11974814E-13
  -14.5100002       1.40246148E-12
  -14.5000000       1.69376752E-12
  -14.4899998       1.75463008E-12
  -14.4799995       1.59268649E-12
  -14.4700003       1.24869223E-12
  -14.4600000       7.84841918E-13
  -14.4499998       2.70496001E-13
  -14.4399996      -2.31153258E-13
  -14.4300003      -6.72628023E-13
  -14.4200001      -1.02636476E-12
  -14.4099998      -1.28350347E-12
  -14.3999996      -1.44844932E-12
  -14.3900003      -1.53116636E-12
  -14.3800001      -1.53934688E-12
  -14.3699999      -1.47231294E-12
  -14.3599997      -1.31798131E-12
  -14.3500004      -1.05359840E-12
  -14.3400002      -6.50422750E-13
  -14.3299999      -8.20155237E-14
  -14.3199997       6.64714160E-13
  -14.3100004       1.57721384E-12
  -14.3000002       2.60589597E-12
  -14.2900000       3.65646619E-12
  -14.2799997       4.58895422E-12
  -14.2700005       5.22598718E-12
  -14.2600002       5.37151660E-12
  -14.2500000       4.83901244E-12
  -14.2399998       3.48556340E-12
  -14.2299995       1.24588404E-12
  -14.2200003      -1.84130012E-12
  -14.2100000      -5.62189097E-12
  -14.1999998      -9.83552476E-12
  -14.1899996      -1.41467992E-11
  -14.1800003      -1.81953584E-11
  -14.1700001      -2.16567615E-11
  -14.1599998      -2.43021714E-11
  -14.1499996      -2.60437488E-11
  -14.1400003      -2.69539963E-11
  -14.1300001      -2.72519889E-11
  -14.1199999      -2.72563604E-11
  -14.1099997      -2.73121144E-11
  -14.1000004      -2.77058567E-11
  -14.0900002      -2.85874206E-11
  -14.0799999      -2.99165692E-11
  -14.0699997      -3.14491697E-11
  -14.0600004      -3.27693740E-11
  -14.0500002      -3.33639887E-11
  -14.0400000      -3.27247708E-11
  -14.0299997      -3.04575601E-11
  -14.0200005      -2.63729490E-11
  -14.0100002      -2.05368899E-11
  -14.0000000      -1.32681331E-11
  -13.9899998      -5.08114254E-12
  -13.9799995       3.41304675E-12
  -13.9700003       1.16250291E-11
  -13.9600000       1.90963027E-11
  -13.9499998       2.55733976E-11
  -13.9399996       3.10301056E-11
  -13.9300003       3.56351233E-11
  -13.9200001       3.96767307E-11
  -13.9099998       4.34687807E-11
  -13.8999996       4.72664546E-11
  -13.8900003       5.12163506E-11
  -13.8800001       5.53549255E-11
  -13.8699999       5.96529354E-11
  -13.8599997       6.40881653E-11
  -13.8500004       6.87191762E-11
  -13.8400002       7.37309658E-11
  -13.8299999       7.94309132E-11
  -13.8199997       8.61891600E-11
  -13.8100004       9.43345749E-11
  -13.8000002       1.04032449E-10
  -13.7900000       1.15177375E-10
  -13.7799997       1.27331951E-10
  -13.7700005       1.39730338E-10
  -13.7600002       1.51349488E-10
  -13.7500000       1.61031799E-10
  -13.7399998       1.67633157E-10
  -13.7299995       1.70165007E-10
  -13.7200003       1.67905370E-10
  -13.7100000       1.60464447E-10
  -13.6999998       1.47804657E-10
  -13.6899996       1.30224706E-10
  -13.6800003       1.08322171E-10
  -13.6700001       8.29471561E-11
  -13.6599998       5.51517339E-11
  -13.6499996       2.61328216E-11
  -13.6400003      -2.83673909E-12
  -13.6300001      -3.04957344E-11
  -13.6199999      -5.56976375E-11
  -13.6099997      -7.75189704E-11
  -13.6000004      -9.53531351E-11
  -13.5900002      -1.08969209E-10
  -13.5799999      -1.18519958E-10
  -13.5699997      -1.24495594E-10
  -13.5600004      -1.27634264E-10
  -13.5500002      -1.28814126E-10
  -13.5400000      -1.28954444E-10
  -13.5299997      -1.28947672E-10
  -13.5200005      -1.29633249E-10
  -13.5100002      -1.31803568E-10
  -13.5000000      -1.36220493E-10
  -13.4899998      -1.43615050E-10
  -13.4799995      -1.54648933E-10
  -13.4700003      -1.69832842E-10
  -13.4600000      -1.89417940E-10
  -13.4499998      -2.13291038E-10
  -13.4399996      -2.40912734E-10
  -13.4300003      -2.71328127E-10
  -13.4200001      -3.03259085E-10
  -13.4099998      -3.35262484E-10
  -13.3999996      -3.65914882E-10
  -13.3900003      -3.93973243E-10
  -13.3800001      -4.18468205E-10
  -13.3699999      -4.38709735E-10
  -13.3599997      -4.54206506E-10
  -13.3500004      -4.64543459E-10
  -13.3400002      -4.69258132E-10
  -13.3299999      -4.67778372E-10
  -13.3199997      -4.59437766E-10
  -13.3100004      -4.43583448E-10
  -13.3000002      -4.19732166E-10
  -13.2900000      -3.87729182E-10
  -13.2799997      -3.47854801E-10
  -13.2700005      -3.00837910E-10
  -13.2600002      -2.47768445E-10
  -13.2500000      -1.89931945E-10
  -13.2399998      -1.28613259E-10
  -13.2299995      -6.49248710E-11
  -13.2200003       2.95893491E-13
  -13.2100000       6.65026645E-11
  -13.1999998       1.33379210E-10
  -13.1899996       2.00734762E-10
  -13.1800003       2.68400524E-10
  -13.1700001       3.36162653E-10
  -13.1599998       4.03747563E-10
  -13.1499996       4.70856354E-10
  -13.1400003       5.37224376E-10
  -13.1300001       6.02671857E-10
  -13.1199999       6.67132516E-10
  -13.1099997       7.30648653E-10
  -13.1000004       7.93349220E-10
  -13.0900002       8.55433391E-10
  -13.0799999       9.17181553E-10
  -13.0699997       9.79002435E-10
  -13.0600004       1.04150288E-09
  -13.0500002       1.10555409E-09
  -13.0400000       1.17231869E-09
  -13.0299997       1.24321209E-09
  -13.0200005       1.31979039E-09
  -13.0100002       1.40358936E-09
  -13.0000000       1.49595114E-09
  -12.9899998       1.59787605E-09
  -12.9799995       1.70995418E-09
  -12.9700003       1.83237236E-09
  -12.9600000       1.96498462E-09
  -12.9499998       2.10741669E-09
  -12.9399996       2.25915575E-09
  -12.9300003       2.41959675E-09
  -12.9200001       2.58803579E-09
  -12.9099998       2.76364220E-09
  -12.8999996       2.94543390E-09
  -12.8900003       3.13230375E-09
  -12.8800001       3.32310934E-09
  -12.8699999       3.51682505E-09
  -12.8599997       3.71269815E-09
  -12.8500004       3.91036448E-09
  -12.8400002       4.10986090E-09
  -12.8299999       4.31151426E-09
  -12.8199997       4.51571580E-09
  -12.8100004       4.72266271E-09
  -12.8000002       4.93211427E-09
  -12.7900000       5.14325649E-09
  -12.7799997       5.35473665E-09
  -12.7700005       5.56484414E-09
  -12.7600002       5.77178838E-09
  -12.7500000       5.97398708E-09
  -12.7399998       6.17029094E-09
  -12.7299995       6.36008091E-09
  -12.7200003       6.54319754E-09
  -12.7100000       6.71979627E-09
  -12.6999998       6.89014268E-09
  -12.6899996       7.05447700E-09
  -12.6800003       7.21297599E-09
  -12.6700001       7.36576444E-09
  -12.6599998       7.51307283E-09
  -12.6499996       7.65530572E-09
  -12.6400003       7.79310305E-09
  -12.6300001       7.92726507E-09
  -12.6199999       8.05862399E-09
  -12.6099997       8.18786994E-09
  -12.6000004       8.31547364E-09
  -12.5900002       8.44175574E-09
  -12.5799999       8.56704840E-09
  -12.5699997       8.69206396E-09
  -12.5600004       8.81816664E-09
  -12.5500002       8.94764796E-09
  -12.5400000       9.08365028E-09
  -12.5299997       9.22995813E-09
  -12.5200005       9.39051414E-09
  -12.5100002       9.56881152E-09
  -12.5000000       9.76746239E-09
  -12.4899998       9.98786298E-09
  -12.4799995       1.02302478E-08
  -12.4700003       1.04939435E-08
  -12.4600000       1.07779101E-08
  -12.4499998       1.10812053E-08
  -12.4399996       1.14033591E-08
  -12.4300003       1.17445316E-08
  -12.4200001       1.21053434E-08
  -12.4099998       1.24865718E-08
  -12.3999996       1.28887860E-08
  -12.3900003       1.33120830E-08
  -12.3800001       1.37560026E-08
  -12.3699999       1.42197401E-08
  -12.3599997       1.47024206E-08
  -12.3500004       1.52034616E-08
  -12.3400002       1.57227067E-08
  -12.3299999       1.62605112E-08
  -12.3199997       1.68174168E-08
  -12.3100004       1.73937043E-08
  -12.3000002       1.79889987E-08
  -12.2900000       1.86019449E-08
  -12.2799997       1.92301588E-08
  -12.2700005       1.98703702E-08
  -12.2600002       2.05188435E-08
  -12.2500000       2.11718714E-08
  -12.2399998       2.18261249E-08
  -12.2299995       2.24788650E-08
  -12.2200003       2.31277699E-08
  -12.2100000       2.37707933E-08
  -12.1999998       2.44058995E-08
  -12.1899996       2.50306602E-08
  -12.1800003       2.56422847E-08
  -12.1700001       2.62377906E-08
  -12.1599998       2.68141545E-08
  -12.1499996       2.73686513E-08
  -12.1400003       2.78992704E-08
  -12.1300001       2.84044877E-08
  -12.1199999       2.88833988E-08
  -12.1099997       2.93353430E-08
  -12.1000004       2.97596969E-08
  -12.0900002       3.01556788E-08
  -12.0799999       3.05222656E-08
  -12.0699997       3.08584518E-08
  -12.0600004       3.11633563E-08
  -12.0500002       3.14363575E-08
  -12.0400000       3.16772066E-08
  -12.0299997       3.18859321E-08
  -12.0200005       3.20624842E-08
  -12.0100002       3.22065503E-08
  -12.0000000       3.23172777E-08
  -11.9899998       3.23933307E-08
  -11.9799995       3.24330642E-08
  -11.9700003       3.24348690E-08
  -11.9600000       3.23976757E-08
  -11.9499998       3.23212426E-08
  -11.9399996       3.22064935E-08
  -11.9300003       3.20550306E-08
  -11.9200001       3.18691740E-08
  -11.9099998       3.16511723E-08
  -11.8999996       3.14030189E-08
  -11.8900003       3.11263655E-08
  -11.8800001       3.08222816E-08
  -11.8699999       3.04918544E-08
  -11.8599997       3.01363592E-08
  -11.8500004       2.97576559E-08
  -11.8400002       2.93581799E-08
  -11.8299999       2.89408071E-08
  -11.8199997       2.85084969E-08
  -11.8100004       2.80637718E-08
  -11.8000002       2.76085323E-08
  -11.7900000       2.71437663E-08
  -11.7799997       2.66699072E-08
  -11.7700005       2.61871183E-08
  -11.7600002       2.56957922E-08
  -11.7500000       2.51968881E-08
  -11.7399998       2.46921346E-08
  -11.7299995       2.41836844E-08
  -11.7200003       2.36739481E-08
  -11.7100000       2.31647483E-08
  -11.6999998       2.26572094E-08
  -11.6899996       2.21515570E-08
  -11.6800003       2.16471534E-08
  -11.6700001       2.11432791E-08
  -11.6599998       2.06391046E-08
  -11.6499996       2.01347028E-08
  -11.6400003       1.96310204E-08
  -11.6300001       1.91297396E-08
  -11.6199999       1.86330631E-08
  -11.6099997       1.81430622E-08
  -11.6000004       1.76616979E-08
  -11.5900002       1.71901426E-08
  -11.5799999       1.67291638E-08
  -11.5699997       1.62792784E-08
  -11.5600004       1.58411577E-08
  -11.5500002       1.54157984E-08
  -11.5400000       1.50046375E-08
  -11.5299997       1.46093191E-08
  -11.5200005       1.42313432E-08
  -11.5100002       1.38715563E-08
  -11.5000000       1.35299318E-08
  -11.4899998       1.32055735E-08
  -11.4799995       1.28968631E-08
  -11.4700003       1.26021833E-08
  -11.4600000       1.23201591E-08
  -11.4499998       1.20502541E-08
  -11.4399996       1.17930172E-08
  -11.4300003       1.15496306E-08
  -11.4200001       1.13220064E-08
  -11.4099998       1.11119762E-08
  -11.3999996       1.09212381E-08
  -11.3900003       1.07510800E-08
  -11.3800001       1.06024443E-08
  -11.3699999       1.04762607E-08
  -11.3599997       1.03736477E-08
  -11.3500004       1.02961151E-08
  -11.3400002       1.02454925E-08
  -11.3299999       1.02236681E-08
  -11.3199997       1.02322266E-08
  -11.3100004       1.02721271E-08
  -11.3000002       1.03436832E-08
  -11.2900000       1.04465592E-08
  -11.2799997       1.05802140E-08
  -11.2700005       1.07442766E-08
  -11.2600002       1.09389680E-08
  -11.2500000       1.11653344E-08
  -11.2399998       1.14251693E-08
  -11.2299995       1.17204362E-08
  -11.2200003       1.20529888E-08
  -11.2100000       1.24239916E-08
  -11.1999998       1.28337252E-08
  -11.1899996       1.32816318E-08
  -11.1800003       1.37666136E-08
  -11.1700001       1.42873828E-08
  -11.1599998       1.48430521E-08
  -11.1499996       1.54331659E-08
  -11.1400003       1.60576636E-08
  -11.1300001       1.67165304E-08
  -11.1199999       1.74094250E-08
  -11.1099997       1.81351449E-08
  -11.1000004       1.88918889E-08
  -11.0900002       1.96770547E-08
  -11.0799999       2.04879207E-08
  -11.0699997       2.13221263E-08
  -11.0600004       2.21780709E-08
  -11.0500002       2.30549340E-08
  -11.0400000       2.39526869E-08
  -11.0299997       2.48714898E-08
  -11.0200005       2.58110315E-08
  -11.0100002       2.67702713E-08
  -11.0000000       2.77470313E-08
  -10.9899998       2.87383628E-08
  -10.9799995       2.97409493E-08
  -10.9700003       3.07517212E-08
  -10.9600000       3.17684439E-08
  -10.9499998       3.27900551E-08
  -10.9399996       3.38165158E-08
  -10.9300003       3.48483127E-08
  -10.9200001       3.58862344E-08
  -10.9099998       3.69303450E-08
  -10.8999996       3.79801470E-08
  -10.8900003       3.90341057E-08
  -10.8800001       4.00903950E-08
  -10.8699999       4.11468584E-08
  -10.8599997       4.22016804E-08
  -10.8500004       4.32535998E-08
  -10.8400002       4.43017250E-08
  -10.8299999       4.53454909E-08
  -10.8199997       4.63842760E-08
  -10.8100004       4.74170250E-08
  -10.8000002       4.84421996E-08
  -10.7900000       4.94580519E-08
  -10.7799997       5.04631004E-08
  -10.7700005       5.14565990E-08
  -10.7600002       5.24387644E-08
  -10.7500000       5.34110676E-08
  -10.7399998       5.43757892E-08
  -10.7299995       5.53358355E-08
  -10.7200003       5.62937785E-08
  -10.7100000       5.72517393E-08
  -10.6999998       5.82107162E-08
  -10.6899996       5.91707270E-08
  -10.6800003       6.01312280E-08
  -10.6700001       6.10915265E-08
  -10.6599998       6.20511784E-08
  -10.6499996       6.30104537E-08
  -10.6400003       6.39702407E-08
  -10.6300001       6.49320455E-08
  -10.6199999       6.58977086E-08
  -10.6099997       6.68690134E-08
  -10.6000004       6.78475800E-08
  -10.5900002       6.88345665E-08
  -10.5799999       6.98309606E-08
  -10.5699997       7.08379915E-08
  -10.5600004       7.18565261E-08
  -10.5500002       7.28879073E-08
  -10.5400000       7.39333075E-08
  -10.5299997       7.49937996E-08
  -10.5200005       7.60698811E-08
  -10.5100002       7.71614097E-08
  -10.5000000       7.82675116E-08
  -10.4899998       7.93870711E-08
  -10.4799995       8.05186957E-08
  -10.4700003       8.16612484E-08
  -10.4600000       8.28143172E-08
  -10.4499998       8.39783354E-08
  -10.4399996       8.51543618E-08
  -10.4300003       8.63438459E-08
  -10.4200001       8.75486066E-08
  -10.4099998       8.87702143E-08
  -10.3999996       9.00097419E-08
  -10.3900003       9.12682836E-08
  -10.3800001       9.25460881E-08
  -10.3699999       9.38434326E-08
  -10.3599997       9.51604306E-08
  -10.3500004       9.64969118E-08
  -10.3400002       9.78523502E-08
  -10.3299999       9.92262201E-08
  -10.3199997       1.00617243E-07
  -10.3100004       1.02023421E-07
  -10.3000002       1.03442900E-07
  -10.2900000       1.04873315E-07
  -10.2799997       1.06312790E-07
  -10.2700005       1.07759902E-07
  -10.2600002       1.09213978E-07
  -10.2500000       1.10675096E-07
  -10.2399998       1.12144207E-07
  -10.2299995       1.13622875E-07
  -10.2200003       1.15112115E-07
  -10.2100000       1.16613030E-07
  -10.1999998       1.18125904E-07
  -10.1899996       1.19650437E-07
  -10.1800003       1.21185479E-07
  -10.1700001       1.22730100E-07
  -10.1599998       1.24282977E-07
  -10.1499996       1.25842632E-07
  -10.1400003       1.27408384E-07
  -10.1300001       1.28979337E-07
  -10.1199999       1.30554440E-07
  -10.1099997       1.32133223E-07
  -10.1000004       1.33714707E-07
  -10.0900002       1.35298265E-07
  -10.0799999       1.36883287E-07
  -10.0699997       1.38469318E-07
  -10.0600004       1.40057281E-07
  -10.0500002       1.41647604E-07
  -10.0400000       1.43242374E-07
  -10.0299997       1.44843497E-07
  -10.0200005       1.46452919E-07
  -10.0100002       1.48072175E-07
  -10.0000000       1.49702075E-07
  -9.98999977       1.51342590E-07
  -9.97999954       1.52993223E-07
  -9.97000027       1.54652369E-07
  -9.96000004       1.56318947E-07
  -9.94999981       1.57991650E-07
  -9.93999958       1.59669824E-07
  -9.93000031       1.61352617E-07
  -9.92000008       1.63040013E-07
  -9.90999985       1.64731787E-07
  -9.89999962       1.66427057E-07
  -9.89000034       1.68125027E-07
  -9.88000011       1.69824204E-07
  -9.86999989       1.71523340E-07
  -9.85999966       1.73220130E-07
  -9.85000038       1.74914689E-07
  -9.84000015       1.76606520E-07
  -9.82999992       1.78296531E-07
  -9.81999969       1.79986515E-07
  -9.81000042       1.81678260E-07
  -9.80000019       1.83372975E-07
  -9.78999996       1.85071826E-07
  -9.77999973       1.86775267E-07
  -9.77000046       1.88483014E-07
  -9.76000023       1.90194172E-07
  -9.75000000       1.91908242E-07
  -9.73999977       1.93625127E-07
  -9.72999954       1.95345208E-07
  -9.72000027       1.97069568E-07
  -9.71000004       1.98799114E-07
  -9.69999981       2.00533890E-07
  -9.68999958       2.02274379E-07
  -9.68000031       2.04019699E-07
  -9.67000008       2.05769126E-07
  -9.65999985       2.07521680E-07
  -9.64999962       2.09276678E-07
  -9.64000034       2.11035129E-07
  -9.63000011       2.12798625E-07
  -9.61999989       2.14570036E-07
  -9.60999966       2.16352234E-07
  -9.60000038       2.18148301E-07
  -9.59000015       2.19960555E-07
  -9.57999992       2.21789747E-07
  -9.56999969       2.23636931E-07
  -9.56000042       2.25501196E-07
  -9.55000019       2.27382387E-07
  -9.53999996       2.29280076E-07
  -9.52999973       2.31194363E-07
  -9.52000046       2.33126173E-07
  -9.51000023       2.35077124E-07
  -9.50000000       2.37048198E-07
  -9.48999977       2.39040475E-07
  -9.47999954       2.41054408E-07
  -9.47000027       2.43089858E-07
  -9.46000004       2.45146936E-07
  -9.44999981       2.47226779E-07
  -9.43999958       2.49331663E-07
  -9.43000031       2.51465281E-07
  -9.42000008       2.53631526E-07
  -9.40999985       2.55835317E-07
  -9.39999962       2.58081172E-07
  -9.39000034       2.60372133E-07
  -9.38000011       2.62709534E-07
  -9.36999989       2.65094172E-07
  -9.35999966       2.67525252E-07
  -9.35000038       2.70001465E-07
  -9.34000015       2.72522527E-07
  -9.32999992       2.75088013E-07
  -9.31999969       2.77699030E-07
  -9.31000042       2.80357142E-07
  -9.30000019       2.83063741E-07
  -9.28999996       2.85821130E-07
  -9.27999973       2.88628968E-07
  -9.27000046       2.91488476E-07
  -9.26000023       2.94399626E-07
  -9.25000000       2.97362050E-07
  -9.23999977       3.00376939E-07
  -9.22999954       3.03444267E-07
  -9.22000027       3.06565795E-07
  -9.21000004       3.09742546E-07
  -9.19999981       3.12975715E-07
  -9.18999958       3.16265016E-07
  -9.18000031       3.19609228E-07
  -9.17000008       3.23006901E-07
  -9.15999985       3.26454852E-07
  -9.14999962       3.29950893E-07
  -9.14000034       3.33493546E-07
  -9.13000011       3.37082412E-07
  -9.11999989       3.40717349E-07
  -9.10999966       3.44398472E-07
  -9.10000038       3.48127088E-07
  -9.09000015       3.51902315E-07
  -9.07999992       3.55724154E-07
  -9.06999969       3.59591382E-07
  -9.06000042       3.63503347E-07
  -9.05000019       3.67457091E-07
  -9.03999996       3.71452217E-07
  -9.02999973       3.75488838E-07
  -9.02000046       3.79566245E-07
  -9.01000023       3.83684863E-07
  -9.00000000       3.87843897E-07
  -8.98999977       3.92042836E-07
  -8.97999954       3.96280683E-07
  -8.97000027       4.00555564E-07
  -8.96000004       4.04866199E-07
  -8.94999981       4.09211111E-07
  -8.93999958       4.13589419E-07
  -8.93000031       4.18000667E-07
  -8.92000008       4.22445538E-07
  -8.90999985       4.26924089E-07
  -8.89999962       4.31436348E-07
  -8.89000034       4.35981491E-07
  -8.88000011       4.40558750E-07
  -8.86999989       4.45165455E-07
  -8.85999966       4.49800098E-07
  -8.85000038       4.54460718E-07
  -8.84000015       4.59147316E-07
  -8.82999992       4.63858328E-07
  -8.81999969       4.68595431E-07
  -8.81000042       4.73358597E-07
  -8.80000019       4.78149445E-07
  -8.78999996       4.82968403E-07
  -8.77999973       4.87816294E-07
  -8.77000046       4.92693744E-07
  -8.76000023       4.97600581E-07
  -8.75000000       5.02536352E-07
  -8.73999977       5.07502023E-07
  -8.72999954       5.12496797E-07
  -8.72000027       5.17521187E-07
  -8.71000004       5.22574283E-07
  -8.69999981       5.27654777E-07
  -8.68999958       5.32763522E-07
  -8.68000031       5.37897847E-07
  -8.67000008       5.43059457E-07
  -8.65999985       5.48245907E-07
  -8.64999962       5.53458904E-07
  -8.64000034       5.58700776E-07
  -8.63000011       5.63970843E-07
  -8.61999989       5.69272345E-07
  -8.60999966       5.74606759E-07
  -8.60000038       5.79974312E-07
  -8.59000015       5.85375972E-07
  -8.57999992       5.90812363E-07
  -8.56999969       5.96283598E-07
  -8.56000042       6.01791214E-07
  -8.55000019       6.07334357E-07
  -8.53999996       6.12915301E-07
  -8.52999973       6.18533250E-07
  -8.52000046       6.24188999E-07
  -8.51000023       6.29883459E-07
  -8.50000000       6.35616743E-07
  -8.48999977       6.41387260E-07
  -8.47999954       6.47195691E-07
  -8.47000027       6.53043173E-07
  -8.46000004       6.58929935E-07
  -8.44999981       6.64858419E-07
  -8.43999958       6.70830559E-07
  -8.43000031       6.76848913E-07
  -8.42000008       6.82916607E-07
  -8.40999985       6.89035232E-07
  -8.39999962       6.95207007E-07
  -8.39000034       7.01432214E-07
  -8.38000011       7.07713696E-07
  -8.36999989       7.14049634E-07
  -8.35999966       7.20443495E-07
  -8.35000038       7.26895223E-07
  -8.34000015       7.33407660E-07
  -8.32999992       7.39981203E-07
  -8.31999969       7.46617786E-07
  -8.31000042       7.53320194E-07
  -8.30000019       7.60088540E-07
  -8.28999996       7.66924984E-07
  -8.27999973       7.73830209E-07
  -8.27000046       7.80805806E-07
  -8.26000023       7.87852230E-07
  -8.25000000       7.94969878E-07
  -8.23999977       8.02159377E-07
  -8.22999954       8.09422374E-07
  -8.22000027       8.16757790E-07
  -8.21000004       8.24169206E-07
  -8.19999981       8.31657246E-07
  -8.18999958       8.39224754E-07
  -8.18000031       8.46872695E-07
  -8.17000008       8.54600614E-07
  -8.15999985       8.62413344E-07
  -8.14999962       8.70310828E-07
  -8.14000034       8.78295850E-07
  -8.13000011       8.86368753E-07
  -8.11999989       8.94530842E-07
  -8.10999966       9.02781835E-07
  -8.10000038       9.11123038E-07
  -8.09000015       9.19557351E-07
  -8.07999992       9.28081420E-07
  -8.06999969       9.36696438E-07
  -8.06000042       9.45402689E-07
  -8.05000019       9.54200345E-07
  -8.03999996       9.63089747E-07
  -8.02999973       9.72069756E-07
  -8.02000046       9.81140374E-07
  -8.01000023       9.90302055E-07
  -8.00000000       9.99557074E-07
  -7.98999977       1.00890509E-06
  -7.98000002       1.01834848E-06
  -7.96999979       1.02788817E-06
  -7.96000004       1.03752325E-06
  -7.94999981       1.04725598E-06
  -7.94000006       1.05708705E-06
  -7.92999983       1.06701691E-06
  -7.92000008       1.07704352E-06
  -7.90999985       1.08716927E-06
  -7.90000010       1.09739278E-06
  -7.88999987       1.10771168E-06
  -7.88000011       1.11812824E-06
  -7.86999989       1.12863904E-06
  -7.86000013       1.13924489E-06
  -7.84999990       1.14994532E-06
  -7.84000015       1.16073807E-06
  -7.82999992       1.17162006E-06
  -7.82000017       1.18259425E-06
  -7.80999994       1.19365734E-06
  -7.80000019       1.20481036E-06
  -7.78999996       1.21605353E-06
  -7.78000021       1.22738788E-06
  -7.76999998       1.23881466E-06
  -7.76000023       1.25033466E-06
  -7.75000000       1.26194720E-06
  -7.73999977       1.27365206E-06
  -7.73000002       1.28544832E-06
  -7.71999979       1.29733803E-06
  -7.71000004       1.30932153E-06
  -7.69999981       1.32139724E-06
  -7.69000006       1.33356605E-06
  -7.67999983       1.34582740E-06
  -7.67000008       1.35818209E-06
  -7.65999985       1.37062807E-06
  -7.65000010       1.38316568E-06
  -7.63999987       1.39579413E-06
  -7.63000011       1.40851489E-06
  -7.61999989       1.42132501E-06
  -7.61000013       1.43422858E-06
  -7.59999990       1.44722173E-06
  -7.59000015       1.46031039E-06
  -7.57999992       1.47349181E-06
  -7.57000017       1.48676929E-06
  -7.55999994       1.50014262E-06
  -7.55000019       1.51361257E-06
  -7.53999996       1.52718292E-06
  -7.53000021       1.54085183E-06
  -7.51999998       1.55462101E-06
  -7.51000023       1.56849228E-06
  -7.50000000       1.58246996E-06
  -7.48999977       1.59655440E-06
  -7.48000002       1.61074126E-06
  -7.46999979       1.62503568E-06
  -7.46000004       1.63943309E-06
  -7.44999981       1.65393772E-06
  -7.44000006       1.66855125E-06