  -16.0000000       0.00000000    
  -15.9949999       0.00000000    
  -15.9899998       0.00000000    
  -15.9849997       0.00000000    
  -15.9799995       0.00000000    
  -15.9750004       0.00000000    
  -15.9700003       0.00000000    
  -15.9650002       0.00000000    
  -15.9600000       0.00000000    
  -15.9549999       0.00000000    
  -15.9499998       0.00000000    
  -15.9449997       0.00000000    
  -15.9399996       0.00000000    
  -15.9350004       0.00000000    
  -15.9300003       0.00000000    
  -15.9250002       0.00000000    
  -15.9200001       0.00000000    
  -15.9150000       0.00000000    
  -15.9099998       0.00000000    
  -15.9049997       0.00000000    
  -15.8999996       0.00000000    
  -15.8950005       0.00000000    
  -15.8900003       0.00000000    
  -15.8850002       0.00000000    
  -15.8800001       0.00000000    
  -15.8750000       0.00000000    
  -15.8699999       0.00000000    
  -15.8649998       0.00000000    
  -15.8599997       0.00000000    
  -15.8549995       0.00000000    
  -15.8500004       0.00000000    
  -15.8450003       0.00000000    
  -15.8400002       0.00000000    
  -15.8350000       0.00000000    
  -15.8299999       0.00000000    
  -15.8249998       0.00000000    
  -15.8199997       0.00000000    
  -15.8149996       0.00000000    
  -15.8100004       0.00000000    
  -15.8050003       0.00000000    
  -15.8000002       0.00000000    
  -15.7950001       0.00000000    
  -15.7900000       0.00000000    
  -15.7849998       0.00000000    
  -15.7799997       0.00000000    
  -15.7749996       0.00000000    
  -15.7700005       0.00000000    
  -15.7650003       0.00000000    
  -15.7600002       0.00000000    
  -15.7550001       0.00000000    
  -15.7500000       0.00000000    
  -15.7449999       0.00000000    
  -15.7399998       0.00000000    
  -15.7349997       0.00000000    
  -15.7299995       0.00000000    
  -15.7250004       0.00000000    
  -15.7200003       0.00000000    
  -15.7150002       0.00000000    
  -15.7100000       0.00000000    
  -15.7049999       0.00000000    
  -15.6999998       0.00000000    
  -15.6949997       0.00000000    
  -15.6899996       0.00000000    
  -15.6850004       0.00000000    
  -15.6800003       0.00000000    
  -15.6750002       0.00000000    
  -15.6700001       0.00000000    
  -15.6650000       0.00000000    
  -15.6599998       0.00000000    
  -15.6549997       0.00000000    
  -15.6499996       0.00000000    
  -15.6450005       0.00000000    
  -15.6400003       0.00000000    
  -15.6350002       0.00000000    
  -15.6300001       0.00000000    
  -15.6250000       0.00000000    
  -15.6199999       0.00000000    
  -15.6149998       0.00000000    
  -15.6099997       0.00000000    
  -15.6049995       0.00000000    
  -15.6000004       0.00000000    
  -15.5950003       0.00000000    
  -15.5900002       0.00000000    
  -15.5850000       0.00000000    
  -15.5799999       0.00000000    
  -15.5749998       0.00000000    
  -15.5699997       0.00000000    
  -15.5649996       0.00000000    
  -15.5600004       0.00000000    
  -15.5550003       0.00000000    
  -15.5500002       0.00000000    
  -15.5450001       0.00000000    
  -15.5400000       0.00000000    
  -15.5349998       0.00000000    
  -15.5299997       0.00000000    
  -15.5249996       0.00000000    
  -15.5200005       0.00000000    
  -15.5150003       0.00000000    
  -15.5100002       0.00000000    
  -15.5050001       0.00000000    
  -15.5000000       0.00000000    
  -15.4949999       0.00000000    
  -15.4899998       0.00000000    
  -15.4849997       0.00000000    
  -15.4799995       0.00000000    
  -15.4750004      -0.00000000    
  -15.4700003      -0.00000000    
  -15.4650002      -0.00000000    
  -15.4600000      -0.00000000    
  -15.4549999       0.00000000    
  -15.4499998      -0.00000000    
  -15.4449997      -0.00000000    
  -15.4399996      -0.00000000    
  -15.4350004      -0.00000000    
  -15.4300003       0.00000000    
  -15.4250002       0.00000000    
  -15.4200001       0.00000000    
  -15.4150000      -1.40129846E-45
  -15.4099998      -1.40129846E-45
  -15.4049997      -2.80259693E-45
  -15.3999996      -1.40129846E-45
  -15.3950005      -1.40129846E-45
  -15.3900003       2.80259693E-45
  -15.3850002       1.12103877E-44
  -15.3800001       1.96181785E-44
  -15.3750000       2.52233724E-44
  -15.3699999       2.10194770E-44
  -15.3649998      -4.20389539E-45
  -15.3599997      -6.02558340E-44
  -15.3549995      -1.42932443E-43
  -15.3500004      -2.28411650E-43
  -15.3450003      -2.60641514E-43
  -15.3400002      -1.49938936E-43
  -15.3350000       2.00385680E-43
  -15.3299999       8.39377780E-43
  -15.3249998       1.67735426E-42
  -15.3199997       2.38220739E-42
  -15.3149996       2.32755675E-42
  -15.3100004       6.62814174E-43
  -15.3050003      -3.37012281E-42
  -15.3000002      -9.83991782E-42
  -15.2950001      -1.73060360E-41
  -15.2900000      -2.20802599E-41
  -15.2849998      -1.81047762E-41
  -15.2799997       1.75862957E-42
  -15.2749996       4.23878772E-41
  -15.2700005       1.00914509E-40
  -15.2650003       1.60265104E-40
  -15.2600002       1.84726170E-40
  -15.2550001       1.22399217E-40
  -15.2500000      -7.99552878E-41
  -15.2449999      -4.46020690E-40
  -15.2399998      -9.25507189E-40
  -15.2349997      -1.34926125E-39
  -15.2299995      -1.41022474E-39
  -15.2250004      -7.06987305E-40
  -15.2200003       1.11450171E-39
  -15.2150002       4.10853563E-39
  -15.2100000       7.70652919E-39
  -15.2049999       1.04418918E-38
  -15.1999998       9.92594213E-39
  -15.1949997       3.32463105E-39
  -15.1899996      -1.14661331E-38
  -15.1850004      -3.39599722E-38
  -15.1800003      -5.89437029E-38
  -15.1750002      -7.49988671E-38
  -15.1700001      -6.50921017E-38
  -15.1650000      -1.07693683E-38
  -15.1599998       9.91169905E-38
  -15.1549997       2.55862392E-37
  -15.1499996       4.17942267E-37
  -15.1450005       5.04194407E-37
  -15.1400003       4.02101137E-37
  -15.1350002      -2.32175537E-40
  -15.1300001      -7.54993515E-37
  -15.1250000      -1.77639588E-36
  -15.1199999      -2.76777962E-36
  -15.1149998      -3.19621534E-36
  -15.1099997      -2.36704413E-36
  -15.1049995       3.57477538E-37
  -15.1000004       5.18875468E-36
  -15.0950003       1.14559530E-35
  -15.0900002       1.72230011E-35
  -15.0850000       1.92281976E-35
  -15.0799999       1.34327436E-35
  -15.0749998      -3.61256627E-36
  -15.0699997      -3.26135541E-35
  -15.0649996      -6.90323407E-35
  -15.0600004      -1.01189194E-34
  -15.0550003      -1.10346662E-34
  -15.0500002      -7.42462206E-35
  -15.0450001       2.49835540E-35
  -15.0400000       1.89027585E-34
  -15.0349998       3.90380618E-34
  -15.0299997       5.63375826E-34
  -15.0249996       6.06421969E-34
  -15.0200005       4.02602499E-34
  -15.0150003      -1.37588824E-34
  -15.0100002      -1.01514296E-33
  -15.0050001      -2.07798418E-33
  -15.0000000      -2.98003834E-33
  -14.9949999      -3.19924526E-33
  -14.9899998      -2.14775454E-33
  -14.9849997       6.11034453E-34
  -14.9799995       5.06189137E-33
  -14.9750004       1.04302348E-32
  -14.9700003       1.49995357E-32
  -14.9650002       1.62191213E-32
  -14.9600000       1.12509819E-32
  -14.9549999      -1.98965698E-33
  -14.9499998      -2.34245109E-32
  -14.9449997      -4.94003911E-32
  -14.9399996      -7.18833721E-32
  -14.9350004      -7.90005378E-32
  -14.9300003      -5.75716520E-32
  -14.9250002       2.16559139E-33
  -14.9200001       1.00234392E-31
  -14.9150000       2.20653831E-31
  -14.9099998       3.27895027E-31
  -14.9049997       3.69246544E-31
  -14.8999996       2.85787197E-31
  -14.8950005       3.27523671E-32
  -14.8900003      -3.93329179E-31
  -14.8850002      -9.27725720E-31
  -14.8800001      -1.42195386E-30
  -14.8750000      -1.65276781E-30
  -14.8699999      -1.36674324E-30
  -14.8649998      -3.63658338E-31
  -14.8599997       1.39186421E-30
  -14.8549995       3.65848787E-30
  -14.8500004       5.85044065E-30
  -14.8450003       7.06636260E-30
  -14.8400002       6.25896688E-30
  -14.8350000       2.55934103E-30
  -14.8299999      -4.28304062E-30
  -14.8249998      -1.34506977E-29
  -14.8199997      -2.27678894E-29
  -14.8149996      -2.87705737E-29
  -14.8100004      -2.73089945E-29
  -14.8050003      -1.47448083E-29
  -14.8000002       1.03890364E-29
  -14.7950001       4.56451746E-29
  -14.7900000       8.34496537E-29
  -14.7849998       1.11161162E-28
  -14.7799997       1.13055639E-28
  -14.7749996       7.45110397E-29
  -14.7700005      -1.20098140E-29
  -14.7650003      -1.40458191E-28
  -14.7600002      -2.86309805E-28
  -14.7550001      -4.05911210E-28
  -14.7500000      -4.42464301E-28
  -14.7449999      -3.39830965E-28
  -14.7399998      -6.30884997E-29
  -14.7349997       3.78220358E-28
  -14.7299995       9.11174309E-28
  -14.7250004       1.39381852E-27
  -14.7200003       1.63128173E-27
  -14.7150002       1.41852126E-27
  -14.7100000       6.07427664E-28
  -14.7049999      -8.13719461E-28
  -14.6999998      -2.65047500E-27
  -14.6949997      -4.47114883E-27
  -14.6899996      -5.64343580E-27
  -14.6850004      -5.45762401E-27
  -14.6800003      -3.33386524E-27
  -14.6750002       9.19279777E-28
  -14.6700001       6.86035120E-27
  -14.6650000       1.32745384E-26
  -14.6599998       1.82319545E-26
  -14.6549997       1.94137066E-26
  -14.6499996       1.47143205E-26
  -14.6450005       3.03951747E-27
  -14.6400003      -1.48829056E-26
  -14.6350002      -3.59443547E-26
  -14.6300001      -5.46434396E-26
  -14.6250000      -6.38586909E-26
  -14.6199999      -5.64838645E-26
  -14.6149998      -2.77511128E-26
  -14.6099997       2.22315424E-26
  -14.6049995       8.64684983E-26
  -14.6000004       1.50461782E-25
  -14.5950003       1.93763590E-25
  -14.5900002       1.94074056E-25
  -14.5850000       1.33591154E-25
  -14.5799999       6.47666590E-27
  -14.5749998      -1.74502614E-25
  -14.5699997      -3.74596369E-25
  -14.5649996      -5.39298891E-25
  -14.5600004      -6.03650564E-25
  -14.5550003      -5.08402759E-25
  -14.5500002      -2.20593785E-25
  -14.5450001       2.46221558E-25
  -14.5400000       8.18518131E-25
  -14.5349998       1.36280543E-24
  -14.5299997       1.70405532E-24
  -14.5249996       1.66362068E-24
  -14.5200005       1.11207516E-24
  -14.5150003       2.61963419E-26
  -14.5100002      -1.46576815E-24
  -14.5050001      -3.06844035E-24
  -14.5000000      -4.34835474E-24
  -14.4949999      -4.81447530E-24
  -14.4899998      -4.04374794E-24
  -14.4849997      -1.82952523E-24
  -14.4799995       1.68366839E-24
  -14.4750004       5.92356679E-24
  -14.4700003       9.91380196E-24
  -14.4650002       1.24237428E-23
  -14.4600000       1.22416279E-23
  -14.4549999       8.53085227E-24
  -14.4499998       1.19206684E-24
  -14.4449997      -8.87238723E-24
  -14.4399996      -1.96988792E-23
  -14.4350004      -2.84886608E-23
  -14.4300003      -3.21425257E-23
  -14.4250002      -2.80446710E-23
  -14.4200001      -1.49467890E-23
  -14.4150000       6.26952845E-24
  -14.4099998       3.22043850E-23
  -14.4049997       5.71444529E-23
  -14.3999996       7.39748066E-23
  -14.3950005       7.57436663E-23
  -14.3900003       5.76266110E-23
  -14.3850002       1.88531382E-23
  -14.3800001      -3.59508937E-23
  -14.3750000      -9.65373771E-23
  -14.3699999      -1.48291310E-22
  -14.3649998      -1.75017248E-22
  -14.3599997      -1.62895826E-22
  -14.3549995      -1.04831177E-22
  -14.3500004      -4.10243801E-24
  -14.3450003       1.23853459E-22
  -14.3400002       2.52482518E-22
  -14.3350000       3.48398412E-22
  -14.3299999       3.78549887E-22
  -14.3249998       3.19039306E-22
  -14.3199997       1.63616757E-22
  -14.3149996      -7.05026890E-23
  -14.3100004      -3.41678150E-22
  -14.3050003      -5.89110318E-22
  -14.3000002      -7.44348299E-22
  -14.2950001      -7.47377020E-22
  -14.2900000      -5.64030448E-22
  -14.2849998      -2.00420324E-22
  -14.2799997       2.90068699E-22
  -14.2749996       8.10626751E-22
  -14.2700005       1.23695450E-21
  -14.2650003       1.44357991E-21
  -14.2600002       1.33575603E-21
  -14.2550001       8.79697494E-22
  -14.2500000       1.22929949E-22
  -14.2449999      -8.02467279E-22
  -14.2399998      -1.69783082E-21
  -14.2349997      -2.33636841E-21
  -14.2299995      -2.51584479E-21
  -14.2250004      -2.11436210E-21
  -14.2200003      -1.13523764E-21
  -14.2150002       2.72641562E-22
  -14.2100000       1.82855686E-21
  -14.2049999       3.17005035E-21
  -14.1999998       3.93243319E-21
  -14.1949997       3.84182178E-21
  -14.1899996       2.79956390E-21
  -14.1850004       9.34485689E-22
  -14.1800003      -1.39598068E-21
  -14.1750002      -3.66429662E-21
  -14.1700001      -5.28498456E-21
  -14.1650000      -5.75925188E-21
  -14.1599998      -4.81879599E-21
  -14.1549997      -2.53038063E-21
  -14.1499996       6.72890072E-22
  -14.1450005       4.05350610E-21
  -14.1400003       6.72272544E-21
  -14.1350002       7.85818270E-21
  -14.1300001       6.93750160E-21
  -14.1250000       3.92731501E-21
  -14.1199999      -6.30600463E-22
  -14.1149998      -5.67613558E-21
  -14.1099997      -9.83855487E-21
  -14.1049995      -1.17636699E-20
  -14.1000004      -1.04916705E-20
  -14.0950003      -5.79181404E-21
  -14.0900002       1.64374783E-21
  -14.0850000       1.02232318E-20
  -14.0799999       1.77264418E-20
  -14.0749998       2.17937486E-20
  -14.0699997       2.05400029E-20
  -14.0649996       1.31517719E-20
  -14.0600004       3.07464079E-22
  -14.0550003      -1.57203769E-20
  -14.0500002      -3.13614737E-20
  -14.0450001      -4.24334413E-20
  -14.0400000      -4.51054156E-20
  -14.0349998      -3.69391073E-20
  -14.0299997      -1.77554561E-20
  -14.0249996       9.92028096E-21
  -14.0200005       4.10134759E-20
  -14.0150003       6.87101389E-20
  -14.0100002       8.58220048E-20
  -14.0050001       8.64540936E-20
  -14.0000000       6.76115267E-20
  -13.9949999       3.03470562E-20
  -13.9899998      -1.98916839E-20
  -13.9849997      -7.39062807E-20
  -13.9799995      -1.20358165E-19
  -13.9750004      -1.48084730E-19
  -13.9700003      -1.48657552E-19
  -13.9650002      -1.18607024E-19
  -13.9600000      -6.07519957E-20
  -13.9549999       1.57755637E-20
  -13.9499998       9.69505955E-20
  -13.9449997       1.66528725E-19
  -13.9399996       2.09462927E-19
  -13.9350004       2.15324742E-19
  -13.9300003       1.80921280E-19
  -13.9250002       1.11422754E-19
  -13.9200001       1.96159759E-20
  -13.9150000      -7.66723920E-20
  -13.9099998      -1.58484329E-19
  -13.9049997      -2.10098059E-19
  -13.8999996      -2.22794170E-19
  -13.8950005      -1.97024237E-19
  -13.8900003      -1.42309794E-19
  -13.8850002      -7.47346697E-20
  -13.8800001      -1.25153049E-20
  -13.8750000       2.93014547E-20
  -13.8699999       4.36141835E-20
  -13.8649998       3.40988308E-20
  -13.8599997       1.50379109E-20
  -13.8549995       7.77799546E-21
  -13.8500004       3.43310844E-20
  -13.8450003       1.09509459E-19
  -13.8400002       2.33616950E-19
  -13.8350000       3.87911182E-19
  -13.8299999       5.34689289E-19
  -13.8249998       6.22941861E-19
  -13.8199997       5.99212479E-19
  -13.8149996       4.21872245E-19
  -13.8100004       7.57967567E-20
  -13.8050003      -4.16228806E-19
  -13.8000002      -9.88920995E-19
  -13.7950001      -1.53924839E-18
  -13.7900000      -1.94124214E-18
  -13.7849998      -2.06932941E-18
  -13.7799997      -1.82638956E-18
  -13.7749996      -1.17102140E-18
  -13.7700005      -1.37787171E-19
  -13.7650003       1.15519350E-18
  -13.7600002       2.51497441E-18
  -13.7550001       3.69949415E-18
  -13.7500000       4.45734338E-18
  -13.7449999       4.57529024E-18
  -13.7399998       3.92486530E-18
  -13.7349997       2.49845830E-18
  -13.7299995       4.26520742E-19
  -13.7250004      -2.02955401E-18
  -13.7200003      -4.50985157E-18
  -13.7150002      -6.60968016E-18
  -13.7100000      -7.94605496E-18
  -13.7049999      -8.22525736E-18
  -13.6999998      -7.29885809E-18
  -13.6949997      -5.19725975E-18
  -13.6899996      -2.13377277E-18
  -13.6850004       1.52224435E-18
  -13.6800003       5.29860840E-18
  -13.6750002       8.69017919E-18
  -13.6700001       1.12325180E-17
  -13.6650000       1.25660779E-17
  -13.6599998       1.24801255E-17
  -13.6549997       1.09304804E-17
  -13.6499996       8.03120658E-18
  -13.6450005       4.02619658E-18
  -13.6400003      -7.49411211E-19
  -13.6350002      -5.90676606E-18
  -13.6300001      -1.10307231E-17
  -13.6250000      -1.56930059E-17
  -13.6199999      -1.94534169E-17
  -13.6149998      -2.18577994E-17
  -13.6099997      -2.24453954E-17
  -13.6049995      -2.07786116E-17
  -13.6000004      -1.65037603E-17
  -13.5950003      -9.44264554E-18
  -13.5900002       2.96101088E-19
  -13.5850000       1.22086482E-17
  -13.5799999       2.53210871E-17
  -13.5749998       3.81809134E-17
  -13.5699997       4.89418615E-17
  -13.5649996       5.55551440E-17
  -13.5600004       5.60594132E-17
  -13.5550003       4.89380333E-17
  -13.5500002       3.34899523E-17
  -13.5450001       1.01454356E-17
  -13.5400000      -1.93459993E-17
  -13.5349998      -5.19177298E-17
  -13.5299997      -8.34153877E-17
  -13.5249996      -1.09054440E-16
  -13.5200005      -1.24064929E-16
  -13.5150003      -1.24441766E-16
  -13.5100002      -1.07688454E-16
  -13.5050001      -7.34288428E-17
  -13.5000000      -2.37685584E-17
  -13.4949999       3.66819265E-17
  -13.4899998       1.01163481E-16
  -13.4849997       1.61485230E-16
  -13.4799995       2.09024147E-16
  -13.4750004       2.35878744E-16
  -13.4700003       2.36017075E-16
  -13.4650002       2.06252999E-16
  -13.4600000       1.46904987E-16
  -13.4549999       6.20345689E-17
  -13.4499998      -4.07783234E-17
  -13.4449997      -1.51102777E-16
  -13.4399996      -2.56688676E-16
  -13.4350004      -3.44740980E-16
  -13.4300003      -4.03293588E-16
  -13.4250002      -4.22539527E-16
  -13.4200001      -3.95991979E-16
  -13.4150000      -3.21380553E-16
  -13.4099998      -2.01217812E-16
  -13.4049997      -4.29961038E-17
  -13.3999996       1.41006607E-16
  -13.3950005       3.34328484E-16
  -13.3900003       5.17345119E-16
  -13.3850002       6.68714142E-16
  -13.3800001       7.67227091E-16
  -13.3750000       7.94006832E-16
  -13.3699999       7.34924431E-16
  -13.3649998       5.83031095E-16
  -13.3599997       3.40713683E-16
  -13.3549995       2.12225941E-17
  -13.3500004      -3.50801183E-16
  -13.3450003      -7.40131354E-16
  -13.3400002      -1.10331039E-15
  -13.3350000      -1.39258241E-15
  -13.3299999      -1.56118951E-15
  -13.3249998      -1.56955459E-15
  -13.3199997      -1.39163363E-15
  -13.3149996      -1.02055368E-15
  -13.3100004      -4.72595363E-16
  -13.3050003       2.11326713E-16
  -13.3000002       9.67287062E-16
  -13.2950001       1.71330731E-15
  -13.2900000       2.35741043E-15
  -13.2849998       2.80805483E-15
  -13.2799997       2.98580215E-15
  -13.2749996       2.83477067E-15
  -13.2700005       2.33231962E-15
  -13.2650003       1.49551322E-15
  -13.2600002       3.83235451E-16
  -13.2550001      -9.06664384E-16
  -13.2500000      -2.24521499E-15
  -13.2449999      -3.48453451E-15
  -13.2399998      -4.47321064E-15
  -13.2349997      -5.07321871E-15
  -13.2299995      -5.17653767E-15
  -13.2250004      -4.71959050E-15
  -13.2200003      -3.69384843E-15
  -13.2150002      -2.15133345E-15
  -13.2100000      -2.04227743E-16
  -13.2049999       1.98164374E-15
  -13.1999998       4.19912814E-15
  -13.1949997       6.21703760E-15
  -13.1899996       7.80118361E-15
  -13.1850004       8.73756159E-15
  -13.1800003       8.85581755E-15
  -13.1750002       8.05096685E-15
  -13.1700001       6.30123649E-15
  -13.1650000       3.67993125E-15
  -13.1599998       3.59433720E-16
  -13.1549997      -3.39420883E-15
  -13.1499996      -7.23695802E-15
  -13.1450005      -1.07727446E-14
  -13.1400003      -1.35885964E-14
  -13.1350002      -1.52966002E-14
  -13.1300001      -1.55791263E-14
  -13.1250000      -1.42326929E-14
  -13.1199999      -1.12052286E-14
  -13.1149998      -6.62136709E-15
  -13.1099997      -7.91030411E-16
  -13.1049995       5.80205499E-15
  -13.1000004       1.25332924E-14
  -13.0950003       1.86904206E-14
  -13.0900002       2.35431774E-14
  -13.0850000       2.64230403E-14
  -13.0799999       2.68046710E-14
  -13.0749998       2.43796445E-14
  -13.0699997       1.91129156E-14
  -13.0649996       1.12739170E-14
  -13.0600004       1.43628857E-15
  -13.0550003      -9.55633498E-15
  -13.0500002      -2.06572871E-14
  -13.0450001      -3.07115986E-14
  -13.0400000      -3.85699028E-14
  -13.0349998      -4.32105049E-14
  -13.0299997      -4.38568283E-14
  -13.0249996      -4.00778145E-14
  -13.0200005      -3.18595248E-14
  -13.0150003      -1.96391297E-14
  -13.0100002      -4.29567338E-15
  -13.0050001       1.29038761E-14
  -13.0000000       3.04006935E-14
  -12.9949999       4.64753934E-14
  -12.9899998       5.94043383E-14
  -12.9849997       6.76277407E-14
  -12.9799995       6.99148923E-14
  -12.9750004       6.55107817E-14
  -12.9700003       5.42492687E-14
  -12.9650002       3.66196196E-14
  -12.9600000       1.37762506E-14
  -12.9549999      -1.25142994E-14
  -12.9499998      -3.99899840E-14
  -12.9449997      -6.60685563E-14
  -12.9399996      -8.80704336E-14
  -12.9350004      -1.03472237E-13
  -12.9300003      -1.10169367E-13
  -12.9250002      -1.06722140E-13
  -12.9200001      -9.25594779E-14
  -12.9150000      -6.81147508E-14
  -12.9099998      -3.48735865E-14
  -12.9049997       4.68026022E-15
  -12.8999996       4.72249498E-14
  -12.8950005       8.88597735E-14
  -12.8900003       1.25445444E-13
  -12.8850002       1.52997176E-13
  -12.8800001       1.68093973E-13
  -12.8750000       1.68263136E-13
  -12.8699999       1.52297906E-13
  -12.8649998       1.20471382E-13
  -12.8599997       7.46170093E-14
  -12.8549995       1.80595844E-14
  -12.8500004      -4.46061204E-14
  -12.8450003      -1.07875101E-13
  -12.8400002      -1.65802566E-13
  -12.8350000      -2.12544527E-13
  -12.8299999      -2.42919020E-13
  -12.8249998      -2.52935747E-13
  -12.8199997      -2.40241719E-13
  -12.8149996      -2.04437541E-13
  -12.8100004      -1.47229912E-13
  -12.8050003      -7.23984810E-14
  -12.8000002       1.44270497E-14
  -12.7950001       1.06168485E-13
  -12.7900000       1.94851364E-13
  -12.7849998       2.72266449E-13
  -12.7799997       3.30687951E-13
  -12.7749996       3.63588933E-13
  -12.7700005       3.66293205E-13
  -12.7650003       3.36502175E-13
  -12.7600002       2.74646083E-13
  -12.7550001       1.84018409E-13
  -12.7500000       7.06681146E-14
  -12.7449999      -5.69561352E-14
  -12.7399998      -1.88594285E-13
  -12.7349997      -3.12960487E-13
  -12.7299995      -4.18670442E-13
  -12.7250004      -4.95235851E-13
  -12.7200003      -5.34044488E-13
  -12.7150002      -5.29234805E-13
  -12.7100000      -4.78380573E-13
  -12.7049999      -3.82911720E-13
  -12.6999998      -2.48216324E-13
  -12.6949997      -8.33963026E-14
  -12.6899996       9.93210979E-14
  -12.6850004       2.85480542E-13
  -12.6800003       4.59538115E-13
  -12.6750002       6.06151305E-13
  -12.6700001       7.11509736E-13
  -12.6650000       7.64586961E-13
  -12.6599998       7.58200035E-13
  -12.6549997       6.89775927E-13
  -12.6499996       5.61744986E-13
  -12.6450005       3.81523589E-13
  -12.6400003       1.61071717E-13
  -12.6350002      -8.39410735E-14
  -12.6300001      -3.35298548E-13
  -12.6250000      -5.73637166E-13
  -12.6199999      -7.79968863E-13
  -12.6149998      -9.37202789E-13
  -12.6099997      -1.03154377E-12
  -12.6049995      -1.05365651E-12
  -12.6000004      -9.99496167E-13
  -12.5950003      -8.70743798E-13
  -12.5900002      -6.74800819E-13
  -12.5850000      -4.24342554E-13
  -12.5799999      -1.36455110E-13
  -12.5749998       1.68587732E-13
  -12.5699997       4.68820675E-13
  -12.5649996       7.42250662E-13
  -12.5600004       9.68565614E-13
  -12.5550003       1.13075630E-12
  -12.5500002       1.21652363E-12
  -12.5450001       1.21934808E-12
  -12.5400000       1.13912514E-12
  -12.5349998       9.82290638E-13
  -12.5299997       7.61406617E-13
  -12.5249996       4.94213719E-13
  -12.5200005       2.02207812E-13
  -12.5150003      -9.11600236E-14
  -12.5100002      -3.62515817E-13
  -12.5050001      -5.90656051E-13
  -12.5000000      -7.58509304E-13
  -12.4949999      -8.54774855E-13
  -12.4899998      -8.75060170E-13
  -12.4849997      -8.22374612E-13
  -12.4799995      -7.06880680E-13
  -12.4750004      -5.44867591E-13
  -12.4700003      -3.56975354E-13
  -12.4650002      -1.65760621E-13
  -12.4600000       7.24006917E-15
  -12.4549999       1.44752306E-13
  -12.4499998       2.37072596E-13
  -12.4449997       2.85195533E-13
  -12.4399996       3.03509090E-13
  -12.4350004       3.21829694E-13
  -12.4300003       3.86581880E-13
  -12.4250002       5.60978293E-13
  -12.4200001       9.24109205E-13
  -12.4150000       1.56891568E-12
  -12.4099998       2.59908393E-12
  -12.4049997       4.12496773E-12
  -12.3999996       6.25869278E-12
  -12.3950005       9.10867128E-12
  -12.3900003       1.27737803E-11
  -12.3850002       1.73375082E-11
  -12.3800001       2.28623405E-11
  -12.3750000       2.93847759E-11
  -12.3699999       3.69111408E-11
  -12.3649998       4.54145402E-11
  -12.3599997       5.48331242E-11
  -12.3549995       6.50696719E-11
  -12.3500004       7.59926636E-11
  -12.3450003       8.74386535E-11
  -12.3400002       9.92155733E-11
  -12.3350000       1.11107339E-10
  -12.3299999       1.22878555E-10
  -12.3249998       1.34279629E-10
  -12.3199997       1.45051887E-10
  -12.3149996       1.54931637E-10
  -12.3100004       1.63654146E-10
  -12.3050003       1.70956027E-10
  -12.3000002       1.76576892E-10
  -12.2950001       1.80259974E-10
  -12.2900000       1.81751614E-10
  -12.2849998       1.80800222E-10
  -12.2799997       1.77154763E-10
  -12.2749996       1.70563300E-10
  -12.2700005       1.60771882E-10
  -12.2650003       1.47524104E-10
  -12.2600002       1.30561575E-10
  -12.2550001       1.09626107E-10
  -12.2500000       8.44630130E-11
  -12.2449999       5.48261367E-11
  -12.2399998       2.04845828E-11
  -12.2349997      -1.87693316E-11
  -12.2299995      -6.31107874E-11
  -12.2250004      -1.12672309E-10
  -12.2200003      -1.67533237E-10
  -12.2150002      -2.27709032E-10
  -12.2100000      -2.93141261E-10
  -12.2049999      -3.63688607E-10
  -12.1999998      -4.39118963E-10
  -12.1949997      -5.19104204E-10
  -12.1899996      -6.03216366E-10
  -12.1850004      -6.90926927E-10
  -12.1800003      -7.81608056E-10
  -12.1750002      -8.74536055E-10
  -12.1700001      -9.68898850E-10
  -12.1650000      -1.06380227E-09
  -12.1599998      -1.15827925E-09
  -12.1549997      -1.25130151E-09
  -12.1499996      -1.34178768E-09
  -12.1450005      -1.42861523E-09
  -12.1400003      -1.51062829E-09
  -12.1350002      -1.58664581E-09
  -12.1300001      -1.65547021E-09
  -12.1250000      -1.71588999E-09
  -12.1199999      -1.76668791E-09
  -12.1149998      -1.80664084E-09
  -12.1099997      -1.83452475E-09
  -12.1049995      -1.84911619E-09
  -12.1000004      -1.84919569E-09
  -12.0950003      -1.83355142E-09
  -12.0900002      -1.80098447E-09
  -12.0850000      -1.75031467E-09
  -12.0799999      -1.68039083E-09
  -12.0749998      -1.59010038E-09
  -12.0699997      -1.47838242E-09
  -12.0649996      -1.34424427E-09
  -12.0600004      -1.18677734E-09
  -12.0550003      -1.00517838E-09
  -12.0500002      -7.98767663E-10
  -12.0450001      -5.67012104E-10
  -12.0400000      -3.09545944E-10
  -12.0349998      -2.61926852E-11
  -12.0299997       2.83016333E-10
  -12.0249996       6.17822571E-10
  -12.0200005       9.77724568E-10
  -12.0150003       1.36196565E-09
  -12.0100002       1.76952430E-09
  -12.0050001       2.19910801E-09
  -12.0000000       2.64915134E-09
  -11.9949999       3.11781667E-09
  -11.9899998       3.60299879E-09
  -11.9849997       4.10233403E-09
  -11.9799995       4.61320582E-09
  -11.9750004       5.13276133E-09
  -11.9700003       5.65791858E-09
  -11.9650002       6.18538243E-09
  -11.9600000       6.71166056E-09
  -11.9549999       7.23306970E-09
  -11.9499998       7.74575692E-09
  -11.9449997       8.24570190E-09
  -11.9399996       8.72873951E-09
  -11.9350004       9.19056475E-09
  -11.9300003       9.62674829E-09
  -11.9250002       1.00327497E-08
  -11.9200001       1.04039311E-08
  -11.9150000       1.07355680E-08
  -11.9099998       1.10228795E-08
  -11.9049997       1.12610357E-08
  -11.8999996       1.14451897E-08
  -11.8950005       1.15704992E-08
  -11.8900003       1.16321619E-08
  -11.8850002       1.16254419E-08
  -11.8800001       1.15457093E-08
  -11.8750000       1.13884813E-08
  -11.8699999       1.11494636E-08
  -11.8649998       1.08245866E-08
  -11.8599997       1.04100613E-08
  -11.8549995       9.90241933E-09
  -11.8500004       9.29855482E-09
  -11.8450003       8.59577565E-09
  -11.8400002       7.79183562E-09
  -11.8350000       6.88497792E-09
  -11.8299999       5.87397953E-09
  -11.8249998       4.75817119E-09
  -11.8199997       3.53747143E-09
  -11.8149996       2.21241514E-09
  -11.8100004       7.84175447E-10
  -11.8050003      -7.45419060E-10
  -11.8000002      -2.37386510E-09
  -11.7950001      -4.09797440E-09
  -11.7900000      -5.91385607E-09
  -11.7849998      -7.81691245E-09
  -11.7799997      -9.80182779E-09
  -11.7749996      -1.18625625E-08
  -11.7700005      -1.39923451E-08
  -11.7650003      -1.61836802E-08
  -11.7600002      -1.84283362E-08
  -11.7550001      -2.07173585E-08
  -11.7500000      -2.30410624E-08
  -11.7449999      -2.53890562E-08
  -11.7399998      -2.77502537E-08
  -11.7349997      -3.01128829E-08
  -11.7299995      -3.24645058E-08
  -11.7250004      -3.47920910E-08
  -11.7200003      -3.70819748E-08