  -16.0000000       0.00000000    
  -15.9949999       0.00000000    
  -15.9899998       0.00000000    
  -15.9849997       0.00000000    
  -15.9799995       0.00000000    
  -15.9750004       0.00000000    
  -15.9700003       0.00000000    
  -15.9650002       0.00000000    
  -15.9600000       0.00000000    
  -15.9549999       0.00000000    
  -15.9499998       0.00000000    
  -15.9449997       0.00000000    
  -15.9399996       0.00000000    
  -15.9350004       0.00000000    
  -15.9300003       0.00000000    
  -15.9250002       0.00000000    
  -15.9200001       0.00000000    
  -15.9150000       0.00000000    
  -15.9099998       0.00000000    
  -15.9049997       0.00000000    
  -15.8999996       0.00000000    
  -15.8950005       0.00000000    
  -15.8900003       0.00000000    
  -15.8850002       0.00000000    
  -15.8800001       0.00000000    
  -15.8750000       0.00000000    
  -15.8699999       0.00000000    
  -15.8649998       0.00000000    
  -15.8599997       0.00000000    
  -15.8549995       0.00000000    
  -15.8500004       0.00000000    
  -15.8450003       0.00000000    
  -15.8400002       0.00000000    
  -15.8350000       0.00000000    
  -15.8299999       0.00000000    
  -15.8249998       0.00000000    
  -15.8199997       0.00000000    
  -15.8149996       0.00000000    
  -15.8100004       0.00000000    
  -15.8050003       0.00000000    
  -15.8000002       0.00000000    
  -15.7950001       0.00000000    
  -15.7900000       0.00000000    
  -15.7849998       0.00000000    
  -15.7799997       0.00000000    
  -15.7749996       0.00000000    
  -15.7700005       0.00000000    
  -15.7650003       0.00000000    
  -15.7600002       0.00000000    
  -15.7550001       0.00000000    
  -15.7500000       0.00000000    
  -15.7449999       0.00000000    
  -15.7399998       0.00000000    
  -15.7349997       0.00000000    
  -15.7299995       0.00000000    
  -15.7250004       0.00000000    
  -15.7200003       0.00000000    
  -15.7150002       0.00000000    
  -15.7100000       0.00000000    
  -15.7049999       0.00000000    
  -15.6999998       0.00000000    
  -15.6949997       0.00000000    
  -15.6899996       0.00000000    
  -15.6850004       0.00000000    
  -15.6800003       0.00000000    
  -15.6750002       0.00000000    
  -15.6700001       0.00000000    
  -15.6650000       0.00000000    
  -15.6599998       0.00000000    
  -15.6549997       0.00000000    
  -15.6499996       0.00000000    
  -15.6450005       0.00000000    
  -15.6400003       0.00000000    
  -15.6350002       0.00000000    
  -15.6300001       0.00000000    
  -15.6250000       0.00000000    
  -15.6199999       0.00000000    
  -15.6149998       0.00000000    
  -15.6099997       0.00000000    
  -15.6049995       0.00000000    
  -15.6000004       0.00000000    
  -15.5950003       0.00000000    
  -15.5900002       0.00000000    
  -15.5850000       0.00000000    
  -15.5799999       0.00000000    
  -15.5749998       0.00000000    
  -15.5699997       0.00000000    
  -15.5649996       0.00000000    
  -15.5600004       0.00000000    
  -15.5550003       0.00000000    
  -15.5500002       0.00000000    
  -15.5450001       0.00000000    
  -15.5400000       0.00000000    
  -15.5349998       0.00000000    
  -15.5299997       0.00000000    
  -15.5249996       0.00000000    
  -15.5200005       0.00000000    
  -15.5150003       0.00000000    
  -15.5100002       0.00000000    
  -15.5050001       0.00000000    
  -15.5000000       0.00000000    
  -15.4949999       0.00000000    
  -15.4899998       0.00000000    
  -15.4849997       0.00000000    
  -15.4799995       0.00000000    
  -15.4750004       0.00000000    
  -15.4700003       0.00000000    
  -15.4650002       0.00000000    
  -15.4600000      -0.00000000    
  -15.4549999      -0.00000000    
  -15.4499998      -0.00000000    
  -15.4449997       0.00000000    
  -15.4399996       0.00000000    
  -15.4350004       0.00000000    
  -15.4300003       0.00000000    
  -15.4250002      -0.00000000    
  -15.4200001      -0.00000000    
  -15.4150000      -0.00000000    
  -15.4099998      -1.40129846E-45
  -15.4049997      -1.40129846E-45
  -15.3999996       1.40129846E-45
  -15.3950005       2.80259693E-45
  -15.3900003       7.00649232E-45
  -15.3850002       9.80908925E-45
  -15.3800001       8.40779079E-45
  -15.3750000       1.40129846E-45
  -15.3699999      -1.82168800E-44
  -15.3649998      -4.76441478E-44
  -15.3599997      -8.40779079E-44
  -15.3549995      -1.03696086E-43
  -15.3500004      -7.56701171E-44
  -15.3450003       4.06376555E-44
  -15.3400002       2.67648007E-43
  -15.3350000       5.81538863E-43
  -15.3299999       8.74410242E-43
  -15.3249998       9.20653091E-43
  -15.3199997       4.13383047E-43
  -15.3149996      -9.50080359E-43
  -15.3100004      -3.24120335E-42
  -15.3050003      -6.01297171E-42
  -15.3000002      -8.00842072E-42
  -15.2950001      -7.10878711E-42
  -15.2900000      -7.28675201E-43
  -15.2849998       1.30264705E-41
  -15.2799997       3.34686125E-41
  -15.2749996       5.50303920E-41
  -15.2700005       6.56536357E-41
  -15.2650003       4.74829985E-41
  -15.2600002      -1.82070709E-41
  -15.2550001      -1.40599281E-40
  -15.2500000      -3.04291962E-40
  -15.2449999      -4.54013696E-40
  -15.2399998      -4.87915310E-40
  -15.2349997      -2.71683746E-40
  -15.2299995       3.14856351E-40
  -15.2250004       1.29479418E-39
  -15.2200003       2.48832772E-39
  -15.2150002       3.42324183E-39
  -15.2100000       3.32761862E-39
  -15.2049999       1.28444979E-39
  -15.1999998      -3.39068126E-39
  -15.1949997      -1.05572453E-38
  -15.1899996      -1.85774453E-38
  -15.1850004      -2.38621062E-38
  -15.1800003      -2.10756648E-38
  -15.1750002      -4.46723020E-39
  -15.1700001       2.94091602E-38
  -15.1650000       7.78420849E-38
  -15.1599998       1.28058142E-37
  -15.1549997       1.55286661E-37
  -15.1499996       1.25475045E-37
  -15.1450005       5.13266200E-39
  -15.1400003      -2.20878314E-37
  -15.1350002      -5.26231697E-37
  -15.1300001      -8.22209206E-37
  -15.1250000      -9.51412153E-37
  -15.1199999      -7.11128568E-37
  -15.1149998       8.16584091E-38
  -15.1099997       1.48308174E-36
  -15.1049995       3.29314341E-36
  -15.1000004       4.95119455E-36
  -15.0950003       5.52693244E-36
  -15.0900002       3.88516954E-36
  -15.0850000      -9.22582175E-37
  -15.0799999      -9.05672695E-36
  -15.0749998      -1.92096339E-35
  -15.0699997      -2.81141515E-35
  -15.0649996      -3.06156270E-35
  -15.0600004      -2.06906033E-35
  -15.0550003       6.37233306E-36
  -15.0500002       5.08043665E-35
  -15.0450001       1.04964092E-34
  -15.0400000       1.51134939E-34
  -15.0349998       1.62380482E-34
  -15.0299997       1.08236030E-34
  -15.0249996      -3.39562866E-35
  -15.0200005      -2.63272233E-34
  -15.0150003      -5.39041348E-34
  -15.0100002      -7.71303282E-34
  -15.0050001      -8.26698545E-34
  -15.0000000      -5.57680050E-34
  -14.9949999       1.42135772E-34
  -14.9899998       1.26334400E-33
  -14.9849997       2.60675846E-33
  -14.9799995       3.74279899E-33
  -14.9750004       4.04387836E-33
  -14.9700003       2.82348417E-33
  -14.9650002      -4.08680769E-34
  -14.9600000      -5.60999940E-33
  -14.9549999      -1.18780523E-32
  -14.9499998      -1.72784857E-32
  -14.9449997      -1.89980870E-32
  -14.9399996      -1.39626997E-32
  -14.9350004       4.89663881E-35
  -14.9300003       2.29525337E-32
  -14.9250002       5.09600840E-32
  -14.9200001       7.58473800E-32
  -14.9150000       8.55902945E-32
  -14.9099998       6.69346584E-32
  -14.9049997       1.00106671E-32
  -14.8999996      -8.56628754E-32
  -14.8950005      -2.05385476E-31
  -14.8900003      -3.16141447E-31
  -14.8850002      -3.68925540E-31
  -14.8800001      -3.08759884E-31
  -14.8750000      -9.28502005E-32
  -14.8699999       2.85633443E-31
  -14.8649998       7.74298082E-31
  -14.8599997       1.24817394E-30
  -14.8549995       1.51699417E-30
  -14.8500004       1.36173770E-30
  -14.8450003       6.02470665E-31
  -14.8400002      -8.11422686E-31
  -14.8350000      -2.71094482E-30
  -14.8299999      -4.65144883E-30
  -14.8249998      -5.93048072E-30
  -14.8199997      -5.71210659E-30
  -14.8149996      -3.26732548E-30
  -14.8100004       1.69839336E-30
  -14.8050003       8.70701041E-30
  -14.8000002       1.62792178E-29
  -14.7950001       2.19558978E-29
  -14.7900000       2.26896696E-29
  -14.7849998       1.56508590E-29
  -14.7799997      -6.37267461E-31
  -14.7749996      -2.50816776E-29
  -14.7700005      -5.31206868E-29
  -14.7650003      -7.66238691E-29
  -14.7600002      -8.50178001E-29
  -14.7550001      -6.78319869E-29
  -14.7500000      -1.84450494E-29
  -14.7449999       6.17207223E-29
  -14.7399998       1.59823176E-28
  -14.7349997       2.50616304E-28
  -14.7299995       2.99325239E-28
  -14.7250004       2.69178128E-28
  -14.7200003       1.33133001E-28
  -14.7150002      -1.12326903E-28
  -14.7100000      -4.35139267E-28
  -14.7049999      -7.62273490E-28
  -14.6999998      -9.85844924E-28
  -14.6949997      -9.83782253E-28
  -14.6899996      -6.54491951E-28
  -14.6850004       4.00330900E-29
  -14.6800003       1.03347057E-27
  -14.6750002       2.13146788E-27
  -14.6700001       3.02022755E-27
  -14.6650000       3.31828986E-27
  -14.6599998       2.67268020E-27
  -14.6549997       8.86358412E-28
  -14.6499996      -1.95185161E-27
  -14.6450005      -5.37632858E-27
  -14.6400003      -8.53839316E-27
  -14.6350002      -1.03212943E-26
  -14.6300001      -9.58825532E-27
  -14.6250000      -5.53708364E-27
  -14.6199999       1.91002619E-27
  -14.6149998       1.17923065E-26
  -14.6099997       2.20015910E-26
  -14.6049995       2.94931827E-26
  -14.6000004       3.08732086E-26
  -14.5950003       2.33213815E-26
  -14.5900002       5.68713284E-27
  -14.5850000      -2.05185618E-26
  -14.5799999      -5.05833143E-26
  -14.5749998      -7.68404571E-26
  -14.5699997      -8.99159314E-26
  -14.5649996      -8.09547920E-26
  -14.5600004      -4.44983063E-26
  -14.5550003       1.86356186E-26
  -14.5500002       9.93443846E-26
  -14.5450001       1.80021781E-25
  -14.5400000       2.36819692E-25
  -14.5349998       2.44565616E-25
  -14.5299997       1.83771779E-25
  -14.5249996       4.83492756E-26
  -14.5200005      -1.48034174E-25
  -14.5150003      -3.69294312E-25
  -14.5100002      -5.59978731E-25
  -14.5050001      -6.54996682E-25
  -14.5000000      -5.95339224E-25
  -14.4949999      -3.47118273E-25
  -14.4899998       8.05774884E-26
  -14.4849997       6.24574114E-25
  -14.4799995       1.16857841E-24
  -14.4750004       1.55968431E-24
  -14.4700003       1.64043389E-24
  -14.4650002       1.29196198E-24
  -14.4600000       4.79231324E-25
  -14.4549999      -7.13913696E-25
  -14.4499998      -2.07282294E-24
  -14.4449997      -3.27337083E-24
  -14.4399996      -3.94013303E-24
  -14.4350004      -3.73557311E-24
  -14.4300003      -2.46404116E-24
  -14.4250002      -1.65654294E-25
  -14.4200001       2.82886822E-24
  -14.4150000       5.90833389E-24
  -14.4099998       8.27095258E-24
  -14.4049997       9.09054356E-24
  -14.3999996       7.73359157E-24
  -14.3950005       3.98092897E-24
  -14.3900003      -1.80531173E-24
  -14.3850002      -8.62904494E-24
  -14.3800001      -1.49650669E-23
  -14.3750000      -1.90323690E-23
  -14.3699999      -1.92036780E-23
  -14.3649998      -1.44740846E-23
  -14.3599997      -4.87704538E-24
  -14.3549995       8.27637284E-24
  -14.3500004       2.24404879E-23
  -14.3450003       3.42145383E-23
  -14.3400002       4.00347383E-23
  -14.3350000       3.70659928E-23
  -14.3299999       2.41016649E-23
  -14.3249998       2.23524625E-24
  -14.3199997      -2.49230726E-23
  -14.3149996      -5.16398225E-23
  -14.3100004      -7.10876956E-23
  -14.3050003      -7.68743248E-23
  -14.3000002      -6.47728388E-23
  -14.2950001      -3.42429467E-23
  -14.2900000       1.06972718E-23
  -14.2849998       6.16049312E-23
  -14.2799997       1.06914066E-22
  -14.2749996       1.34292449E-22
  -14.2700005       1.33642100E-22
  -14.2650003       1.00084967E-22
  -14.2600002       3.61556946E-23
  -14.2550001      -4.75143797E-23
  -14.2500000      -1.33473309E-22
  -14.2449999      -2.00705513E-22
  -14.2399998      -2.29376164E-22
  -14.2349997      -2.06092146E-22
  -14.2299995      -1.28403975E-22
  -14.2250004      -7.24735743E-24
  -14.2200003       1.33661487E-22
  -14.2150002       2.61833411E-22
  -14.2100000       3.42944190E-22
  -14.2049999       3.49383819E-22
  -14.1999998       2.68452799E-22
  -14.1949997       1.08008487E-22
  -14.1899996      -1.02332349E-22
  -14.1850004      -3.15473781E-22
  -14.1800003      -4.76374345E-22
  -14.1750002      -5.35188482E-22
  -14.1700001      -4.61154858E-22
  -14.1650000      -2.53707411E-22
  -14.1599998       5.25567408E-23
  -14.1549997       3.91352582E-22
  -14.1499996       6.77079088E-22
  -14.1450005       8.24287651E-22
  -14.1400003       7.70289832E-22
  -14.1350002       4.95490678E-22
  -14.1300001       3.57549280E-23
  -14.1250000      -5.17723429E-22
  -14.1199999      -1.03305145E-21
  -14.1149998      -1.36531734E-21
  -14.1099997      -1.39226321E-21
  -14.1049995      -1.05000996E-21
  -14.1000004      -3.59622022E-22
  -14.0950003       5.63792502E-22
  -14.0900002       1.52458808E-21
  -14.0850000       2.28285491E-21
  -14.0799999       2.60784844E-21
  -14.0749998       2.33774368E-21
  -14.0699997       1.43163244E-21
  -14.0649996      -4.73420377E-25
  -14.0600004      -1.70050138E-21
  -14.0550003      -3.30226293E-21
  -14.0500002      -4.40407195E-21
  -14.0450001      -4.66089941E-21
  -14.0400000      -3.87619137E-21
  -14.0349998      -2.07081476E-21
  -14.0299997       4.90872775E-22
  -14.0249996       3.33001367E-21
  -14.0200005       5.83756262E-21
  -14.0150003       7.40072355E-21
  -14.0100002       7.54630410E-21
  -14.0050001       6.06850474E-21
  -14.0000000       3.10841287E-21
  -13.9949999      -8.39681470E-22
  -13.9899998      -5.00516164E-21
  -13.9849997      -8.49204135E-21
  -13.9799995      -1.04757230E-20
  -13.9750004      -1.04028148E-20
  -13.9700003      -8.14577256E-21
  -13.9650002      -4.06980859E-21
  -13.9600000       1.01341065E-21
  -13.9549999       6.00552996E-21
  -13.9499998       9.76666043E-21
  -13.9449997       1.13933038E-20
  -13.9399996       1.04623872E-20
  -13.9350004       7.17567549E-21
  -13.9300003       2.35670643E-21
  -13.9250002      -2.71540232E-21
  -13.9200001      -6.61079878E-21
  -13.9150000      -8.12895510E-21
  -13.9099998      -6.66277383E-21
  -13.9049997      -2.44765853E-21
  -13.8999996       3.38711639E-21
  -13.8950005       9.00726824E-21
  -13.8900003       1.22885798E-20
  -13.8850002       1.13829148E-20
  -13.8800001       5.30907257E-21
  -13.8750000      -5.58400914E-21
  -13.8699999      -1.94257276E-20
  -13.8649998      -3.30017502E-20
  -13.8599997      -4.23213939E-20
  -13.8549995      -4.34995349E-20
  -13.8500004      -3.37867737E-20
  -13.8450003      -1.25178785E-20
  -13.8400002       1.82700270E-20
  -13.8350000       5.37579769E-20
  -13.8299999       8.69170885E-20
  -13.8249998       1.09707220E-19
  -13.8199997       1.14726513E-19
  -13.8149996       9.70025657E-20
  -13.8100004       5.55376107E-20
  -13.8050003      -5.78045808E-21
  -13.8000002      -7.82003756E-20
  -13.7950001      -1.49192635E-19
  -13.7900000      -2.04505931E-19
  -13.7849998      -2.30874381E-19
  -13.7799997      -2.18873205E-19
  -13.7749996      -1.65324763E-19
  -13.7700005      -7.46902669E-20
  -13.7650003       4.09597900E-20
  -13.7600002       1.63535895E-19
  -13.7550001       2.71893647E-19
  -13.7500000       3.45671308E-19
  -13.7449999       3.69266841E-19
  -13.7399998       3.35129666E-19
  -13.7349997       2.45630559E-19
  -13.7299995       1.13030185E-19
  -13.7250004      -4.25468168E-20
  -13.7200003      -1.96787754E-19
  -13.7150002      -3.25787281E-19
  -13.7100000      -4.10586193E-19
  -13.7049999      -4.40642576E-19
  -13.6999998      -4.15427862E-19
  -13.6949997      -3.43751732E-19
  -13.6899996      -2.40952930E-19
  -13.6850004      -1.24632182E-19
  -13.6800003      -1.00144301E-20
  -13.6750002       9.38068568E-20
  -13.6700001       1.85636313E-19
  -13.6650000       2.71294639E-19
  -13.6599998       3.60102249E-19
  -13.6549997       4.59494384E-19
  -13.6499996       5.69177655E-19
  -13.6450005       6.76591090E-19
  -13.6400003       7.55378595E-19
  -13.6350002       7.68050330E-19
  -13.6300001       6.73092788E-19
  -13.6250000       4.35643717E-19
  -13.6199999       3.97327774E-20
  -13.6149998      -5.00721066E-19
  -13.6099997      -1.13522040E-18
  -13.6049995      -1.77692458E-18
  -13.6000004      -2.31129318E-18
  -13.5950003      -2.61293886E-18
  -13.5900002      -2.56859660E-18
  -13.5850000      -2.10239016E-18
  -13.5799999      -1.19846166E-18
  -13.5749998       8.41803356E-20
  -13.5699997       1.60885533E-18
  -13.5649996       3.17279103E-18
  -13.5600004       4.53280748E-18
  -13.5550003       5.44195963E-18
  -13.5500002       5.69143523E-18
  -13.5450001       5.15042354E-18
  -13.5400000       3.79640208E-18
  -13.5349998       1.72951203E-18
  -13.5299997      -8.32709436E-19
  -13.5249996      -3.58048147E-18
  -13.5200005      -6.15330683E-18
  -13.5150003      -8.19121061E-18
  -13.5100002      -9.38707720E-18
  -13.5050001      -9.53117041E-18
  -13.5000000      -8.54050582E-18
  -13.4949999      -6.46876911E-18
  -13.4899998      -3.49628359E-18
  -13.4849997       9.65144451E-20
  -13.4799995       3.96574374E-18
  -13.4750004       7.74321538E-18
  -13.4700003       1.10708679E-17
  -13.4650002       1.36257831E-17
  -13.4600000       1.51346590E-17
  -13.4549999       1.53802059E-17
  -13.4499998       1.42050486E-17
  -13.4449997       1.15195778E-17
  -13.4399996       7.31899084E-18
  -13.4350004       1.71118553E-18
  -13.4300003      -5.04798756E-18
  -13.4250002      -1.25210875E-17
  -13.4200001      -2.00701098E-17
  -13.4150000      -2.68666939E-17
  -13.4099998      -3.19436506E-17
  -13.4049997      -3.42935020E-17
  -13.3999996      -3.30101313E-17
  -13.3950005      -2.74583498E-17
  -13.3900003      -1.74456213E-17
  -13.3850002      -3.36331182E-18
  -13.3800001       1.37370902E-17
  -13.3750000       3.21613480E-17
  -13.3699999       4.97002835E-17
  -13.3649998       6.38663107E-17
  -13.3599997       7.22173012E-17
  -13.3549995       7.27263812E-17
  -13.3500004       6.41428008E-17
  -13.3450003       4.62831905E-17
  -13.3400002       2.01971797E-17
  -13.3350000      -1.18325291E-17
  -13.3299999      -4.64719829E-17
  -13.3249998      -7.96870597E-17
  -13.3199997      -1.07222923E-16
  -13.3149996      -1.25147662E-16
  -13.3100004      -1.30384112E-16
  -13.3050003      -1.21151784E-16
  -13.3000002      -9.72562568E-17
  -13.2950001      -6.01841526E-17
  -13.2900000      -1.29931041E-17
  -13.2849998       3.99840712E-17
  -13.2799997       9.35761766E-17
  -13.2749996       1.42290987E-16
  -13.2700005       1.80848152E-16
  -13.2650003       2.04671192E-16
  -13.2600002       2.10296801E-16
  -13.2550001       1.95681591E-16
  -13.2500000       1.60402973E-16
  -13.2449999       1.05764213E-16
  -13.2399998       3.48155092E-17
  -13.2349997      -4.77042107E-17
  -13.2299995      -1.35513109E-16
  -13.2250004      -2.21043306E-16
  -13.2200003      -2.95841371E-16
  -13.2150002      -3.51141796E-16
  -13.2100000      -3.78624707E-16
  -13.2049999      -3.71336862E-16
  -13.1999998      -3.24708413E-16
  -13.1949997      -2.37552137E-16
  -13.1899996      -1.12890447E-16
  -13.1850004       4.15599396E-17
  -13.1800003       2.13408376E-16
  -13.1750002       3.86234318E-16
  -13.1700001       5.40894488E-16
  -13.1650000       6.57432457E-16
  -13.1599998       7.17426265E-16
  -13.1549997       7.06504940E-16
  -13.1499996       6.16700972E-16
  -13.1450005       4.48282394E-16
  -13.1400003       2.10742075E-16
  -13.1350002      -7.72899830E-17
  -13.1300001      -3.89310874E-16
  -13.1250000      -6.93321349E-16
  -13.1199999      -9.55094870E-16
  -13.1149998      -1.14197215E-15
  -13.1099997      -1.22672849E-15
  -13.1049995      -1.19103833E-15
  -13.1000004      -1.02809545E-15
  -13.0950003      -7.44055340E-16
  -13.0900002      -3.58113672E-16
  -13.0850000       9.87955010E-17
  -13.0799999       5.86542946E-16
  -13.0749998       1.05931147E-15
  -13.0699997       1.46971058E-15
  -13.0649996       1.77310656E-15
  -13.0600004       1.93179437E-15
  -13.0550003       1.91869120E-15
  -13.0500002       1.72029850E-15
  -13.0450001       1.33874214E-15
  -13.0400000       7.92758782E-16
  -13.0349998       1.17525385E-16
  -13.0299997      -6.36745530E-16
  -13.0249996      -1.40751073E-15
  -13.0200005      -2.12391140E-15
  -13.0150003      -2.71204491E-15
  -13.0100002      -3.10130377E-15
  -13.0050001      -3.23143662E-15
  -13.0000000      -3.05978201E-15
  -12.9949999      -2.56796080E-15
  -12.9899998      -1.76717405E-15
  -12.9849997      -7.01226337E-16
  -12.9799995       5.53524543E-16
  -12.9750004       1.89182014E-15
  -12.9700003       3.18693436E-15
  -12.9650002       4.30158313E-15
  -12.9600000       5.10148208E-15
  -12.9549999       5.47025863E-15
  -12.9499998       5.32408446E-15
  -12.9449997       4.62419765E-15
  -12.9399996       3.38564892E-15
  -12.9350004       1.68083683E-15
  -12.9300003      -3.62993667E-16
  -12.9250002      -2.57243758E-15
  -12.9200001      -4.74218638E-15
  -12.9150000      -6.65358653E-15
  -12.9099998      -8.09563259E-15
  -12.9049997      -8.88627347E-15
  -12.8999996      -8.89184610E-15
  -12.8950005      -8.04264051E-15
  -12.8900003      -6.34312777E-15
  -12.8850002      -3.87587030E-15
  -12.8800001      -7.98790080E-16
  -12.8750000       2.66388071E-15
  -12.8699999       6.23629956E-15
  -12.8649998       9.61022914E-15
  -12.8599997       1.24675635E-14
  -12.8549995       1.45047701E-14
  -12.8500004       1.54579091E-14
  -12.8450003       1.51268446E-14
  -12.8400002       1.33971551E-14
  -12.8350000       1.02582178E-14
  -12.8299999       5.81578370E-15
  -12.8249998       2.97314944E-16
  -12.8199997      -5.95150717E-15
  -12.8149996      -1.24803833E-14
  -12.8100004      -1.87587271E-14
  -12.8050003      -2.42104598E-14
  -12.8000002      -2.82578136E-14
  -12.7950001      -3.03714370E-14
  -12.7900000      -3.01227888E-14
  -12.7849998      -2.72341150E-14
  -12.7799997      -2.16205651E-14
  -12.7749996      -1.34194371E-14
  -12.7700005      -3.00223374E-15
  -12.7650003       9.03337175E-15
  -12.7600002       2.18924051E-14
  -12.7550001       3.46310742E-14
  -12.7500000       4.62213377E-14
  -12.7449999       5.56264426E-14
  -12.7399998       6.18809948E-14
  -12.7349997       6.41688105E-14
  -12.7299995       6.18920876E-14
  -12.7250004       5.47266090E-14
  -12.7200003       4.26591508E-14
  -12.7150002       2.60051922E-14
  -12.7100000       5.40653549E-15
  -12.7049999      -1.81898428E-14
  -12.6999998      -4.35696536E-14
  -12.6949997      -6.93032125E-14
  -12.6899996      -9.38089870E-14
  -12.6850004      -1.15426074E-13
  -12.6800003      -1.32493720E-13
  -12.6750002      -1.43435733E-13
  -12.6700001      -1.46847757E-13
  -12.6650000      -1.41584403E-13
  -12.6599998      -1.26843374E-13
  -12.6549997      -1.02241600E-13
  -12.6499996      -6.78790384E-14
  -12.6450005      -2.43845776E-14
  -12.6400003       2.70604597E-14
  -12.6350002       8.47246196E-14
  -12.6300001       1.46356763E-13
  -12.6250000       2.09243742E-13
  -12.6199999       2.70293499E-13
  -12.6149998       3.26139235E-13
  -12.6099997       3.73258770E-13
  -12.6049995       4.08104838E-13
  -12.6000004       4.27240979E-13
  -12.5950003       4.27480452E-13
  -12.5900002       4.06027615E-13
  -12.5850000       3.60623234E-13
  -12.5799999       2.89696381E-13
  -12.5749998       1.92525358E-13
  -12.5699997       6.94097151E-14
  -12.5649996      -7.81494484E-14
  -12.5600004      -2.47266563E-13
  -12.5550003      -4.33497314E-13
  -12.5500002      -6.30692438E-13
  -12.5450001      -8.30899477E-13
  -12.5400000      -1.02433947E-12
  -12.5349998      -1.19948680E-12
  -12.5299997      -1.34327673E-12
  -12.5249996      -1.44146533E-12
  -12.5200005      -1.47915762E-12
  -12.5150003      -1.44151520E-12
  -12.5100002      -1.31464143E-12
  -12.5050001      -1.08664130E-12
  -12.5000000      -7.48834209E-13
  -12.4949999      -2.97099639E-13
  -12.4899998       2.66684353E-13
  -12.4849997       9.33145922E-13
  -12.4799995       1.68391549E-12
  -12.4750004       2.49017387E-12
  -12.4700003       3.31130717E-12
  -12.4650002       4.09373967E-12
  -12.4600000       4.77001902E-12
  -12.4549999       5.25821661E-12
  -12.4499998       5.46173697E-12
  -12.4449997       5.26957471E-12
  -12.4399996       4.55710730E-12
  -12.4350004       3.18744076E-12
  -12.4300003       1.01335748E-12
  -12.4250002      -2.12014672E-12
  -12.4200001      -6.37274088E-12
  -12.4150000      -1.19051314E-11
  -12.4099998      -1.88749277E-11
  -12.4049997      -2.74321729E-11
  -12.3999996      -3.77145502E-11
  -12.3950005      -4.98424774E-11
  -12.3900003      -6.39140407E-11
  -12.3850002      -8.00000691E-11
  -12.3800001      -9.81393161E-11
  -12.3750000      -1.18333926E-10
  -12.3699999      -1.40545173E-10
  -12.3649998      -1.64689706E-10
  -12.3599997      -1.90636326E-10
  -12.3549995      -2.18203094E-10
  -12.3500004      -2.47155241E-10
  -12.3450003      -2.77203843E-10
  -12.3400002      -3.08004899E-10
  -12.3350000      -3.39159256E-10
  -12.3299999      -3.70213332E-10
  -12.3249998      -4.00660505E-10
  -12.3199997      -4.29943470E-10
  -12.3149996      -4.57456989E-10
  -12.3100004      -4.82551665E-10
  -12.3050003      -5.04538356E-10
  -12.3000002      -5.22692389E-10
  -12.2950001      -5.36260536E-10
  -12.2900000      -5.44466305E-10
  -12.2849998      -5.46516998E-10
  -12.2799997      -5.41611311E-10
  -12.2749996      -5.28947330E-10
  -12.2700005      -5.07731135E-10
  -12.2650003      -4.77186124E-10
  -12.2600002      -4.36562314E-10
  -12.2550001      -3.85146942E-10
  -12.2500000      -3.22274651E-10
  -12.2449999      -2.47338650E-10
  -12.2399998      -1.59801200E-10
  -12.2349997      -5.92055224E-11
  -12.2299995       5.48139832E-11
  -12.2250004       1.82520499E-10
  -12.2200003       3.24064386E-10
  -12.2150002       4.79472628E-10
  -12.2100000       6.48639975E-10
  -12.2049999       8.31319069E-10
  -12.1999998       1.02711317E-09
  -12.1949997       1.23546751E-09
  -12.1899996       1.45566437E-09
  -12.1850004       1.68681569E-09
  -12.1800003       1.92785787E-09
  -12.1750002       2.17755058E-09
  -12.1700001       2.43447262E-09
  -12.1650000       2.69701883E-09
  -12.1599998       2.96340441E-09
  -12.1549997       3.23166183E-09
  -12.1499996       3.49964591E-09
  -12.1450005       3.76503762E-09
  -12.1400003       4.02534850E-09
  -12.1350002       4.27792779E-09
  -12.1300001       4.51997240E-09
  -12.1250000       4.74853845E-09
  -12.1199999       4.96055064E-09
  -12.1149998       5.15281595E-09
  -12.1099997       5.32204147E-09
  -12.1049995       5.46485257E-09
  -12.1000004       5.57780844E-09
  -12.0950003       5.65742875E-09
  -12.0900002       5.70021319E-09
  -12.0850000       5.70266723E-09
  -12.0799999       5.66133185E-09
  -12.0749998       5.57280710E-09
  -12.0699997       5.43378853E-09
  -12.0649996       5.24109156E-09
  -12.0600004       4.99168573E-09
  -12.0550003       4.68273287E-09
  -12.0500002       4.31161107E-09
  -12.0450001       3.87595467E-09
  -12.0400000       3.37368600E-09
  -12.0349998       2.80304668E-09
  -12.0299997       2.16263207E-09
  -12.0249996       1.45142254E-09
  -12.0200005       6.68813949E-10
  -12.0150003      -1.85353566E-10
  -12.0100002      -1.11076748E-09
  -12.0050001      -2.10661200E-09
  -12.0000000      -3.17155147E-09
  -11.9949999      -4.30369740E-09
  -11.9899998      -5.50059598E-09
  -11.9849997      -6.75920342E-09
  -11.9799995      -8.07587508E-09
  -11.9750004      -9.44635037E-09
  -11.9700003      -1.08657359E-08
  -11.9650002      -1.23285071E-08
  -11.9600000      -1.38284966E-08
  -11.9549999      -1.53588999E-08
  -11.9499998      -1.69122725E-08
  -11.9449997      -1.84805273E-08
  -11.9399996      -2.00549692E-08
  -11.9350004      -2.16262848E-08
  -11.9300003      -2.31845743E-08
  -11.9250002      -2.47193732E-08
  -11.9200001      -2.62196753E-08
  -11.9150000      -2.76739680E-08
  -11.9099998      -2.90702840E-08
  -11.9049997      -3.03962224E-08
  -11.8999996      -3.16390043E-08
  -11.8950005      -3.27855396E-08
  -11.8900003      -3.38224702E-08
  -11.8850002      -3.47362281E-08
  -11.8800001      -3.55131213E-08
  -11.8750000      -3.61393937E-08
  -11.8699999      -3.66013033E-08
  -11.8649998      -3.68851971E-08
  -11.8599997      -3.69776032E-08
  -11.8549995      -3.68653055E-08
  -11.8500004      -3.65354431E-08
  -11.8450003      -3.59756065E-08
  -11.8400002      -3.51739189E-08
  -11.8350000      -3.41191431E-08
  -11.8299999      -3.28007701E-08
  -11.8249998      -3.12091366E-08
  -11.8199997      -2.93354869E-08
  -11.8149996      -2.71721134E-08
  -11.8100004      -2.47124312E-08
  -11.8050003      -2.19510969E-08
  -11.8000002      -1.88840641E-08
  -11.7950001      -1.55087179E-08
  -11.7900000      -1.18239276E-08
  -11.7849998      -7.83017562E-09
  -11.7799997      -3.52959861E-09
  -11.7749996       1.07390852E-09
  -11.7700005       5.97462924E-09
  -11.7650003       1.11649738E-08
  -11.7600002       1.66353935E-08
  -11.7550001       2.23743637E-08
  -11.7500000       2.83683015E-08
  -11.7449999       3.46015590E-08
  -11.7399998       4.10563921E-08
  -11.7349997       4.77129447E-08
  -11.7299995       5.45492327E-08
  -11.7250004       6.15411651E-08
  -11.7200003       6.86625654E-08