  -16.0000000       0.00000000    
  -15.9949999       0.00000000    
  -15.9899998       0.00000000    
  -15.9849997       0.00000000    
  -15.9799995       0.00000000    
  -15.9750004       0.00000000    
  -15.9700003       0.00000000    
  -15.9650002       0.00000000    
  -15.9600000       0.00000000    
  -15.9549999       0.00000000    
  -15.9499998       0.00000000    
  -15.9449997       0.00000000    
  -15.9399996       0.00000000    
  -15.9350004       0.00000000    
  -15.9300003       0.00000000    
  -15.9250002       0.00000000    
  -15.9200001       0.00000000    
  -15.9150000       0.00000000    
  -15.9099998       0.00000000    
  -15.9049997       0.00000000    
  -15.8999996       0.00000000    
  -15.8950005       0.00000000    
  -15.8900003       0.00000000    
  -15.8850002       0.00000000    
  -15.8800001       0.00000000    
  -15.8750000       0.00000000    
  -15.8699999       0.00000000    
  -15.8649998       0.00000000    
  -15.8599997       0.00000000    
  -15.8549995       0.00000000    
  -15.8500004       0.00000000    
  -15.8450003       0.00000000    
  -15.8400002       0.00000000    
  -15.8350000       0.00000000    
  -15.8299999       0.00000000    
  -15.8249998       0.00000000    
  -15.8199997       0.00000000    
  -15.8149996       0.00000000    
  -15.8100004       0.00000000    
  -15.8050003       0.00000000    
  -15.8000002       0.00000000    
  -15.7950001       0.00000000    
  -15.7900000       0.00000000    
  -15.7849998       0.00000000    
  -15.7799997       0.00000000    
  -15.7749996       0.00000000    
  -15.7700005       0.00000000    
  -15.7650003       0.00000000    
  -15.7600002       0.00000000    
  -15.7550001       0.00000000    
  -15.7500000       0.00000000    
  -15.7449999       0.00000000    
  -15.7399998       0.00000000    
  -15.7349997       0.00000000    
  -15.7299995       0.00000000    
  -15.7250004       0.00000000    
  -15.7200003       0.00000000    
  -15.7150002       0.00000000    
  -15.7100000       0.00000000    
  -15.7049999       0.00000000    
  -15.6999998       0.00000000    
  -15.6949997       0.00000000    
  -15.6899996       0.00000000    
  -15.6850004       0.00000000    
  -15.6800003       0.00000000    
  -15.6750002       0.00000000    
  -15.6700001       0.00000000    
  -15.6650000       0.00000000    
  -15.6599998       0.00000000    
  -15.6549997       0.00000000    
  -15.6499996       0.00000000    
  -15.6450005       0.00000000    
  -15.6400003       0.00000000    
  -15.6350002       0.00000000    
  -15.6300001       0.00000000    
  -15.6250000       0.00000000    
  -15.6199999       0.00000000    
  -15.6149998       0.00000000    
  -15.6099997       0.00000000    
  -15.6049995       0.00000000    
  -15.6000004       0.00000000    
  -15.5950003       0.00000000    
  -15.5900002       0.00000000    
  -15.5850000       0.00000000    
  -15.5799999       0.00000000    
  -15.5749998       0.00000000    
  -15.5699997       0.00000000    
  -15.5649996       0.00000000    
  -15.5600004       0.00000000    
  -15.5550003       0.00000000    
  -15.5500002       0.00000000    
  -15.5450001       0.00000000    
  -15.5400000       0.00000000    
  -15.5349998       0.00000000    
  -15.5299997       0.00000000    
  -15.5249996       0.00000000    
  -15.5200005       0.00000000    
  -15.5150003       0.00000000    
  -15.5100002       0.00000000    
  -15.5050001       0.00000000    
  -15.5000000       0.00000000    
  -15.4949999       0.00000000    
  -15.4899998       0.00000000    
  -15.4849997       0.00000000    
  -15.4799995       0.00000000    
  -15.4750004       0.00000000    
  -15.4700003       0.00000000    
  -15.4650002       0.00000000    
  -15.4600000       0.00000000    
  -15.4549999       0.00000000    
  -15.4499998       0.00000000    
  -15.4449997       0.00000000    
  -15.4399996       0.00000000    
  -15.4350004       0.00000000    
  -15.4300003       0.00000000    
  -15.4250002       0.00000000    
  -15.4200001       0.00000000    
  -15.4150000       0.00000000    
  -15.4099998       0.00000000    
  -15.4049997       0.00000000    
  -15.3999996       0.00000000    
  -15.3950005       0.00000000    
  -15.3900003       0.00000000    
  -15.3850002       0.00000000    
  -15.3800001       0.00000000    
  -15.3750000       0.00000000    
  -15.3699999       0.00000000    
  -15.3649998       0.00000000    
  -15.3599997       0.00000000    
  -15.3549995       0.00000000    
  -15.3500004       0.00000000    
  -15.3450003       0.00000000    
  -15.3400002       0.00000000    
  -15.3350000       0.00000000    
  -15.3299999       0.00000000    
  -15.3249998       0.00000000    
  -15.3199997       0.00000000    
  -15.3149996       0.00000000    
  -15.3100004       0.00000000    
  -15.3050003      -0.00000000    
  -15.3000002      -0.00000000    
  -15.2950001       0.00000000    
  -15.2900000       0.00000000    
  -15.2849998      -0.00000000    
  -15.2799997       1.40129846E-45
  -15.2749996       1.40129846E-45
  -15.2700005      -9.80908925E-45
  -15.2650003      -2.80259693E-45
  -15.2600002       9.80908925E-45
  -15.2550001      -1.40129846E-45
  -15.2500000       3.50324616E-44
  -15.2449999       6.16571324E-44
  -15.2399998       1.24715563E-43
  -15.2349997       5.74532370E-44
  -15.2299995      -5.60519386E-45
  -15.2250004      -6.58610278E-44
  -15.2200003      -1.77964905E-43
  -15.2150002      -4.76441478E-44
  -15.2100000      -1.70958413E-43
  -15.2049999      -2.04589576E-43
  -15.1999998      -5.61920684E-43
  -15.1949997       2.99877871E-43
  -15.1899996       8.32371288E-43
  -15.1850004       1.89875942E-42
  -15.1800003       1.62690752E-42
  -15.1750002       2.32615545E-43
  -15.1700001      -3.08285662E-43
  -15.1650000      -6.19373921E-43
  -15.1599998      -4.94798488E-42
  -15.1549997      -8.93888290E-42
  -15.1499996      -1.01874398E-41
  -15.1450005      -8.53530895E-42
  -15.1400003       9.44475165E-43
  -15.1350002       1.80935658E-41
  -15.1300001       4.29497979E-41
  -15.1250000       6.59619213E-41
  -15.1199999       7.11088906E-41
  -15.1149998       4.28222798E-41
  -15.1099997      -4.22925890E-41
  -15.1049995      -1.75102052E-40
  -15.1000004      -3.31081986E-40
  -15.0950003      -4.41205828E-40
  -15.0900002      -3.98890818E-40
  -15.0850000      -9.54018007E-41
  -15.0799999       5.25924129E-40
  -15.0749998       1.39722069E-39
  -15.0699997       2.25452808E-39
  -15.0649996       2.61406203E-39
  -15.0600004       1.86456073E-39
  -15.0550003      -5.18947064E-40
  -15.0500002      -4.62005441E-39
  -15.0450001      -9.65932548E-39
  -15.0400000      -1.37059686E-38
  -15.0349998      -1.38712699E-38
  -15.0299997      -6.91797370E-39
  -15.0249996       9.18569781E-39
  -15.0200005       3.33289843E-38
  -15.0150003       5.93803756E-38
  -15.0100002       7.55123701E-38
  -15.0050001       6.58768849E-38
  -15.0000000       1.56095653E-38
  -14.9949999      -8.08932273E-38
  -14.9899998      -2.10245194E-37
  -14.9849997      -3.32213876E-37
  -14.9799995      -3.81275420E-37
  -14.9750004      -2.79558932E-37
  -14.9700003       3.34393898E-38
  -14.9650002       5.59191403E-37
  -14.9600000       1.19473290E-36
  -14.9549999       1.71149527E-36
  -14.9499998       1.77787081E-36
  -14.9449997       1.04404466E-36
  -14.9399996      -7.02903103E-37
  -14.9350004      -3.34119741E-36
  -14.9300003      -6.23922325E-36
  -14.9250002      -8.21632669E-36
  -14.9200001      -7.71452319E-36
  -14.9150000      -3.28935412E-36
  -14.9099998       5.65023702E-36
  -14.9049997       1.79994430E-35
  -14.8999996       3.03439288E-35
  -14.8950005       3.70266888E-35
  -14.8900003       3.12781397E-35
  -14.8850002       7.59136031E-36
  -14.8800001      -3.49556606E-35
  -14.8750000      -8.93548300E-35
  -14.8699999      -1.38783042E-34
  -14.8649998      -1.57969359E-34
  -14.8599997      -1.19204540E-34
  -14.8549995      -3.17608579E-36
  -14.8500004       1.87229216E-34
  -14.8450003       4.14504930E-34
  -14.8400002       6.01811139E-34
  -14.8350000       6.42722429E-34
  -14.8299999       4.29811015E-34
  -14.8249998      -9.91333187E-35
  -14.8199997      -9.06998584E-34
  -14.8149996      -1.81414080E-33
  -14.8100004      -2.49123932E-33
  -14.8050003      -2.51225698E-33
  -14.8000002      -1.47979825E-33
  -14.7950001       7.89073634E-34
  -14.7900000       4.06087711E-33
  -14.7849998       7.54418536E-33
  -14.7799997       9.90256498E-33
  -14.7749996       9.50386742E-33
  -14.7700005       4.93376358E-33
  -14.7650003      -4.29322643E-33
  -14.7600002      -1.70115838E-32
  -14.7550001      -2.99645618E-32
  -14.7500000      -3.79826029E-32
  -14.7449999      -3.50443225E-32
  -14.7399998      -1.62644293E-32
  -14.7349997       1.95017613E-32
  -14.7299995       6.71653198E-32
  -14.7250004       1.14090555E-31
  -14.7200003       1.41117615E-31
  -14.7150002       1.26740861E-31
  -14.7100000       5.44303314E-32
  -14.7049999      -7.81867137E-32
  -14.6999998      -2.50957159E-31
  -14.6949997      -4.17379535E-31
  -14.6899996      -5.09155880E-31
  -14.6850004      -4.51615432E-31
  -14.6800003      -1.89476183E-31
  -14.6750002       2.81849832E-31
  -14.6700001       8.88774822E-31
  -14.6650000       1.46837582E-30
  -14.6599998       1.78594305E-30
  -14.6549997       1.58864864E-30
  -14.6499996       6.92519739E-31
  -14.6450005      -9.14060646E-31
  -14.6400003      -2.98156487E-30
  -14.6350002      -4.96565903E-30
  -14.6300001      -6.08779609E-30
  -14.6250000      -5.51201865E-30
  -14.6199999      -2.62720505E-30
  -14.6149998       2.62058654E-30
  -14.6099997       9.44481085E-30
  -14.6049995       1.61112887E-29
  -14.6000004       2.01275809E-29
  -14.5950003       1.87954272E-29
  -14.5900002       1.00912244E-29
  -14.5850000      -6.29624604E-30
  -14.5799999      -2.80737000E-29
  -14.5749998      -4.99822485E-29
  -14.5699997      -6.43320125E-29
  -14.5649996      -6.26375432E-29
  -14.5600004      -3.82562842E-29
  -14.5550003       1.04647660E-29
  -14.5500002       7.74200726E-29
  -14.5450001       1.47488124E-28
  -14.5400000       1.97868129E-28
  -14.5349998       2.02648419E-28
  -14.5299997       1.40388436E-28
  -14.5249996       3.36325522E-30
  -14.5200005      -1.94008433E-28
  -14.5150003      -4.10770187E-28
  -14.5100002      -5.82224463E-28
  -14.5050001      -6.31893233E-28
  -14.5000000      -4.92333079E-28
  -14.4949999      -1.31355103E-28
  -14.4899998       4.22956364E-28
  -14.4849997       1.06725292E-27
  -14.4799995       1.62688233E-27
  -14.4750004       1.88490918E-27
  -14.4700003       1.63638352E-27
  -14.4650002       7.59807578E-28
  -14.4600000      -7.10954583E-28
  -14.4549999      -2.53750091E-27
  -14.4499998      -4.27504139E-27
  -14.4449997      -5.33610784E-27
  -14.4399996      -5.12391197E-27
  -14.4350004      -3.21832331E-27
  -14.4300003       4.25293480E-28
  -14.4250002       5.32285282E-27
  -14.4200001       1.04187679E-26
  -14.4150000       1.42067178E-26
  -14.4099998       1.50343068E-26
  -14.4049997       1.15619884E-26
  -14.3999996       3.28746227E-27
  -14.3950005      -9.00317167E-27
  -14.3900003      -2.30220874E-26
  -14.3850002      -3.51509085E-26
  -14.3800001      -4.10748164E-26
  -14.3750000      -3.68437578E-26
  -14.3699999      -2.01824269E-26
  -14.3649998       8.26285807E-27
  -14.3599997       4.41337385E-26
  -14.3549995       7.94130496E-26
  -14.3500004       1.03576525E-25
  -14.3450003       1.05858194E-25
  -14.3400002       7.83164035E-26
  -14.3350000       1.90540569E-26
  -14.3299999      -6.52945595E-26
  -14.3249998      -1.58764223E-25
  -14.3199997      -2.37695131E-25
  -14.3149996      -2.75077893E-25
  -14.3100004      -2.47186853E-25
  -14.3050003      -1.41293518E-25
  -14.3000002       3.74019355E-26
  -14.2950001       2.61809770E-25
  -14.2900000       4.83935055E-25
  -14.2849998       6.41976878E-25
  -14.2799997       6.73296332E-25
  -14.2749996       5.31362950E-25
  -14.2700005       2.03107327E-25
  -14.2650003      -2.77937612E-25
  -14.2600002      -8.27460264E-25
  -14.2550001      -1.31873000E-24
  -14.2500000      -1.60463183E-24
  -14.2449999      -1.55113256E-24
  -14.2399998      -1.07628277E-24
  -14.2349997      -1.85880848E-25
  -14.2299995       1.00446842E-24
  -14.2250004       2.27017602E-24
  -14.2200003       3.30694554E-24
  -14.2150002       3.78809902E-24
  -14.2100000       3.44215354E-24
  -14.2049999       2.13581290E-24
  -14.1999998      -5.73622549E-26
  -14.1949997      -2.82344993E-24
  -14.1899996      -5.62641236E-24
  -14.1850004      -7.78586071E-24
  -14.1800003      -8.60885484E-24
  -14.1750002      -7.55575156E-24
  -14.1700001      -4.40765105E-24
  -14.1650000       6.04784749E-25
  -14.1599998       6.75064564E-24
  -14.1549997       1.28549783E-23
  -14.1499996       1.74723098E-23
  -14.1450005       1.91615986E-23
  -14.1400003       1.68208401E-23
  -14.1350002       1.00169503E-23
  -14.1300001      -7.65208735E-25
  -14.1250000      -1.40269424E-23
  -14.1199999      -2.73657647E-23
  -14.1149998      -3.78092354E-23
  -14.1099997      -4.23442895E-23
  -14.1049995      -3.85675485E-23
  -14.1000004      -2.53411295E-23
  -14.0950003      -3.31761212E-24
  -14.0900002       2.48038631E-23
  -14.0850000       5.43961183E-23
  -14.0799999       7.94491353E-23
  -14.0749998       9.35187346E-23
  -14.0699997       9.09704803E-23
  -14.0649996       6.83326525E-23
  -14.0600004       2.55097406E-23
  -14.0550003      -3.34095026E-23
  -14.0500002      -1.00003973E-22
  -14.0450001      -1.62209328E-22
  -14.0400000      -2.05901418E-22
  -14.0349998      -2.17280566E-22
  -14.0299997      -1.85775292E-22
  -14.0249996      -1.07022222E-22
  -14.0200005       1.46509093E-23
  -14.0150003       1.64879628E-22
  -14.0100002       3.19607387E-22
  -14.0050001       4.47530157E-22
  -14.0000000       5.14689862E-22
  -13.9949999       4.90873684E-22
  -13.9899998       3.56969026E-22
  -13.9849997       1.12003342E-22
  -13.9799995      -2.21723103E-22
  -13.9750004      -5.97058552E-22
  -13.9700003      -9.45287302E-22
  -13.9650002      -1.18500055E-21
  -13.9600000      -1.23613570E-21
  -13.9549999      -1.03761427E-21
  -13.9499998      -5.65671329E-22
  -13.9449997       1.50940267E-22
  -13.9399996       1.02311084E-21
  -13.9350004       1.90465849E-21
  -13.9300003       2.60900318E-21
  -13.9250002       2.93916881E-21
  -13.9200001       2.72795886E-21
  -13.9150000       1.88209520E-21
  -13.9099998       4.21479673E-22
  -13.9049997      -1.49631207E-21
  -13.8999996      -3.57564774E-21
  -13.8950005      -5.41261595E-21
  -13.8900003      -6.55594111E-21
  -13.8850002      -6.59320786E-21
  -13.8800001      -5.24947032E-21
  -13.8750000      -2.47951831E-21
  -13.8699999       1.46814572E-21
  -13.8649998       6.03606093E-21
  -13.8599997       1.04061728E-20
  -13.8549995       1.36153428E-20
  -13.8500004       1.47282351E-20
  -13.8450003       1.30423514E-20
  -13.8400002       8.28818899E-21
  -13.8350000       7.79716985E-22
  -13.8299999      -8.52694611E-21
  -13.8249998      -1.80993580E-20
  -13.8199997      -2.60292849E-20
  -13.8149996      -3.03535671E-20
  -13.8100004      -2.94500952E-20
  -13.8050003      -2.24409140E-20
  -13.8000002      -9.51785355E-21
  -13.7950001       7.89069962E-21
  -13.7900000       2.71772064E-20
  -13.7849998       4.48643797E-20
  -13.7799997       5.71478858E-20
  -13.7749996       6.06012744E-20
  -13.7700005       5.29272193E-20
  -13.7650003       3.36089073E-20
  -13.7600002       4.31545861E-21
  -13.7550001      -3.10613041E-20
  -13.7500000      -6.68021886E-20
  -13.7449999      -9.61755273E-20
  -13.7399998      -1.12573103E-19
  -13.7349997      -1.10792041E-19
  -13.7299995      -8.82307224E-20
  -13.7250004      -4.57613440E-20
  -13.7200003       1.19357833E-20
  -13.7150002       7.67044453E-20
  -13.7100000       1.37930894E-19
  -13.7049999       1.84144105E-19
  -13.6999998       2.04964564E-19
  -13.6949997       1.93087297E-19
  -13.6899996       1.45945330E-19
  -13.6850004       6.67269410E-20
  -13.6800003      -3.54951602E-20
  -13.6750002      -1.46623877E-19
  -13.6700001      -2.49326350E-19
  -13.6650000      -3.25528064E-19
  -13.6599998      -3.59260256E-19
  -13.6549997      -3.39429816E-19
  -13.6499996      -2.62073721E-19
  -13.6450005      -1.31723472E-19
  -13.6400003       3.83773256E-20
  -13.6350002       2.27310654E-19
  -13.6300001       4.08700428E-19
  -13.6250000       5.53900921E-19
  -13.6199999       6.35795989E-19
  -13.6149998       6.32805835E-19
  -13.6099997       5.32607948E-19
  -13.6049995       3.35122041E-19
  -13.6000004       5.43111345E-20
  -13.5950003      -2.81568145E-19
  -13.5900002      -6.31563823E-19
  -13.5850000      -9.45593999E-19
  -13.5799999      -1.16994503E-18
  -13.5749998      -1.25436780E-18
  -13.5699997      -1.16019422E-18
  -13.5649996      -8.68491046E-19
  -13.5600004      -3.87054326E-19
  -13.5550003       2.45169070E-19
  -13.5500002       9.57595045E-19
  -13.5450001       1.65256614E-18
  -13.5400000       2.21541840E-18
  -13.5349998       2.52973793E-18
  -13.5299997       2.49633679E-18
  -13.5249996       2.05353729E-18
  -13.5200005       1.19536997E-18
  -13.5150003      -1.59931542E-20
  -13.5100002      -1.44715796E-18
  -13.5050001      -2.90231228E-18
  -13.5000000      -4.14481759E-18
  -13.4949999      -4.93026735E-18
  -13.4899998      -5.04723772E-18
  -13.4849997      -4.35974310E-18
  -13.4799995      -2.84411950E-18
  -13.4750004      -6.12433514E-19
  -13.4700003       2.08392377E-18
  -13.4650002       4.87473169E-18
  -13.4600000       7.31543396E-18
  -13.4549999       8.95164602E-18
  -13.4499998       9.39501069E-18
  -13.4449997       8.39867578E-18
  -13.4399996       5.91880236E-18
  -13.4350004       2.14950492E-18
  -13.4300003      -2.47841385E-18
  -13.4250002      -7.33916495E-18
  -13.4200001      -1.16916222E-17
  -13.4150000      -1.47873324E-17
  -13.4099998      -1.59915503E-17
  -13.4049997      -1.48979364E-17
  -13.3999996      -1.14167071E-17
  -13.3950005      -5.81972722E-18
  -13.3900003       1.26922810E-18
  -13.3850002       8.94088109E-18
  -13.3800001       1.61168946E-17
  -13.3750000       2.17007442E-17
  -13.3699999       2.47405089E-17
  -13.3649998       2.45789208E-17
  -13.3599997       2.09667869E-17
  -13.3549995       1.41213181E-17
  -13.3500004       4.71984419E-18
  -13.3450003      -6.17215910E-18
  -13.3400002      -1.72269826E-17
  -13.3350000      -2.70178165E-17
  -13.3299999      -3.41972546E-17
  -13.3249998      -3.76649446E-17
  -13.3199997      -3.67077775E-17
  -13.3149996      -3.10941659E-17
  -13.3100004      -2.11168242E-17
  -13.3050003      -7.58193005E-18
  -13.3000002       8.25088011E-18
  -13.2950001       2.47697332E-17
  -13.2900000       4.01451563E-17
  -13.2849998       5.24902413E-17
  -13.2799997       6.00384166E-17
  -13.2749996       6.13324910E-17
  -13.2700005       5.54141296E-17
  -13.2650003       4.20000824E-17
  -13.2600002       2.16250307E-17
  -13.2550001      -4.27369522E-18
  -13.2500000      -3.33598434E-17
  -13.2449999      -6.25136189E-17
  -13.2399998      -8.80756174E-17
  -13.2349997      -1.06221419E-16
  -13.2299995      -1.13439854E-16
  -13.2250004      -1.07072449E-16
  -13.2200003      -8.58391990E-17
  -13.2150002      -5.02655523E-17
  -13.2100000      -2.92631416E-18
  -13.2049999       5.15788769E-17
  -13.1999998       1.06951733E-16
  -13.1949997       1.55836711E-16
  -13.1899996       1.90722147E-16
  -13.1850004       2.04996770E-16
  -13.1800003       1.94027296E-16
  -13.1750002       1.56080564E-16
  -13.1700001       9.29344102E-17
  -13.1650000       1.00388029E-17
  -13.1599998      -8.38356220E-17
  -13.1549997      -1.77479819E-16
  -13.1499996      -2.58558554E-16
  -13.1450005      -3.15205180E-16
  -13.1400003      -3.37680034E-16
  -13.1350002      -3.19855999E-16
  -13.1300001      -2.60314242E-16
  -13.1250000      -1.62856960E-16
  -13.1199999      -3.63585683E-17
  -13.1149998       1.06061608E-16
  -13.1099997       2.48444398E-16
  -13.1049995       3.73801384E-16
  -13.1000004       4.66104443E-16
  -13.0950003       5.12198494E-16
  -13.0900002       5.03422333E-16
  -13.0850000       4.36730188E-16
  -13.0799999       3.15238637E-16
  -13.0749998       1.48126501E-16
  -13.0699997      -5.00541282E-17
  -13.0649996      -2.60584498E-16
  -13.0600004      -4.62162246E-16
  -13.0550003      -6.32771040E-16
  -13.0500002      -7.51666778E-16
  -13.0450001      -8.01395500E-16
  -13.0400000      -7.69705298E-16
  -13.0349998      -6.51259387E-16
  -13.0299997      -4.48957108E-16
  -13.0249996      -1.74745372E-16
  -13.0200005       1.50311357E-16
  -13.0150003       4.96846551E-16
  -13.0100002       8.29075584E-16
  -13.0050001       1.10774651E-15
  -13.0000000       1.29410234E-15
  -12.9949999       1.35454354E-15
  -12.9899998       1.26556294E-15
  -12.9849997       1.01829517E-15
  -12.9799995       6.21997681E-16
  -12.9750004       1.05684043E-16
  -12.9700003      -4.82572934E-16
  -12.9650002      -1.07914475E-15
  -12.9600000      -1.61098435E-15
  -12.9549999      -2.00405751E-15
  -12.9499998      -2.19311801E-15
  -12.9449997      -2.13165963E-15
  -12.9399996      -1.80054874E-15
  -12.9350004      -1.21395629E-15
  -12.9300003      -4.21357307E-16
  -12.9250002       4.95181496E-16
  -12.9200001       1.42859920E-15
  -12.9150000       2.25873427E-15
  -12.9099998       2.86734544E-15
  -12.9049997       3.15436382E-15
  -12.8999996       3.05328844E-15
  -12.8950005       2.54347371E-15
  -12.8900003       1.65724400E-15
  -12.8850002       4.80597336E-16
  -12.8800001      -8.53322908E-16
  -12.8750000      -2.17757305E-15
  -12.8699999      -3.31038073E-15
  -12.8649998      -4.07767675E-15
  -12.8599997      -4.33665029E-15
  -12.8549995      -3.99733101E-15
  -12.8500004      -3.03951018E-15
  -12.8450003      -1.52256385E-15
  -12.8400002       4.13478577E-16
  -12.8350000       2.55646550E-15
  -12.8299999       4.63978221E-15
  -12.8249998       6.36837529E-15
  -12.8199997       7.45058481E-15
  -12.8149996       7.63332116E-15
  -12.8100004       6.73719164E-15
  -12.8050003       4.68790131E-15
  -12.8000002       1.54059252E-15
  -12.7950001      -2.50621400E-15
  -12.7900000      -7.11006232E-15
  -12.7849998      -1.17988937E-14
  -12.7799997      -1.60014773E-14
  -12.7749996      -1.90935948E-14
  -12.7700005      -2.04575076E-14
  -12.7650003      -1.95517905E-14
  -12.7600002      -1.59852617E-14
  -12.7550001      -9.58949208E-15
  -12.7500000      -4.80799459E-16
  -12.7449999       1.08963470E-14
  -12.7399998       2.37519185E-14
  -12.7349997       3.69667472E-14
  -12.7299995       4.91467185E-14
  -12.7250004       5.87163646E-14
  -12.7200003       6.40485793E-14
  -12.7150002       6.36247782E-14
  -12.7100000       5.62128232E-14
  -12.7049999       4.10487142E-14
  -12.6999998       1.80040936E-14
  -12.6949997      -1.22802227E-14
  -12.6899996      -4.83107986E-14
  -12.6850004      -8.77273243E-14
  -12.6800003      -1.27365715E-13
  -12.6750002      -1.63409000E-13
  -12.6700001      -1.91620293E-13
  -12.6650000      -2.07651360E-13
  -12.6599998      -2.07414611E-13
  -12.6549997      -1.87489089E-13
  -12.6499996      -1.45538732E-13
  -12.6450005      -8.07083350E-14
  -12.6400003       6.03610078E-15
  -12.6350002       1.11656534E-13
  -12.6300001       2.30909069E-13
  -12.6250000       3.56364027E-13
  -12.6199999       4.78585325E-13
  -12.6149998       5.86501876E-13
  -12.6099997       6.67948064E-13
  -12.6049995       7.10397886E-13
  -12.6000004       7.01839953E-13
  -12.5950003       6.31786507E-13
  -12.5900002       4.92354475E-13
  -12.5850000       2.79359814E-13
  -12.5799999      -6.62827506E-15
  -12.5749998      -3.59389303E-13
  -12.5699997      -7.66355458E-13
  -12.5649996      -1.20823642E-12
  -12.5600004      -1.65905093E-12
  -12.5550003      -2.08661690E-12
  -12.5500002      -2.45359549E-12
  -12.5450001      -2.71908494E-12
  -12.5400000      -2.84082523E-12
  -12.5349998      -2.77793565E-12
  -12.5299997      -2.49411516E-12
  -12.5249996      -1.96121439E-12
  -12.5200005      -1.16304579E-12
  -12.5150003      -9.90845115E-14
  -12.5100002       1.21197843E-12
  -12.5050001       2.72932805E-12
  -12.5000000       4.38788589E-12
  -12.4949999       6.09741077E-12
  -12.4899998       7.74307788E-12
  -12.4849997       9.18779202E-12
  -12.4799995       1.02767161E-11
  -12.4750004       1.08438631E-11
  -12.4700003       1.07212633E-11
  -12.4650002       9.75048861E-12
  -12.4600000       7.79663747E-12
  -12.4549999       4.76441673E-12
  -12.4499998       6.16313261E-13
  -12.4449997      -4.60797242E-12
  -12.4399996      -1.07710568E-11
  -12.4350004      -1.76171092E-11
  -12.4300003      -2.47517215E-11
  -12.4250002      -3.16232873E-11
  -12.4200001      -3.75060399E-11
  -12.4150000      -4.14873795E-11
  -12.4099998      -4.24586651E-11
  -12.4049997      -3.91110130E-11
  -12.3999996      -2.99368204E-11
  -12.3950005      -1.32392855E-11
  -12.3900003       1.28541700E-11
  -12.3850002       5.03657741E-11
  -12.3800001       1.01440009E-10
  -12.3750000       1.68302816E-10
  -12.3699999       2.53216198E-10
  -12.3649998       3.58423985E-10
  -12.3599997       4.86091445E-10
  -12.3549995       6.38246456E-10
  -12.3500004       8.16695434E-10
  -12.3450003       1.02295694E-09
  -12.3400002       1.25818533E-09
  -12.3350000       1.52308544E-09
  -12.3299999       1.81783444E-09
  -12.3249998       2.14201434E-09
  -12.3199997       2.49451504E-09
  -12.3149996       2.87348167E-09
  -12.3100004       3.27624994E-09
  -12.3050003       3.69924913E-09
  -12.3000002       4.13801127E-09
  -12.2950001       4.58708449E-09
  -12.2900000       5.04000219E-09
  -12.2849998       5.48930812E-09
  -12.2799997       5.92648552E-09
  -12.2749996       6.34200159E-09
  -12.2700005       6.72533229E-09
  -12.2650003       7.06501346E-09
  -12.2600002       7.34860972E-09
  -12.2550001       7.56292184E-09
  -12.2500000       7.69398500E-09
  -12.2449999       7.72716202E-09
  -12.2399998       7.64730412E-09
  -12.2349997       7.43895923E-09
  -12.2299995       7.08639813E-09
  -12.2250004       6.57389876E-09
  -12.2200003       5.88587179E-09
  -12.2150002       5.00712449E-09
  -12.2100000       3.92307564E-09
  -12.2049999       2.61999822E-09
  -12.1999998       1.08522835E-09
  -12.1949997      -6.92507329E-10
  -12.1899996      -2.72286726E-09
  -12.1850004      -5.01353137E-09
  -12.1800003      -7.57008056E-09
  -12.1750002      -1.03955839E-08
  -12.1700001      -1.34903120E-08
  -12.1650000      -1.68515566E-08
  -12.1599998      -2.04732906E-08
  -12.1549997      -2.43459315E-08
  -12.1499996      -2.84561104E-08
  -12.1450005      -3.27864775E-08
  -12.1400003      -3.73154094E-08
  -12.1350002      -4.20168824E-08
  -12.1300001      -4.68604497E-08
  -12.1250000      -5.18109395E-08
  -12.1199999      -5.68285863E-08
  -12.1149998      -6.18687395E-08
  -12.1099997      -6.68820732E-08
  -12.1049995      -7.18144690E-08
  -12.1000004      -7.66076340E-08
  -12.0950003      -8.11983938E-08
  -12.0900002      -8.55195879E-08
  -12.0850000      -8.95003893E-08
  -12.0799999      -9.30656370E-08
  -12.0749998      -9.61376827E-08
  -12.0699997      -9.86357520E-08
  -12.0649996      -1.00477003E-07
  -12.0600004      -1.01576553E-07
  -12.0550003      -1.01848457E-07
  -12.0500002      -1.01206652E-07
  -12.0450001      -9.95648861E-08
  -12.0400000      -9.68382352E-08
  -12.0349998      -9.29437505E-08
  -12.0299997      -8.78008066E-08
  -12.0249996      -8.13325869E-08
  -12.0200005      -7.34669285E-08
  -12.0150003      -6.41373674E-08
  -12.0100002      -5.32833155E-08
  -12.0050001      -4.08526404E-08
  -12.0000000      -2.68008744E-08
  -11.9949999      -1.10936371E-08
  -11.9899998       6.29277963E-09
  -11.9849997       2.53707828E-08
  -11.9799995       4.61400624E-08
  -11.9750004       6.85863526E-08
  -11.9700003       9.26818586E-08
  -11.9650002       1.18382374E-07
  -11.9600000       1.45628050E-07
  -11.9549999       1.74342134E-07
  -11.9499998       2.04430094E-07
  -11.9449997       2.35779709E-07
  -11.9399996       2.68259555E-07
  -11.9350004       3.01719581E-07
  -11.9300003       3.35990421E-07
  -11.9250002       3.70883157E-07
  -11.9200001       4.06189713E-07
  -11.9150000       4.41682431E-07
  -11.9099998       4.77115066E-07
  -11.9049997       5.12222755E-07
  -11.8999996       5.46721992E-07
  -11.8950005       5.80312360E-07
  -11.8900003       6.12679344E-07
  -11.8850002       6.43488363E-07
  -11.8800001       6.72395799E-07
  -11.8750000       6.99043198E-07
  -11.8699999       7.23059827E-07
  -11.8649998       7.44068757E-07
  -11.8599997       7.61685328E-07
  -11.8549995       7.75518174E-07
  -11.8500004       7.85173711E-07
  -11.8450003       7.90258639E-07
  -11.8400002       7.90381932E-07
  -11.8350000       7.85157511E-07
  -11.8299999       7.74207081E-07
  -11.8249998       7.57162525E-07
  -11.8199997       7.33672550E-07
  -11.8149996       7.03400019E-07
  -11.8100004       6.66027915E-07
  -11.8050003       6.21266054E-07
  -11.8000002       5.68851931E-07
  -11.7950001       5.08550102E-07
  -11.7900000       4.40160335E-07
  -11.7849998       3.63522076E-07
  -11.7799997       2.78515046E-07
  -11.7749996       1.85059235E-07
  -11.7700005       8.31300966E-08
  -11.7650003      -2.72544227E-08
  -11.7600002      -1.46016490E-07
  -11.7550001      -2.73027410E-07
  -11.7500000      -4.08096412E-07
  -11.7449999      -5.50971038E-07
  -11.7399998      -7.01336148E-07
  -11.7349997      -8.58809074E-07
  -11.7299995      -1.02294359E-06
  -11.7250004      -1.19322249E-06
  -11.7200003      -1.36905612E-06