  -16.0000000       0.00000000    
  -15.9949999       0.00000000    
  -15.9899998       0.00000000    
  -15.9849997       0.00000000    
  -15.9799995       0.00000000    
  -15.9750004       0.00000000    
  -15.9700003       0.00000000    
  -15.9650002       0.00000000    
  -15.9600000       0.00000000    
  -15.9549999       0.00000000    
  -15.9499998       0.00000000    
  -15.9449997       0.00000000    
  -15.9399996       0.00000000    
  -15.9350004       0.00000000    
  -15.9300003       0.00000000    
  -15.9250002       0.00000000    
  -15.9200001       0.00000000    
  -15.9150000       0.00000000    
  -15.9099998       0.00000000    
  -15.9049997       0.00000000    
  -15.8999996       0.00000000    
  -15.8950005       0.00000000    
  -15.8900003       0.00000000    
  -15.8850002       0.00000000    
  -15.8800001       0.00000000    
  -15.8750000       0.00000000    
  -15.8699999       0.00000000    
  -15.8649998       0.00000000    
  -15.8599997       0.00000000    
  -15.8549995       0.00000000    
  -15.8500004       0.00000000    
  -15.8450003       0.00000000    
  -15.8400002       0.00000000    
  -15.8350000       0.00000000    
  -15.8299999       0.00000000    
  -15.8249998       0.00000000    
  -15.8199997       0.00000000    
  -15.8149996       0.00000000    
  -15.8100004       0.00000000    
  -15.8050003       0.00000000    
  -15.8000002       0.00000000    
  -15.7950001       0.00000000    
  -15.7900000       0.00000000    
  -15.7849998       0.00000000    
  -15.7799997       0.00000000    
  -15.7749996       0.00000000    
  -15.7700005       0.00000000    
  -15.7650003       0.00000000    
  -15.7600002       0.00000000    
  -15.7550001       0.00000000    
  -15.7500000       0.00000000    
  -15.7449999       0.00000000    
  -15.7399998       0.00000000    
  -15.7349997       0.00000000    
  -15.7299995       0.00000000    
  -15.7250004       0.00000000    
  -15.7200003       0.00000000    
  -15.7150002       0.00000000    
  -15.7100000       0.00000000    
  -15.7049999       0.00000000    
  -15.6999998       0.00000000    
  -15.6949997       0.00000000    
  -15.6899996       0.00000000    
  -15.6850004       0.00000000    
  -15.6800003       0.00000000    
  -15.6750002       0.00000000    
  -15.6700001       0.00000000    
  -15.6650000       0.00000000    
  -15.6599998       0.00000000    
  -15.6549997       0.00000000    
  -15.6499996       0.00000000    
  -15.6450005       0.00000000    
  -15.6400003       0.00000000    
  -15.6350002       0.00000000    
  -15.6300001       0.00000000    
  -15.6250000       0.00000000    
  -15.6199999       0.00000000    
  -15.6149998       0.00000000    
  -15.6099997       0.00000000    
  -15.6049995       0.00000000    
  -15.6000004       0.00000000    
  -15.5950003       0.00000000    
  -15.5900002       0.00000000    
  -15.5850000       0.00000000    
  -15.5799999       0.00000000    
  -15.5749998       0.00000000    
  -15.5699997       0.00000000    
  -15.5649996       0.00000000    
  -15.5600004       0.00000000    
  -15.5550003       0.00000000    
  -15.5500002       0.00000000    
  -15.5450001       0.00000000    
  -15.5400000       0.00000000    
  -15.5349998       0.00000000    
  -15.5299997       0.00000000    
  -15.5249996       0.00000000    
  -15.5200005       0.00000000    
  -15.5150003       0.00000000    
  -15.5100002       0.00000000    
  -15.5050001       0.00000000    
  -15.5000000       0.00000000    
  -15.4949999       0.00000000    
  -15.4899998       0.00000000    
  -15.4849997       0.00000000    
  -15.4799995       0.00000000    
  -15.4750004       0.00000000    
  -15.4700003       0.00000000    
  -15.4650002       0.00000000    
  -15.4600000       0.00000000    
  -15.4549999       0.00000000    
  -15.4499998       0.00000000    
  -15.4449997       0.00000000    
  -15.4399996       0.00000000    
  -15.4350004       0.00000000    
  -15.4300003       0.00000000    
  -15.4250002       0.00000000    
  -15.4200001       0.00000000    
  -15.4150000       0.00000000    
  -15.4099998       0.00000000    
  -15.4049997       0.00000000    
  -15.3999996       0.00000000    
  -15.3950005       0.00000000    
  -15.3900003       0.00000000    
  -15.3850002       0.00000000    
  -15.3800001       0.00000000    
  -15.3750000       0.00000000    
  -15.3699999       0.00000000    
  -15.3649998       0.00000000    
  -15.3599997      -0.00000000    
  -15.3549995      -0.00000000    
  -15.3500004      -0.00000000    
  -15.3450003      -0.00000000    
  -15.3400002      -0.00000000    
  -15.3350000      -0.00000000    
  -15.3299999       1.40129846E-45
  -15.3249998       0.00000000    
  -15.3199997       1.40129846E-45
  -15.3149996       1.40129846E-45
  -15.3100004      -0.00000000    
  -15.3050003      -2.80259693E-45
  -15.3000002      -5.60519386E-45
  -15.2950001      -9.80908925E-45
  -15.2900000      -9.80908925E-45
  -15.2849998      -5.60519386E-45
  -15.2799997       9.80908925E-45
  -15.2749996       3.36311631E-44
  -15.2700005       6.58610278E-44
  -15.2650003       8.96831017E-44
  -15.2600002       8.40779079E-44
  -15.2550001       1.96181785E-44
  -15.2500000      -1.21912966E-43
  -15.2449999      -3.40515527E-43
  -15.2399998      -5.81538863E-43
  -15.2349997      -7.23070008E-43
  -15.2299995      -5.84341460E-43
  -15.2250004       4.34402524E-44
  -15.2200003       1.27518160E-42
  -15.2150002       2.99877871E-42
  -15.2100000       4.70275765E-42
  -15.2049999       5.39079519E-42
  -15.1999998       3.67980977E-42
  -15.1949997      -1.76563607E-42
  -15.1899996      -1.14486085E-41
  -15.1850004      -2.39818219E-41
  -15.1800003      -3.50815071E-41
  -15.1750002      -3.73067690E-41
  -15.1700001      -2.12745133E-41
  -15.1650000       2.10643185E-41
  -15.1599998       9.08167522E-41
  -15.1549997       1.75299635E-40
  -15.1499996       2.42667059E-40
  -15.1450005       2.41995837E-40
  -15.1400003       1.13597661E-40
  -15.1350002      -1.87206468E-40
  -15.1300001      -6.53838857E-40
  -15.1250000      -1.18815116E-39
  -15.1199999      -1.57356989E-39
  -15.1149998      -1.48662773E-39
  -15.1099997      -5.72909667E-40
  -15.1049995       1.39883078E-39
  -15.1000004       4.31881868E-39
  -15.0950003       7.51288936E-39
  -15.0900002       9.62112188E-39
  -15.0850000       8.72021588E-39
  -15.0799999       2.82154949E-39
  -15.0749998      -9.20581345E-39
  -15.0699997      -2.64084729E-38
  -15.0649996      -4.45810831E-38
  -15.0600004      -5.57691846E-38
  -15.0550003      -4.91930030E-38
  -15.0500002      -1.42255672E-38
  -15.0450001       5.44507925E-38
  -15.0400000       1.50328497E-37
  -15.0349998       2.49266087E-37
  -15.0299997       3.07632971E-37
  -15.0249996       2.68163797E-37
  -15.0200005       7.64015500E-38
  -15.0150003      -2.92234248E-37
  -15.0100002      -7.99587630E-37
  -15.0050001      -1.31702110E-36
  -15.0000000      -1.61902141E-36
  -14.9949999      -1.41602201E-36
  -14.9899998      -4.38979187E-37
  -14.9849997       1.42639933E-36
  -14.9799995       3.98151502E-36
  -14.9750004       6.58666205E-36
  -14.9700003       8.13962611E-36
  -14.9650002       7.24239690E-36
  -14.9600000       2.60887264E-36
  -14.9549999      -6.30381446E-36
  -14.9499998      -1.85661986E-35
  -14.9449997      -3.11997151E-35
  -14.9399996      -3.90986755E-35
  -14.9350004      -3.58065997E-35
  -14.9300003      -1.53654603E-35
  -14.9250002       2.48599348E-35
  -14.9200001       8.09533285E-35
  -14.9150000       1.39912044E-34
  -14.9099998       1.79295444E-34
  -14.9049997       1.70557526E-34
  -14.8999996       8.69577571E-35
  -14.8950005      -8.43994096E-35
  -14.8900003      -3.28812884E-34
  -14.8850002      -5.93089108E-34
  -14.8800001      -7.83631646E-34
  -14.8750000      -7.79642128E-34
  -14.8699999      -4.65068039E-34
  -14.8649998       2.22461778E-34
  -14.8599997       1.23528688E-33
  -14.8549995       2.36999130E-33
  -14.8500004       3.25647310E-33
  -14.8450003       3.40600553E-33
  -14.8400002       2.33299556E-33
  -14.8350000      -2.55391048E-34
  -14.8299999      -4.23725343E-33
  -14.8249998      -8.88932265E-33
  -14.8199997      -1.28269591E-32
  -14.8149996      -1.41633110E-32
  -14.8100004      -1.09464165E-32
  -14.8050003      -1.85896405E-33
  -14.8000002       1.29424544E-32
  -14.7950001       3.10898596E-32
  -14.7900000       4.76984604E-32
  -14.7849998       5.58349061E-32
  -14.7799997       4.79900506E-32
  -14.7749996       1.85333156E-32
  -14.7700005      -3.32489635E-32
  -14.7650003      -1.00346393E-31
  -14.7600002      -1.66591718E-31
  -14.7550001      -2.07818467E-31
  -14.7500000      -1.96488994E-31
  -14.7449999      -1.09852416E-31
  -14.7399998       5.95518545E-32
  -14.7349997       2.93651443E-31
  -14.7299995       5.42636263E-31
  -14.7250004       7.26949028E-31
  -14.7200003       7.50708920E-31
  -14.7150002       5.27301187E-31
  -14.7100000       1.39299695E-32
  -14.7049999      -7.52714924E-31
  -14.6999998      -1.63155588E-30
  -14.6949997      -2.37661316E-30
  -14.6899996      -2.67227971E-30
  -14.6850004      -2.20862956E-30
  -14.6800003      -7.89149983E-31
  -14.6750002       1.55121864E-30
  -14.6700001       4.45319691E-30
  -14.6650000       7.20801475E-30
  -14.6599998       8.83828736E-30
  -14.6549997       8.30415251E-30
  -14.6499996       4.82011628E-30
  -14.6450005      -1.77517778E-30
  -14.6400003      -1.06962380E-29
  -14.6350002      -2.00616133E-29
  -14.6300001      -2.70404898E-29
  -14.6250000      -2.83703685E-29
  -14.6199999      -2.12307400E-29
  -14.6149998      -4.33484964E-30
  -14.6099997       2.10250086E-29
  -14.6049995       5.03348201E-29
  -14.6000004       7.59869581E-29
  -14.5950003       8.84449744E-29
  -14.5900002       7.84831619E-29
  -14.5850000       4.02104621E-29
  -14.5799999      -2.57739772E-29
  -14.5749998      -1.10037345E-28
  -14.5699997      -1.93828719E-28
  -14.5649996      -2.51310385E-28
  -14.5600004      -2.54829709E-28
  -14.5550003      -1.82728201E-28
  -14.5500002      -2.82084489E-29
  -14.5450001       1.93085864E-28
  -14.5400000       4.39572999E-28
  -14.5349998       6.46861224E-28
  -14.5299997       7.38910564E-28
  -14.5249996       6.46685386E-28
  -14.5200005       3.31277717E-28
  -14.5150003      -1.93914291E-28
  -14.5100002      -8.48942119E-28
  -14.5050001      -1.48796423E-27
  -14.5000000      -1.91965469E-27
  -14.4949999      -1.94791655E-27
  -14.4899998      -1.42758045E-27
  -14.4849997      -3.23600455E-28
  -14.4799995       1.24252526E-27
  -14.4750004       2.97681882E-27
  -14.4700003       4.44175721E-27
  -14.4650002       5.13586352E-27
  -14.4600000       4.61674643E-27
  -14.4549999       2.64555193E-27
  -14.4499998      -6.82172379E-28
  -14.4449997      -4.86084958E-27
  -14.4399996      -8.99271079E-27
  -14.4350004      -1.19217698E-26
  -14.4300003      -1.24801755E-26
  -14.4250002      -9.80997762E-27
  -14.4200001      -3.69130204E-27
  -14.4150000       5.21331980E-27
  -14.4099998       1.52905618E-26
  -14.4049997       2.41519719E-26
  -14.3999996       2.90720450E-26
  -14.3950005       2.76387002E-26
  -14.3900003       1.84936760E-26
  -14.3850002       1.98286814E-27
  -14.3800001      -1.94857410E-26
  -14.3750000      -4.15503793E-26
  -14.3699999      -5.85600539E-26
  -14.3649998      -6.47555826E-26
  -14.3599997      -5.57760159E-26
  -14.3549995      -3.01635050E-26
  -14.3500004       9.53966488E-27
  -14.3450003       5.64948469E-26
  -14.3400002       1.00341320E-25
  -14.3350000       1.29085217E-25
  -14.3299999       1.31856732E-25
  -14.3249998       1.02000430E-25
  -14.3199997       3.97536623E-26
  -14.3149996      -4.62873072E-26
  -14.3100004      -1.39565986E-25
  -14.3050003      -2.18125414E-25
  -14.3000002      -2.59116106E-25
  -14.2950001      -2.44476623E-25
  -14.2900000      -1.66541529E-25
  -14.2849998      -3.20958844E-26
  -14.2799997       1.36492091E-25
  -14.2749996       3.03932280E-25
  -14.2700005       4.28512547E-25
  -14.2650003       4.71483082E-25
  -14.2600002       4.07433863E-25
  -14.2550001       2.33159476E-25
  -14.2500000      -2.75602670E-26
  -14.2449999      -3.25238427E-25
  -14.2399998      -5.92762558E-25
  -14.2349997      -7.59379448E-25
  -14.2299995      -7.67986364E-25
  -14.2250004      -5.91823025E-25
  -14.2200003      -2.46145113E-25
  -14.2150002       2.08970240E-25
  -14.2100000       6.76864202E-25
  -14.2049999       1.04323295E-24
  -14.1999998       1.20256619E-24
  -14.1949997       1.08641342E-24
  -14.1899996       6.86427169E-25
  -14.1850004       6.53770447E-26
  -14.1800003      -6.48590935E-25
  -14.1750002      -1.28552458E-24
  -14.1700001      -1.67163550E-24
  -14.1650000      -1.67393937E-24
  -14.1599998      -1.24089280E-24
  -14.1549997      -4.27776096E-25
  -14.1499996       6.02147784E-25
  -14.1450005       1.60466999E-24
  -14.1400003       2.30704048E-24
  -14.1350002       2.47584035E-24
  -14.1300001       1.98484030E-24
  -14.1250000       8.65039822E-25
  -14.1199999      -6.78975687E-25
  -14.1149998      -2.29580947E-24
  -14.1099997      -3.55678095E-24
  -14.1049995      -4.05666830E-24
  -14.1000004      -3.52423373E-24
  -14.0950003      -1.91537913E-24
  -14.0900002       5.37841766E-25
  -14.0850000       3.34176507E-24
  -14.0799999       5.82522226E-24
  -14.0749998       7.28232133E-24
  -14.0699997       7.14650867E-24
  -14.0649996       5.15658139E-24
  -14.0600004       1.47168441E-24
  -14.0550003      -3.30100364E-24
  -14.0500002      -8.18549133E-24
  -14.0450001      -1.20187913E-23
  -14.0400000      -1.37050367E-23
  -14.0349998      -1.24896584E-23
  -14.0299997      -8.18943327E-24
  -14.0249996      -1.31679108E-24
  -14.0200005       6.94547299E-24
  -14.0150003       1.49320546E-23
  -14.0100002       2.08205873E-23
  -14.0050001       2.30336703E-23
  -14.0000000       2.06306359E-23
  -13.9949999       1.35948281E-23
  -13.9899998       2.93667001E-24
  -13.9849997      -9.43161073E-24
  -13.9799995      -2.10435336E-23
  -13.9750004      -2.93879780E-23
  -13.9700003      -3.24755323E-23
  -13.9650002      -2.93316691E-23
  -13.9600000      -2.02920300E-23
  -13.9549999      -7.01106283E-24
  -13.9499998       7.84317303E-24
  -13.9449997       2.11604712E-23
  -13.9399996       3.01080692E-23
  -13.9350004       3.28314158E-23
  -13.9300003       2.89579289E-23
  -13.9250002       1.97568652E-23
  -13.9200001       7.88171835E-24
  -13.9150000      -3.27880687E-24
  -13.9099998      -1.05101390E-23
  -13.9049997      -1.17264339E-23
  -13.8999996      -6.71612667E-24
  -13.8950005       2.55389991E-24
  -13.8900003       1.22229517E-23
  -13.8850002       1.74220846E-23
  -13.8800001       1.36146948E-23
  -13.8750000      -1.89780567E-24
  -13.8699999      -2.86868448E-23
  -13.8649998      -6.25133519E-23
  -13.8599997      -9.55500198E-23
  -13.8549995      -1.17628350E-22
  -13.8500004      -1.18390490E-22
  -13.8450003      -8.99760738E-23
  -13.8400002      -2.96755557E-23
  -13.8350000       5.81120634E-23
  -13.8299999       1.61227758E-22
  -13.8249998       2.60812258E-22
  -13.8199997       3.34147318E-22
  -13.8149996       3.58945899E-22
  -13.8100004       3.18368711E-22
  -13.8050003       2.05765178E-22
  -13.8000002       2.80401682E-23
  -13.7950001      -1.93312195E-22
  -13.7900000      -4.24090310E-22
  -13.7849998      -6.22216273E-22
  -13.7799997      -7.44910220E-22
  -13.7749996      -7.57026972E-22
  -13.7700005      -6.38976071E-22
  -13.7650003      -3.92546224E-22
  -13.7600002      -4.32109668E-23
  -13.7550001       3.61928803E-22
  -13.7500000       7.60588938E-22
  -13.7449999       1.08524814E-21
  -13.7399998       1.27491716E-21
  -13.7349997       1.28654747E-21
  -13.7299995       1.10380992E-21
  -13.7250004       7.41373448E-22
  -13.7200003       2.43626955E-22
  -13.7150002      -3.22104630E-22
  -13.7100000      -8.76658675E-22
  -13.7049999      -1.34231188E-21
  -13.6999998      -1.65557473E-21
  -13.6949997      -1.77691219E-21
  -13.6899996      -1.69543773E-21
  -13.6850004      -1.42775110E-21
  -13.6800003      -1.01147245E-21
  -13.6750002      -4.95293375E-22
  -13.6700001       7.17409734E-23
  -13.6650000       6.48762844E-22
  -13.6599998       1.20701171E-21
  -13.6549997       1.72795910E-21
  -13.6499996       2.19611263E-21
  -13.6450005       2.58871100E-21
  -13.6400003       2.86586619E-21
  -13.6350002       2.96522480E-21
  -13.6300001       2.80472146E-21
  -13.6250000       2.29534138E-21
  -13.6199999       1.36337762E-21
  -13.6149998      -2.12097277E-23
  -13.6099997      -1.81622347E-21
  -13.6049995      -3.88593256E-21
  -13.6000004      -5.99455326E-21
  -13.5950003      -7.82027456E-21
  -13.5900002      -8.99209061E-21
  -13.5850000      -9.14705611E-21
  -13.5799999      -8.00058782E-21
  -13.5749998      -5.41815337E-21
  -13.5699997      -1.47420266E-21
  -13.5649996       3.51577771E-21
  -13.5600004       9.00114436E-21
  -13.5550003       1.42452780E-20
  -13.5500002       1.84159081E-20
  -13.5450001       2.07062145E-20
  -13.5400000       2.04693097E-20
  -13.5349998       1.73440565E-20
  -13.5299997       1.13495562E-20
  -13.5249996       2.92872545E-21
  -13.5200005      -7.07101129E-21
  -13.5150003      -1.74819986E-20
  -13.5100002      -2.69565398E-20
  -13.5050001      -3.41437991E-20
  -13.5000000      -3.78773854E-20
  -13.4949999      -3.73450365E-20
  -13.4899998      -3.22142678E-20
  -13.4849997      -2.26953722E-20
  -13.4799995      -9.53353363E-21
  -13.4750004       6.06640246E-21
  -13.4700003       2.25686892E-20
  -13.4650002       3.82678567E-20
  -13.4600000       5.14587540E-20
  -13.4549999       6.05947927E-20
  -13.4499998       6.44197986E-20
  -13.4449997       6.20678139E-20
  -13.4399996       5.31332584E-20
  -13.4350004       3.77191904E-20
  -13.4300003       1.64718236E-20
  -13.4250002      -9.39486698E-21
  -13.4200001      -3.80886751E-20
  -13.4150000      -6.72578553E-20
  -13.4099998      -9.40614733E-20
  -13.4049997      -1.15316926E-19
  -13.3999996      -1.27744901E-19
  -13.3950005      -1.28317129E-19
  -13.3900003      -1.14690156E-19
  -13.3850002      -8.56821854E-20
  -13.3800001      -4.17229481E-20
  -13.3750000       1.48091680E-20
  -13.3699999       7.94540389E-20
  -13.3649998       1.45817505E-19
  -13.3599997       2.06044125E-19
  -13.3549995       2.51610506E-19
  -13.3500004       2.74377696E-19
  -13.3450003       2.67783723E-19
  -13.3400002       2.28012672E-19
  -13.3350000       1.54954180E-19
  -13.3299999       5.27732604E-20
  -13.3249998      -7.00489824E-20
  -13.3199997      -2.01278324E-19
  -13.3149996      -3.26079147E-19
  -13.3100004      -4.28648509E-19
  -13.3050003      -4.94142757E-19
  -13.3000002      -5.10647750E-19
  -13.2950001      -4.70923229E-19
  -13.2900000      -3.73670053E-19
  -13.2849998      -2.24131256E-19
  -13.2799997      -3.39232715E-20
  -13.2749996       1.79897372E-19
  -13.2700005       3.96425326E-19
  -13.2650003       5.92964784E-19
  -13.2600002       7.47314670E-19
  -13.2550001       8.40025642E-19
  -13.2500000       8.56402991E-19
  -13.2449999       7.88076063E-19
  -13.2399998       6.34031716E-19
  -13.2349997       4.01066042E-19
  -13.2299995       1.03666042E-19
  -13.2250004      -2.36641122E-19
  -13.2200003      -5.92432907E-19
  -13.2150002      -9.32001560E-19
  -13.2100000      -1.22141520E-18
  -13.2049999      -1.42702273E-18
  -13.1999998      -1.51835278E-18
  -13.1949997      -1.47131515E-18
  -13.1899996      -1.27149809E-18
  -13.1850004      -9.17256859E-19
  -13.1800003      -4.22176932E-19
  -13.1750002       1.83567301E-19
  -13.1700001       8.53432947E-19
  -13.1650000       1.52668114E-18
  -13.1599998       2.13269165E-18
  -13.1549997       2.59731631E-18
  -13.1499996       2.85085172E-18
  -13.1450005       2.83685437E-18
  -13.1400003       2.52077501E-18
  -13.1350002       1.89721153E-18
  -13.1300001       9.94595351E-19
  -13.1250000      -1.23681712E-19
  -13.1199999      -1.36231425E-18
  -13.1149998      -2.60142306E-18
  -13.1099997      -3.70768944E-18
  -13.1049995      -4.54825632E-18
  -13.1000004      -5.00586711E-18
  -13.0950003      -4.99347470E-18
  -13.0900002      -4.46647380E-18
  -13.0850000      -3.43095224E-18
  -13.0799999      -1.94678095E-18
  -13.0749998      -1.24979404E-19
  -13.0699997       1.88054136E-18
  -13.0649996       3.88606060E-18
  -13.0600004       5.69466206E-18
  -13.0550003       7.11469874E-18
  -13.0500002       7.97829763E-18
  -13.0450001       8.15818542E-18
  -13.0400000       7.58136426E-18
  -13.0349998       6.23852711E-18
  -13.0299997       4.18854939E-18
  -13.0249996       1.55773040E-18
  -13.0200005      -1.46621145E-18
  -13.0150003      -4.64512331E-18
  -13.0100002      -7.70597571E-18
  -13.0050001      -1.03603569E-17
  -13.0000000      -1.23271104E-17
  -12.9949999      -1.33569717E-17
  -12.9899998      -1.32577249E-17
  -12.9849997      -1.19180017E-17
  -12.9799995      -9.32735145E-18
  -12.9750004      -5.59010519E-18
  -12.9700003      -9.30455973E-19
  -12.9650002       4.31341147E-18
  -12.9600000       9.70750629E-18
  -12.9549999       1.47527199E-17
  -12.9499998       1.89265856E-17
  -12.9449997       2.17333219E-17
  -12.9399996       2.27574708E-17
  -12.9350004       2.17156020E-17
  -12.9300003       1.84998332E-17
  -12.9250002       1.32071793E-17
  -12.9200001       6.14994641E-18
  -12.9150000      -2.15602062E-18
  -12.9099998      -1.10258105E-17
  -12.9049997      -1.96605479E-17
  -12.8999996      -2.72185402E-17
  -12.8950005      -3.28956263E-17
  -12.8900003      -3.60065699E-17
  -12.8850002      -3.60590892E-17
  -12.8800001      -3.28123491E-17
  -12.8750000      -2.63138908E-17
  -12.8699999      -1.69107349E-17
  -12.8649998      -5.23339637E-18
  -12.8599997       7.84607943E-18
  -12.8549995       2.12782353E-17
  -12.8500004       3.39171050E-17
  -12.8450003       4.46114320E-17
  -12.8400002       5.22990402E-17
  -12.8350000       5.60976951E-17
  -12.8299999       5.53859128E-17
  -12.8249998       4.98684427E-17
  -12.8199997       3.96215311E-17
  -12.8149996       2.51140835E-17
  -12.8100004       7.20188771E-18
  -12.8050003      -1.29074181E-17
  -12.8000002      -3.37191574E-17
  -12.7950001      -5.35452341E-17
  -12.7900000      -7.06233704E-17
  -12.7849998      -8.32559867E-17
  -12.7799997      -8.99596768E-17
  -12.7749996      -8.96138822E-17
  -12.7700005      -8.15948559E-17
  -12.7650003      -6.58803565E-17
  -12.7600002      -4.31111745E-17
  -12.7550001      -1.45978982E-17
  -12.7500000       1.77339417E-17
  -12.7449999       5.14615099E-17
  -12.7399998       8.38394601E-17
  -12.7349997       1.12019459E-16
  -12.7299995       1.33295643E-16
  -12.7250004       1.45353474E-16
  -12.7200003       1.46497617E-16
  -12.7150002       1.35835087E-16
  -12.7100000       1.13394815E-16
  -12.7049999       8.01695046E-17
  -12.6999998       3.80751600E-17
  -12.6949997      -1.01692865E-17
  -12.6899996      -6.12315949E-17
  -12.6850004      -1.11407901E-16
  -12.6800003      -1.56895675E-16
  -12.6750002      -1.94074955E-16
  -12.6700001      -2.19776079E-16
  -12.6650000      -2.31515069E-16
  -12.6599998      -2.27680656E-16
  -12.6549997      -2.07663388E-16
  -12.6499996      -1.71919855E-16
  -12.6450005      -1.21970918E-16
  -12.6400003      -6.03335149E-17
  -12.6350002       9.60872769E-18
  -12.6300001       8.37919204E-17
  -12.6250000       1.57706087E-16
  -12.6199999       2.26666837E-16
  -12.6149998       2.86110498E-16
  -12.6099997       3.31894508E-16
  -12.6049995       3.60582984E-16
  -12.6000004       3.69693936E-16
  -12.5950003       3.57884867E-16
  -12.5900002       3.25056279E-16
  -12.5850000       2.72356747E-16
  -12.5799999       2.02084062E-16
  -12.5749998       1.17485574E-16
  -12.5699997       2.24745502E-17
  -12.5649996      -7.87091337E-17
  -12.5600004      -1.81857934E-16
  -12.5550003      -2.83132356E-16
  -12.5500002      -3.79330629E-16
  -12.5450001      -4.68056695E-16
  -12.5400000      -5.47761066E-16
  -12.5349998      -6.17645731E-16
  -12.5299997      -6.77439852E-16
  -12.5249996      -7.27073230E-16
  -12.5200005      -7.66290590E-16
  -12.5150003      -7.94255754E-16
  -12.5100002      -8.09206415E-16
  -12.5050001      -8.08212263E-16
  -12.5000000      -7.87086255E-16
  -12.4949999      -7.40480226E-16
  -12.4899998      -6.62183359E-16
  -12.4849997      -5.45621938E-16
  -12.4799995      -3.84536785E-16
  -12.4750004      -1.73803180E-16
  -12.4700003       8.96616006E-17
  -12.4650002       4.05968121E-16
  -12.4600000       7.71376017E-16
  -12.4549999       1.17754700E-15
  -12.4499998       1.61102003E-15
  -12.4449997       2.05299780E-15
  -12.4399996       2.47953522E-15
  -12.4350004       2.86222470E-15
  -12.4300003       3.16945774E-15
  -12.4250002       3.36834235E-15
  -12.4200001       3.42731786E-15
  -12.4150000       3.31951238E-15
  -12.4099998       3.02680215E-15
  -12.4049997       2.54456003E-15
  -12.3999996       1.88695944E-15
  -12.3950005       1.09270755E-15
  -12.3900003       2.31016590E-16
  -12.3850002      -5.92423155E-16
  -12.3800001      -1.22971068E-15
  -12.3750000      -1.48551770E-15
  -12.3699999      -1.11265581E-15
  -12.3649998       1.91318141E-16
  -12.3599997       2.78623462E-15
  -12.3549995       7.08995799E-15
  -12.3500004       1.35774257E-14
  -12.3450003       2.27779238E-14
  -12.3400002       3.52705163E-14
  -12.3350000       5.16776089E-14
  -12.3299999       7.26565143E-14
  -12.3249998       9.88892806E-14
  -12.3199997       1.31070420E-13
  -12.3149996       1.69892935E-13
  -12.3100004       2.16032487E-13
  -12.3050003       2.70129893E-13
  -12.3000002       3.32772330E-13
  -12.2950001       4.04472679E-13
  -12.2900000       4.85647655E-13
  -12.2849998       5.76595520E-13
  -12.2799997       6.77472293E-13
  -12.2749996       7.88267834E-13
  -12.2700005       9.08781459E-13
  -12.2650003       1.03859803E-12
  -12.2600002       1.17706365E-12
  -12.2550001       1.32326279E-12
  -12.2500000       1.47599608E-12
  -12.2449999       1.63376018E-12
  -12.2399998       1.79472778E-12
  -12.2349997       1.95673274E-12
  -12.2299995       2.11725429E-12
  -12.2250004       2.27340846E-12
  -12.2200003       2.42194134E-12
  -12.2150002       2.55922518E-12
  -12.2100000       2.68126276E-12
  -12.2049999       2.78369537E-12
  -12.1999998       2.86181755E-12
  -12.1949997       2.91059776E-12
  -12.1899996       2.92470757E-12
  -12.1850004       2.89855596E-12
  -12.1800003       2.82633248E-12
  -12.1750002       2.70205798E-12
  -12.1700001       2.51964291E-12
  -12.1650000       2.27295288E-12
  -12.1599998       1.95588012E-12
  -12.1549997       1.56242673E-12
  -12.1499996       1.08678767E-12
  -12.1450005       5.23445003E-13
  -12.1400003      -1.32735714E-13
  -12.1350002      -8.86400924E-13
  -12.1300001      -1.74160382E-12
  -12.1250000      -2.70169369E-12
  -12.1199999      -3.76920196E-12
  -12.1149998      -4.94573263E-12
  -12.1099997      -6.23184490E-12
  -12.1049995      -7.62693814E-12
  -12.1000004      -9.12914709E-12
  -12.0950003      -1.07352252E-11
  -12.0900002      -1.24404471E-11
  -12.0850000      -1.42385088E-11
  -12.0799999      -1.61214323E-11
  -12.0749998      -1.80794893E-11
  -12.0699997      -2.01011152E-11
  -12.0649996      -2.21728538E-11
  -12.0600004      -2.42793216E-11
  -12.0550003      -2.64031349E-11
  -12.0500002      -2.85249237E-11
  -12.0450001      -3.06232990E-11
  -12.0400000      -3.26748906E-11
  -12.0349998      -3.46543627E-11
  -12.0299997      -3.65344664E-11
  -12.0249996      -3.82861173E-11
  -12.0200005      -3.98785241E-11
  -12.0150003      -4.12792613E-11
  -12.0100002      -4.24544636E-11
  -12.0050001      -4.33689577E-11
  -12.0000000      -4.39865123E-11
  -11.9949999      -4.42700321E-11
  -11.9899998      -4.41818006E-11
  -11.9849997      -4.36837858E-11
  -11.9799995      -4.27379347E-11
  -11.9750004      -4.13064791E-11
  -11.9700003      -3.93523235E-11
  -11.9650002      -3.68393892E-11
  -11.9600000      -3.37330025E-11
  -11.9549999      -3.00003147E-11
  -11.9499998      -2.56107358E-11
  -11.9449997      -2.05363365E-11
  -11.9399996      -1.47523400E-11
  -11.9350004      -8.23754433E-12
  -11.9300003      -9.74812136E-13
  -11.9250002       7.04849243E-12
  -11.9200001       1.58400151E-11
  -11.9150000       2.54019791E-11
  -11.9099998       3.57307066E-11
  -11.9049997       4.68162314E-11
  -11.8999996       5.86417859E-11
  -11.8950005       7.11834897E-11
  -11.8900003       8.44099443E-11
  -11.8850002       9.82818410E-11
  -11.8800001       1.12751711E-10
  -11.8750000       1.27763605E-10
  -11.8699999       1.43252826E-10
  -11.8649998       1.59145766E-10
  -11.8599997       1.75359741E-10
  -11.8549995       1.91803046E-10
  -11.8500004       2.08374623E-10
  -11.8450003       2.24964408E-10
  -11.8400002       2.41453108E-10
  -11.8350000       2.57712712E-10
  -11.8299999       2.73606554E-10
  -11.8249998       2.88989638E-10
  -11.8199997       3.03708864E-10
  -11.8149996       3.17603971E-10
  -11.8100004       3.30507594E-10
  -11.8050003       3.42246315E-10
  -11.8000002       3.52641083E-10
  -11.7950001       3.61508240E-10
  -11.7900000       3.68660297E-10
  -11.7849998       3.73907044E-10
  -11.7799997       3.77056580E-10
  -11.7749996       3.77916282E-10
  -11.7700005       3.76294440E-10
  -11.7650003       3.72001124E-10
  -11.7600002       3.64849900E-10
  -11.7550001       3.54659052E-10
  -11.7500000       3.41253276E-10
  -11.7449999       3.24465066E-10
  -11.7399998       3.04136411E-10
  -11.7349997       2.80120566E-10
  -11.7299995       2.52283416E-10
  -11.7250004       2.20505544E-10
  -11.7200003       1.84683754E-10