  -16.0000000       0.00000000    
  -15.9949999       0.00000000    
  -15.9899998       0.00000000    
  -15.9849997       0.00000000    
  -15.9799995       0.00000000    
  -15.9750004       0.00000000    
  -15.9700003       0.00000000    
  -15.9650002       0.00000000    
  -15.9600000       0.00000000    
  -15.9549999       0.00000000    
  -15.9499998       0.00000000    
  -15.9449997       0.00000000    
  -15.9399996       0.00000000    
  -15.9350004       0.00000000    
  -15.9300003       0.00000000    
  -15.9250002       0.00000000    
  -15.9200001       0.00000000    
  -15.9150000       0.00000000    
  -15.9099998       0.00000000    
  -15.9049997       0.00000000    
  -15.8999996       0.00000000    
  -15.8950005       0.00000000    
  -15.8900003       0.00000000    
  -15.8850002       0.00000000    
  -15.8800001       0.00000000    
  -15.8750000       0.00000000    
  -15.8699999       0.00000000    
  -15.8649998       0.00000000    
  -15.8599997       0.00000000    
  -15.8549995       0.00000000    
  -15.8500004       0.00000000    
  -15.8450003       0.00000000    
  -15.8400002       0.00000000    
  -15.8350000       0.00000000    
  -15.8299999       0.00000000    
  -15.8249998       0.00000000    
  -15.8199997       0.00000000    
  -15.8149996       0.00000000    
  -15.8100004       0.00000000    
  -15.8050003       0.00000000    
  -15.8000002       0.00000000    
  -15.7950001       0.00000000    
  -15.7900000       0.00000000    
  -15.7849998       0.00000000    
  -15.7799997       0.00000000    
  -15.7749996       0.00000000    
  -15.7700005       0.00000000    
  -15.7650003       0.00000000    
  -15.7600002       0.00000000    
  -15.7550001       0.00000000    
  -15.7500000       0.00000000    
  -15.7449999       0.00000000    
  -15.7399998       0.00000000    
  -15.7349997       0.00000000    
  -15.7299995       0.00000000    
  -15.7250004       0.00000000    
  -15.7200003       0.00000000    
  -15.7150002       0.00000000    
  -15.7100000       0.00000000    
  -15.7049999       0.00000000    
  -15.6999998       0.00000000    
  -15.6949997       0.00000000    
  -15.6899996       0.00000000    
  -15.6850004       0.00000000    
  -15.6800003       0.00000000    
  -15.6750002       0.00000000    
  -15.6700001       0.00000000    
  -15.6650000       0.00000000    
  -15.6599998       0.00000000    
  -15.6549997       0.00000000    
  -15.6499996       0.00000000    
  -15.6450005       0.00000000    
  -15.6400003       0.00000000    
  -15.6350002       0.00000000    
  -15.6300001       0.00000000    
  -15.6250000       0.00000000    
  -15.6199999       0.00000000    
  -15.6149998       0.00000000    
  -15.6099997       0.00000000    
  -15.6049995       0.00000000    
  -15.6000004       0.00000000    
  -15.5950003       0.00000000    
  -15.5900002       0.00000000    
  -15.5850000       0.00000000    
  -15.5799999       0.00000000    
  -15.5749998       0.00000000    
  -15.5699997       0.00000000    
  -15.5649996       0.00000000    
  -15.5600004       0.00000000    
  -15.5550003       0.00000000    
  -15.5500002       0.00000000    
  -15.5450001       0.00000000    
  -15.5400000       0.00000000    
  -15.5349998       0.00000000    
  -15.5299997       0.00000000    
  -15.5249996       0.00000000    
  -15.5200005       0.00000000    
  -15.5150003       0.00000000    
  -15.5100002       0.00000000    
  -15.5050001       0.00000000    
  -15.5000000       0.00000000    
  -15.4949999       0.00000000    
  -15.4899998       0.00000000    
  -15.4849997       0.00000000    
  -15.4799995       0.00000000    
  -15.4750004       0.00000000    
  -15.4700003       0.00000000    
  -15.4650002       0.00000000    
  -15.4600000       0.00000000    
  -15.4549999       0.00000000    
  -15.4499998       0.00000000    
  -15.4449997       0.00000000    
  -15.4399996       0.00000000    
  -15.4350004       0.00000000    
  -15.4300003       0.00000000    
  -15.4250002       0.00000000    
  -15.4200001       0.00000000    
  -15.4150000       0.00000000    
  -15.4099998       0.00000000    
  -15.4049997       0.00000000    
  -15.3999996       0.00000000    
  -15.3950005       0.00000000    
  -15.3900003       0.00000000    
  -15.3850002       0.00000000    
  -15.3800001       0.00000000    
  -15.3750000       0.00000000    
  -15.3699999       0.00000000    
  -15.3649998       0.00000000    
  -15.3599997       0.00000000    
  -15.3549995       0.00000000    
  -15.3500004       0.00000000    
  -15.3450003       0.00000000    
  -15.3400002       0.00000000    
  -15.3350000       0.00000000    
  -15.3299999       0.00000000    
  -15.3249998       0.00000000    
  -15.3199997       0.00000000    
  -15.3149996       0.00000000    
  -15.3100004       0.00000000    
  -15.3050003       0.00000000    
  -15.3000002       0.00000000    
  -15.2950001       0.00000000    
  -15.2900000       0.00000000    
  -15.2849998       0.00000000    
  -15.2799997       0.00000000    
  -15.2749996       0.00000000    
  -15.2700005       0.00000000    
  -15.2650003       0.00000000    
  -15.2600002       0.00000000    
  -15.2550001       0.00000000    
  -15.2500000       0.00000000    
  -15.2449999      -0.00000000    
  -15.2399998       0.00000000    
  -15.2349997      -0.00000000    
  -15.2299995       0.00000000    
  -15.2250004      -0.00000000    
  -15.2200003      -0.00000000    
  -15.2150002      -0.00000000    
  -15.2100000      -1.40129846E-45
  -15.2049999       0.00000000    
  -15.1999998       0.00000000    
  -15.1949997       1.40129846E-45
  -15.1899996       1.40129846E-45
  -15.1850004       1.40129846E-45
  -15.1800003      -0.00000000    
  -15.1750002      -1.40129846E-45
  -15.1700001      -4.20389539E-45
  -15.1650000      -7.00649232E-45
  -15.1599998      -7.00649232E-45
  -15.1549997      -4.20389539E-45
  -15.1499996       4.20389539E-45
  -15.1450005       1.82168800E-44
  -15.1400003       3.36311631E-44
  -15.1350002       4.62428493E-44
  -15.1300001       4.34402524E-44
  -15.1250000       1.26116862E-44
  -15.1199999      -5.46506401E-44
  -15.1149998      -1.47136339E-43
  -15.1099997      -2.42424634E-43
  -15.1049995      -2.88667484E-43
  -15.1000004      -2.15799964E-43
  -15.0950003       3.36311631E-44
  -15.0900002       4.79244075E-43
  -15.0850000       1.04256606E-42
  -15.0799999       1.53021792E-42
  -15.0749998       1.62130232E-42
  -15.0699997       9.50080359E-43
  -15.0649996      -7.48293380E-43
  -15.0600004      -3.42197085E-42
  -15.0550003      -6.48240670E-42
  -15.0500002      -8.68945178E-42
  -15.0450001      -8.28447652E-42
  -15.0400000      -3.48643058E-42
  -15.0349998       6.64775991E-42
  -15.0299997       2.11371860E-41
  -15.0249996       3.61591056E-41
  -15.0200005       4.48471561E-41
  -15.0150003       3.84362156E-41
  -15.0100002       9.17009715E-42
  -15.0050001      -4.52619404E-41
  -15.0000000      -1.16869693E-40
  -14.9949999      -1.84019916E-40
  -14.9899998      -2.12275698E-40
  -14.9849997      -1.61925643E-40
  -14.9799995      -3.03661377E-42
  -14.9750004       2.64066288E-40
  -14.9700003       5.88916699E-40
  -14.9650002       8.61280075E-40
  -14.9600000       9.22975043E-40
  -14.9549999       6.09482155E-40
  -14.9499998      -1.78902374E-40
  -14.9449997      -1.39031369E-39
  -14.9399996      -2.74894682E-39
  -14.9350004      -3.73931170E-39
  -14.9300003      -3.68957682E-39
  -14.9250002      -1.97738067E-39
  -14.9200001       1.65993892E-39
  -14.9150000       6.78714287E-39
  -14.9099998       1.20407117E-38
  -14.9049997       1.51752202E-38
  -14.8999996       1.35324107E-38
  -14.8950005       4.97590995E-39
  -14.8900003      -1.08486537E-38
  -14.8850002      -3.12968409E-38
  -14.8800001      -5.01194631E-38
  -14.8750000      -5.80959230E-38
  -14.8699999      -4.53525848E-38
  -14.8649998      -5.32659751E-39
  -14.8599997       6.04164172E-38
  -14.8549995       1.38133680E-37
  -14.8500004       2.00847010E-37
  -14.8450003       2.12459201E-37
  -14.8400002       1.38222107E-37
  -14.8350000      -3.93735806E-38
  -14.8299999      -3.03081486E-37
  -14.8249998      -5.88418678E-37
  -14.8199997      -7.84453517E-37
  -14.8149996      -7.55018536E-37
  -14.8100004      -3.82747075E-37
  -14.8050003       3.70054271E-37
  -14.8000002       1.40020021E-36
  -14.7950001       2.42783151E-36
  -14.7900000       3.01523915E-36
  -14.7849998       2.66258726E-36
  -14.7799997       9.82771284E-37
  -14.7749996      -2.07410647E-36
  -14.7700005      -6.01270347E-36
  -14.7650003      -9.69576425E-36
  -14.7600002      -1.14587991E-35
  -14.7550001      -9.50286666E-36
  -14.7500000      -2.55453634E-36
  -14.7449999       9.33230518E-36
  -14.7399998       2.40809230E-35
  -14.7349997       3.73377873E-35
  -14.7299995       4.29931348E-35
  -14.7250004       3.46731746E-35
  -14.7200003       8.11720606E-36
  -14.7150002      -3.60386881E-35
  -14.7100000      -8.99530235E-35
  -14.7049999      -1.37885786E-34
  -14.6999998      -1.58206042E-34
  -14.6949997      -1.28684351E-34
  -14.6899996      -3.46828805E-35
  -14.6850004       1.21445062E-34
  -14.6800003       3.12713043E-34
  -14.6750002       4.85362949E-34
  -14.6700001       5.65707850E-34
  -14.6650000       4.77736195E-34
  -14.6599998       1.70090187E-34
  -14.6549997      -3.53085144E-34
  -14.6499996      -1.00695877E-33
  -14.6450005      -1.61836001E-33
  -14.6400003      -1.94660873E-33
  -14.6350002      -1.73846908E-33
  -14.6300001      -8.13056749E-34
  -14.6250000       8.40105517E-34
  -14.6199999       2.97896478E-33
  -14.6149998       5.07907342E-33
  -14.6099997       6.38985358E-33
  -14.6049995       6.09527984E-33
  -14.6000004       3.56853269E-33
  -14.5950003      -1.32720393E-33
  -14.5900002      -7.97625594E-33
  -14.5850000      -1.48933591E-32
  -14.5799999      -1.98541672E-32
  -14.5749998      -2.03333001E-32
  -14.5699997      -1.42297397E-32
  -14.5649996      -7.53232627E-34
  -14.5600004       1.87612337E-32
  -14.5550003       4.04137808E-32
  -14.5500002       5.79746173E-32
  -14.5450001       6.39872474E-32
  -14.5400000       5.17222628E-32
  -14.5349998       1.76737456E-32
  -14.5299997      -3.60075784E-32
  -14.5249996      -9.99656970E-32
  -14.5200005      -1.57823741E-31
  -14.5150003      -1.88707269E-31
  -14.5100002      -1.72186718E-31
  -14.5050001      -9.49634279E-32
  -14.5000000       4.21841811E-32
  -14.4949999       2.19314990E-31
  -14.4899998       3.96403026E-31
  -14.4849997       5.18397711E-31
  -14.4799995       5.26855440E-31
  -14.4750004       3.76862666E-31
  -14.4700003       5.58695949E-32
  -14.4650002      -4.00753907E-31
  -14.4600000      -9.03407187E-31
  -14.4549999      -1.31637707E-30
  -14.4499998      -1.48290578E-30
  -14.4449997      -1.26536484E-30
  -14.4399996      -5.93464639E-31
  -14.4350004       4.91419410E-31
  -14.4300003       1.81050543E-30
  -14.4250002       3.05438139E-30
  -14.4200001       3.83104969E-30
  -14.4150000       3.75439730E-30
  -14.4099998       2.55995925E-30
  -14.4049997       2.22460778E-31
  -14.3999996      -2.95893388E-30
  -14.3950005      -6.34301416E-30
  -14.3900003      -9.02296449E-30
  -14.3850002      -1.00039986E-29
  -14.3800001      -8.46188467E-30
  -14.3750000      -4.03247112E-30
  -14.3699999       2.94173837E-30
  -14.3649998       1.12917062E-29
  -14.3599997       1.91009429E-29
  -14.3549995       2.40199816E-29
  -14.3500004       2.37966655E-29
  -14.3450003       1.69353595E-29
  -14.3400002       3.33699449E-30
  -14.3350000      -1.52648335E-29
  -14.3299999      -3.52515747E-29
  -14.3249998      -5.15741229E-29
  -14.3199997      -5.87297952E-29
  -14.3149996      -5.21378005E-29
  -14.3100004      -2.96446389E-29
  -14.3050003       7.21735024E-30
  -14.3000002       5.26272575E-29
  -14.2950001       9.68694132E-29
  -14.2900000       1.27880063E-28
  -14.2849998       1.33836110E-28
  -14.2799997       1.06360902E-28
  -14.2749996       4.36504318E-29
  -14.2700005      -4.73318650E-29
  -14.2650003      -1.50412180E-28
  -14.2600002      -2.42070953E-28
  -14.2550001      -2.95700784E-28
  -14.2500000      -2.87730611E-28
  -14.2449999      -2.04472828E-28
  -14.2399998      -4.80902902E-29
  -14.2349997       1.60078518E-28
  -14.2299995       3.80314662E-28
  -14.2250004       5.60205932E-28
  -14.2200003       6.44895042E-28
  -14.2150002       5.90338213E-28
  -14.2100000       3.76872929E-28
  -14.2049999       1.97453545E-29
  -14.1999998      -4.26737398E-28
  -14.1949997      -8.73878772E-28
  -14.1899996      -1.21283878E-27
  -14.1850004      -1.33694523E-27
  -14.1800003      -1.16826910E-27
  -14.1750002      -6.82775917E-28
  -14.1700001       7.24367470E-29
  -14.1650000       9.75650591E-28
  -14.1599998       1.84440494E-27
  -14.1549997       2.46679867E-27
  -14.1499996       2.64606597E-27
  -14.1450005       2.25016083E-27
  -14.1400003       1.25547550E-27
  -14.1350002      -2.26954305E-28
  -14.1300001      -1.95213010E-27
  -14.1250000      -3.57335154E-27
  -14.1199999      -4.70395485E-27
  -14.1149998      -4.99907434E-27
  -14.1099997      -4.24170239E-27
  -14.1049995      -2.41354671E-27
  -14.1000004       2.68025411E-28
  -14.0950003       3.36092301E-27
  -14.0900002       6.26178527E-27
  -14.0850000       8.31517326E-27
  -14.0799999       8.94996208E-27
  -14.0749998       7.81604926E-27
  -14.0699997       4.89002087E-27
  -14.0649996       5.22686794E-28
  -14.0600004      -4.58929423E-27
  -14.0550003      -9.50978909E-27
  -14.0500002      -1.32321171E-26
  -14.0450001      -1.48795083E-26
  -14.0400000      -1.38957124E-26
  -14.0349998      -1.01840348E-26
  -14.0299997      -4.16052676E-27
  -14.0249996       3.29428776E-27
  -14.0200005       1.09792343E-26
  -14.0150003       1.75841672E-26
  -14.0100002       2.19244737E-26
  -14.0050001       2.31491156E-26
  -14.0000000       2.08778309E-26
  -13.9949999       1.52440745E-26
  -13.9899998       6.84180219E-27
  -13.9849997      -3.39703497E-27
  -13.9799995      -1.43525846E-26
  -13.9750004      -2.48472835E-26
  -13.9700003      -3.37227129E-26
  -13.9650002      -3.98548152E-26
  -13.9600000      -4.21318777E-26
  -13.9549999      -3.94484194E-26
  -13.9499998      -3.07820859E-26
  -13.9449997      -1.54046508E-26
  -13.9399996       6.75964356E-27
  -13.9350004       3.46768340E-26
  -13.9300003       6.57649486E-26
  -13.9250002       9.56475235E-26
  -13.9200001       1.18283382E-25
  -13.9150000       1.26625598E-25
  -13.9099998       1.13856270E-25
  -13.9049997       7.50943813E-26
  -13.8999996       9.30172240E-27
  -13.8950005      -7.90414407E-26
  -13.8900003      -1.79012877E-25
  -13.8850002      -2.73561776E-25
  -13.8800001      -3.41380395E-25
  -13.8750000      -3.60371506E-25
  -13.8699999      -3.12345630E-25
  -13.8649998      -1.88196944E-25
  -13.8599997       7.53293524E-27
  -13.8549995       2.53909649E-25
  -13.8500004       5.13801329E-25
  -13.8450003       7.37681385E-25
  -13.8400002       8.71095710E-25
  -13.8350000       8.64988645E-25
  -13.8299999       6.87266369E-25
  -13.8249998       3.33366357E-25
  -13.8199997      -1.66672023E-25
  -13.8149996      -7.46870677E-25
  -13.8100004      -1.31115595E-24
  -13.8050003      -1.74656644E-24
  -13.8000002      -1.94246960E-24
  -13.7950001      -1.81291793E-24
  -13.7900000      -1.31815886E-24
  -13.7849998      -4.80763390E-25
  -13.7799997       6.07707035E-25
  -13.7749996       1.79235706E-24
  -13.7700005       2.87368834E-24
  -13.7650003       3.63763564E-24
  -13.7600002       3.89280690E-24
  -13.7550001       3.50871762E-24
  -13.7500000       2.44804858E-24
  -13.7449999       7.86245240E-25
  -13.7399998      -1.28655266E-24
  -13.7349997      -3.48336324E-24
  -13.7299995      -5.45687471E-24
  -13.7250004      -6.84986857E-24
  -13.7200003      -7.35221914E-24
  -13.7150002      -6.75559180E-24
  -13.7100000      -4.99680590E-24
  -13.7049999      -2.18265881E-24
  -13.6999998       1.40837783E-24
  -13.6949997       5.34886269E-24
  -13.6899996       9.10712542E-24
  -13.6850004       1.21087427E-23
  -13.6800003       1.38081598E-23
  -13.6750002       1.37623332E-23
  -13.6700001       1.16993728E-23
  -13.6650000       7.57527113E-24
  -13.6599998       1.61315596E-24
  -13.6549997      -5.68086151E-24
  -13.6499996      -1.35295672E-23
  -13.6450005      -2.09301790E-23
  -13.6400003      -2.67367996E-23
  -13.6350002      -2.97815187E-23
  -13.6300001      -2.90311731E-23
  -13.6250000      -2.37683286E-23
  -13.6199999      -1.37784765E-23
  -13.6149998       4.87522991E-25
  -13.6099997       1.78088300E-23
  -13.6049995       3.61878518E-23
  -13.6000004       5.29725588E-23
  -13.5950003       6.51253271E-23
  -13.5900002       6.96331876E-23
  -13.5850000       6.40245380E-23
  -13.5799999       4.69246305E-23
  -13.5749998       1.85575110E-23
  -13.5699997      -1.89122791E-23
  -13.5649996      -6.13040849E-23
  -13.5600004      -1.02686933E-22
  -13.5550003      -1.36019663E-22
  -13.5500002      -1.54129486E-22
  -13.5450001      -1.50922811E-22
  -13.5400000      -1.22656637E-22
  -13.5349998      -6.90506485E-23
  -13.5299997       5.99318692E-24
  -13.5249996       9.42644795E-23
  -13.5200005       1.83846470E-22
  -13.5150003       2.60461575E-22
  -13.5100002       3.09456426E-22
  -13.5050001       3.18177971E-22
  -13.5000000       2.78394062E-22
  -13.4949999       1.88345855E-22
  -13.4899998       5.40341574E-23
  -13.4849997      -1.10591950E-22
  -13.4799995      -2.84712800E-22
  -13.4750004      -4.42976827E-22
  -13.4700003      -5.58858297E-22
  -13.4650002      -6.08622874E-22
  -13.4600000      -5.75327845E-22
  -13.4549999      -4.52233030E-22
  -13.4499998      -2.45035520E-22
  -13.4449997       2.75203214E-23
  -13.4399996       3.34904826E-22
  -13.4350004       6.37885449E-22
  -13.4300003       8.93153618E-22
  -13.4250002       1.05892619E-21
  -13.4200001       1.10084068E-21
  -13.4150000       9.97347982E-22
  -13.4099998       7.43874124E-22
  -13.4049997       3.55145003E-22
  -13.3999996      -1.34729491E-22
  -13.3950005      -6.74541051E-22
  -13.3900003      -1.20054906E-21
  -13.3850002      -1.64292206E-21
  -13.3800001      -1.93353185E-21
  -13.3750000      -2.01435160E-21
  -13.3699999      -1.84565825E-21
  -13.3649998      -1.41315538E-21
  -13.3599997      -7.33153795E-22
  -13.3549995       1.44971354E-22
  -13.3500004       1.13978350E-21
  -13.3450003       2.14265689E-21
  -13.3400002       3.02671101E-21
  -13.3350000       3.65952498E-21
  -13.3299999       3.91882914E-21
  -13.3249998       3.70984123E-21
  -13.3199997       2.98234335E-21
  -13.3149996       1.74516873E-21
  -13.3100004       7.56014820E-23
  -13.3050003      -1.87865097E-21
  -13.3000002      -3.90671466E-21
  -13.2950001      -5.75187026E-21
  -13.2900000      -7.13840874E-21
  -13.2849998      -7.80599277E-21
  -13.2799997      -7.54797301E-21
  -13.2749996      -6.24879013E-21
  -13.2700005      -3.91494446E-21
  -13.2650003      -6.93904872E-22
  -13.2600002       3.12371268E-21
  -13.2550001       7.12169711E-21
  -13.2500000       1.07959558E-20
  -13.2449999       1.36101487E-20
  -13.2399998       1.50637813E-20
  -13.2349997       1.47649801E-20
  -13.2299995       1.24984284E-20
  -13.2250004       8.27838803E-21
  -13.2200003       2.37765474E-21
  -13.2150002      -4.67425426E-21
  -13.2100000      -1.21273184E-20
  -13.2049999      -1.90803652E-20
  -13.1999998      -2.45785119E-20
  -13.1949997      -2.77286580E-20
  -13.1899996      -2.78204654E-20
  -13.1850004      -2.44378217E-20
  -13.1800003      -1.75459920E-20
  -13.1750002      -7.54124570E-21
  -13.1700001       4.74695729E-21
  -13.1650000       1.81058931E-20
  -13.1599998       3.10412902E-20
  -13.1549997       4.19236396E-20
  -13.1499996       4.91670469E-20
  -13.1450005       5.14230011E-20
  -13.1400003       4.77687530E-20
  -13.1350002       3.78680990E-20
  -13.1300001       2.20835381E-20
  -13.1250000       1.52141385E-21
  -13.1199999      -2.20035261E-20
  -13.1149998      -4.60888526E-20
  -13.1099997      -6.79491327E-20
  -13.1049995      -8.46909904E-20
  -13.1000004      -9.36372848E-20
  -13.0950003      -9.26700522E-20
  -13.0900002      -8.05550098E-20
  -13.0850000      -5.72074687E-20
  -13.0799999      -2.38602849E-20
  -13.0749998       1.68997701E-20
  -13.0699997       6.12511346E-20
  -13.0649996       1.04419855E-19
  -13.0600004       1.41115681E-19
  -13.0550003       1.66091392E-19
  -13.0500002       1.74776362E-19
  -13.0450001       1.63916954E-19
  -13.0400000       1.32148087E-19
  -13.0349998       8.04155911E-20
  -13.0299997       1.21776835E-20
  -13.0249996      -6.66705894E-20
  -13.0200005      -1.48178240E-19
  -13.0150003      -2.23019500E-19
  -13.0100002      -2.81431996E-19
  -13.0050001      -3.14331321E-19
  -13.0000000      -3.14489080E-19
  -12.9949999      -2.77636762E-19
  -12.9899998      -2.03356292E-19
  -12.9849997      -9.56175035E-20
  -12.9799995       3.71441350E-20
  -12.9750004       1.82473949E-19
  -12.9700003       3.24879477E-19
  -12.9650002       4.47292901E-19
  -12.9600000       5.32893946E-19
  -12.9549999       5.67120922E-19
  -12.9499998       5.39650305E-19
  -12.9449997       4.46109464E-19
  -12.9399996       2.89289721E-19
  -12.9350004       7.96650216E-20
  -12.9300003      -1.64926075E-19
  -12.9250002      -4.20482659E-19
  -12.9200001      -6.58892630E-19
  -12.9150000      -8.50683037E-19
  -12.9099998      -9.68234656E-19
  -12.9049997      -9.89146506E-19
  -12.8999996      -8.99380866E-19
  -12.8950005      -6.95818283E-19
  -12.8900003      -3.87868453E-19
  -12.8850002       2.14168612E-21
  -12.8800001       4.39976334E-19
  -12.8750000       8.81938211E-19
  -12.8699999       1.27864121E-18
  -12.8649998       1.57983587E-18
  -12.8599997       1.73988281E-18
  -12.8549995       1.72334892E-18
  -12.8500004       1.51012522E-18
  -12.8450003       1.09946417E-18
  -12.8400002       5.12381107E-19
  -12.8350000      -2.08039685E-19
  -12.8299999      -9.98691032E-19
  -12.8249998      -1.78090621E-18
  -12.8199997      -2.46712656E-18
  -12.8149996      -2.96931970E-18
  -12.8100004      -3.20844024E-18
  -12.8050003      -3.12404404E-18
  -12.8000002      -2.68303931E-18
  -12.7950001      -1.88654565E-18
  -12.7900000      -7.73901961E-19
  -12.7849998       5.76898662E-19
  -12.7799997       2.05282902E-18
  -12.7749996       3.51350425E-18
  -12.7700005       4.80260609E-18
  -12.7650003       5.76219185E-18
  -12.7600002       6.24872997E-18
  -12.7550001       6.14936200E-18
  -12.7500000       5.39673353E-18
  -12.7449999       3.98078478E-18
  -12.7399998       1.95597609E-18
  -12.7349997      -5.57105264E-19
  -12.7299995      -3.37642553E-18
  -12.7250004      -6.26950544E-18
  -12.7200003      -8.97014426E-18
  -12.7150002      -1.11997227E-17
  -12.7100000      -1.26913618E-17
  -12.7049999      -1.32149208E-17
  -12.6999998      -1.26006061E-17
  -12.6949997      -1.07590241E-17
  -12.6899996      -7.69572942E-18
  -12.6850004      -3.51877421E-18
  -12.6800003       1.56168587E-18
  -12.6750002       7.24199521E-18
  -12.6700001       1.31414118E-17
  -12.6650000       1.88252642E-17
  -12.6599998       2.38332340E-17
  -12.6549997       2.77107788E-17
  -12.6499996       3.00413834E-17
  -12.6450005       3.04774035E-17
  -12.6400003       2.87673300E-17
  -12.6350002       2.47776510E-17
  -12.6300001       1.85078552E-17
  -12.6250000       1.00980381E-17
  -12.6199999      -1.71468945E-19
  -12.6149998      -1.18878105E-17
  -12.6099997      -2.45196202E-17
  -12.6049995      -3.74364608E-17
  -12.6000004      -4.99318809E-17
  -12.5950003      -6.12484958E-17
  -12.5900002      -7.06041600E-17
  -12.5850000      -7.72176344E-17
  -12.5799999      -8.03339679E-17
  -12.5749998      -7.92489849E-17
  -12.5699997      -7.33338626E-17
  -12.5649996      -6.20603306E-17
  -12.5600004      -4.50274972E-17
  -12.5550003      -2.19908232E-17
  -12.5500002       7.10666929E-18
  -12.5450001       4.21018521E-17
  -12.5400000       8.25801339E-17
  -12.5349998       1.27848162E-16
  -12.5299997       1.76914941E-16
  -12.5249996       2.28487270E-16
  -12.5200005       2.80983698E-16
  -12.5150003       3.32572743E-16
  -12.5100002       3.81236480E-16
  -12.5050001       4.24861562E-16
  -12.5000000       4.61352853E-16
  -12.4949999       4.88762310E-16
  -12.4899998       5.05420272E-16
  -12.4849997       5.10052854E-16
  -12.4799995       5.01860245E-16
  -12.4750004       4.80537885E-16
  -12.4700003       4.46204039E-16
  -12.4650002       3.99216951E-16
  -12.4600000       3.39847988E-16
  -12.4549999       2.67798069E-16
  -12.4499998       1.81537187E-16
  -12.4449997       7.74690246E-17
  -12.4399996      -5.10762323E-17
  -12.4350004      -2.14999369E-16
  -12.4300003      -4.30714216E-16
  -12.4250002      -7.21493029E-16
  -12.4200001      -1.11883460E-15
  -12.4150000      -1.66377356E-15
  -12.4099998      -2.40804246E-15
  -12.4049997      -3.41502636E-15
  -12.3999996      -4.76039250E-15
  -12.3950005      -6.53230200E-15
  -12.3900003      -8.83113925E-15
  -12.3850002      -1.17686614E-14
  -12.3800001      -1.54664930E-14
  -12.3750000      -2.00539302E-14
  -12.3699999      -2.56650136E-14
  -12.3649998      -3.24348296E-14
  -12.3599997      -4.04950901E-14
  -12.3549995      -4.99690011E-14
  -12.3500004      -6.09654742E-14
  -12.3450003      -7.35727058E-14
  -12.3400002      -8.78513842E-14
  -12.3350000      -1.03827483E-13
  -12.3299999      -1.21484826E-13
  -12.3249998      -1.40757496E-13
  -12.3199997      -1.61522651E-13
  -12.3149996      -1.83593266E-13
  -12.3100004      -2.06711669E-13
  -12.3050003      -2.30543395E-13
  -12.3000002      -2.54672233E-13
  -12.2950001      -2.78596509E-13
  -12.2900000      -3.01725848E-13
  -12.2849998      -3.23380645E-13
  -12.2799997      -3.42792282E-13
  -12.2749996      -3.59105784E-13
  -12.2700005      -3.71384238E-13
  -12.2650003      -3.78615813E-13
  -12.2600002      -3.79723163E-13
  -12.2550001      -3.73574896E-13
  -12.2500000      -3.59000183E-13
  -12.2449999      -3.34806049E-13
  -12.2399998      -2.99796429E-13
  -12.2349997      -2.52794774E-13
  -12.2299995      -1.92668188E-13
  -12.2250004      -1.18354735E-13
  -12.2200003      -2.88919991E-14
  -12.2150002       7.65532318E-14
  -12.2100000       1.98652279E-13
  -12.2049999       3.37883042E-13
  -12.1999998       4.94496534E-13
  -12.1949997       6.68484961E-13
  -12.1899996       8.59549248E-13
  -12.1850004       1.06706853E-12
  -12.1800003       1.29007232E-12
  -12.1750002       1.52721444E-12
  -12.1700001       1.77675062E-12
  -12.1650000       2.03651787E-12
  -12.1599998       2.30392376E-12
  -12.1549997       2.57593599E-12
  -12.1499996       2.84907796E-12
  -12.1450005       3.11943678E-12
  -12.1400003       3.38266914E-12
  -12.1350002       3.63401952E-12
  -12.1300001       3.86834705E-12
  -12.1250000       4.08016156E-12
  -12.1199999       4.26365583E-12
  -12.1149998       4.41276659E-12
  -12.1099997       4.52122454E-12
  -12.1049995       4.58262378E-12
  -12.1000004       4.59049422E-12
  -12.0950003       4.53838529E-12
  -12.0900002       4.41995052E-12
  -12.0850000       4.22904767E-12
  -12.0799999       3.95982596E-12
  -12.0749998       3.60684204E-12
  -12.0699997       3.16516952E-12
  -12.0649996       2.63049044E-12
  -12.0600004       1.99922435E-12
  -12.0550003       1.26862767E-12
  -12.0500002       4.36906885E-13
  -12.0450001      -4.96678003E-13
  -12.0400000      -1.53172245E-12
  -12.0349998      -2.66656358E-12
  -12.0299997      -3.89821725E-12
  -12.0249996      -5.22228181E-12
  -12.0200005      -6.63288912E-12
  -12.0150003      -8.12263971E-12
  -12.0100002      -9.68256291E-12
  -12.0050001      -1.13021016E-11
  -12.0000000      -1.29690789E-11
  -11.9949999      -1.46697376E-11
  -11.9899998      -1.63887341E-11
  -11.9849997      -1.81091947E-11
  -11.9799995      -1.98127782E-11
  -11.9750004      -2.14797485E-11
  -11.9700003      -2.30890845E-11
  -11.9650002      -2.46186092E-11
  -11.9600000      -2.60450984E-11
  -11.9549999      -2.73444774E-11
  -11.9499998      -2.84919970E-11
  -11.9449997      -2.94624047E-11
  -11.9399996      -3.02301864E-11
  -11.9350004      -3.07697860E-11
  -11.9300003      -3.10558593E-11
  -11.9250002      -3.10635372E-11
  -11.9200001      -3.07686723E-11
  -11.9150000      -3.01481409E-11
  -11.9099998      -2.91801409E-11
  -11.9049997      -2.78444438E-11
  -11.8999996      -2.61227168E-11
  -11.8950005      -2.39987977E-11
  -11.8900003      -2.14590117E-11
  -11.8850002      -1.84923760E-11
  -11.8800001      -1.50909962E-11
  -11.8750000      -1.12502030E-11
  -11.8699999      -6.96892457E-12
  -11.8649998      -2.24977936E-12
  -11.8599997       2.90061313E-12
  -11.8549995       8.47146745E-12
  -11.8500004       1.44476410E-11
  -11.8450003       2.08095121E-11
  -11.8400002       2.75328493E-11
  -11.8350000       3.45887347E-11
  -11.8299999       4.19435459E-11
  -11.8249998       4.95588466E-11
  -11.8199997       5.73914978E-11
  -11.8149996       6.53935933E-11
  -11.8100004       7.35126543E-11
  -11.8050003       8.16916812E-11
  -11.8000002       8.98693620E-11
  -11.7950001       9.79802212E-11
  -11.7900000       1.05954974E-10
  -11.7849998       1.13720672E-10
  -11.7799997       1.21201160E-10
  -11.7749996       1.28317315E-10
  -11.7700005       1.34987604E-10
  -11.7650003       1.41128387E-10
  -11.7600002       1.46654452E-10
  -11.7550001       1.51479537E-10
  -11.7500000       1.55516947E-10
  -11.7449999       1.58679986E-10
  -11.7399998       1.60882724E-10
  -11.7349997       1.62040589E-10
  -11.7299995       1.62070857E-10
  -11.7250004       1.60893784E-10
  -11.7200003       1.58432795E-10