  -16.0000000       0.00000000    
  -15.9949999       0.00000000    
  -15.9899998       0.00000000    
  -15.9849997       0.00000000    
  -15.9799995       0.00000000    
  -15.9750004       0.00000000    
  -15.9700003       0.00000000    
  -15.9650002       0.00000000    
  -15.9600000       0.00000000    
  -15.9549999       0.00000000    
  -15.9499998       0.00000000    
  -15.9449997       0.00000000    
  -15.9399996       0.00000000    
  -15.9350004       0.00000000    
  -15.9300003       0.00000000    
  -15.9250002       0.00000000    
  -15.9200001       0.00000000    
  -15.9150000       0.00000000    
  -15.9099998       0.00000000    
  -15.9049997       0.00000000    
  -15.8999996       0.00000000    
  -15.8950005       0.00000000    
  -15.8900003       0.00000000    
  -15.8850002       0.00000000    
  -15.8800001       0.00000000    
  -15.8750000       0.00000000    
  -15.8699999       0.00000000    
  -15.8649998       0.00000000    
  -15.8599997       0.00000000    
  -15.8549995       0.00000000    
  -15.8500004       0.00000000    
  -15.8450003       0.00000000    
  -15.8400002       0.00000000    
  -15.8350000       0.00000000    
  -15.8299999       0.00000000    
  -15.8249998       0.00000000    
  -15.8199997       0.00000000    
  -15.8149996       0.00000000    
  -15.8100004       0.00000000    
  -15.8050003       0.00000000    
  -15.8000002       0.00000000    
  -15.7950001       0.00000000    
  -15.7900000       0.00000000    
  -15.7849998       0.00000000    
  -15.7799997       0.00000000    
  -15.7749996       0.00000000    
  -15.7700005       0.00000000    
  -15.7650003       0.00000000    
  -15.7600002       0.00000000    
  -15.7550001       0.00000000    
  -15.7500000       0.00000000    
  -15.7449999       0.00000000    
  -15.7399998       0.00000000    
  -15.7349997       0.00000000    
  -15.7299995       0.00000000    
  -15.7250004       0.00000000    
  -15.7200003       0.00000000    
  -15.7150002       0.00000000    
  -15.7100000       0.00000000    
  -15.7049999       0.00000000    
  -15.6999998       0.00000000    
  -15.6949997       0.00000000    
  -15.6899996       0.00000000    
  -15.6850004       0.00000000    
  -15.6800003       0.00000000    
  -15.6750002       0.00000000    
  -15.6700001       0.00000000    
  -15.6650000       0.00000000    
  -15.6599998       0.00000000    
  -15.6549997       0.00000000    
  -15.6499996       0.00000000    
  -15.6450005       0.00000000    
  -15.6400003       0.00000000    
  -15.6350002       0.00000000    
  -15.6300001       0.00000000    
  -15.6250000       0.00000000    
  -15.6199999       0.00000000    
  -15.6149998       0.00000000    
  -15.6099997       0.00000000    
  -15.6049995       0.00000000    
  -15.6000004       0.00000000    
  -15.5950003       0.00000000    
  -15.5900002       0.00000000    
  -15.5850000       0.00000000    
  -15.5799999       0.00000000    
  -15.5749998       0.00000000    
  -15.5699997       0.00000000    
  -15.5649996       0.00000000    
  -15.5600004       0.00000000    
  -15.5550003       0.00000000    
  -15.5500002       0.00000000    
  -15.5450001       0.00000000    
  -15.5400000       0.00000000    
  -15.5349998       0.00000000    
  -15.5299997       0.00000000    
  -15.5249996       0.00000000    
  -15.5200005       0.00000000    
  -15.5150003       0.00000000    
  -15.5100002       0.00000000    
  -15.5050001       0.00000000    
  -15.5000000       0.00000000    
  -15.4949999       0.00000000    
  -15.4899998       0.00000000    
  -15.4849997       0.00000000    
  -15.4799995       0.00000000    
  -15.4750004       0.00000000    
  -15.4700003       0.00000000    
  -15.4650002       0.00000000    
  -15.4600000       0.00000000    
  -15.4549999       0.00000000    
  -15.4499998       0.00000000    
  -15.4449997       0.00000000    
  -15.4399996       0.00000000    
  -15.4350004       0.00000000    
  -15.4300003       0.00000000    
  -15.4250002       0.00000000    
  -15.4200001       0.00000000    
  -15.4150000       0.00000000    
  -15.4099998       0.00000000    
  -15.4049997       0.00000000    
  -15.3999996       0.00000000    
  -15.3950005       0.00000000    
  -15.3900003       0.00000000    
  -15.3850002       0.00000000    
  -15.3800001       0.00000000    
  -15.3750000       0.00000000    
  -15.3699999       0.00000000    
  -15.3649998       0.00000000    
  -15.3599997       0.00000000    
  -15.3549995       0.00000000    
  -15.3500004       0.00000000    
  -15.3450003       0.00000000    
  -15.3400002       0.00000000    
  -15.3350000       0.00000000    
  -15.3299999       0.00000000    
  -15.3249998       0.00000000    
  -15.3199997       0.00000000    
  -15.3149996       0.00000000    
  -15.3100004       0.00000000    
  -15.3050003       0.00000000    
  -15.3000002       0.00000000    
  -15.2950001       0.00000000    
  -15.2900000       0.00000000    
  -15.2849998       0.00000000    
  -15.2799997       0.00000000    
  -15.2749996       0.00000000    
  -15.2700005       0.00000000    
  -15.2650003       0.00000000    
  -15.2600002       0.00000000    
  -15.2550001       0.00000000    
  -15.2500000       0.00000000    
  -15.2449999       0.00000000    
  -15.2399998       0.00000000    
  -15.2349997       0.00000000    
  -15.2299995       0.00000000    
  -15.2250004       0.00000000    
  -15.2200003       0.00000000    
  -15.2150002       0.00000000    
  -15.2100000       0.00000000    
  -15.2049999       0.00000000    
  -15.1999998       0.00000000    
  -15.1949997       0.00000000    
  -15.1899996      -0.00000000    
  -15.1850004       0.00000000    
  -15.1800003       1.40129846E-45
  -15.1750002       2.80259693E-45
  -15.1700001       2.80259693E-45
  -15.1650000       1.40129846E-45
  -15.1599998       0.00000000    
  -15.1549997      -2.80259693E-45
  -15.1499996      -8.40779079E-45
  -15.1450005      -1.26116862E-44
  -15.1400003      -1.68155816E-44
  -15.1350002      -1.12103877E-44
  -15.1300001       2.80259693E-45
  -15.1250000       2.66246708E-44
  -15.1199999       5.74532370E-44
  -15.1149998       8.40779079E-44
  -15.1099997       8.96831017E-44
  -15.1049995       5.32493416E-44
  -15.1000004      -4.06376555E-44
  -15.0950003      -1.89175293E-43
  -15.0900002      -3.61535004E-43
  -15.0850000      -4.89053164E-43
  -15.0799999      -4.75040179E-43
  -15.0749998      -2.10194770E-43
  -15.0699997       3.65738899E-43
  -15.0649996       1.20791928E-42
  -15.0600004       2.10895419E-42
  -15.0550003       2.66807228E-42
  -15.0500002       2.34857623E-42
  -15.0450001       6.43195995E-43
  -15.0400000      -2.66667098E-42
  -15.0349998      -7.18025333E-42
  -15.0299997      -1.16153630E-41
  -15.0249996      -1.37789678E-41
  -15.0200005      -1.09595553E-41
  -15.0150003      -8.44982974E-43
  -15.0100002       1.70832296E-41
  -15.0050001       4.00056699E-41
  -15.0000000       6.07140586E-41
  -14.9949999       6.78901080E-41
  -14.9899998       4.85143541E-41
  -14.9849997      -7.24191046E-42
  -14.9799995      -9.91853066E-41
  -14.9750004      -2.10219993E-40
  -14.9700003      -3.02554351E-40
  -14.9650002      -3.20853908E-40
  -14.9600000      -2.05620931E-40
  -14.9549999       8.24524016E-41
  -14.9499998       5.30930969E-40
  -14.9449997       1.04644485E-39
  -14.9399996       1.44265218E-39
  -14.9350004       1.46213023E-39
  -14.9300003       8.44556979E-40
  -14.9250002      -5.59130699E-40
  -14.9200001      -2.64778147E-39
  -14.9150000      -4.95197858E-39
  -14.9099998      -6.60253441E-39
  -14.9049997      -6.45456430E-39
  -14.8999996      -3.41119486E-39
  -14.8950005       3.06882962E-39
  -14.8900003       1.23854760E-38
  -14.8850002       2.23389662E-38
  -14.8800001       2.90752279E-38
  -14.8750000       2.77071963E-38
  -14.8699999       1.37593987E-38
  -14.8649998      -1.46798163E-38
  -14.8599997      -5.45846502E-38
  -14.8549995      -9.62683077E-38
  -14.8500004      -1.23424048E-37
  -14.8450003      -1.15962818E-37
  -14.8400002      -5.61121496E-38
  -14.8350000       6.28464705E-38
  -14.8299999       2.27286889E-37
  -14.8249998       3.96909696E-37
  -14.8199997       5.05689828E-37
  -14.8149996       4.73887572E-37
  -14.8100004       2.32529651E-37
  -14.8050003      -2.42523084E-37
  -14.8000002      -8.95316359E-37
  -14.7950001      -1.56690854E-36
  -14.7900000      -2.00093618E-36
  -14.7849998      -1.89117286E-36
  -14.7799997      -9.75254316E-37
  -14.7749996       8.37404573E-37
  -14.7700005       3.33548603E-36
  -14.7650003       5.92354734E-36
  -14.7600002       7.64577141E-36
  -14.7550001       7.36303646E-36
  -14.7500000       4.09588394E-36
  -14.7449999      -2.51211247E-36
  -14.7399998      -1.17264637E-35
  -14.7349997      -2.14272230E-35
  -14.7299995      -2.81908771E-35
  -14.7250004      -2.79116657E-35
  -14.7200003      -1.70025486E-35
  -14.7150002       5.98408523E-36
  -14.7100000       3.87157157E-35
  -14.7049999       7.40264927E-35
  -14.6999998       1.00141466E-34
  -14.6949997       1.02730159E-34
  -14.6899996       6.89316029E-35
  -14.6850004      -7.17207603E-36
  -14.6800003      -1.18946747E-34
  -14.6750002      -2.43460745E-34
  -14.6700001      -3.41878297E-34
  -14.6650000      -3.65835079E-34
  -14.6599998      -2.70334956E-34
  -14.6549997      -3.15863482E-35
  -14.6499996       3.34333392E-34
  -14.6450005       7.58316227E-34
  -14.6400003       1.11784544E-33
  -14.6350002       1.25546397E-33
  -14.6300001       1.01819153E-33
  -14.6250000       3.13506708E-34
  -14.6199999      -8.30353506E-34
  -14.6149998      -2.21903469E-33
  -14.6099997      -3.48427068E-33
  -14.6049995      -4.13315201E-33
  -14.6000004      -3.66260787E-33
  -14.5950003      -1.72818535E-33
  -14.5900002       1.66740108E-33
  -14.5850000       6.02223352E-33
  -14.5799999       1.02875739E-32
  -14.5749998       1.29858595E-32
  -14.5699997       1.25248277E-32
  -14.5649996       7.68454967E-33
  -14.5600004      -1.81430372E-33
  -14.5550003      -1.48182024E-32
  -14.5500002      -2.85211252E-32
  -14.5450001      -3.87038039E-32
  -14.5400000      -4.05405814E-32
  -14.5349998      -2.99379809E-32
  -14.5299997      -5.17824731E-33
  -14.5249996       3.15505358E-32
  -14.5200005       7.32847671E-32
  -14.5150003       1.08622907E-31
  -14.5100002       1.23636768E-31
  -14.5050001       1.05353481E-31
  -14.5000000       4.62936624E-32
  -14.4949999      -5.09868735E-32
  -14.4899998      -1.70808063E-31
  -14.4849997      -2.84270810E-31
  -14.4799995      -3.53320429E-31
  -14.4750004      -3.39242309E-31
  -14.4700003      -2.14558729E-31
  -14.4650002       2.41633590E-32
  -14.4600000       3.46276867E-31
  -14.4549999       6.83945495E-31
  -14.4499998       9.39444835E-31
  -14.4449997       1.00435328E-30
  -14.4399996       7.88950431E-31
  -14.4350004       2.56371909E-31
  -14.4300003      -5.47289857E-31
  -14.4250002      -1.47758483E-30
  -14.4200001      -2.30079867E-30
  -14.4150000      -2.73322373E-30
  -14.4099998      -2.50902705E-30
  -14.4049997      -1.46592101E-30
  -14.3999996       3.71134059E-31
  -14.3950005       2.73395761E-30
  -14.3900003       5.10884402E-30
  -14.3850002       6.80623793E-30
  -14.3800001       7.10527617E-30
  -14.3750000       5.45460525E-30
  -14.3699999       1.68845206E-30
  -14.3649998      -3.80074563E-30
  -14.3599997      -9.99738122E-30
  -14.3549995      -1.53581433E-29
  -14.3500004      -1.80900659E-29
  -14.3450003      -1.65868550E-29
  -14.3400002      -9.94587237E-30
  -14.3350000       1.55870231E-30
  -14.3299999       1.61955496E-29
  -14.3249998       3.08264828E-29
  -14.3199997       4.13707627E-29
  -14.3149996       4.36729712E-29
  -14.3100004       3.46454695E-29
  -14.3050003       1.34419152E-29
  -14.3000002      -1.76601938E-29
  -14.2950001      -5.29981013E-29
  -14.2900000      -8.41313848E-29
  -14.2849998      -1.01390185E-28
  -14.2799997      -9.61925572E-29
  -14.2749996      -6.36972500E-29
  -14.2700005      -5.14798930E-30
  -14.2650003       7.08206570E-29
  -14.2600002       1.48551635E-28
  -14.2550001       2.07747704E-28
  -14.2500000       2.27739194E-28
  -14.2449999       1.92959041E-28
  -14.2399998       9.84399670E-29
  -14.2349997      -4.61541889E-29
  -14.2299995      -2.15426483E-28
  -14.2250004      -3.71099208E-28
  -14.2200003      -4.69023982E-28
  -14.2150002      -4.69472868E-28
  -14.2100000      -3.48734924E-28
  -14.2049999      -1.09215611E-28
  -14.1999998       2.15021652E-28
  -14.1949997       5.59821901E-28
  -14.1899996       8.40843488E-28
  -14.1850004       9.71079011E-28
  -14.1800003       8.83056887E-28
  -14.1750002       5.50874464E-28
  -14.1700001       6.17794918E-30
  -14.1650000      -6.57494909E-28
  -14.1599998      -1.29570481E-27
  -14.1549997      -1.73984871E-27
  -14.1499996      -1.83595396E-27
  -14.1450005      -1.48784232E-27
  -14.1400003      -6.94164422E-28
  -14.1350002       4.31760319E-28
  -14.1300001       1.66811302E-27
  -14.1250000       2.72048062E-27
  -14.1199999       3.28408573E-27
  -14.1149998       3.12123333E-27
  -14.1099997       2.13653732E-27
  -14.1049995       4.29588737E-28
  -14.1000004      -1.69340433E-27
  -14.0950003      -3.76021336E-27
  -14.0900002      -5.22496089E-27
  -14.0850000      -5.59788987E-27
  -14.0799999      -4.58535994E-27
  -14.0749998      -2.20473103E-27
  -14.0699997       1.16139546E-27
  -14.0649996       4.79791173E-27
  -14.0600004       7.78513423E-27
  -14.0550003       9.20626792E-27
  -14.0500002       8.39425349E-27
  -14.0450001       5.15945269E-27
  -14.0400000      -6.68604937E-29
  -14.0349998      -6.22844434E-27
  -14.0299997      -1.18082000E-26
  -14.0249996      -1.51496777E-26
  -14.0200005      -1.48807008E-26
  -14.0150003      -1.03454485E-26
  -14.0100002      -1.93007859E-27
  -14.0050001       8.82743057E-27
  -14.0000000       1.94169283E-26
  -13.9949999       2.68362067E-26
  -13.9899998       2.83046159E-26
  -13.9849997       2.20671389E-26
  -13.9799995       8.09265131E-27
  -13.9750004      -1.15420550E-26
  -13.9700003      -3.27502661E-26
  -13.9650002      -5.00903440E-26
  -13.9600000      -5.79212245E-26
  -13.9549999      -5.18593215E-26
  -13.9499998      -3.02176190E-26
  -13.9449997       4.95244450E-27
  -13.9399996       4.75704511E-26
  -13.9350004       8.82198126E-26
  -13.9300003       1.15849955E-25
  -13.9250002       1.20260452E-25
  -13.9200001       9.48945127E-26
  -13.9150000       3.92958611E-26
  -13.9099998      -3.94607669E-26
  -13.9049997      -1.26933427E-25
  -13.8999996      -2.03351208E-25
  -13.8950005      -2.47394989E-25
  -13.8900003      -2.41130250E-25
  -13.8850002      -1.75102149E-25
  -13.8800001      -5.23760562E-26
  -13.8750000       1.09667443E-25
  -13.8699999       2.80650111E-25
  -13.8649998       4.21898540E-25
  -13.8599997       4.94035975E-25
  -13.8549995       4.66185487E-25
  -13.8500004       3.24884697E-25
  -13.8450003       8.05452930E-26
  -13.8400002      -2.30512306E-25
  -13.8350000      -5.49716982E-25
  -13.8299999      -8.05744797E-25
  -13.8249998      -9.28658102E-25
  -13.8199997      -8.66202209E-25
  -13.8149996      -5.98854093E-25
  -13.8100004      -1.49948542E-25
  -13.8050003       4.12267288E-25
  -13.8000002       9.82440962E-25
  -13.7950001       1.43560694E-24
  -13.7900000       1.65194603E-24
  -13.7849998       1.54436502E-24
  -13.7799997       1.08311677E-24
  -13.7749996       3.11483602E-25
  -13.7700005      -6.52348526E-25
  -13.7650003      -1.62971731E-24
  -13.7600002      -2.41142887E-24
  -13.7550001      -2.79886094E-24
  -13.7500000      -2.64876556E-24
  -13.7449999      -1.91246350E-24
  -13.7399998      -6.60035630E-25
  -13.7349997       9.17828422E-25
  -13.7299995       2.53378494E-24
  -13.7250004       3.85187448E-24
  -13.7200003       4.55245475E-24
  -13.7150002       4.40225643E-24
  -13.7100000       3.31520689E-24
  -13.7049999       1.38985715E-24
  -13.6999998      -1.08746635E-24
  -13.6949997      -3.67861341E-24
  -13.6899996      -5.86577484E-24
  -13.6850004      -7.14890917E-24
  -13.6800003      -7.15096494E-24
  -13.6750002      -5.70978588E-24
  -13.6700001      -2.93618013E-24
  -13.6650000       7.77499583E-25
  -13.6599998       4.80521407E-24
  -13.6549997       8.38745471E-24
  -13.6499996       1.07685880E-23
  -13.6450005       1.13469540E-23
  -13.6400003       9.80871385E-24
  -13.6350002       6.21700648E-24
  -13.6300001       1.03494419E-24
  -13.6250000      -4.92753484E-24
  -13.6199999      -1.06382721E-23
  -13.6149998      -1.50196671E-23
  -13.6099997      -1.71467185E-23
  -13.6049995      -1.64292574E-23
  -13.6000004      -1.27425712E-23
  -13.5950003      -6.47884756E-24
  -13.5900002       1.49362835E-24
  -13.5850000       9.95913227E-24
  -13.5799999       1.75494478E-23
  -13.5749998       2.29703027E-23
  -13.5699997       2.52181887E-23
  -13.5649996       2.37483199E-23
  -13.5600004       1.85646928E-23
  -13.5550003       1.02187669E-23
  -13.5500002      -2.78205381E-25
  -13.5450001      -1.16079162E-23
  -13.5400000      -2.23303945E-23
  -13.5349998      -3.10668855E-23
  -13.5299997      -3.66504777E-23
  -13.5249996      -3.82274169E-23
  -13.5200005      -3.53079721E-23
  -13.5150003      -2.77800586E-23
  -13.5100002      -1.59081296E-23
  -13.5050001      -3.39264054E-25
  -13.5000000       1.78712636E-23
  -13.4949999       3.72203823E-23
  -13.4899998       5.57296088E-23
  -13.4849997       7.09720170E-23
  -13.4799995       8.02027877E-23
  -13.4750004       8.06325907E-23
  -13.4700003       6.98563973E-23
  -13.4650002       4.64083715E-23
  -13.4600000       1.03647622E-23
  -13.4549999      -3.61273051E-23
  -13.4499998      -8.85447583E-23
  -13.4449997      -1.40054289E-22
  -13.4399996      -1.82057990E-22
  -13.4350004      -2.05251573E-22
  -13.4300003      -2.01127181E-22
  -13.4250002      -1.63734947E-22
  -13.4200001      -9.14184334E-23
  -13.4150000       1.18285559E-23
  -13.4099998       1.35740583E-22
  -13.4049997       2.64185251E-22
  -13.3999996       3.76742828E-22
  -13.3950005       4.51410090E-22
  -13.3900003       4.68149795E-22
  -13.3850002       4.12789833E-22
  -13.3800001       2.80618397E-22
  -13.3750000       7.89583439E-23
  -13.3699999      -1.71923942E-22
  -13.3649998      -4.40024947E-22
  -13.3599997      -6.85054383E-22
  -13.3549995      -8.63869991E-22
  -13.3500004      -9.37245010E-22
  -13.3450003      -8.76973816E-22
  -13.3400002      -6.72136451E-22
  -13.3350000      -3.33324807E-22
  -13.3299999       1.06150335E-22
  -13.3249998       5.92651533E-22
  -13.3199997       1.05822987E-21
  -13.3149996       1.42966072E-21
  -13.3100004       1.63932899E-21
  -13.3050003       1.63636581E-21
  -13.3000002       1.39623594E-21
  -13.2950001       9.27101042E-22
  -13.2900000       2.71669105E-22
  -13.2849998      -4.96106974E-22
  -13.2799997      -1.27932428E-21
  -13.2749996      -1.97043893E-21
  -13.2700005      -2.46592497E-21
  -13.2650003      -2.68117449E-21
  -13.2600002      -2.56341030E-21
  -13.2550001      -2.10064475E-21
  -13.2500000      -1.32529248E-21
  -13.2449999      -3.11846081E-22
  -13.2399998       8.31073067E-22
  -13.2349997       1.97316140E-21
  -13.2299995       2.97762584E-21
  -13.2250004       3.71705887E-21
  -13.2200003       4.08800696E-21
  -13.2150002       4.02255751E-21
  -13.2100000       3.49590195E-21
  -13.2049999       2.52946702E-21
  -13.1999998       1.18982924E-21
  -13.1949997      -4.15956864E-22
  -13.1899996      -2.14781081E-21
  -13.1850004      -3.84214812E-21
  -13.1800003      -5.32302316E-21
  -13.1750002      -6.41474243E-21
  -13.1700001      -6.95601703E-21
  -13.1650000      -6.81564675E-21
  -13.1599998      -5.90939445E-21
  -13.1549997      -4.21699948E-21
  -13.1499996      -1.79744550E-21
  -13.1450005       1.20022483E-21
  -13.1400003       4.53381975E-21
  -13.1350002       7.87580149E-21
  -13.1300001       1.08344617E-20
  -13.1250000       1.29893004E-20
  -13.1199999       1.39391307E-20
  -13.1149998       1.33589071E-20
  -13.1099997       1.10585340E-20
  -13.1049995       7.03497562E-21
  -13.1000004       1.50818038E-21
  -13.0950003      -5.06808068E-21
  -13.0900002      -1.20269832E-20
  -13.0850000      -1.85436671E-20
  -13.0799999      -2.37220536E-20
  -13.0749998      -2.67056359E-20
  -13.0699997      -2.67994321E-20
  -13.0649996      -2.35867870E-20
  -13.0600004      -1.70231848E-20
  -13.0550003      -7.49067702E-21
  -13.0500002       4.19959597E-21
  -13.0450001       1.68629072E-20
  -13.0400000       2.90526284E-20
  -13.0349998       3.92182484E-20
  -13.0299997       4.58920192E-20
  -13.0249996       4.78817116E-20
  -13.0200005       4.44443497E-20
  -13.0150003       3.54168559E-20
  -13.0100002       2.12845802E-20
  -13.0050001       3.17560393E-21
  -13.0000000      -1.72220651E-20
  -12.9949999      -3.78133791E-20
  -12.9899998      -5.63041810E-20
  -12.9849997      -7.04419255E-20
  -12.9799995      -7.82636613E-20
  -12.9750004      -7.83251764E-20
  -12.9700003      -6.98871846E-20
  -12.9650002      -5.30397741E-20
  -12.9600000      -2.87521228E-20
  -12.9549999       1.15867082E-21
  -12.9499998       3.41393918E-20
  -12.9449997       6.70867840E-20
  -12.9399996       9.65969435E-20
  -12.9350004       1.19262293E-19
  -12.9300003       1.31997540E-19
  -12.9250002       1.32371051E-19
  -12.9200001       1.18915614E-19
  -12.9150000       9.13895507E-20
  -12.9099998       5.09564551E-20
  -12.9049997       2.53763427E-22
  -12.8999996      -5.66763670E-20
  -12.8950005      -1.14611832E-19
  -12.8900003      -1.67534628E-19
  -12.8850002      -2.09161794E-19
  -12.8800001      -2.33588877E-19
  -12.8750000      -2.35991372E-19
  -12.8699999      -2.13311191E-19
  -12.8649998      -1.64844003E-19
  -12.8599997      -9.26402995E-20
  -12.8549995      -1.64300042E-21
  -12.8500004       1.00494677E-19
  -12.8450003       2.03933767E-19
  -12.8400002       2.97498558E-19
  -12.8350000       3.69787784E-19
  -12.8299999       4.10445521E-19
  -12.8249998       4.11455612E-19
  -12.8199997       3.68305399E-19
  -12.8149996       2.80867445E-19
  -12.8100004       1.53864938E-19
  -12.8050003      -3.17127436E-21
  -12.8000002      -1.76494299E-19
  -12.7950001      -3.49257549E-19
  -12.7900000      -5.03068966E-19
  -12.7849998      -6.19840606E-19
  -12.7799997      -6.83747132E-19
  -12.7749996      -6.83087921E-19
  -12.7700005      -6.11845285E-19
  -12.7650003      -4.70756345E-19
  -12.7600002      -2.67762423E-19
  -12.7550001      -1.77556677E-20
  -12.7500000       2.58386253E-19
  -12.7449999       5.35418604E-19
  -12.7399998       7.85878554E-19
  -12.7349997       9.82585206E-19
  -12.7299995       1.10128283E-18
  -12.7250004       1.12318668E-18
  -12.7200003       1.03720105E-18
  -12.7150002       8.41588341E-19
  -12.7100000       5.44905229E-19
  -12.7049999       1.66071759E-19
  -12.6999998      -2.66503480E-19
  -12.6949997      -7.16740213E-19
  -12.6899996      -1.14357048E-18
  -12.6850004      -1.50432679E-18
  -12.6800003      -1.75859901E-18
  -12.6750002      -1.87224577E-18
  -12.6700001      -1.82120645E-18
  -12.6650000      -1.59472409E-18
  -12.6599998      -1.19760657E-18
  -12.6549997      -6.51201815E-19
  -12.6499996       7.15215658E-21
  -12.6450005       7.26302370E-19
  -12.6400003       1.44503107E-18
  -12.6350002       2.09715390E-18
  -12.6300001       2.61756673E-18
  -12.6250000       2.94869147E-18
  -12.6199999       3.04668756E-18
  -12.6149998       2.88673419E-18
  -12.6099997       2.46675309E-18
  -12.6049995       1.80903697E-18
  -12.6000004       9.59456615E-19
  -12.5950003      -1.58454217E-20
  -12.5900002      -1.03608611E-18
  -12.5850000      -2.01333714E-18
  -12.5799999      -2.86117597E-18
  -12.5749998      -3.50361820E-18
  -12.5699997      -3.88335903E-18
  -12.5649996      -3.96837831E-18
  -12.5600004      -3.75608323E-18
  -12.5550003      -3.27439156E-18
  -12.5500002      -2.57945355E-18
  -12.5450001      -1.75007409E-18
  -12.5400000      -8.79233124E-19
  -12.5349998      -6.34514092E-20
  -12.5299997       6.08973365E-19
  -12.5249996       1.06966768E-18
  -12.5200005       1.28054166E-18
  -12.5150003       1.24157359E-18
  -12.5100002       9.94944525E-19
  -12.5050001       6.24731466E-19
  -12.5000000       2.51694801E-19
  -12.4949999       2.31521843E-20
  -12.4899998       9.83629095E-20
  -12.4849997       6.30308008E-19
  -12.4799995       1.74519538E-18
  -12.4750004       3.52135254E-18
  -12.4700003       5.96946263E-18
  -12.4650002       9.01619258E-18
  -12.4600000       1.24933108E-17
  -12.4549999       1.61340635E-17
  -12.4499998       1.95784552E-17
  -12.4449997       2.23882025E-17
  -12.4399996       2.40717731E-17
  -12.4350004       2.41188264E-17
  -12.4300003       2.20427636E-17
  -12.4250002       1.74289916E-17
  -12.4200001       9.98594356E-18
  -12.4150000      -4.04972351E-19
  -12.4099998      -1.36444906E-17
  -12.4049997      -2.93800161E-17
  -12.3999996      -4.69835643E-17
  -12.3950005      -6.55467645E-17
  -12.3900003      -8.38956819E-17
  -12.3850002      -1.00627064E-16
  -12.3800001      -1.14166634E-16
  -12.3750000      -1.22848391E-16
  -12.3699999      -1.25012402E-16
  -12.3649998      -1.19117674E-16
  -12.3599997      -1.03864887E-16
  -12.3549995      -7.83230124E-17
  -12.3500004      -4.20532568E-17
  -12.3450003       4.77703918E-18
  -12.3400002       6.12979414E-17
  -12.3350000       1.25865073E-16
  -12.3299999       1.96019518E-16
  -12.3249998       2.68485119E-16
  -12.3199997       3.39208690E-16
  -12.3149996       4.03447325E-16
  -12.3100004       4.55904261E-16
  -12.3050003       4.90915044E-16
  -12.3000002       5.02682290E-16
  -12.2950001       4.85554808E-16
  -12.2900000       4.34347219E-16
  -12.2849998       3.44689444E-16
  -12.2799997       2.13397179E-16
  -12.2749996       3.88496426E-17
  -12.2700005      -1.78641644E-16
  -12.2650003      -4.36489313E-16
  -12.2600002      -7.29531584E-16
  -12.2550001      -1.04979951E-15
  -12.2500000      -1.38636953E-15
  -12.2449999      -1.72532363E-15
  -12.2399998      -2.04983456E-15
  -12.2349997      -2.34039396E-15
  -12.2299995      -2.57520229E-15
  -12.2250004      -2.73071564E-15
  -12.2200003      -2.78237597E-15
  -12.2150002      -2.70550455E-15
  -12.2100000      -2.47635228E-15
  -12.2049999      -2.07330012E-15
  -12.1999998      -1.47816694E-15
  -12.1949997      -6.77599994E-16
  -12.1899996       3.35499771E-16
  -12.1850004       1.56057170E-15
  -12.1800003       2.98807114E-15
  -12.1750002       4.59828649E-15
  -12.1700001       6.36037633E-15
  -12.1650000       8.23168980E-15
  -12.1599998       1.01574522E-14
  -12.1549997       1.20708565E-14
  -12.1499996       1.38936510E-14
  -12.1450005       1.55372456E-14
  -12.1400003       1.69043534E-14
  -12.1350002       1.78912281E-14
  -12.1300001       1.83904439E-14
  -12.1250000       1.82942007E-14
  -12.1199999       1.74981167E-14
  -12.1149998       1.59054288E-14
  -12.1099997       1.34314768E-14
  -12.1049995       1.00083990E-14
  -12.1000004       5.58984570E-15
  -12.0950003       1.55601924E-16
  -12.0900002      -6.28405909E-15
  -12.0850000      -1.36844796E-14
  -12.0799999      -2.19633136E-14
  -12.0749998      -3.09980279E-14
  -12.0699997      -4.06243778E-14
  -12.0649996      -5.06359345E-14
  -12.0600004      -6.07847987E-14
  -12.0550003      -7.07837380E-14
  -12.0500002      -8.03095722E-14
  -12.0450001      -8.90080585E-14
  -12.0400000      -9.65001665E-14
  -12.0349998      -1.02389688E-13
  -12.0299997      -1.06272203E-13
  -12.0249996      -1.07745146E-13
  -12.0200005      -1.06418841E-13
  -12.0150003      -1.01928523E-13
  -12.0100002      -9.39466875E-14
  -12.0050001      -8.21958875E-14
  -12.0000000      -6.64615728E-14
  -11.9949999      -4.66046438E-14
  -11.9899998      -2.25732637E-14
  -11.9849997       5.58612257E-15
  -11.9799995       3.77191801E-14
  -11.9750004       7.35555483E-14
  -11.9700003       1.12702802E-13
  -11.9650002       1.54642493E-13
  -11.9600000       1.98728824E-13
  -11.9549999       2.44190220E-13
  -11.9499998       2.90133396E-13
  -11.9449997       3.35551086E-13
  -11.9399996       3.79332606E-13
  -11.9350004       4.20277853E-13
  -11.9300003       4.57114218E-13
  -11.9250002       4.88517267E-13
  -11.9200001       5.13133589E-13
  -11.9150000       5.29607174E-13
  -11.9099998       5.36607163E-13
  -11.9049997       5.32858696E-13
  -11.8999996       5.17174574E-13
  -11.8950005       4.88488210E-13
  -11.8900003       4.45887359E-13
  -11.8850002       3.88647366E-13
  -11.8800001       3.16263319E-13
  -11.8750000       2.28481296E-13
  -11.8699999       1.25327564E-13
  -11.8649998       7.13350989E-15
  -11.8599997      -1.25441473E-13
  -11.8549995      -2.71392528E-13
  -11.8500004      -4.29356203E-13
  -11.8450003      -5.97603239E-13
  -11.8400002      -7.74038060E-13
  -11.8350000      -9.56203541E-13
  -11.8299999      -1.14129442E-12
  -11.8249998      -1.32617647E-12
  -11.8199997      -1.50741583E-12
  -11.8149996      -1.68131101E-12
  -11.8100004      -1.84393863E-12
  -11.8050003      -1.99120104E-12
  -11.8000002      -2.11888580E-12
  -11.7950001      -2.22272591E-12
  -11.7900000      -2.29847261E-12
  -11.7849998      -2.34196755E-12
  -11.7799997      -2.34922368E-12
  -11.7749996      -2.31650636E-12
  -11.7700005      -2.24041814E-12
  -11.7650003      -2.11798482E-12
  -11.7600002      -1.94674225E-12
  -11.7550001      -1.72481333E-12
  -11.7500000      -1.45099525E-12
  -11.7449999      -1.12483124E-12
  -11.7399998      -7.46679248E-13
  -11.7349997      -3.17772908E-13
  -11.7299995       1.59728174E-13
  -11.7250004       6.82697713E-13
  -11.7200003       1.24701562E-12