  -16.0000000       0.00000000    
  -15.9949999       0.00000000    
  -15.9899998       0.00000000    
  -15.9849997       0.00000000    
  -15.9799995       0.00000000    
  -15.9750004       0.00000000    
  -15.9700003       0.00000000    
  -15.9650002       0.00000000    
  -15.9600000       0.00000000    
  -15.9549999       0.00000000    
  -15.9499998       0.00000000    
  -15.9449997       0.00000000    
  -15.9399996       0.00000000    
  -15.9350004       0.00000000    
  -15.9300003       0.00000000    
  -15.9250002       0.00000000    
  -15.9200001       0.00000000    
  -15.9150000       0.00000000    
  -15.9099998       0.00000000    
  -15.9049997       0.00000000    
  -15.8999996       0.00000000    
  -15.8950005       0.00000000    
  -15.8900003       0.00000000    
  -15.8850002       0.00000000    
  -15.8800001       0.00000000    
  -15.8750000       0.00000000    
  -15.8699999       0.00000000    
  -15.8649998       0.00000000    
  -15.8599997       0.00000000    
  -15.8549995       0.00000000    
  -15.8500004       0.00000000    
  -15.8450003       0.00000000    
  -15.8400002       0.00000000    
  -15.8350000       0.00000000    
  -15.8299999       0.00000000    
  -15.8249998       0.00000000    
  -15.8199997       0.00000000    
  -15.8149996       0.00000000    
  -15.8100004       0.00000000    
  -15.8050003       0.00000000    
  -15.8000002       0.00000000    
  -15.7950001       0.00000000    
  -15.7900000       0.00000000    
  -15.7849998       0.00000000    
  -15.7799997       0.00000000    
  -15.7749996       0.00000000    
  -15.7700005       0.00000000    
  -15.7650003       0.00000000    
  -15.7600002       0.00000000    
  -15.7550001       0.00000000    
  -15.7500000       0.00000000    
  -15.7449999       0.00000000    
  -15.7399998       0.00000000    
  -15.7349997       0.00000000    
  -15.7299995       0.00000000    
  -15.7250004       0.00000000    
  -15.7200003       0.00000000    
  -15.7150002       0.00000000    
  -15.7100000       0.00000000    
  -15.7049999       0.00000000    
  -15.6999998       0.00000000    
  -15.6949997       0.00000000    
  -15.6899996       0.00000000    
  -15.6850004       0.00000000    
  -15.6800003       0.00000000    
  -15.6750002       0.00000000    
  -15.6700001       0.00000000    
  -15.6650000       0.00000000    
  -15.6599998       0.00000000    
  -15.6549997       0.00000000    
  -15.6499996       0.00000000    
  -15.6450005       0.00000000    
  -15.6400003       0.00000000    
  -15.6350002       0.00000000    
  -15.6300001       0.00000000    
  -15.6250000       0.00000000    
  -15.6199999       0.00000000    
  -15.6149998       0.00000000    
  -15.6099997       0.00000000    
  -15.6049995       0.00000000    
  -15.6000004       0.00000000    
  -15.5950003       0.00000000    
  -15.5900002       0.00000000    
  -15.5850000       0.00000000    
  -15.5799999       0.00000000    
  -15.5749998       0.00000000    
  -15.5699997       0.00000000    
  -15.5649996       0.00000000    
  -15.5600004       0.00000000    
  -15.5550003       0.00000000    
  -15.5500002       0.00000000    
  -15.5450001       0.00000000    
  -15.5400000       0.00000000    
  -15.5349998       0.00000000    
  -15.5299997       0.00000000    
  -15.5249996       0.00000000    
  -15.5200005       0.00000000    
  -15.5150003       0.00000000    
  -15.5100002       0.00000000    
  -15.5050001       0.00000000    
  -15.5000000       0.00000000    
  -15.4949999       0.00000000    
  -15.4899998       0.00000000    
  -15.4849997       0.00000000    
  -15.4799995       0.00000000    
  -15.4750004       0.00000000    
  -15.4700003       0.00000000    
  -15.4650002       0.00000000    
  -15.4600000       0.00000000    
  -15.4549999       0.00000000    
  -15.4499998       0.00000000    
  -15.4449997       0.00000000    
  -15.4399996       0.00000000    
  -15.4350004       0.00000000    
  -15.4300003       0.00000000    
  -15.4250002       0.00000000    
  -15.4200001       0.00000000    
  -15.4150000       0.00000000    
  -15.4099998       0.00000000    
  -15.4049997       0.00000000    
  -15.3999996       0.00000000    
  -15.3950005       0.00000000    
  -15.3900003       0.00000000    
  -15.3850002       0.00000000    
  -15.3800001       0.00000000    
  -15.3750000      -0.00000000    
  -15.3699999      -0.00000000    
  -15.3649998      -0.00000000    
  -15.3599997      -0.00000000    
  -15.3549995       0.00000000    
  -15.3500004       0.00000000    
  -15.3450003       0.00000000    
  -15.3400002      -0.00000000    
  -15.3350000      -0.00000000    
  -15.3299999      -0.00000000    
  -15.3249998       0.00000000    
  -15.3199997       0.00000000    
  -15.3149996       0.00000000    
  -15.3100004       0.00000000    
  -15.3050003      -0.00000000    
  -15.3000002      -1.40129846E-45
  -15.2950001      -1.40129846E-45
  -15.2900000      -0.00000000    
  -15.2849998       1.40129846E-45
  -15.2799997       4.20389539E-45
  -15.2749996       5.60519386E-45
  -15.2700005       8.40779079E-45
  -15.2650003       8.40779079E-45
  -15.2600002       5.60519386E-45
  -15.2550001      -7.00649232E-45
  -15.2500000      -2.66246708E-44
  -15.2449999      -4.90454463E-44
  -15.2399998      -7.00649232E-44
  -15.2349997      -7.00649232E-44
  -15.2299995      -2.80259693E-44
  -15.2250004       7.00649232E-44
  -15.2200003       2.25609053E-43
  -15.2150002       4.03573958E-43
  -15.2100000       5.24085626E-43
  -15.2049999       4.65231090E-43
  -15.1999998       9.24856986E-44
  -15.1949997      -6.86636248E-43
  -15.1899996      -1.81468151E-42
  -15.1850004      -2.99457482E-42
  -15.1800003      -3.62656043E-42
  -15.1750002      -2.86565536E-42
  -15.1700001       1.35925951E-43
  -15.1650000       5.77475097E-42
  -15.1599998       1.33880055E-41
  -15.1549997       2.06691523E-41
  -15.1499996       2.34759532E-41
  -15.1450005       1.64456388E-41
  -15.1400003      -5.25627054E-42
  -15.1350002      -4.29301798E-41
  -15.1300001      -9.07060496E-41
  -15.1250000      -1.32572644E-40
  -15.1199999      -1.42165933E-40
  -15.1149998      -8.77591189E-41
  -15.1099997       5.60981814E-41
  -15.1049995       2.90612486E-40
  -15.1000004       5.72612591E-40
  -15.0950003       8.00479136E-40
  -15.0900002       8.18099063E-40
  -15.0850000       4.48967620E-40
  -15.0799999      -4.33194605E-40
  -15.0749998      -1.80353558E-39
  -15.0699997      -3.38115943E-39
  -15.0649996      -4.56815172E-39
  -15.0600004      -4.49513146E-39
  -15.0550003      -2.23145990E-39
  -15.0500002       2.81794815E-39
  -15.0450001       1.03798325E-38
  -15.0400000       1.87961208E-38
  -15.0349998       2.47793457E-38
  -15.0299997       2.37511682E-38
  -15.0249996       1.10268653E-38
  -15.0200005      -1.60989351E-38
  -15.0150003      -5.56876851E-38
  -15.0100002      -9.87286515E-38
  -15.0050001      -1.28223125E-37
  -15.0000000      -1.21251341E-37
  -14.9949999      -5.51501301E-38
  -14.9899998       8.21541829E-38
  -14.9849997       2.79451783E-37
  -14.9799995       4.91254750E-37
  -14.9750004       6.34527002E-37
  -14.9700003       5.99754711E-37
  -14.9650002       2.81029959E-37
  -14.9600000      -3.75452476E-37
  -14.9549999      -1.31351449E-36
  -14.9499998      -2.31869830E-36
  -14.9449997      -3.00658563E-36
  -14.9399996      -2.87632092E-36
  -14.9350004      -1.44815753E-36
  -14.9300003       1.52009952E-36
  -14.9250002       5.77956615E-36
  -14.9200001       1.03832527E-35
  -14.9150000       1.36413034E-35
  -14.9099998       1.33575748E-35
  -14.9049997       7.42223879E-36
  -14.8999996      -5.26734111E-36
  -14.8950005      -2.37373262E-35
  -14.8900003      -4.40685571E-35
  -14.8850002      -5.92025619E-35
  -14.8800001      -5.99026755E-35
  -14.8750000      -3.71641636E-35
  -14.8699999       1.40456723E-35
  -14.8649998       9.04405896E-35
  -14.8599997       1.76843241E-34
  -14.8549995       2.45252386E-34
  -14.8500004       2.58427681E-34
  -14.8450003       1.79146418E-34
  -14.8400002      -1.52941357E-35
  -14.8350000      -3.16044215E-34
  -14.8299999      -6.68345267E-34
  -14.8249998      -9.66880838E-34
  -14.8199997      -1.06795691E-33
  -14.8149996      -8.23027329E-34
  -14.8100004      -1.32346464E-34
  -14.8050003       9.90800678E-34
  -14.8000002       2.36392153E-33
  -14.7950001       3.61263687E-33
  -14.7900000       4.20767762E-33
  -14.7849998       3.57901920E-33
  -14.7799997       1.30488836E-33
  -14.7749996      -2.65561880E-33
  -14.7700005      -7.74963238E-33
  -14.7650003      -1.27255345E-32
  -14.7600002      -1.57289505E-32
  -14.7550001      -1.46658466E-32
  -14.7500000      -7.83471907E-33
  -14.7449999       5.26682228E-33
  -14.7399998       2.31648530E-32
  -14.7349997       4.19538254E-32
  -14.7299995       5.54816348E-32
  -14.7250004       5.64186742E-32
  -14.7200003       3.82566576E-32
  -14.7150002      -2.02374963E-33
  -14.7100000      -6.12348274E-32
  -14.7049999      -1.28137900E-31
  -14.6999998      -1.83521763E-31
  -14.6949997      -2.03064839E-31
  -14.6899996      -1.63272815E-31
  -14.6850004      -4.98572822E-32
  -14.6800003       1.33204786E-31
  -14.6750002       3.56707052E-31
  -14.6700001       5.64639260E-31
  -14.6650000       6.80920008E-31
  -14.6599998       6.25823741E-31
  -14.6549997       3.40832260E-31
  -14.6499996      -1.82731337E-31
  -14.6450005      -8.79164356E-31
  -14.6400003      -1.59780414E-30
  -14.6350002      -2.11579861E-30
  -14.6300001      -2.17984274E-30
  -14.6250000      -1.57531750E-30
  -14.6199999      -2.11674183E-31
  -14.6149998       1.79694812E-30
  -14.6099997       4.08381408E-30
  -14.6049995       6.04302311E-30
  -14.6000004       6.92454796E-30
  -14.5950003       6.01303691E-30
  -14.5900002       2.86659062E-30
  -14.5850000      -2.43648758E-30
  -14.5799999      -9.11768262E-30
  -14.5749998      -1.56671151E-29
  -14.5699997      -2.00278478E-29
  -14.5649996      -2.00198236E-29
  -14.5600004      -1.39619328E-29
  -14.5550003      -1.37377034E-30
  -14.5500002       1.64292658E-29
  -14.5450001       3.60690537E-29
  -14.5400000       5.23664866E-29
  -14.5349998       5.92424116E-29
  -14.5299997       5.12127522E-29
  -14.5249996       2.52368970E-29
  -14.5200005      -1.75125983E-29
  -14.5150003      -7.05159629E-29
  -14.5100002      -1.21964317E-28
  -14.5050001      -1.56399390E-28
  -14.5000000      -1.57983407E-28
  -14.4949999      -1.14980377E-28
  -14.4899998      -2.45347827E-29
  -14.4849997       1.03552679E-28
  -14.4799995       2.45478862E-28
  -14.4750004       3.65693435E-28
  -14.4700003       4.23252379E-28
  -14.4650002       3.81731328E-28
  -14.4600000       2.20966396E-28
  -14.4549999      -5.21709626E-29
  -14.4499998      -3.97329820E-28
  -14.4449997      -7.41707640E-28
  -14.4399996      -9.90499030E-28
  -14.4350004      -1.04661543E-27
  -14.4300003      -8.36856813E-28
  -14.4250002      -3.39087267E-28
  -14.4200001       3.96874723E-28
  -14.4150000       1.24223743E-27
  -14.4099998       2.00192406E-27
  -14.4049997       2.44893490E-27
  -14.3999996       2.37687777E-27
  -14.3950005       1.66120047E-27
  -14.3900003       3.14724734E-28
  -14.3850002      -1.47912518E-27
  -14.3800001      -3.37026262E-27
  -14.3750000      -4.89155507E-27
  -14.3699999      -5.55238323E-27
  -14.3649998      -4.96207569E-27
  -14.3599997      -2.95754546E-27
  -14.3549995       2.97940231E-28
  -14.3500004       4.27812250E-27
  -14.3450003       8.14383714E-27
  -14.3400002       1.08869368E-26
  -14.3350000       1.15518434E-26
  -14.3299999       9.49406348E-27
  -14.3249998       4.61608545E-27
  -14.3199997      -2.48625904E-27
  -14.3149996      -1.05249337E-26
  -14.3100004      -1.76999094E-26
  -14.3050003      -2.20495744E-26
  -14.3000002      -2.19158271E-26
  -14.2950001      -1.64267495E-26
  -14.2900000      -5.87516639E-27
  -14.2849998       8.12592599E-27
  -14.2799997       2.27953577E-26
  -14.2749996       3.46637500E-26
  -14.2700005       4.03201970E-26
  -14.2650003       3.72831533E-26
  -14.2600002       2.47934699E-26
  -14.2550001       4.31038221E-27
  -14.2500000      -2.04716261E-26
  -14.2449999      -4.41752616E-26
  -14.2399998      -6.08194748E-26
  -14.2349997      -6.52374225E-26
  -14.2299995      -5.45232308E-26
  -14.2250004      -2.91365560E-26
  -14.2200003       6.68158793E-27
  -14.2150002       4.54060264E-26
  -14.2100000       7.76603917E-26
  -14.2049999       9.43655198E-26
  -14.1999998       8.91564494E-26
  -14.1949997       6.04741201E-26
  -14.1899996       1.27241022E-26
  -14.1850004      -4.39612738E-26
  -14.1800003      -9.55275982E-26
  -14.1750002      -1.27152151E-25
  -14.1700001      -1.27132109E-25
  -14.1650000      -9.05907094E-26
  -14.1599998      -2.19764307E-26
  -14.1549997       6.45261781E-26
  -14.1499996       1.47151426E-25
  -14.1450005       2.01150681E-25
  -14.1400003       2.05039691E-25
  -14.1350002       1.47123656E-25
  -14.1300001       3.06111280E-26
  -14.1250000      -1.24299950E-25
  -14.1199999      -2.82472453E-25
  -14.1149998      -4.00241128E-25
  -14.1099997      -4.35310408E-25
  -14.1049995      -3.58210594E-25
  -14.1000004      -1.62636988E-25
  -14.0950003       1.28181947E-25
  -14.0900002       4.61431762E-25
  -14.0850000       7.62124684E-25
  -14.0799999       9.47449163E-25
  -14.0749998       9.45704794E-25
  -14.0699997       7.15951570E-25
  -14.0649996       2.63683512E-25
  -14.0600004      -3.51926898E-25
  -14.0550003      -1.02233494E-24
  -14.0500002      -1.60628370E-24
  -14.0450001      -1.95678367E-24
  -14.0400000      -1.95362488E-24
  -14.0349998      -1.53464853E-24
  -14.0299997      -7.18368492E-25
  -14.0249996       3.88421181E-25
  -14.0200005       1.60172705E-24
  -14.0150003       2.68990781E-24
  -14.0100002       3.41720305E-24
  -14.0050001       3.59299479E-24
  -14.0000000       3.11638929E-24
  -13.9949999       2.00574019E-24
  -13.9899998       4.05196407E-25
  -13.9849997      -1.43501520E-24
  -13.9799995      -3.20211697E-24
  -13.9750004      -4.57993709E-24
  -13.9700003      -5.31131409E-24
  -13.9650002      -5.24983619E-24
  -13.9600000      -4.38874639E-24
  -13.9549999      -2.85972964E-24
  -13.9499998      -9.01398816E-25
  -13.9449997       1.19511076E-24
  -13.9399996       3.14974588E-24
  -13.9350004       4.74955796E-24
  -13.9300003       5.88162937E-24
  -13.9250002       6.53303126E-24
  -13.9200001       6.75708590E-24
  -13.9150000       6.61555440E-24
  -13.9099998       6.11533691E-24
  -13.9049997       5.16297353E-24
  -13.8999996       3.55871957E-24
  -13.8950005       1.04361959E-24
  -13.8900003      -2.60109568E-24
  -13.8850002      -7.41991366E-24
  -13.8800001      -1.31473925E-23
  -13.8750000      -1.91137984E-23
  -13.8699999      -2.42347678E-23
  -13.8649998      -2.71158756E-23
  -13.8599997      -2.62801027E-23
  -13.8549995      -2.04959300E-23
  -13.8500004      -9.15211336E-24
  -13.8450003       7.39979613E-24
  -13.8400002       2.76255176E-23
  -13.8350000       4.87928866E-23
  -13.8299999       6.72147988E-23
  -13.8249998       7.87562819E-23
  -13.8199997       7.95545649E-23
  -13.8149996       6.68437754E-23
  -13.8100004       3.97337342E-23
  -13.8050003      -2.25601227E-25
  -13.8000002      -4.88464660E-23
  -13.7950001      -9.95744221E-23
  -13.7900000      -1.44251269E-22
  -13.7849998      -1.74298034E-22
  -13.7799997      -1.82154673E-22
  -13.7749996      -1.62741311E-22
  -13.7700005      -1.14676028E-22
  -13.7650003      -4.10006543E-23
  -13.7600002       5.07656794E-23
  -13.7550001       1.49316728E-22
  -13.7500000       2.40935109E-22
  -13.7449999       3.11368448E-22
  -13.7399998       3.47922798E-22
  -13.7349997       3.41440734E-22
  -13.7299995       2.87846762E-22
  -13.7250004       1.89012815E-22
  -13.7200003       5.28173899E-23
  -13.7150002      -1.07592209E-22
  -13.7100000      -2.75192701E-22
  -13.7049999      -4.30900565E-22
  -13.6999998      -5.55541446E-22
  -13.6949997      -6.31728699E-22
  -13.6899996      -6.45482798E-22
  -13.6850004      -5.87524619E-22
  -13.6800003      -4.54266751E-22
  -13.6750002      -2.48587212E-22
  -13.6700001       1.95448336E-23
  -13.6650000       3.32591457E-22
  -13.6599998       6.65242943E-22
  -13.6549997       9.84757106E-22
  -13.6499996       1.25220625E-21
  -13.6450005       1.42500793E-21
  -13.6400003       1.46100291E-21
  -13.6350002       1.32407897E-21
  -13.6300001       9.90967826E-22
  -13.6250000       4.58409369E-22
  -13.6199999      -2.50517056E-22
  -13.6149998      -1.08235048E-21
  -13.6099997      -1.95295889E-21
  -13.6049995      -2.75217308E-21
  -13.6000004      -3.35389184E-21
  -13.5950003      -3.63133581E-21
  -13.5900002      -3.47608758E-21
  -13.5850000      -2.81857634E-21
  -13.5799999      -1.64689762E-21
  -13.5749998      -2.05143736E-23
  -13.5699997       1.92438258E-21
  -13.5649996       3.98027153E-21
  -13.5600004       5.88548497E-21
  -13.5550003       7.35247081E-21
  -13.5500002       8.10452419E-21
  -13.5450001       7.91670977E-21
  -13.5400000       6.65545442E-21
  -13.5349998       4.31087075E-21
  -13.5299997       1.01622369E-21
  -13.5249996      -2.94968709E-21
  -13.5200005      -7.17949312E-21
  -13.5150003      -1.11732625E-20
  -13.5100002      -1.43906792E-20
  -13.5050001      -1.63141359E-20
  -13.5000000      -1.65158387E-20
  -13.4949999      -1.47209149E-20
  -13.4899998      -1.08588838E-20
  -13.4849997      -5.09650209E-21
  -13.4799995       2.15301967E-21
  -13.4750004       1.02473251E-20
  -13.4700003       1.83590879E-20
  -13.4650002       2.55449093E-20
  -13.4600000       3.08344336E-20
  -13.4549999       3.33331330E-20
  -13.4499998       3.23306321E-20
  -13.4449997       2.74047070E-20
  -13.4399996       1.85106251E-20
  -13.4350004       6.04459527E-21
  -13.4300003      -9.12936462E-21
  -13.4250002      -2.56986001E-20
  -13.4200001      -4.19738682E-20
  -13.4150000      -5.60168068E-20
  -13.4099998      -6.58197178E-20
  -13.4049997      -6.95275419E-20
  -13.3999996      -6.56839051E-20
  -13.3950005      -5.34762540E-20
  -13.3900003      -3.29488139E-20
  -13.3850002      -5.14986130E-21
  -13.3800001       2.78187238E-20
  -13.3750000       6.28753555E-20
  -13.3699999       9.61698145E-20
  -13.3649998       1.23428789E-19
  -13.3599997       1.40414542E-19
  -13.3549995       1.43456628E-19
  -13.3500004       1.29997211E-19
  -13.3450003       9.90824015E-20
  -13.3400002       5.17260368E-20
  -13.3350000      -8.92021071E-21
  -13.3299999      -7.76398315E-20
  -13.3249998      -1.47492184E-19
  -13.3199997      -2.10413332E-19
  -13.3149996      -2.58034184E-19
  -13.3100004      -2.82640920E-19
  -13.3050003      -2.78176549E-19
  -13.3000002      -2.41166136E-19
  -13.2950001      -1.71446637E-19
  -13.2900000      -7.25937518E-20
  -13.2849998       4.80347401E-20
  -13.2799997       1.79682822E-19
  -13.2749996       3.09005519E-19
  -13.2700005       4.21254833E-19
  -13.2650003       5.01747959E-19
  -13.2600002       5.37485522E-19
  -13.2550001       5.18765184E-19
  -13.2500000       4.40615279E-19
  -13.2449999       3.03888760E-19
  -13.2399998       1.15866613E-19
  -13.2349997      -1.09740876E-19
  -13.2299995      -3.53461281E-19
  -13.2250004      -5.91403739E-19
  -13.2200003      -7.97224060E-19
  -13.2150002      -9.44593524E-19
  -13.2100000      -1.00997957E-18
  -13.2049999      -9.75502782E-19
  -13.1999998      -8.31581679E-19
  -13.1949997      -5.79063910E-19
  -13.1899996      -2.30542578E-19
  -13.1850004       1.89395965E-19
  -13.1800003       6.45183145E-19
  -13.1750002       1.09260964E-18
  -13.1700001       1.48243608E-18
  -13.1650000       1.76506467E-18
  -13.1599998       1.89590355E-18
  -13.1549997       1.84091093E-18
  -13.1499996       1.58173859E-18
  -13.1450005       1.11981457E-18
  -13.1400003       4.78763763E-19
  -13.1350002      -2.95329199E-19
  -13.1300001      -1.13613278E-18
  -13.1250000      -1.96181868E-18
  -13.1199999      -2.68212135E-18
  -13.1149998      -3.20718500E-18
  -13.1099997      -3.45740465E-18
  -13.1049995      -3.37327273E-18
  -13.1000004      -2.92411986E-18
  -13.0950003      -2.11466552E-18
  -13.0900002      -9.88428409E-19
  -13.0850000       3.72700959E-19
  -13.0799999       1.85304587E-18
  -13.0749998       3.31180101E-18
  -13.0699997       4.59520213E-18
  -13.0649996       5.55125004E-18
  -13.0600004       6.04567905E-18
  -13.0550003       5.97760002E-18
  -13.0500002       5.29321022E-18
  -13.0450001       3.99597223E-18
  -13.0400000       2.15195793E-18
  -13.0349998      -1.10622844E-19
  -13.0299997      -2.60816582E-18
  -13.0249996      -5.11457477E-18
  -13.0200005      -7.37961904E-18
  -13.0150003      -9.15145894E-18
  -13.0100002      -1.02015176E-17
  -13.0050001      -1.03495225E-17
  -13.0000000      -9.48629338E-18
  -12.9949999      -7.59181817E-18
  -12.9899998      -4.74638428E-18
  -12.9849997      -1.13293862E-18
  -12.9799995       2.97046783E-18
  -12.9750004       7.20847951E-18
  -12.9700003       1.11757916E-17
  -12.9650002       1.44524070E-17
  -12.9600000       1.66440485E-17
  -12.9549999       1.74242436E-17
  -12.9499998       1.65739532E-17
  -12.9449997       1.40144414E-17
  -12.9399996       9.82925901E-18
  -12.9350004       4.27198130E-18
  -12.9300003      -2.24259914E-18
  -12.9250002      -9.16460532E-18
  -12.9200001      -1.58515202E-17
  -12.9150000      -2.16240762E-17
  -12.9099998      -2.58311482E-17
  -12.9049997      -2.79175938E-17
  -12.8999996      -2.74885022E-17
  -12.8950005      -2.43626975E-17
  -12.8900003      -1.86091881E-17
  -12.8850002      -1.05614528E-17
  -12.8800001      -8.06321599E-19
  -12.8750000       9.85335809E-18
  -12.8699999       2.04604696E-17
  -12.8649998       2.99853535E-17
  -12.8599997       3.74208303E-17
  -12.8549995       4.18820569E-17
  -12.8500004       4.27018028E-17
  -12.8450003       3.95115029E-17
  -12.8400002       3.22994673E-17
  -12.8350000       2.14390689E-17
  -12.8299999       7.68224969E-18
  -12.8249998      -7.88328518E-18
  -12.8199997      -2.39117236E-17
  -12.8149996      -3.89068338E-17
  -12.8100004      -5.13517165E-17
  -12.8050003      -5.98504282E-17
  -12.8000002      -6.32693113E-17
  -12.7950001      -6.08649950E-17
  -12.7900000      -5.23864864E-17
  -12.7849998      -3.81398389E-17
  -12.7799997      -1.90064945E-17
  -12.7749996       3.59024510E-18
  -12.7700005       2.77720564E-17
  -12.7650003       5.13422569E-17
  -12.7600002       7.19640979E-17
  -12.7550001       8.73679280E-17
  -12.7500000       9.55705686E-17
  -12.7449999       9.50876010E-17
  -12.7399998       8.51182681E-17
  -12.7349997       6.56831500E-17
  -12.7299995       3.76980583E-17
  -12.7250004       2.97140792E-18
  -12.7200003      -3.58808351E-17
  -12.7150002      -7.56015948E-17
  -12.7100000      -1.12531689E-16
  -12.7049999      -1.42904861E-16
  -12.6999998      -1.63176305E-16
  -12.6949997      -1.70357781E-16
  -12.6899996      -1.62328584E-16
  -12.6850004      -1.38094468E-16
  -12.6800003      -9.79679564E-17
  -12.6750002      -4.36498246E-17
  -12.6700001       2.18002706E-17
  -12.6650000       9.41078354E-17
  -12.6599998       1.68035203E-16
  -12.6549997       2.37725567E-16
  -12.6499996       2.97115653E-16
  -12.6450005       3.40387204E-16
  -12.6400003       3.62422872E-16
  -12.6350002       3.59233767E-16
  -12.6300001       3.28324423E-16
  -12.6250000       2.68967610E-16
  -12.6199999       1.82366869E-16
  -12.6149998       7.16930738E-17
  -12.6099997      -5.80096867E-17
  -12.6049995      -2.00044605E-16
  -12.6000004      -3.46394600E-16
  -12.5950003      -4.88144929E-16
  -12.5900002      -6.15968183E-16
  -12.5850000      -7.20635673E-16
  -12.5799999      -7.93521853E-16
  -12.5749998      -8.27063351E-16
  -12.5699997      -8.15141469E-16
  -12.5649996      -7.53357403E-16
  -12.5600004      -6.39182285E-16
  -12.5550003      -4.71970517E-16
  -12.5500002      -2.52836185E-16
  -12.5450001       1.55949205E-17
  -12.5400000       3.29536183E-16
  -12.5349998       6.84462231E-16
  -12.5299997       1.07556413E-15
  -12.5249996       1.49819493E-15
  -12.5200005       1.94826683E-15
  -12.5150003       2.42255425E-15
  -12.5100002       2.91888612E-15
  -12.5050001       3.43618587E-15
  -12.5000000       3.97435863E-15
  -12.4949999       4.53402379E-15
  -12.4899998       5.11609128E-15
  -12.4849997       5.72120146E-15
  -12.4799995       6.34904176E-15
  -12.4750004       6.99755390E-15
  -12.4700003       7.66204828E-15
  -12.4650002       8.33422398E-15
  -12.4600000       9.00109810E-15
  -12.4549999       9.64382840E-15
  -12.4499998       1.02364025E-14
  -12.4449997       1.07441835E-14
  -12.4399996       1.11222643E-14
  -12.4350004       1.13136158E-14
  -12.4300003       1.12469907E-14
  -12.4250002       1.08345949E-14
  -12.4200001       9.96949309E-15
  -12.4150000       8.52279808E-15
  -12.4099998       6.34067392E-15
  -12.4049997       3.24119910E-15
  -12.3999996      -9.88788781E-16
  -12.3950005      -6.59677560E-15
  -12.3900003      -1.38674371E-14
  -12.3850002      -2.31251023E-14
  -12.3800001      -3.47356556E-14
  -12.3750000      -4.91076194E-14
  -12.3699999      -6.66921894E-14
  -12.3649998      -8.79821796E-14
  -12.3599997      -1.13509171E-13
  -12.3549995      -1.43839205E-13
  -12.3500004      -1.79566512E-13
  -12.3450003      -2.21304908E-13
  -12.3400002      -2.69677266E-13
  -12.3350000      -3.25302339E-13
  -12.3299999      -3.88779693E-13
  -12.3249998      -4.60671269E-13
  -12.3199997      -5.41482061E-13
  -12.3149996      -6.31637971E-13
  -12.3100004      -7.31461604E-13
  -12.3050003      -8.41146976E-13
  -12.3000002      -9.60733121E-13
  -12.2950001      -1.09007562E-12
  -12.2900000      -1.22882032E-12
  -12.2849998      -1.37637438E-12
  -12.2799997      -1.53187879E-12
  -12.2749996      -1.69418407E-12
  -12.2700005      -1.86182385E-12
  -12.2650003      -2.03299313E-12
  -12.2600002      -2.20552981E-12
  -12.2550001      -2.37689642E-12
  -12.2500000      -2.54416887E-12
  -12.2449999      -2.70402797E-12
  -12.2399998      -2.85275492E-12
  -12.2349997      -2.98623322E-12
  -12.2299995      -3.09995627E-12
  -12.2250004      -3.18903974E-12
  -12.2200003      -3.24824195E-12
  -12.2150002      -3.27198772E-12
  -12.2100000      -3.25440543E-12
  -12.2049999      -3.18936067E-12
  -12.1999998      -3.07051108E-12
  -12.1949997      -2.89135382E-12
  -12.1899996      -2.64529392E-12
  -12.1850004      -2.32571059E-12
  -12.1800003      -1.92603442E-12
  -12.1750002      -1.43983263E-12
  -12.1700001      -8.60901303E-13
  -12.1650000      -1.83362358E-13
  -12.1599998       5.98231046E-13
  -12.1549997       1.48878501E-12
  -12.1499996       2.49254892E-12
  -12.1450005       3.61299640E-12
  -12.1400003       4.85270374E-12
  -12.1350002       6.21322178E-12
  -12.1300001       7.69495665E-12
  -12.1250000       9.29703536E-12
  -12.1199999       1.10171958E-11
  -12.1149998       1.28516538E-11
  -12.1099997       1.47949986E-11
  -12.1049995       1.68400762E-11
  -12.1000004       1.89778818E-11
  -12.0950003       2.11974969E-11
  -12.0900002       2.34859701E-11
  -12.0850000       2.58282892E-11
  -12.0799999       2.82072855E-11
  -12.0749998       3.06036342E-11
  -12.0699997       3.29957971E-11
  -12.0649996       3.53600621E-11
  -12.0600004       3.76705230E-11
  -12.0550003       3.98991326E-11
  -12.0500002       4.20157485E-11
  -12.0450001       4.39882505E-11
  -12.0400000       4.57826069E-11
  -12.0349998       4.73630267E-11
  -12.0299997       4.86921128E-11
  -12.0249996       4.97310526E-11
  -12.0200005       5.04398086E-11
  -12.0150003       5.07773615E-11
  -12.0100002       5.07020120E-11
  -12.0050001       5.01715752E-11
  -12.0000000       4.91438175E-11
  -11.9949999       4.75767065E-11
  -11.9899998       4.54288239E-11
  -11.9849997       4.26597334E-11
  -11.9799995       3.92304175E-11
  -11.9750004       3.51037220E-11
  -11.9700003       3.02447407E-11
  -11.9650002       2.46214056E-11
  -11.9600000       1.82048699E-11
  -11.9549999       1.09700703E-11
  -11.9499998       2.89620996E-12
  -11.9449997      -6.03271513E-12
  -11.9399996      -1.58274071E-11
  -11.9350004      -2.64927316E-11
  -11.9300003      -3.80272307E-11
  -11.9250002      -5.04226105E-11
  -11.9200001      -6.36632205E-11
  -11.9150000      -7.77256662E-11
  -11.9099998      -9.25782923E-11
  -11.9049997      -1.08180784E-10
  -11.8999996      -1.24483729E-10
  -11.8950005      -1.41428466E-10
  -11.8900003      -1.58946439E-10
  -11.8850002      -1.76959350E-10
  -11.8800001      -1.95378616E-10
  -11.8750000      -2.14105372E-10
  -11.8699999      -2.33030345E-10
  -11.8649998      -2.52034060E-10
  -11.8599997      -2.70986428E-10
  -11.8549995      -2.89747309E-10
  -11.8500004      -3.08166492E-10
  -11.8450003      -3.26084160E-10
  -11.8400002      -3.43331197E-10
  -11.8350000      -3.59729468E-10
  -11.8299999      -3.75092901E-10
  -11.8249998      -3.89227539E-10
  -11.8199997      -4.01932820E-10
  -11.8149996      -4.13001910E-10
  -11.8100004      -4.22223340E-10
  -11.8050003      -4.29381614E-10
  -11.8000002      -4.34258268E-10
  -11.7950001      -4.36633535E-10
  -11.7900000      -4.36287395E-10
  -11.7849998      -4.33001107E-10
  -11.7799997      -4.26558788E-10
  -11.7749996      -4.16749024E-10
  -11.7700005      -4.03366313E-10
  -11.7650003      -3.86213200E-10
  -11.7600002      -3.65102004E-10
  -11.7550001      -3.39856282E-10
  -11.7500000      -3.10313414E-10
  -11.7449999      -2.76326073E-10
  -11.7399998      -2.37764392E-10
  -11.7349997      -1.94517916E-10
  -11.7299995      -1.46497592E-10
  -11.7250004      -9.36378336E-11
  -11.7200003      -3.58983607E-11