  -16.0000000       0.00000000    
  -15.9949999       0.00000000    
  -15.9899998       0.00000000    
  -15.9849997       0.00000000    
  -15.9799995       0.00000000    
  -15.9750004       0.00000000    
  -15.9700003       0.00000000    
  -15.9650002       0.00000000    
  -15.9600000       0.00000000    
  -15.9549999       0.00000000    
  -15.9499998       0.00000000    
  -15.9449997       0.00000000    
  -15.9399996       0.00000000    
  -15.9350004       0.00000000    
  -15.9300003       0.00000000    
  -15.9250002       0.00000000    
  -15.9200001       0.00000000    
  -15.9150000       0.00000000    
  -15.9099998       0.00000000    
  -15.9049997       0.00000000    
  -15.8999996       0.00000000    
  -15.8950005       0.00000000    
  -15.8900003       0.00000000    
  -15.8850002       0.00000000    
  -15.8800001       0.00000000    
  -15.8750000       0.00000000    
  -15.8699999       0.00000000    
  -15.8649998       0.00000000    
  -15.8599997       0.00000000    
  -15.8549995       0.00000000    
  -15.8500004       0.00000000    
  -15.8450003       0.00000000    
  -15.8400002       0.00000000    
  -15.8350000       0.00000000    
  -15.8299999       0.00000000    
  -15.8249998       0.00000000    
  -15.8199997       0.00000000    
  -15.8149996       0.00000000    
  -15.8100004       0.00000000    
  -15.8050003       0.00000000    
  -15.8000002       0.00000000    
  -15.7950001       0.00000000    
  -15.7900000       0.00000000    
  -15.7849998       0.00000000    
  -15.7799997       0.00000000    
  -15.7749996       0.00000000    
  -15.7700005       0.00000000    
  -15.7650003       0.00000000    
  -15.7600002       0.00000000    
  -15.7550001       0.00000000    
  -15.7500000       0.00000000    
  -15.7449999       0.00000000    
  -15.7399998       0.00000000    
  -15.7349997       0.00000000    
  -15.7299995       0.00000000    
  -15.7250004       0.00000000    
  -15.7200003       0.00000000    
  -15.7150002       0.00000000    
  -15.7100000       0.00000000    
  -15.7049999       0.00000000    
  -15.6999998       0.00000000    
  -15.6949997       0.00000000    
  -15.6899996       0.00000000    
  -15.6850004       0.00000000    
  -15.6800003       0.00000000    
  -15.6750002       0.00000000    
  -15.6700001       0.00000000    
  -15.6650000       0.00000000    
  -15.6599998       0.00000000    
  -15.6549997       0.00000000    
  -15.6499996       0.00000000    
  -15.6450005       0.00000000    
  -15.6400003       0.00000000    
  -15.6350002       0.00000000    
  -15.6300001       0.00000000    
  -15.6250000       0.00000000    
  -15.6199999       0.00000000    
  -15.6149998       0.00000000    
  -15.6099997       0.00000000    
  -15.6049995       0.00000000    
  -15.6000004       0.00000000    
  -15.5950003       0.00000000    
  -15.5900002       0.00000000    
  -15.5850000       0.00000000    
  -15.5799999       0.00000000    
  -15.5749998       0.00000000    
  -15.5699997       0.00000000    
  -15.5649996       0.00000000    
  -15.5600004       0.00000000    
  -15.5550003       0.00000000    
  -15.5500002       0.00000000    
  -15.5450001       0.00000000    
  -15.5400000       0.00000000    
  -15.5349998       0.00000000    
  -15.5299997       0.00000000    
  -15.5249996       0.00000000    
  -15.5200005       0.00000000    
  -15.5150003       0.00000000    
  -15.5100002       0.00000000    
  -15.5050001       0.00000000    
  -15.5000000       0.00000000    
  -15.4949999       0.00000000    
  -15.4899998       0.00000000    
  -15.4849997       0.00000000    
  -15.4799995       0.00000000    
  -15.4750004       0.00000000    
  -15.4700003       0.00000000    
  -15.4650002       0.00000000    
  -15.4600000       0.00000000    
  -15.4549999       0.00000000    
  -15.4499998       0.00000000    
  -15.4449997       0.00000000    
  -15.4399996       0.00000000    
  -15.4350004       0.00000000    
  -15.4300003       0.00000000    
  -15.4250002       0.00000000    
  -15.4200001       0.00000000    
  -15.4150000       0.00000000    
  -15.4099998       0.00000000    
  -15.4049997       0.00000000    
  -15.3999996       0.00000000    
  -15.3950005       0.00000000    
  -15.3900003       0.00000000    
  -15.3850002       0.00000000    
  -15.3800001       0.00000000    
  -15.3750000       0.00000000    
  -15.3699999       0.00000000    
  -15.3649998       0.00000000    
  -15.3599997       0.00000000    
  -15.3549995      -0.00000000    
  -15.3500004      -0.00000000    
  -15.3450003      -0.00000000    
  -15.3400002      -0.00000000    
  -15.3350000       0.00000000    
  -15.3299999       0.00000000    
  -15.3249998       1.40129846E-45
  -15.3199997       1.40129846E-45
  -15.3149996       1.40129846E-45
  -15.3100004       0.00000000    
  -15.3050003      -1.40129846E-45
  -15.3000002      -4.20389539E-45
  -15.2950001      -7.00649232E-45
  -15.2900000      -1.12103877E-44
  -15.2849998      -1.12103877E-44
  -15.2799997      -4.20389539E-45
  -15.2749996       1.12103877E-44
  -15.2700005       4.06376555E-44
  -15.2650003       7.42688186E-44
  -15.2600002       9.94921910E-44
  -15.2550001       9.24856986E-44
  -15.2500000       2.38220739E-44
  -15.2449999      -1.30320757E-43
  -15.2399998      -3.64337601E-43
  -15.2349997      -6.27781712E-43
  -15.2299995      -7.91733632E-43
  -15.2250004      -6.67018069E-43
  -15.2200003      -4.20389539E-44
  -15.2150002       1.22053096E-42
  -15.2100000       3.02820598E-42
  -15.2049999       4.89613683E-42
  -15.1999998       5.84341460E-42
  -15.1949997       4.48415509E-42
  -15.1899996      -6.05360937E-43
  -15.1850004      -1.01355918E-41
  -15.1800003      -2.30387481E-41
  -15.1750002      -3.54794758E-41
  -15.1700001      -4.04064412E-41
  -15.1650000      -2.84337471E-41
  -15.1599998       9.26118155E-42
  -15.1549997       7.57752145E-41
  -15.1499996       1.61872393E-40
  -15.1450005       2.40134913E-40
  -15.1400003       2.63501565E-40
  -15.1350002       1.72694621E-40
  -15.1300001      -8.38214702E-41
  -15.1250000      -5.17126777E-40
  -15.1199999      -1.05852264E-39
  -15.1149998      -1.52796043E-39
  -15.1099997      -1.63233895E-39
  -15.1049995      -1.01880284E-39
  -15.1000004       5.99363379E-40
  -15.0950003       3.24861061E-39
  -15.0900002       6.47415725E-39
  -15.0850000       9.17897998E-39
  -15.0799999       9.64790630E-39
  -15.0749998       5.88841309E-39
  -15.0699997      -3.63198906E-39
  -15.0649996      -1.89015965E-38
  -15.0600004      -3.71864003E-38
  -15.0550003      -5.22448292E-38
  -15.0500002      -5.45992461E-38
  -15.0450001      -3.35220356E-38
  -15.0400000       1.89240831E-38
  -15.0349998       1.02158851E-37
  -15.0299997       2.01085657E-37
  -15.0249996       2.82378523E-37
  -15.0200005       2.96392898E-37
  -15.0150003       1.87842770E-37
  -15.0100002      -8.33731052E-38
  -15.0050001      -5.13427686E-37
  -15.0000000      -1.02524404E-36
  -14.9949999      -1.45126523E-36
  -14.9899998      -1.54429817E-36
  -14.9849997      -1.03087909E-36
  -14.9799995       2.87343380E-37
  -14.9750004       2.39607832E-36
  -14.9700003       4.93029264E-36
  -14.9650002       7.09498730E-36
  -14.9600000       7.71801581E-36
  -14.9549999       5.49922825E-36
  -14.9499998      -5.22088787E-37
  -14.9449997      -1.03383867E-35
  -14.9399996      -2.23456353E-35
  -14.9350004      -3.29807325E-35
  -14.9300003      -3.69458879E-35
  -14.9250002      -2.82977191E-35
  -14.9200001      -2.49201771E-36
  -14.9150000       4.08648845E-35
  -14.9099998       9.52530566E-35
  -14.9049997       1.45590267E-34
  -14.8999996       1.69052825E-34
  -14.8950005       1.39535301E-34
  -14.8900003       3.61435068E-35
  -14.8850002      -1.45279553E-34
  -14.8800001      -3.80409028E-34
  -14.8750000      -6.09036205E-34
  -14.8699999      -7.37511217E-34
  -14.8649998      -6.55820742E-34
  -14.8599997      -2.71072533E-34
  -14.8549995       4.46288231E-34
  -14.8500004       1.41429731E-33
  -14.8450003       2.40696005E-33
  -14.8400002       3.05889050E-33
  -14.8350000       2.92619592E-33
  -14.8299999       1.61163251E-33
  -14.8249998      -1.05819912E-33
  -14.8199997      -4.84250261E-33
  -14.8149996      -8.94780275E-33
  -14.8100004      -1.20219460E-32
  -14.8050003      -1.23544765E-32
  -14.8000002      -8.31903009E-33
  -14.7950001       9.78245297E-34
  -14.7900000       1.49763564E-32
  -14.7849998       3.10917521E-32
  -14.7799997       4.45956960E-32
  -14.7749996       4.92128733E-32
  -14.7700005       3.85945740E-32
  -14.7650003       8.57769101E-33
  -14.7600002      -4.01903605E-32
  -14.7550001      -1.00024977E-31
  -14.7500000      -1.55377995E-31
  -14.7449999      -1.84407204E-31
  -14.7399998      -1.63568370E-31
  -14.7349997      -7.50838964E-32
  -14.7299995       8.39525252E-32
  -14.7250004       2.93257064E-31
  -14.7200003       5.05127226E-31
  -14.7150002       6.47746147E-31
  -14.7100000       6.38451325E-31
  -14.7049999       4.07065277E-31
  -14.6999998      -7.40697857E-32
  -14.6949997      -7.60591959E-31
  -14.6899996      -1.51753885E-30
  -14.6850004      -2.12307351E-30
  -14.6800003      -2.30342726E-30
  -14.6750002      -1.80134616E-30
  -14.6700001      -4.69957987E-31
  -14.6650000       1.62823722E-30
  -14.6599998       4.14822665E-30
  -14.6549997       6.45107162E-30
  -14.6499996       7.68506233E-30
  -14.6450005       6.97269620E-30
  -14.6400003       3.68727037E-30
  -14.6350002      -2.23371142E-30
  -14.6300001      -1.00256194E-29
  -14.6250000      -1.79916373E-29
  -14.6199999      -2.36559974E-29
  -14.6149998      -2.42332167E-29
  -14.6099997      -1.73919855E-29
  -14.6049995      -2.18819628E-30
  -14.6000004       2.00637845E-29
  -14.5950003       4.52855885E-29
  -14.5900002       6.68028602E-29
  -14.5850000       7.64015326E-29
  -14.5799999       6.62887573E-29
  -14.5749998       3.16944032E-29
  -14.5699997      -2.64556992E-29
  -14.5649996      -9.96041615E-29
  -14.5600004      -1.71251115E-28
  -14.5550003      -2.18981894E-28
  -14.5500002      -2.19087146E-28
  -14.5450001      -1.53318396E-28
  -14.5400000      -1.64933315E-29
  -14.5349998       1.77068013E-28
  -14.5299997       3.90670171E-28
  -14.5249996       5.68097767E-28
  -14.5200005       6.43392142E-28
  -14.5150003       5.57062092E-28
  -14.5100002       2.76119782E-28
  -14.5050001      -1.86732498E-28
  -14.5000000      -7.60799384E-28
  -14.4949999      -1.31801449E-27
  -14.4899998      -1.69072479E-27
  -14.4849997      -1.70718841E-27
  -14.4799995      -1.24026740E-27
  -14.4750004      -2.59394886E-28
  -14.4700003       1.12833504E-27
  -14.4650002       2.66351123E-27
  -14.4600000       3.95903789E-27
  -14.4549999       4.56954459E-27
  -14.4499998       4.09978138E-27
  -14.4449997       2.33308713E-27
  -14.4399996      -6.50689539E-28
  -14.4350004      -4.40484368E-27
  -14.4300003      -8.12773251E-27
  -14.4250002      -1.07786272E-26
  -14.4200001      -1.12959928E-26
  -14.4150000      -8.88713671E-27
  -14.4099998      -3.32876653E-27
  -14.4049997       4.80275506E-27
  -14.3999996       1.40562549E-26
  -14.3950005       2.22512794E-26
  -14.3900003       2.68665502E-26
  -14.3850002       2.56321770E-26
  -14.3800001       1.72186657E-26
  -14.3750000       1.85954892E-27
  -14.3699999      -1.82813507E-26
  -14.3649998      -3.91679177E-26
  -14.3599997      -5.54726804E-26
  -14.3549995      -6.16610168E-26
  -14.3500004      -5.34159967E-26
  -14.3450003      -2.91064005E-26
  -14.3400002       9.08740106E-27
  -14.3350000       5.47794688E-26
  -14.3299999       9.80053918E-26
  -14.3249998       1.26955613E-25
  -14.3199997       1.30623176E-25
  -14.3149996       1.01881996E-25
  -14.3100004       4.02813425E-26
  -14.3050003      -4.62519225E-26
  -14.3000002      -1.41507940E-25
  -14.2950001      -2.23276799E-25
  -14.2900000      -2.67718610E-25
  -14.2849998      -2.55144980E-25
  -14.2799997      -1.76011865E-25
  -14.2749996      -3.56044234E-26
  -14.2700005       1.44093900E-25
  -14.2650003       3.26440208E-25
  -14.2600002       4.66380188E-25
  -14.2550001       5.20168077E-25
  -14.2500000       4.56761262E-25
  -14.2449999       2.68287304E-25
  -14.2399998      -2.33075333E-26
  -14.2349997      -3.65906524E-25
  -14.2299995      -6.84502151E-25
  -14.2250004      -8.95724539E-25
  -14.2200003      -9.27287357E-25
  -14.2150002      -7.38296499E-25
  -14.2100000      -3.35378667E-25
  -14.2049999       2.20283787E-25
  -14.1999998       8.18487119E-25
  -14.1949997       1.31898806E-24
  -14.1899996       1.58150095E-24
  -14.1850004       1.50101031E-24
  -14.1800003       1.04030963E-24
  -14.1750002       2.50963919E-25
  -14.1700001      -7.24670652E-25
  -14.1650000      -1.67414704E-24
  -14.1599998      -2.35693495E-24
  -14.1549997      -2.56060601E-24
  -14.1499996      -2.15921564E-24
  -14.1450005      -1.15931502E-24
  -14.1400003       2.80231127E-25
  -14.1350002       1.86402428E-24
  -14.1300001       3.21332609E-24
  -14.1250000       3.94917890E-24
  -14.1199999       3.78906222E-24
  -14.1149998       2.63453116E-24
  -14.1099997       6.25943428E-25
  -14.1049995      -1.85506519E-24
  -14.1000004      -4.24443849E-24
  -14.0950003      -5.91072966E-24
  -14.0900002      -6.30593911E-24
  -14.0850000      -5.11939804E-24
  -14.0799999      -2.39592499E-24
  -14.0749998       1.41759370E-24
  -14.0699997       5.52051764E-24
  -14.0649996       8.90452700E-24
  -14.0600004       1.05760152E-23
  -14.0550003       9.81061106E-24
  -14.0500002       6.38065804E-24
  -14.0450001       6.94034105E-25
  -14.0400000      -6.20449515E-24
  -14.0349998      -1.27912218E-23
  -14.0299997      -1.73660092E-23
  -14.0249996      -1.84462643E-23
  -14.0200005      -1.51684415E-23
  -14.0150003      -7.59866086E-24
  -14.0100002       3.13795280E-24
  -14.0050001       1.49681971E-23
  -14.0000000       2.52301147E-23
  -13.9949999       3.12288418E-23
  -13.9899998       3.08814243E-23
  -13.9849997       2.33058699E-23
  -13.9799995       9.20325837E-24
  -13.9750004      -9.08850278E-24
  -13.9700003      -2.79270834E-23
  -13.9650002      -4.30555486E-23
  -13.9600000      -5.05297753E-23
  -13.9549999      -4.76900180E-23
  -13.9499998      -3.39472754E-23
  -13.9449997      -1.11707201E-23
  -13.9399996       1.64668577E-23
  -13.9350004       4.32146713E-23
  -13.9300003       6.29329249E-23
  -13.9250002       7.05106659E-23
  -13.9200001       6.31933184E-23
  -13.9150000       4.14834655E-23
  -13.9099998       9.34343738E-24
  -13.9049997      -2.64312737E-23
  -13.8999996      -5.76083536E-23
  -13.8950005      -7.64251916E-23
  -13.8900003      -7.75859910E-23
  -13.8850002      -5.98543542E-23
  -13.8800001      -2.67867376E-23
  -13.8750000       1.36881283E-23
  -13.8699999       5.08820553E-23
  -13.8649998       7.38905310E-23
  -13.8599997       7.45293064E-23
  -13.8549995       4.99519347E-23
  -13.8500004       4.21653924E-24
  -13.8450003      -5.17646834E-23
  -13.8400002      -1.02126570E-22
  -13.8350000      -1.29594221E-22
  -13.8299999      -1.20005774E-22
  -13.8249998      -6.67975797E-23
  -13.8199997       2.57167109E-23
  -13.8149996       1.41321200E-22
  -13.8100004       2.53773726E-22
  -13.8050003       3.31605368E-22
  -13.8000002       3.45139369E-22
  -13.7950001       2.74361557E-22
  -13.7900000       1.15845297E-22
  -13.7849998      -1.13123133E-22
  -13.7799997      -3.74686387E-22
  -13.7749996      -6.15495885E-22
  -13.7700005      -7.76324959E-22
  -13.7650003      -8.04673414E-22
  -13.7600002      -6.67889123E-22
  -13.7550001      -3.63851579E-22
  -13.7500000       7.35964942E-23
  -13.7449999       5.76456434E-22
  -13.7399998       1.05221958E-21
  -13.7349997       1.40024159E-21
  -13.7299995       1.53205976E-21
  -13.7250004       1.39164262E-21
  -13.7200003       9.71084998E-22
  -13.7150002       3.17780234E-22
  -13.7100000      -4.69438326E-22
  -13.7049999      -1.25548488E-21
  -13.6999998      -1.89334089E-21
  -13.6949997      -2.25304511E-21
  -13.6899996      -2.24942195E-21
  -13.6850004      -1.86236989E-21
  -13.6800003      -1.14466812E-21
  -13.6750002      -2.14655868E-22
  -13.6700001       7.65615333E-22
  -13.6650000       1.62279164E-21
  -13.6599998       2.20846076E-21
  -13.6549997       2.43112219E-21
  -13.6499996       2.27615628E-21
  -13.6450005       1.80836727E-21
  -13.6400003       1.15546822E-21
  -13.6350002       4.75424783E-22
  -13.6300001      -8.51696642E-23
  -13.6250000      -4.31603245E-22
  -13.6199999      -5.49673180E-22
  -13.6149998      -5.13598230E-22
  -13.6099997      -4.68758921E-22
  -13.6049995      -5.90856768E-22
  -13.6000004      -1.02945162E-21
  -13.5950003      -1.84904876E-21
  -13.5900002      -2.98348961E-21
  -13.5850000      -4.21839252E-21
  -13.5799999      -5.21155532E-21
  -13.5749998      -5.55322979E-21
  -13.5699997      -4.85852005E-21
  -13.5649996      -2.87493003E-21
  -13.5600004       4.18460367E-22
  -13.5550003       4.74562363E-21
  -13.5500002       9.52371329E-21
  -13.5450001       1.39210442E-20
  -13.5400000       1.69817837E-20
  -13.5349998       1.78010576E-20
  -13.5299997       1.57206451E-20
  -13.5249996       1.05066373E-20
  -13.5200005       2.46918219E-21
  -13.5150003      -7.50867304E-21
  -13.5100002      -1.80507919E-20
  -13.5050001      -2.74738250E-20
  -13.5000000      -3.40544054E-20
  -13.4949999      -3.63337565E-20
  -13.4899998      -3.34042059E-20
  -13.4849997      -2.51208096E-20
  -13.4799995      -1.21918910E-20
  -13.4750004       3.87702905E-21
  -13.4700003       2.09836916E-20
  -13.4650002       3.67432626E-20
  -13.4600000       4.88615394E-20
  -13.4549999       5.54991081E-20
  -13.4499998       5.55585100E-20
  -13.4449997       4.88412282E-20
  -13.4399996       3.60475714E-20
  -13.4350004       1.86255628E-20
  -13.4300003      -1.49339937E-21
  -13.4250002      -2.22104021E-20
  -13.4200001      -4.15556023E-20
  -13.4150000      -5.79022487E-20
  -13.4099998      -7.00584045E-20
  -13.4049997      -7.72316178E-20
  -13.3999996      -7.88986000E-20
  -13.3950005      -7.46424908E-20
  -13.3900003      -6.40345974E-20
  -13.3850002      -4.66314508E-20
  -13.3800001      -2.21280184E-20
  -13.3750000       9.33636496E-21
  -13.3699999       4.67775095E-20
  -13.3649998       8.79758280E-20
  -13.3599997       1.29228333E-19
  -13.3549995       1.65373968E-19
  -13.3500004       1.90185547E-19
  -13.3450003       1.97153911E-19
  -13.3400002       1.80598770E-19
  -13.3350000       1.36950064E-19
  -13.3299999       6.59680868E-20
  -13.3249998      -2.83656711E-20
  -13.3199997      -1.37538461E-19
  -13.3149996      -2.48956963E-19
  -13.3100004      -3.47215576E-19
  -13.3050003      -4.16088392E-19
  -13.3000002      -4.40994697E-19
  -13.2950001      -4.11564799E-19
  -13.2900000      -3.23863544E-19
  -13.2849998      -1.81843250E-19
  -13.2799997       2.31007453E-21
  -13.2749996       2.09104667E-19
  -13.2700005       4.13898250E-19
  -13.2650003       5.90017695E-19
  -13.2600002       7.12391983E-19
  -13.2550001       7.61138978E-19
  -13.2500000       7.24533961E-19
  -13.2449999       6.00880902E-19
  -13.2399998       3.98991241E-19
  -13.2349997       1.37212565E-19
  -13.2299995      -1.58801643E-19
  -13.2250004      -4.59183313E-19
  -13.2200003      -7.33283516E-19
  -13.2150002      -9.52912272E-19
  -13.2100000      -1.09494508E-18
  -13.2049999      -1.14303756E-18
  -13.1999998      -1.08840983E-18
  -13.1949997      -9.29873535E-19
  -13.1899996      -6.73414406E-19
  -13.1850004      -3.31680943E-19
  -13.1800003       7.63514072E-20
  -13.1750002       5.25450147E-19
  -13.1700001       9.84078990E-19
  -13.1650000       1.41460199E-18
  -13.1599998       1.77425278E-18
  -13.1549997       2.01737523E-18
  -13.1499996       2.09927955E-18
  -13.1450005       1.98171899E-18
  -13.1400003       1.63956483E-18
  -13.1350002       1.06778408E-18
  -13.1300001       2.87470880E-19
  -13.1250000      -6.50490439E-19
  -13.1199999      -1.66546116E-18
  -13.1149998      -2.65169951E-18
  -13.1099997      -3.48787654E-18
  -13.1049995      -4.05085111E-18
  -13.1000004      -4.23224148E-18
  -13.0950003      -3.95556652E-18
  -13.0900002      -3.19133477E-18
  -13.0850000      -1.96741435E-18
  -13.0799999      -3.72504219E-19
  -13.0749998       1.44859198E-18
  -13.0699997       3.30798771E-18
  -13.0649996       4.99482053E-18
  -13.0600004       6.30001806E-18
  -13.0550003       7.04247594E-18
  -13.0500002       7.09299765E-18
  -13.0450001       6.39261266E-18
  -13.0400000       4.96266016E-18
  -13.0349998       2.90521610E-18
  -13.0299997       3.93916229E-19
  -13.0249996      -2.34345830E-18
  -13.0200005      -5.04811867E-18
  -13.0150003      -7.45604143E-18
  -13.0100002      -9.32320480E-18
  -13.0050001      -1.04476013E-17
  -13.0000000      -1.06861842E-17
  -12.9949999      -9.96596301E-18
  -12.9899998      -8.28937379E-18
  -12.9849997      -5.73474930E-18
  -12.9799995      -2.45294579E-18
  -12.9750004       1.33907761E-18
  -12.9700003       5.36739219E-18
  -12.9650002       9.31333405E-18
  -12.9600000       1.28297351E-17
  -12.9549999       1.55621972E-17
  -12.9499998       1.71760001E-17
  -12.9449997       1.73882298E-17
  -12.9399996       1.60032565E-17
  -12.9350004       1.29479839E-17
  -12.9300003       8.30188076E-18
  -12.9250002       2.31598908E-18
  -12.9200001      -4.58473540E-18
  -12.9150000      -1.18200925E-17
  -12.9099998      -1.86960834E-17
  -12.9049997      -2.44677395E-17
  -12.8999996      -2.84180778E-17
  -12.8950005      -2.99447290E-17
  -12.8900003      -2.86431702E-17
  -12.8850002      -2.43747660E-17
  -12.8800001      -1.73086766E-17
  -12.8750000      -7.92938892E-18
  -12.8699999       2.99372111E-18
  -12.8649998       1.44735001E-17
  -12.8599997       2.54019490E-17
  -12.8549995       3.46656869E-17
  -12.8500004       4.12658901E-17
  -12.8450003       4.44276722E-17
  -12.8400002       4.36855290E-17
  -12.8350000       3.89348786E-17
  -12.8299999       3.04446571E-17
  -12.8249998       1.88311670E-17
  -12.8199997       4.99863466E-18
  -12.8149996      -9.94471439E-18
  -12.8100004      -2.47839938E-17
  -12.8050003      -3.82975525E-17
  -12.8000002      -4.93502803E-17
  -12.7950001      -5.69740499E-17
  -12.7900000      -6.04322538E-17
  -12.7849998      -5.92681923E-17
  -12.7799997      -5.33384952E-17
  -12.7749996      -4.28331558E-17
  -12.7700005      -2.82825426E-17
  -12.7650003      -1.05495786E-17
  -12.7600002       9.19661308E-18
  -12.7550001       2.95304901E-17
  -12.7500000       4.88479434E-17
  -12.7449999       6.54743763E-17
  -12.7399998       7.78005784E-17
  -12.7349997       8.44385043E-17
  -12.7299995       8.43825273E-17
  -12.7250004       7.71568929E-17
  -12.7200003       6.29275004E-17
  -12.7150002       4.25562455E-17
  -12.7100000       1.75815452E-17
  -12.7049999      -9.88375697E-18
  -12.6999998      -3.73340889E-17
  -12.6949997      -6.21182200E-17
  -12.6899996      -8.17254975E-17
  -12.6850004      -9.40775076E-17
  -12.6800003      -9.77872538E-17
  -12.6750002      -9.23504074E-17
  -12.6700001      -7.82404069E-17
  -12.6650000      -5.68913054E-17
  -12.6599998      -3.05672221E-17
  -12.6549997      -2.13211531E-18
  -12.6499996       2.52528431E-17
  -12.6450005       4.84683502E-17
  -12.6400003       6.47730528E-17
  -12.6350002       7.20992989E-17
  -12.6300001       6.92790431E-17
  -12.6250000       5.61809690E-17
  -12.6199999       3.37523671E-17
  -12.6149998       3.97052029E-18
  -12.6099997      -3.02837142E-17
  -12.6049995      -6.54128473E-17
  -12.6000004      -9.73334361E-17
  -12.5950003      -1.21737005E-16
  -12.5900002      -1.34372460E-16
  -12.5850000      -1.31346620E-16
  -12.5799999      -1.09441196E-16
  -12.5749998      -6.64425349E-17
  -12.5699997      -1.47526184E-18
  -12.5649996       8.46781948E-17
  -12.5600004       1.89302242E-16
  -12.5550003       3.07555122E-16
  -12.5500002       4.32402643E-16
  -12.5450001       5.54721983E-16
  -12.5400000       6.63611245E-16
  -12.5349998       7.46920323E-16
  -12.5299997       7.91999470E-16
  -12.5249996       7.86632298E-16
  -12.5200005       7.20093149E-16
  -12.5150003       5.84249393E-16
  -12.5100002       3.74613529E-16
  -12.5050001       9.12449169E-17
  -12.5000000      -2.60585478E-16
  -12.4949999      -6.70041972E-16
  -12.4899998      -1.12072941E-15
  -12.4849997      -1.59107421E-15
  -12.4799995      -2.05507430E-15
  -12.4750004      -2.48338625E-15
  -12.4700003      -2.84470848E-15
  -12.4650002      -3.10740728E-15
  -12.4600000      -3.24134670E-15
  -12.4549999      -3.21988013E-15
  -12.4499998      -3.02197533E-15
  -12.4449997      -2.63445627E-15
  -12.4399996      -2.05433802E-15
  -12.4350004      -1.29123248E-15
  -12.4300003      -3.69777289E-16
  -12.4250002       6.67966953E-16
  -12.4200001       1.76023696E-15
  -12.4150000       2.82352186E-15
  -12.4099998       3.75085501E-15
  -12.4049997       4.41058018E-15
  -12.3999996       4.64570085E-15
  -12.3950005       4.27391183E-15
  -12.3900003       3.08838144E-15
  -12.3850002       8.59313919E-16
  -12.3800001      -2.66368590E-15
  -12.3750000      -7.74847190E-15
  -12.3699999      -1.46764721E-14
  -12.3649998      -2.37381017E-14
  -12.3599997      -3.52274633E-14
  -12.3549995      -4.94363292E-14
  -12.3500004      -6.66474864E-14
  -12.3450003      -8.71273065E-14
  -12.3400002      -1.11117495E-13
  -12.3350000      -1.38826125E-13
  -12.3299999      -1.70417906E-13
  -12.3249998      -2.06003495E-13
  -12.3199997      -2.45628577E-13
  -12.3149996      -2.89262239E-13
  -12.3100004      -3.36785125E-13
  -12.3050003      -3.87977600E-13
  -12.3000002      -4.42508958E-13
  -12.2950001      -4.99926760E-13
  -12.2900000      -5.59647272E-13
  -12.2849998      -6.20947738E-13
  -12.2799997      -6.82960524E-13
  -12.2749996      -7.44669138E-13
  -12.2700005      -8.04905513E-13
  -12.2650003      -8.62352128E-13
  -12.2600002      -9.15544008E-13
  -12.2550001      -9.62876046E-13
  -12.2500000      -1.00260891E-12
  -12.2449999      -1.03288526E-12
  -12.2399998      -1.05173964E-12
  -12.2349997      -1.05711804E-12
  -12.2299995      -1.04690063E-12
  -12.2250004      -1.01892128E-12
  -12.2200003      -9.70996395E-13
  -12.2150002      -9.00949454E-13
  -12.2100000      -8.06645386E-13
  -12.2049999      -6.86022745E-13
  -12.1999998      -5.37126062E-13
  -12.1949997      -3.58138513E-13
  -12.1899996      -1.47424729E-13
  -12.1850004       9.64417484E-14
  -12.1800003       3.74635273E-13
  -12.1750002       6.88044944E-13
  -12.1700001       1.03723996E-12
  -12.1650000       1.42243140E-12
  -12.1599998       1.84343795E-12
  -12.1549997       2.29965374E-12
  -12.1499996       2.79001345E-12
  -12.1450005       3.31296145E-12
  -12.1400003       3.86642367E-12
  -12.1350002       4.44777982E-12
  -12.1300001       5.05383539E-12
  -12.1250000       5.68080825E-12
  -12.1199999       6.32430653E-12
  -12.1149998       6.97932033E-12
  -12.1099997       7.64021051E-12
  -12.1049995       8.30071862E-12
  -12.1000004       8.95395910E-12
  -12.0950003       9.59244403E-12
  -12.0900002       1.02080931E-11
  -12.0850000       1.07922751E-11
  -12.0799999       1.13358255E-11
  -12.0749998       1.18290967E-11
  -12.0699997       1.22619970E-11
  -12.0649996       1.26240867E-11
  -12.0600004       1.29045984E-11
  -12.0550003       1.30925618E-11
  -12.0500002       1.31768181E-11
  -12.0450001       1.31461656E-11
  -12.0400000       1.29894611E-11
  -12.0349998       1.26956839E-11
  -12.0299997       1.22540476E-11
  -12.0249996       1.16541742E-11
  -12.0200005       1.08861357E-11
  -12.0150003       9.94060737E-12
  -12.0100002       8.80901949E-12
  -12.0050001       7.48362136E-12
  -12.0000000       5.95766882E-12
  -11.9949999       4.22551360E-12
  -11.9899998       2.28274387E-12
  -11.9849997       1.26315326E-13
  -11.9799995      -2.24538118E-12
  -11.9750004      -4.83229646E-12
  -11.9700003      -7.63270870E-12
  -11.9650002      -1.06430663E-11
  -11.9600000      -1.38578740E-11
  -11.9549999      -1.72696440E-11
  -11.9499998      -2.08687338E-11
  -11.9449997      -2.46433325E-11
  -11.9399996      -2.85793628E-11
  -11.9350004      -3.26604230E-11
  -11.9300003      -3.68677727E-11
  -11.9250002      -4.11802328E-11
  -11.9200001      -4.55742249E-11
  -11.9150000      -5.00237837E-11
  -11.9099998      -5.45005222E-11
  -11.9049997      -5.89736801E-11
  -11.8999996      -6.34101938E-11
  -11.8950005      -6.77747442E-11
  -11.8900003      -7.20298612E-11
  -11.8850002      -7.61360072E-11
  -11.8800001      -8.00517569E-11
  -11.8750000      -8.37338462E-11
  -11.8699999      -8.71374570E-11
  -11.8649998      -9.02163413E-11
  -11.8599997      -9.29231136E-11
  -11.8549995      -9.52092780E-11
  -11.8500004      -9.70258388E-11
  -11.8450003      -9.83231968E-11
  -11.8400002      -9.90517043E-11
  -11.8350000      -9.91617413E-11
  -11.8299999      -9.86044024E-11
  -11.8249998      -9.73314485E-11
  -11.8199997      -9.52959101E-11
  -11.8149996      -9.24523930E-11
  -11.8100004      -8.87575707E-11
  -11.8050003      -8.41704484E-11
  -11.8000002      -7.86528412E-11
  -11.7950001      -7.21696314E-11
  -11.7900000      -6.46897744E-11
  -11.7849998      -5.61859136E-11
  -11.7799997      -4.66355600E-11
  -11.7749996      -3.60209883E-11
  -11.7700005      -2.43301594E-11
  -11.7650003      -1.15567651E-11
  -11.7600002       2.29913788E-12
  -11.7550001       1.72307429E-11
  -11.7500000       3.32241179E-11
  -11.7449999       5.02576383E-11
  -11.7399998       6.83018572E-11
  -11.7349997       8.73190825E-11
  -11.7299995       1.07263087E-10
  -11.7250004       1.28078770E-10
  -11.7200003       1.49701807E-10