  -16.0000000       0.00000000    
  -15.9949999       0.00000000    
  -15.9899998       0.00000000    
  -15.9849997       0.00000000    
  -15.9799995       0.00000000    
  -15.9750004       0.00000000    
  -15.9700003       0.00000000    
  -15.9650002       0.00000000    
  -15.9600000       0.00000000    
  -15.9549999       0.00000000    
  -15.9499998       0.00000000    
  -15.9449997       0.00000000    
  -15.9399996       0.00000000    
  -15.9350004       0.00000000    
  -15.9300003       0.00000000    
  -15.9250002       0.00000000    
  -15.9200001       0.00000000    
  -15.9150000       0.00000000    
  -15.9099998       0.00000000    
  -15.9049997       0.00000000    
  -15.8999996       0.00000000    
  -15.8950005       0.00000000    
  -15.8900003       0.00000000    
  -15.8850002       0.00000000    
  -15.8800001       0.00000000    
  -15.8750000       0.00000000    
  -15.8699999       0.00000000    
  -15.8649998       0.00000000    
  -15.8599997       0.00000000    
  -15.8549995       0.00000000    
  -15.8500004       0.00000000    
  -15.8450003       0.00000000    
  -15.8400002       0.00000000    
  -15.8350000       0.00000000    
  -15.8299999       0.00000000    
  -15.8249998       0.00000000    
  -15.8199997       0.00000000    
  -15.8149996       0.00000000    
  -15.8100004       0.00000000    
  -15.8050003       0.00000000    
  -15.8000002       0.00000000    
  -15.7950001       0.00000000    
  -15.7900000       0.00000000    
  -15.7849998       0.00000000    
  -15.7799997       0.00000000    
  -15.7749996       0.00000000    
  -15.7700005       0.00000000    
  -15.7650003       0.00000000    
  -15.7600002       0.00000000    
  -15.7550001       0.00000000    
  -15.7500000       0.00000000    
  -15.7449999       0.00000000    
  -15.7399998       0.00000000    
  -15.7349997       0.00000000    
  -15.7299995       0.00000000    
  -15.7250004       0.00000000    
  -15.7200003       0.00000000    
  -15.7150002       0.00000000    
  -15.7100000       0.00000000    
  -15.7049999       0.00000000    
  -15.6999998       0.00000000    
  -15.6949997       0.00000000    
  -15.6899996       0.00000000    
  -15.6850004       0.00000000    
  -15.6800003       0.00000000    
  -15.6750002       0.00000000    
  -15.6700001       0.00000000    
  -15.6650000       0.00000000    
  -15.6599998       0.00000000    
  -15.6549997       0.00000000    
  -15.6499996       0.00000000    
  -15.6450005       0.00000000    
  -15.6400003       0.00000000    
  -15.6350002       0.00000000    
  -15.6300001       0.00000000    
  -15.6250000       0.00000000    
  -15.6199999       0.00000000    
  -15.6149998       0.00000000    
  -15.6099997       0.00000000    
  -15.6049995       0.00000000    
  -15.6000004       0.00000000    
  -15.5950003       0.00000000    
  -15.5900002       0.00000000    
  -15.5850000       0.00000000    
  -15.5799999       0.00000000    
  -15.5749998       0.00000000    
  -15.5699997       0.00000000    
  -15.5649996       0.00000000    
  -15.5600004       0.00000000    
  -15.5550003       0.00000000    
  -15.5500002       0.00000000    
  -15.5450001       0.00000000    
  -15.5400000       0.00000000    
  -15.5349998       0.00000000    
  -15.5299997       0.00000000    
  -15.5249996       0.00000000    
  -15.5200005       0.00000000    
  -15.5150003       0.00000000    
  -15.5100002       0.00000000    
  -15.5050001       0.00000000    
  -15.5000000       0.00000000    
  -15.4949999       0.00000000    
  -15.4899998       0.00000000    
  -15.4849997       0.00000000    
  -15.4799995       0.00000000    
  -15.4750004       0.00000000    
  -15.4700003       0.00000000    
  -15.4650002       0.00000000    
  -15.4600000       0.00000000    
  -15.4549999       0.00000000    
  -15.4499998       0.00000000    
  -15.4449997       0.00000000    
  -15.4399996       0.00000000    
  -15.4350004       0.00000000    
  -15.4300003       0.00000000    
  -15.4250002       0.00000000    
  -15.4200001       0.00000000    
  -15.4150000       0.00000000    
  -15.4099998       0.00000000    
  -15.4049997       0.00000000    
  -15.3999996       0.00000000    
  -15.3950005       0.00000000    
  -15.3900003       0.00000000    
  -15.3850002       0.00000000    
  -15.3800001       0.00000000    
  -15.3750000       0.00000000    
  -15.3699999       0.00000000    
  -15.3649998       0.00000000    
  -15.3599997       0.00000000    
  -15.3549995       0.00000000    
  -15.3500004       0.00000000    
  -15.3450003       0.00000000    
  -15.3400002       0.00000000    
  -15.3350000       0.00000000    
  -15.3299999       0.00000000    
  -15.3249998       0.00000000    
  -15.3199997       0.00000000    
  -15.3149996       0.00000000    
  -15.3100004       0.00000000    
  -15.3050003       0.00000000    
  -15.3000002       0.00000000    
  -15.2950001       0.00000000    
  -15.2900000       0.00000000    
  -15.2849998       0.00000000    
  -15.2799997       0.00000000    
  -15.2749996       0.00000000    
  -15.2700005       0.00000000    
  -15.2650003       0.00000000    
  -15.2600002       0.00000000    
  -15.2550001       0.00000000    
  -15.2500000       0.00000000    
  -15.2449999       0.00000000    
  -15.2399998       0.00000000    
  -15.2349997       0.00000000    
  -15.2299995       0.00000000    
  -15.2250004       0.00000000    
  -15.2200003      -0.00000000    
  -15.2150002      -0.00000000    
  -15.2100000      -0.00000000    
  -15.2049999      -0.00000000    
  -15.1999998      -0.00000000    
  -15.1949997       0.00000000    
  -15.1899996      -0.00000000    
  -15.1850004      -0.00000000    
  -15.1800003      -0.00000000    
  -15.1750002      -0.00000000    
  -15.1700001      -0.00000000    
  -15.1650000       1.40129846E-45
  -15.1599998       1.40129846E-45
  -15.1549997       0.00000000    
  -15.1499996       0.00000000    
  -15.1450005       0.00000000    
  -15.1400003      -1.40129846E-45
  -15.1350002      -2.80259693E-45
  -15.1300001      -4.20389539E-45
  -15.1250000      -5.60519386E-45
  -15.1199999      -4.20389539E-45
  -15.1149998       2.80259693E-45
  -15.1099997       1.40129846E-44
  -15.1049995       2.66246708E-44
  -15.1000004       3.64337601E-44
  -15.0950003       3.50324616E-44
  -15.0900002       1.26116862E-44
  -15.0850000      -3.08285662E-44
  -15.0799999      -9.80908925E-44
  -15.0749998      -1.70958413E-43
  -15.0699997      -2.12997367E-43
  -15.0649996      -1.82168800E-43
  -15.0600004      -3.22298647E-44
  -15.0550003       2.52233724E-43
  -15.0500002       6.36189503E-43
  -15.0450001       1.00473100E-42
  -15.0400000       1.16027513E-42
  -15.0349998       8.67403749E-43
  -15.0299997      -7.28675201E-44
  -15.0249996      -1.68436075E-42
  -15.0200005      -3.68821756E-42
  -15.0150003      -5.41041337E-42
  -15.0100002      -5.81819122E-42
  -15.0050001      -3.75688118E-42
  -15.0000000       1.56665168E-42
  -14.9949999       9.97023857E-42
  -14.9899998       1.96812369E-41
  -14.9849997       2.70604746E-41
  -14.9799995       2.70394552E-41
  -14.9750004       1.45174521E-41
  -14.9700003      -1.33109341E-41
  -14.9650002      -5.40901207E-41
  -14.9600000      -9.78835003E-41
  -14.9549999      -1.26712414E-40
  -14.9499998      -1.17449831E-40
  -14.9449997      -4.89921969E-41
  -14.9399996       8.67950256E-41
  -14.9350004       2.72904277E-40
  -14.9300003       4.58579126E-40
  -14.9250002       5.60488557E-40
  -14.9200001       4.79270699E-40
  -14.9150000       1.33812793E-40
  -14.9099998      -4.91017784E-40
  -14.9049997      -1.29606796E-39
  -14.8999996      -2.04028075E-39
  -14.8950005      -2.35889959E-39
  -14.8900003      -1.84744947E-39
  -14.8850002      -2.14798035E-40
  -14.8800001       2.51993681E-39
  -14.8750000       5.84658153E-39
  -14.8699999       8.68783888E-39
  -14.8649998       9.52381291E-39
  -14.8599997       6.78278483E-39
  -14.8549995      -5.12997151E-40
  -14.8500004      -1.19743812E-38
  -14.8450003      -2.52025687E-38
  -14.8400002      -3.56282180E-38
  -14.8350000      -3.71810669E-38
  -14.8299999      -2.39858044E-38
  -14.8249998       7.04366176E-39
  -14.8199997       5.32924736E-38
  -14.8149996       1.04260832E-37
  -14.8100004       1.41436944E-37
  -14.8050003       1.41441731E-37
  -14.8000002       8.29745254E-38
  -14.7950001      -4.31985508E-38
  -14.7900000      -2.23652011E-37
  -14.7849998      -4.15134962E-37
  -14.7799997      -5.45666788E-37
  -14.7749996      -5.27975451E-37
  -14.7700005      -2.86542824E-37
  -14.7650003       2.05345290E-37
  -14.7600002       8.88140456E-37
  -14.7550001       1.59304255E-36
  -14.7500000       2.05047677E-36
  -14.7449999       1.94340645E-36
  -14.7399998       1.00797986E-36
  -14.7349997      -8.33536899E-37
  -14.7299995      -3.34323680E-36
  -14.7250004      -5.89433505E-36
  -14.7200003      -7.51225408E-36
  -14.7150002      -7.07303934E-36
  -14.7100000      -3.66259366E-36
  -14.7049999       2.96051739E-36
  -14.6999998       1.19252919E-35
  -14.6949997       2.10127206E-35
  -14.6899996       2.68177844E-35
  -14.6850004       2.54464767E-35
  -14.6800003       1.37483449E-35
  -14.6750002      -9.11763756E-36
  -14.6700001      -4.02124507E-35
  -14.6650000      -7.20423179E-35
  -14.6599998      -9.31109075E-35
  -14.6549997      -9.02354233E-35
  -14.6499996      -5.26155060E-35
  -14.6450005       2.30150157E-35
  -14.6400003       1.27540540E-34
  -14.6350002       2.36850540E-34
  -14.6300001       3.13477137E-34
  -14.6250000       3.13878665E-34
  -14.6199999       2.01354193E-34
  -14.6149998      -3.74802901E-35
  -14.6099997      -3.76965403E-34
  -14.6049995      -7.43426663E-34
  -14.6000004      -1.01925637E-33
  -14.5950003      -1.06452934E-33
  -14.5900002      -7.56359396E-34
  -14.5850000      -4.00132193E-35
  -14.5799999       1.02102126E-33
  -14.5749998       2.21410238E-33
  -14.5699997       3.18492150E-33
  -14.5649996       3.49762871E-33
  -14.5600004       2.74966000E-33
  -14.5550003       7.25145430E-34
  -14.5500002      -2.44940384E-33
  -14.5450001      -6.19971737E-33
  -14.5400000      -9.50621914E-33
  -14.5349998      -1.10591052E-32
  -14.5299997      -9.57751802E-33
  -14.5249996      -4.25334925E-33
  -14.5200005       4.77841209E-33
  -14.5150003       1.60897259E-32
  -14.5100002       2.68968183E-32
  -14.5050001       3.34227427E-32
  -14.5000000       3.17370456E-32
  -14.4949999       1.89870035E-32
  -14.4899998      -5.22904005E-33
  -14.4849997      -3.77412445E-32
  -14.4799995      -7.14069207E-32
  -14.4750004      -9.58427505E-32
  -14.4700003      -9.94939124E-32
  -14.4650002      -7.28902477E-32
  -14.4600000      -1.24966217E-32
  -14.4549999       7.58522054E-32
  -14.4499998       1.75189295E-31
  -14.4449997       2.58519490E-31
  -14.4399996       2.93515720E-31
  -14.4350004       2.50662745E-31
  -14.4300003       1.13556669E-31
  -14.4250002      -1.11077669E-31
  -14.4200001      -3.86890103E-31
  -14.4150000      -6.48232660E-31
  -14.4099998      -8.09667908E-31
  -14.4049997      -7.85010597E-31
  -14.3999996      -5.13425887E-31
  -14.3950005       1.29364579E-32
  -14.3900003       7.27669794E-31
  -14.3850002       1.48390457E-30
  -14.3800001       2.07026354E-30
  -14.3750000       2.25175930E-30
  -14.3699999       1.83183172E-30
  -14.3649998       7.24080916E-31
  -14.3599997      -9.84483948E-31
  -14.3549995      -3.00030996E-30
  -14.3500004      -4.84008614E-30
  -14.3450003      -5.90890993E-30
  -14.3400002      -5.63681778E-30
  -14.3350000      -3.65264463E-30
  -14.3299999       4.35659013E-32
  -14.3249998       4.96014831E-30
  -14.3199997       1.00966870E-29
  -14.3149996       1.40675340E-29
  -14.3100004       1.53742353E-29
  -14.3050003       1.27949773E-29
  -14.3000002       5.81593491E-30
  -14.2950001      -5.00512668E-30
  -14.2900000      -1.78660622E-29
  -14.2849998      -2.98440088E-29
  -14.2799997      -3.73685780E-29
  -14.2749996      -3.70152390E-29
  -14.2700005      -2.64913379E-29
  -14.2650003      -5.59786698E-30
  -14.2600002       2.31054628E-29
  -14.2550001       5.41976307E-29
  -14.2500000       8.00430328E-29
  -14.2449999       9.22189063E-29
  -14.2399998       8.35520831E-29
  -14.2349997       5.03823093E-29
  -14.2299995      -5.49490608E-30
  -14.2250004      -7.58107415E-29
  -14.2200003      -1.46246513E-28
  -14.2150002      -1.98562703E-28
  -14.2100000      -2.14314571E-28
  -14.2049999      -1.79584734E-28
  -14.1999998      -8.97550581E-29
  -14.1949997       4.69151840E-29
  -14.1899996       2.08124705E-28
  -14.1850004       3.59670739E-28
  -14.1800003       4.61145725E-28
  -14.1750002       4.74585201E-28
  -14.1700001       3.74569324E-28
  -14.1650000       1.57563916E-28
  -14.1599998      -1.52019163E-28
  -14.1549997      -5.01298957E-28
  -14.1499996      -8.15303249E-28
  -14.1450005      -1.01019330E-27
  -14.1400003      -1.01156071E-27
  -14.1350002      -7.74406945E-28
  -14.1300001      -3.00306164E-28
  -14.1250000       3.52971729E-28
  -14.1199999       1.07321397E-27
  -14.1149998       1.70873339E-27
  -14.1099997       2.09556643E-27
  -14.1049995       2.09284606E-27
  -14.1000004       1.61959442E-27
  -14.0950003       6.84674210E-28
  -14.0900002      -5.98201785E-28
  -14.0850000      -2.01641476E-27
  -14.0799999      -3.28751311E-27
  -14.0749998      -4.10865838E-27
  -14.0699997      -4.21869138E-27
  -14.0649996      -3.46111297E-27
  -14.0600004      -1.83441110E-27
  -14.0550003       4.82821826E-28
  -14.0500002       3.14069928E-27
  -14.0450001       5.66325671E-27
  -14.0400000       7.52518222E-27
  -14.0349998       8.24807771E-27
  -14.0299997       7.49930620E-27
  -14.0249996       5.17446146E-27
  -14.0200005       1.44646092E-27
  -14.0150003      -3.23042470E-27
  -14.0100002      -8.16550462E-27
  -14.0050001      -1.25208704E-26
  -14.0000000      -1.54327524E-26
  -13.9949999      -1.61477886E-26
  -13.9899998      -1.41552400E-26
  -13.9849997      -9.29740215E-27
  -13.9799995      -1.84407638E-27
  -13.9750004       7.47926959E-27
  -13.9700003       1.75160370E-26
  -13.9650002       2.67604330E-26
  -13.9600000       3.34994652E-26
  -13.9549999       3.60159130E-26
  -13.9499998       3.28475271E-26
  -13.9449997       2.30880959E-26
  -13.9399996       6.69985268E-27
  -13.9350004      -1.52121888E-26
  -13.9300003      -4.02321835E-26
  -13.9250002      -6.46504360E-26
  -13.9200001      -8.37399393E-26
  -13.9150000      -9.23382582E-26
  -13.9099998      -8.57288426E-26
  -13.9049997      -6.07404655E-26
  -13.8999996      -1.68998334E-26
  -13.8950005       4.26038507E-26
  -13.8900003       1.10426549E-25
  -13.8850002       1.75321785E-25
  -13.8800001       2.23325610E-25
  -13.8750000       2.39904730E-25
  -13.8699999       2.12883163E-25
  -13.8649998       1.35722927E-25
  -13.8599997       1.05248389E-26
  -13.8549995      -1.50005254E-25
  -13.8500004      -3.22354056E-25
  -13.8450003      -4.74295421E-25
  -13.8400002      -5.69435399E-25
  -13.8350000      -5.73844737E-25
  -13.8299999      -4.63861700E-25
  -13.8249998      -2.33641815E-25
  -13.8199997       9.92456167E-26
  -13.8149996       4.91865276E-25
  -13.8100004       8.78889557E-25
  -13.8050003       1.18099104E-24
  -13.8000002       1.31808471E-24
  -13.7950001       1.22567252E-24
  -13.7900000       8.71488662E-25
  -13.7849998       2.69006302E-25
  -13.7799997      -5.15677585E-25
  -13.7749996      -1.36636921E-24
  -13.7700005      -2.13004810E-24
  -13.7650003      -2.64022121E-24
  -13.7600002      -2.74748460E-24
  -13.7550001      -2.35236764E-24
  -13.7500000      -1.43420799E-24
  -13.7449999      -6.95325853E-26
  -13.7399998       1.56555284E-24
  -13.7349997       3.21211282E-24
  -13.7299995       4.56406915E-24
  -13.7250004       5.31878579E-24
  -13.7200003       5.23495157E-24
  -13.7150002       4.18760461E-24
  -13.7100000       2.20928129E-24
  -13.7049999      -4.92531814E-25
  -13.6999998      -3.54810387E-24
  -13.6949997      -6.46988847E-24
  -13.6899996      -8.72426913E-24
  -13.6850004      -9.82064695E-24
  -13.6800003      -9.40351466E-24
  -13.6750002      -7.33117075E-24
  -13.6700001      -3.72561729E-24
  -13.6650000       1.01794384E-24
  -13.6599998       6.26729755E-24
  -13.6549997       1.12326835E-23
  -13.6499996       1.50794154E-23
  -13.6450005       1.70571765E-23
  -13.6400003       1.66260719E-23
  -13.6350002       1.35590738E-23
  -13.6300001       8.00383796E-24
  -13.6250000       4.92953411E-25
  -13.6199999      -8.10065881E-24
  -13.6149998      -1.66582322E-23
  -13.6099997      -2.39478891E-23
  -13.6049995      -2.87792646E-23
  -13.6000004      -3.01616549E-23
  -13.5950003      -2.74479924E-23
  -13.5900002      -2.04497249E-23
  -13.5850000      -9.51047552E-24
  -13.5799999       4.46995923E-24
  -13.5749998       2.00674366E-23
  -13.5699997       3.54251747E-23
  -13.5649996       4.84074650E-23
  -13.5600004       5.68139707E-23
  -13.5550003       5.86473907E-23
  -13.5500002       5.24178760E-23
  -13.5450001       3.74556995E-23
  -13.5400000       1.41906721E-23
  -13.5349998      -1.56544777E-23
  -13.5299997      -4.90140327E-23
  -13.5249996      -8.16255331E-23
  -13.5200005      -1.08405480E-22
  -13.5150003      -1.24057579E-22
  -13.5100002      -1.23871205E-22
  -13.5050001      -1.04621049E-22
  -13.5000000      -6.54340178E-23
  -13.4949999      -8.45846324E-24
  -13.4899998       6.08326237E-23
  -13.4849997       1.33844730E-22
  -13.4799995       1.99651607E-22
  -13.4750004       2.46356288E-22
  -13.4700003       2.62900531E-22
  -13.4650002       2.41088742E-22
  -13.4600000       1.77505442E-22
  -13.4549999       7.49639940E-23
  -13.4499998      -5.68586833E-23
  -13.4449997      -2.01857401E-22
  -13.4399996      -3.39111310E-22
  -13.4350004      -4.45582112E-22
  -13.4300003      -4.99599773E-22
  -13.4250002      -4.84647766E-22
  -13.4200001      -3.92833192E-22
  -13.4150000      -2.27401361E-22
  -13.4099998      -3.73198064E-24
  -13.4049997       2.51546134E-22
  -13.3999996       5.03408166E-22
  -13.3950005       7.12999446E-22
  -13.3900003       8.43347238E-22
  -13.3850002       8.65382382E-22
  -13.3800001       7.63314939E-22
  -13.3750000       5.38415163E-22
  -13.3699999       2.10452666E-22
  -13.3649998      -1.83633793E-22
  -13.3599997      -5.93823137E-22
  -13.3549995      -9.63396822E-22
  -13.3500004      -1.23676345E-21
  -13.3450003      -1.36757855E-21
  -13.3400002      -1.32593821E-21
  -13.3350000      -1.10351912E-21
  -13.3299999      -7.15840608E-22
  -13.3249998      -2.01261742E-22
  -13.3199997       3.83181523E-22
  -13.3149996       9.68513690E-22
  -13.3100004       1.48217841E-21
  -13.3050003       1.85686659E-21
  -13.3000002       2.03865044E-21
  -13.2950001       1.99344429E-21
  -13.2900000       1.71112488E-21
  -13.2849998       1.20700878E-21
  -13.2799997       5.20771335E-22
  -13.2749996      -2.86856179E-22
  -13.2700005      -1.13910788E-21
  -13.2650003      -1.94941449E-21
  -13.2600002      -2.62840598E-21
  -13.2550001      -3.09139003E-21
  -13.2500000      -3.26607923E-21
  -13.2449999      -3.10036967E-21
  -13.2399998      -2.56979813E-21
  -13.2349997      -1.68412155E-21
  -13.2299995      -4.92106023E-22
  -13.2250004       9.16587205E-22
  -13.2200003       2.41365345E-21
  -13.2150002       3.83955268E-21
  -13.2100000       5.01661292E-21
  -13.2049999       5.76754873E-21
  -13.1999998       5.93803356E-21
  -13.1949997       5.42091037E-21
  -13.1899996       4.17868664E-21
  -13.1850004       2.26047136E-21
  -13.1800003      -1.90376736E-22
  -13.1750002      -2.94085871E-21
  -13.1700001      -5.68655369E-21
  -13.1650000      -8.08293753E-21
  -13.1599998      -9.78685689E-21
  -13.1549997      -1.05033254E-20
  -13.1499996      -1.00311207E-20
  -13.1450005      -8.30025258E-21
  -13.1400003      -5.39470070E-21
  -13.1350002      -1.55572186E-21
  -13.1300001       2.83651117E-21
  -13.1250000       7.30179630E-21
  -13.1199999       1.13151005E-20
  -13.1149998       1.43709367E-20
  -13.1099997       1.60481359E-20
  -13.1049995       1.60659090E-20
  -13.1000004       1.43231978E-20
  -13.0950003       1.09157662E-20
  -13.0900002       6.12871081E-21
  -13.0850000       4.05874918E-22
  -13.0799999      -5.69913346E-21
  -13.0749998      -1.15832072E-20
  -13.0699997      -1.66571105E-20
  -13.0649996      -2.04040028E-20
  -13.0600004      -2.24267986E-20
  -13.0550003      -2.24806381E-20
  -13.0500002      -2.04892169E-20
  -13.0450001      -1.65463587E-20
  -13.0400000      -1.09055419E-20
  -13.0349998      -3.96071566E-21
  -13.0299997       3.77896372E-21
  -13.0249996       1.17188244E-20
  -13.0200005       1.92133280E-20
  -13.0150003       2.56063388E-20
  -13.0100002       3.02783712E-20
  -13.0050001       3.27004691E-20
  -13.0000000       3.24924202E-20
  -12.9949999       2.94793567E-20
  -12.9899998       2.37382887E-20
  -12.9849997       1.56239021E-20
  -12.9799995       5.76343746E-21
  -12.9750004      -4.98734535E-21
  -12.9700003      -1.56289121E-20
  -12.9650002      -2.51385568E-20
  -12.9600000      -3.26132145E-20
  -12.9549999      -3.74129978E-20
  -12.9499998      -3.92792368E-20
  -12.9449997      -3.84004899E-20
  -12.9399996      -3.54035661E-20
  -12.9350004      -3.12576593E-20
  -12.9300003      -2.70932735E-20
  -12.9250002      -2.39552055E-20
  -12.9200001      -2.25246838E-20
  -12.9150000      -2.28595611E-20
  -12.9099998      -2.42073405E-20
  -12.9049997      -2.49434747E-20
  -12.8999996      -2.26747477E-20
  -12.8950005      -1.45271818E-20
  -12.8900003       2.39188544E-21
  -12.8850002       3.03968422E-20
  -12.8800001       7.05649815E-20
  -12.8750000       1.22107355E-19
  -12.8699999       1.81877475E-19
  -12.8649998       2.44123850E-19
  -12.8599997       3.00575127E-19
  -12.8549995       3.40915872E-19
  -12.8500004       3.53669886E-19
  -12.8450003       3.27457954E-19
  -12.8400002       2.52542946E-19
  -12.8350000       1.22530419E-19
  -12.8299999      -6.39503607E-20
  -12.8249998      -3.01780355E-19
  -12.8199997      -5.78311435E-19
  -12.8149996      -8.72946551E-19
  -12.8100004      -1.15750930E-18
  -12.8050003      -1.39751978E-18
  -12.8000002      -1.55443367E-18
  -12.7950001      -1.58880520E-18
  -12.7900000      -1.46426220E-18
  -12.7849998      -1.15206376E-18
  -12.7799997      -6.35908744E-19
  -12.7749996       8.34129964E-20
  -12.7700005       9.84031117E-19
  -12.7650003       2.02020481E-18
  -12.7600002       3.12127733E-18
  -12.7550001       4.19287389E-18
  -12.7500000       5.12072155E-18
  -12.7449999       5.77730237E-18
  -12.7399998       6.03132374E-18
  -12.7349997       5.75965943E-18
  -12.7299995       4.86117130E-18
  -12.7250004       3.27143770E-18
  -12.7200003       9.77171412E-19
  -12.7150002      -1.97112528E-18
  -12.7100000      -5.44980171E-18
  -12.7049999      -9.25756222E-18
  -12.6999998      -1.31172176E-17
  -12.6949997      -1.66846465E-17
  -12.6899996      -1.95656670E-17
  -12.6850004      -2.13407271E-17
  -12.6800003      -2.15968073E-17
  -12.6750002      -1.99650728E-17
  -12.6700001      -1.61622340E-17
  -12.6650000      -1.00329531E-17
  -12.6599998      -1.58992261E-18
  -12.6549997       8.95175769E-18
  -12.6499996       2.11498221E-17
  -12.6450005       3.43231945E-17
  -12.6400003       4.75566880E-17
  -12.6350002       5.97250012E-17
  -12.6300001       6.95374676E-17
  -12.6250000       7.56045727E-17
  -12.6199999       7.65252909E-17
  -12.6149998       7.09932525E-17
  -12.6099997       5.79176512E-17
  -12.6049995       3.65532569E-17
  -12.6000004       6.63235028E-18
  -12.5950003      -3.15106282E-17
  -12.5900002      -7.68312352E-17
  -12.5850000      -1.27495783E-16
  -12.5799999      -1.80840820E-16
  -12.5749998      -2.33382062E-16
  -12.5699997      -2.80881366E-16
  -12.5649996      -3.18479094E-16
  -12.5600004      -3.40893412E-16
  -12.5550003      -3.42687031E-16
  -12.5500002      -3.18594688E-16
  -12.5450001      -2.63899467E-16
  -12.5400000      -1.74842569E-16
  -12.5349998      -4.90419669E-17
  -12.5299997       1.14106482E-16
  -12.5249996       3.13077936E-16
  -12.5200005       5.43952224E-16
  -12.5150003       8.00270429E-16
  -12.5100002       1.07305215E-15
  -12.5050001       1.35100643E-15
  -12.5000000       1.62097405E-15
  -12.4949999       1.86861906E-15
  -12.4899998       2.07939897E-15
  -12.4849997       2.23981981E-15
  -12.4799995       2.33897222E-15
  -12.4750004       2.37033615E-15
  -12.4700003       2.33383666E-15
  -12.4650002       2.23811071E-15
  -12.4600000       2.10291218E-15
  -12.4549999       1.96162941E-15
  -12.4499998       1.86380198E-15
  -12.4449997       1.87757241E-15
  -12.4399996       2.09195602E-15
  -12.4350004       2.61885858E-15
  -12.4300003       3.59476759E-15
  -12.4250002       5.18181088E-15
  -12.4200001       7.56842912E-15
  -12.4150000       1.09693062E-14
  -12.4099998       1.56245527E-14
  -12.4049997       2.17980067E-14
  -12.3999996       2.97747599E-14
  -12.3950005       3.98577859E-14
  -12.3900003       5.23634819E-14
  -12.3850002       6.76163972E-14
  -12.3800001       8.59428495E-14
  -12.3750000       1.07664223E-13
  -12.3699999       1.33088730E-13
  -12.3649998       1.62502783E-13
  -12.3599997       1.96161379E-13
  -12.3549995       2.34278634E-13
  -12.3500004       2.77017450E-13
  -12.3450003       3.24478535E-13
  -12.3400002       3.76690080E-13
  -12.3350000       4.33596301E-13
  -12.3299999       4.95048447E-13
  -12.3249998       5.60792623E-13
  -12.3199997       6.30462804E-13
  -12.3149996       7.03569527E-13
  -12.3100004       7.79493115E-13
  -12.3050003       8.57477934E-13
  -12.3000002       9.36624042E-13
  -12.2950001       1.01588583E-12
  -12.2900000       1.09406906E-12
  -12.2849998       1.16982747E-12
  -12.2799997       1.24166682E-12
  -12.2749996       1.30794626E-12
  -12.2700005       1.36688371E-12
  -12.2650003       1.41656251E-12
  -12.2600002       1.45494109E-12
  -12.2550001       1.47986647E-12
  -12.2500000       1.48908457E-12
  -12.2449999       1.48025971E-12
  -12.2399998       1.45099135E-12
  -12.2349997       1.39883753E-12
  -12.2299995       1.32133638E-12
  -12.2250004       1.21603335E-12
  -12.2200003       1.08050775E-12
  -12.2150002       9.12404592E-13
  -12.2100000       7.09464659E-13
  -12.2049999       4.69558908E-13
  -12.1999998       1.90723563E-13
  -12.1949997      -1.28803950E-13
  -12.1899996      -4.90546351E-13
  -12.1850004      -8.95752331E-13
  -12.1800003      -1.34535297E-12
  -12.1750002      -1.83992817E-12
  -12.1700001      -2.37966461E-12
  -12.1650000      -2.96432410E-12
  -12.1599998      -3.59320082E-12
  -12.1549997      -4.26509132E-12
  -12.1499996      -4.97825739E-12
  -12.1450005      -5.73040790E-12
  -12.1400003      -6.51865150E-12
  -12.1350002      -7.33948579E-12
  -12.1300001      -8.18877518E-12
  -12.1250000      -9.06173140E-12
  -12.1199999      -9.95289528E-12
  -12.1149998      -1.08561363E-11
  -12.1099997      -1.17646570E-11
  -12.1049995      -1.26709641E-11
  -12.1000004      -1.35669019E-11
  -12.0950003      -1.44436667E-11
  -12.0900002      -1.52918078E-11
  -12.0850000      -1.61012644E-11
  -12.0799999      -1.68614098E-11
  -12.0749998      -1.75610429E-11
  -12.0699997      -1.81884872E-11
  -12.0649996      -1.87316222E-11
  -12.0600004      -1.91779145E-11
  -12.0550003      -1.95145219E-11
  -12.0500002      -1.97283422E-11
  -12.0450001      -1.98061116E-11
  -12.0400000      -1.97344762E-11
  -12.0349998      -1.95000873E-11
  -12.0299997      -1.90896691E-11
  -12.0249996      -1.84901885E-11
  -12.0200005      -1.76889180E-11
  -12.0150003      -1.66735670E-11
  -12.0100002      -1.54323932E-11
  -12.0050001      -1.39543203E-11
  -12.0000000      -1.22290858E-11
  -11.9949999      -1.02473568E-11
  -11.9899998      -8.00088294E-12
  -11.9849997      -5.48259138E-12
  -11.9799995      -2.68676227E-12
  -11.9750004       3.90846047E-13
  -11.9700003       3.75287084E-12
  -11.9650002       7.40021759E-12
  -11.9600000       1.13319033E-11
  -11.9549999       1.55449612E-11
  -11.9499998       2.00342729E-11
  -11.9449997       2.47925430E-11
  -11.9399996       2.98100676E-11
  -11.9350004       3.50747383E-11
  -11.9300003       4.05718896E-11
  -11.9250002       4.62842438E-11
  -11.9200001       5.21917856E-11
  -11.9150000       5.82718179E-11
  -11.9099998       6.44987605E-11
  -11.9049997       7.08442610E-11
  -11.8999996       7.72770598E-11
  -11.8950005       8.37630590E-11
  -11.8900003       9.02653091E-11
  -11.8850002       9.67440780E-11
  -11.8800001       1.03156823E-10
  -11.8750000       1.09458408E-10
  -11.8699999       1.15600945E-10
  -11.8649998       1.21534241E-10
  -11.8599997       1.27205677E-10
  -11.8549995       1.32560338E-10
  -11.8500004       1.37541506E-10
  -11.8450003       1.42090562E-10
  -11.8400002       1.46147233E-10
  -11.8350000       1.49650056E-10
  -11.8299999       1.52536400E-10
  -11.8249998       1.54742857E-10
  -11.8199997       1.56205743E-10
  -11.8149996       1.56861135E-10
  -11.8100004       1.56645322E-10
  -11.8050003       1.55495367E-10
  -11.8000002       1.53349319E-10
  -11.7950001       1.50146590E-10
  -11.7900000       1.45828599E-10
  -11.7849998       1.40339032E-10
  -11.7799997       1.33624528E-10
  -11.7749996       1.25634766E-10
  -11.7700005       1.16323479E-10
  -11.7650003       1.05648414E-10
  -11.7600002       9.35721639E-11
  -11.7550001       8.00626440E-11
  -11.7500000       6.50934931E-11
  -11.7449999       4.86446855E-11
  -11.7399998       3.07027910E-11
  -11.7349997       1.12617268E-11
  -11.7299995      -9.67672643E-12
  -11.7250004      -3.21028482E-11
  -11.7200003      -5.59981228E-11