  -16.0000000       0.00000000    
  -15.9949999       0.00000000    
  -15.9899998       0.00000000    
  -15.9849997       0.00000000    
  -15.9799995       0.00000000    
  -15.9750004       0.00000000    
  -15.9700003       0.00000000    
  -15.9650002       0.00000000    
  -15.9600000       0.00000000    
  -15.9549999       0.00000000    
  -15.9499998       0.00000000    
  -15.9449997       0.00000000    
  -15.9399996       0.00000000    
  -15.9350004       0.00000000    
  -15.9300003       0.00000000    
  -15.9250002       0.00000000    
  -15.9200001       0.00000000    
  -15.9150000       0.00000000    
  -15.9099998       0.00000000    
  -15.9049997       0.00000000    
  -15.8999996       0.00000000    
  -15.8950005       0.00000000    
  -15.8900003       0.00000000    
  -15.8850002       0.00000000    
  -15.8800001       0.00000000    
  -15.8750000       0.00000000    
  -15.8699999       0.00000000    
  -15.8649998       0.00000000    
  -15.8599997       0.00000000    
  -15.8549995       0.00000000    
  -15.8500004       0.00000000    
  -15.8450003       0.00000000    
  -15.8400002       0.00000000    
  -15.8350000       0.00000000    
  -15.8299999       0.00000000    
  -15.8249998       0.00000000    
  -15.8199997       0.00000000    
  -15.8149996       0.00000000    
  -15.8100004       0.00000000    
  -15.8050003       0.00000000    
  -15.8000002       0.00000000    
  -15.7950001       0.00000000    
  -15.7900000       0.00000000    
  -15.7849998       0.00000000    
  -15.7799997       0.00000000    
  -15.7749996       0.00000000    
  -15.7700005       0.00000000    
  -15.7650003       0.00000000    
  -15.7600002       0.00000000    
  -15.7550001       0.00000000    
  -15.7500000       0.00000000    
  -15.7449999       0.00000000    
  -15.7399998       0.00000000    
  -15.7349997       0.00000000    
  -15.7299995       0.00000000    
  -15.7250004       0.00000000    
  -15.7200003       0.00000000    
  -15.7150002       0.00000000    
  -15.7100000       0.00000000    
  -15.7049999       0.00000000    
  -15.6999998       0.00000000    
  -15.6949997       0.00000000    
  -15.6899996       0.00000000    
  -15.6850004       0.00000000    
  -15.6800003       0.00000000    
  -15.6750002       0.00000000    
  -15.6700001       0.00000000    
  -15.6650000       0.00000000    
  -15.6599998       0.00000000    
  -15.6549997       0.00000000    
  -15.6499996       0.00000000    
  -15.6450005       0.00000000    
  -15.6400003       0.00000000    
  -15.6350002       0.00000000    
  -15.6300001       0.00000000    
  -15.6250000       0.00000000    
  -15.6199999       0.00000000    
  -15.6149998       0.00000000    
  -15.6099997       0.00000000    
  -15.6049995       0.00000000    
  -15.6000004       0.00000000    
  -15.5950003       0.00000000    
  -15.5900002       0.00000000    
  -15.5850000       0.00000000    
  -15.5799999       0.00000000    
  -15.5749998       0.00000000    
  -15.5699997       0.00000000    
  -15.5649996       0.00000000    
  -15.5600004       0.00000000    
  -15.5550003       0.00000000    
  -15.5500002       0.00000000    
  -15.5450001       0.00000000    
  -15.5400000       0.00000000    
  -15.5349998       0.00000000    
  -15.5299997       0.00000000    
  -15.5249996       0.00000000    
  -15.5200005       0.00000000    
  -15.5150003       0.00000000    
  -15.5100002       0.00000000    
  -15.5050001       0.00000000    
  -15.5000000       0.00000000    
  -15.4949999       0.00000000    
  -15.4899998       0.00000000    
  -15.4849997       0.00000000    
  -15.4799995       0.00000000    
  -15.4750004       0.00000000    
  -15.4700003       0.00000000    
  -15.4650002       0.00000000    
  -15.4600000       0.00000000    
  -15.4549999       0.00000000    
  -15.4499998       0.00000000    
  -15.4449997       0.00000000    
  -15.4399996       0.00000000    
  -15.4350004       0.00000000    
  -15.4300003       0.00000000    
  -15.4250002       0.00000000    
  -15.4200001       0.00000000    
  -15.4150000       0.00000000    
  -15.4099998      -5.60519386E-45
  -15.4049997      -5.60519386E-45
  -15.3999996       0.00000000    
  -15.3950005       0.00000000    
  -15.3900003       1.12103877E-44
  -15.3850002       9.80908925E-45
  -15.3800001       7.28675201E-44
  -15.3750000       1.82168800E-44
  -15.3699999       2.80259693E-45
  -15.3649998      -1.05097385E-43
  -15.3599997      -8.96831017E-44
  -15.3549995      -1.51340234E-43
  -15.3500004      -1.40129846E-44
  -15.3450003       0.00000000    
  -15.3400002       5.82940161E-43
  -15.3350000       8.04345319E-43
  -15.3299999       1.20791928E-42
  -15.3249998       5.46506401E-44
  -15.3199997      -1.19110369E-43
  -15.3149996      -7.67911558E-43
  -15.3100004      -3.00298261E-42
  -15.3050003      -4.25994733E-42
  -15.3000002      -4.24593435E-42
  -15.2950001      -8.82818033E-43
  -15.2900000       5.24926405E-42
  -15.2849998       1.69655205E-41
  -15.2799997       2.93992418E-41
  -15.2749996       3.49399759E-41
  -15.2700005       2.31396415E-41
  -15.2650003      -1.63321336E-41
  -15.2600002      -8.86223188E-41
  -15.2550001      -1.85019041E-40
  -15.2500000      -2.64488079E-40
  -15.2449999      -2.62192752E-40
  -15.2399998      -9.13324300E-41
  -15.2349997       3.18146599E-40
  -15.2299995       9.61477119E-40
  -15.2250004       1.68325373E-39
  -15.2200003       2.13089572E-39
  -15.2150002       1.75540659E-39
  -15.2100000      -3.79863988E-41
  -15.2049999      -3.59700844E-39
  -15.1999998      -8.57645387E-39
  -15.1949997      -1.34777209E-38
  -15.1899996      -1.54272619E-38
  -15.1850004      -1.05118152E-38
  -15.1800003       4.97470764E-39
  -15.1750002       3.22378801E-38
  -15.1700001       6.71047363E-38
  -15.1650000       9.73634729E-38
  -15.1599998       1.02306144E-37
  -15.1549997       5.65688271E-38
  -15.1499996      -6.05901277E-38
  -15.1450005      -2.49648070E-37
  -15.1400003      -4.73287772E-37
  -15.1350002      -6.43965297E-37
  -15.1300001      -6.25883704E-37
  -15.1250000      -2.71166813E-37
  -15.1199999       5.24026614E-37
  -15.1149998       1.72171341E-36
  -15.1099997       3.04369058E-36
  -15.1049995       3.92934277E-36
  -15.1000004       3.57454602E-36
  -15.0950003       1.15871940E-36
  -15.0900002      -3.77258819E-36
  -15.0850000      -1.07851542E-35
  -15.0799999      -1.80840522E-35
  -15.0749998      -2.23374921E-35
  -15.0699997      -1.91281228E-35
  -15.0649996      -4.28067381E-36
  -15.0600004       2.39578491E-35
  -15.0550003       6.22372200E-35
  -15.0500002       9.99396343E-35
  -15.0450001       1.18860306E-34
  -15.0400000       9.62930706E-35
  -15.0349998       1.24560559E-35
  -15.0299997      -1.38130642E-34
  -15.0249996      -3.33865696E-34
  -15.0200005      -5.16914595E-34
  -15.0150003      -5.94479773E-34
  -15.0100002      -4.57095249E-34
  -15.0050001      -1.72886477E-35
  -15.0000000       7.35409148E-34
  -14.9949999       1.67711581E-33
  -14.9899998       2.51466435E-33
  -14.9849997       2.80387270E-33
  -14.9799995       2.04814958E-33
  -14.9750004      -1.14171967E-34
  -14.9700003      -3.65984656E-33
  -14.9650002      -7.93941595E-33
  -14.9600000      -1.15578733E-32
  -14.9549999      -1.25087542E-32
  -14.9499998      -8.66371075E-33
  -14.9449997       1.37355064E-33
  -14.9399996       1.71955604E-32
  -14.9350004       3.56357930E-32
  -14.9300003       5.04202676E-32
  -14.9250002       5.29517123E-32
  -14.9200001       3.45821534E-32
  -14.9150000      -9.70461981E-33
  -14.9099998      -7.69353941E-32
  -14.9049997      -1.52585126E-31
  -14.8999996      -2.09815985E-31
  -14.8950005      -2.13511951E-31
  -14.8900003      -1.30230151E-31
  -14.8850002       5.66860110E-32
  -14.8800001       3.30220249E-31
  -14.8750000       6.27145044E-31
  -14.8699999       8.37637620E-31
  -14.8649998       8.24237737E-31
  -14.8599997       4.63267261E-31
  -14.8549995      -2.95811226E-31
  -14.8500004      -1.36770630E-30
  -14.8450003      -2.48951573E-30
  -14.8400002      -3.22901189E-30
  -14.8350000      -3.06753150E-30
  -14.8299999      -1.56487394E-30
  -14.8249998       1.41639377E-30
  -14.8199997       5.48662158E-30
  -14.8149996       9.59672460E-30
  -14.8100004       1.21024964E-29
  -14.8050003       1.11060834E-29
  -14.8000002       5.08668116E-30
  -14.7950001      -6.27974887E-30
  -14.7900000      -2.13414750E-29
  -14.7849998      -3.60688972E-29
  -14.7799997      -4.43921044E-29
  -14.7749996      -3.95358691E-29
  -14.7700005      -1.63450515E-29
  -14.7650003       2.58049515E-29
  -14.7600002       8.03628635E-29
  -14.7550001       1.32408791E-28
  -14.7500000       1.60138559E-28
  -14.7449999       1.39830037E-28
  -14.7399998       5.41312342E-29
  -14.7349997      -9.78639454E-29
  -14.7299995      -2.91768300E-28
  -14.7250004      -4.74345568E-28
  -14.7200003      -5.69300558E-28
  -14.7150002      -4.94889125E-28
  -14.7100000      -1.92503066E-28
  -14.7049999       3.39240763E-28
  -14.6999998       1.01518598E-27
  -14.6949997       1.65260890E-27
  -14.6899996       1.99162919E-27
  -14.6850004       1.75477717E-27
  -14.6800003       7.42336264E-28
  -14.6750002      -1.05488913E-27
  -14.6700001      -3.35905178E-27
  -14.6650000      -5.56870240E-27
  -14.6599998      -6.82422615E-27
  -14.6549997      -6.19961510E-27
  -14.6499996      -3.00958544E-27
  -14.6450005       2.82601966E-27
  -14.6400003       1.04668715E-26
  -14.6350002       1.80227892E-26
  -14.6300001       2.27430556E-26
  -14.6250000       2.16022009E-26
  -14.6199999       1.22532963E-26
  -14.6149998      -5.82596774E-27
  -14.6099997      -3.03140171E-26
  -14.6049995      -5.55723110E-26
  -14.6000004      -7.31267526E-26
  -14.5950003      -7.33580799E-26
  -14.5900002      -4.83400312E-26
  -14.5850000       4.66188561E-27
  -14.5799999       7.99594467E-26
  -14.5749998       1.61710507E-25
  -14.5699997       2.24927269E-25
  -14.5649996       2.40044753E-25
  -14.5600004       1.80993769E-25
  -14.5550003       3.55101422E-26
  -14.5500002      -1.84887389E-25
  -14.5450001      -4.38747130E-25
  -14.5400000      -6.56013721E-25
  -14.5349998      -7.49453457E-25
  -14.5299997      -6.36461656E-25
  -14.5249996      -2.68221336E-25
  -14.5200005       3.40507151E-25
  -14.5150003       1.09051629E-24
  -14.5100002       1.79658989E-24
  -14.5050001       2.21335713E-24
  -14.5000000       2.09080996E-24
  -14.4949999       1.25302913E-24
  -14.4899998      -3.16482885E-25
  -14.4849997      -2.40772753E-24
  -14.4799995      -4.56389639E-24
  -14.4750004      -6.13188011E-24
  -14.4700003      -6.39408958E-24
  -14.4650002      -4.76987586E-24
  -14.4600000      -1.04869078E-24
  -14.4549999       4.40682117E-24
  -14.4499998       1.05624420E-23
  -14.4449997       1.57871104E-23
  -14.4399996       1.81396325E-23
  -14.4350004       1.58536587E-23
  -14.4300003       7.94106041E-24
  -14.4250002      -5.23026258E-24
  -14.4200001      -2.15707641E-23
  -14.4150000      -3.73000983E-23
  -14.4099998      -4.75013667E-23
  -14.4049997      -4.72076264E-23
  -14.3999996      -3.28723451E-23
  -14.3950005      -3.90875254E-24
  -14.3900003       3.61405106E-23
  -14.3850002       7.92754407E-23
  -14.3800001       1.13924995E-22
  -14.3750000       1.27177252E-22
  -14.3699999       1.08126678E-22
  -14.3649998       5.17062509E-23
  -14.3599997      -3.79679069E-23
  -14.3549995      -1.45872221E-22
  -14.3500004      -2.46977506E-22
  -14.3450003      -3.10330812E-22
  -14.3400002      -3.06099110E-22
  -14.3350000      -2.14444150E-22
  -14.3299999      -3.42226415E-23
  -14.3249998       2.11041888E-22
  -14.3199997       4.72429131E-22
  -14.3149996       6.81882784E-22
  -14.3100004       7.65716105E-22
  -14.3050003       6.63622055E-22
  -14.3000002       3.49391266E-22
  -14.2950001      -1.52013736E-22
  -14.2900000      -7.56853044E-22
  -14.2849998      -1.32924067E-21
  -14.2799997      -1.70409263E-21
  -14.2749996      -1.72445610E-21
  -14.2700005      -1.28678708E-21
  -14.2650003      -3.83747408E-22
  -14.2600002       8.67944097E-22
  -14.2550001       2.22622232E-21
  -14.2500000       3.35623869E-21
  -14.2449999       3.89665965E-21
  -14.2399998       3.55024626E-21
  -14.2349997       2.18015911E-21
  -14.2299995      -1.12643443E-22
  -14.2250004      -2.95673529E-21
  -14.2200003      -5.74209313E-21
  -14.2150002      -7.72383694E-21
  -14.2100000      -8.18714209E-21
  -14.2049999      -6.64402292E-21
  -14.1999998      -3.01645143E-21
  -14.1949997       2.24617705E-21
  -14.1899996       8.16211745E-21
  -14.1850004       1.33521822E-20
  -14.1800003       1.63107141E-20
  -14.1750002       1.57713664E-20
  -14.1700001       1.10921051E-20
  -14.1650000       2.56162690E-21
  -14.1599998      -8.47158882E-21
  -14.1549997      -1.97201506E-20
  -14.1499996      -2.83511276E-20
  -14.1450005      -3.16067974E-20
  -14.1400003      -2.75373337E-20
  -14.1350002      -1.56763376E-20
  -14.1300001       2.53098486E-21
  -14.1250000       2.37109739E-20
  -14.1199999       4.30453934E-20
  -14.1149998       5.52318124E-20
  -14.1099997       5.57641419E-20
  -14.1049995       4.22618175E-20
  -14.1000004       1.55075443E-20
  -14.0950003      -2.01379818E-20
  -14.0900002      -5.71769534E-20
  -14.0850000      -8.63246463E-20
  -14.0799999      -9.85910433E-20
  -14.0749998      -8.76900113E-20
  -14.0699997      -5.22034492E-20
  -14.0649996       3.11864499E-21
  -14.0600004       6.74328751E-20
  -14.0550003       1.25500773E-19
  -14.0500002       1.60875579E-19
  -14.0450001       1.60021760E-19
  -14.0400000       1.16461188E-19
  -14.0349998       3.38459010E-20
  -14.0299997      -7.30597389E-20
  -14.0249996      -1.80159614E-19
  -14.0200005      -2.58634898E-19
  -14.0150003      -2.81709205E-19
  -14.0100002      -2.32208597E-19
  -14.0050001      -1.09056539E-19
  -14.0000000       6.92181958E-20
  -13.9949999       2.65479740E-19
  -13.9899998       4.30126164E-19
  -13.9849997       5.11765478E-19
  -13.9799995       4.70528301E-19
  -13.9750004       2.91035201E-19
  -13.9700003      -8.44363997E-21
  -13.9650002      -3.73804004E-19
  -13.9600000      -7.21861030E-19
  -13.9549999      -9.56072723E-19
  -13.9499998      -9.88964939E-19
  -13.9449997      -7.66791982E-19
  -13.9399996      -2.90542563E-19
  -13.9350004       3.72832455E-19
  -13.9300003       1.09378051E-18
  -13.9250002       1.70013564E-18
  -13.9200001       2.01195306E-18
  -13.9150000       1.88532639E-18
  -13.9099998       1.25593221E-18
  -13.9049997       1.71388204E-19
  -13.8999996      -1.19783084E-18
  -13.8950005      -2.57569340E-18
  -13.8900003      -3.62730858E-18
  -13.8850002      -4.02901644E-18
  -13.8800001      -3.54924837E-18
  -13.8750000      -2.12239883E-18
  -13.8699999       1.03433359E-19
  -13.8649998       2.76113612E-18
  -13.8599997       5.31065422E-18
  -13.8549995       7.13459739E-18
  -13.8500004       7.66949374E-18
  -13.8450003       6.54771688E-18
  -13.8400002       3.71848581E-18
  -13.8350000      -4.84125703E-19
  -13.8299999      -5.35109714E-18
  -13.8249998      -9.89700427E-18
  -13.8199997      -1.30390341E-17
  -13.8149996      -1.38280387E-17
  -13.8100004      -1.16869569E-17
  -13.8050003      -6.60253538E-18
  -13.8000002       7.80627508E-19
  -13.7950001       9.20060919E-18
  -13.7900000       1.69647332E-17
  -13.7849998       2.22618986E-17
  -13.7799997       2.35488675E-17
  -13.7749996       1.99338964E-17
  -13.7700005       1.14714971E-17
  -13.7650003      -7.11379618E-19
  -13.7600002      -1.45096777E-17
  -13.7550001      -2.71648413E-17
  -13.7500000      -3.57797603E-17
  -13.7449999      -3.79350356E-17
  -13.7399998      -3.22834829E-17
  -13.7349997      -1.89889120E-17
  -13.7299995       1.09137370E-19
  -13.7250004       2.16759619E-17
  -13.7200003       4.14124400E-17
  -13.7150002       5.48634556E-17
  -13.7100000       5.83622178E-17
  -13.7049999       4.99192118E-17
  -13.6999998       2.98571967E-17
  -13.6949997       1.02200770E-18
  -13.6899996      -3.15262553E-17
  -13.6850004      -6.13343969E-17
  -13.6800003      -8.17720512E-17
  -13.6750002      -8.74226609E-17
  -13.6700001      -7.53723202E-17
  -13.6650000      -4.61049992E-17
  -13.6599998      -3.77420014E-18
  -13.6549997       4.42751368E-17
  -13.6499996       8.87073187E-17
  -13.6450005       1.19939270E-16
  -13.6400003       1.30105836E-16
  -13.6350002       1.14859971E-16
  -13.6300001       7.46067745E-17
  -13.6250000       1.48669271E-17
  -13.6199999      -5.43842268E-17
  -13.6149998      -1.20345925E-16
  -13.6099997      -1.69732604E-16
  -13.6049995      -1.91387809E-16
  -13.6000004      -1.78657486E-16
  -13.5950003      -1.31012862E-16
  -13.5900002      -5.45497986E-17
  -13.5850000       3.88041377E-17
  -13.5799999       1.33273514E-16
  -13.5749998       2.12055320E-16
  -13.5699997       2.60432482E-16
  -13.5649996       2.68549493E-16
  -13.5600004       2.33285209E-16
  -13.5550003       1.58825269E-16
  -13.5500002       5.58255527E-17
  -13.5450001      -6.06371035E-17
  -13.5400000      -1.73859389E-16
  -13.5349998      -2.68416906E-16
  -13.5299997      -3.32530921E-16
  -13.5249996      -3.59397879E-16
  -13.5200005      -3.47250951E-16
  -13.5150003      -2.98297899E-16
  -13.5100002      -2.16978382E-16
  -13.5050001      -1.08222488E-16
  -13.5000000       2.35888187E-17
  -13.4949999       1.74444358E-16
  -13.4899998       3.39162765E-16
  -13.4849997       5.08839426E-16
  -13.4799995       6.68107402E-16
  -13.4750004       7.93369016E-16
  -13.4700003       8.53181877E-16
  -13.4650002       8.11715009E-16
  -13.4600000       6.35501027E-16
  -13.4549999       3.02853480E-16
  -13.4499998      -1.85668696E-16
  -13.4449997      -7.98155123E-16
  -13.4399996      -1.46636713E-15
  -13.4350004      -2.08747458E-15
  -13.4300003      -2.53417435E-15
  -13.4250002      -2.67329210E-15
  -13.4200001      -2.39116427E-15
  -13.4150000      -1.62198625E-15
  -13.4099998      -3.73888416E-16
  -13.4049997       1.25337032E-15
  -13.3999996       3.06470814E-15
  -13.3950005       4.78401032E-15
  -13.3900003       6.08741361E-15
  -13.3850002       6.65315284E-15
  -13.3800001       6.22146886E-15
  -13.3750000       4.65503897E-15
  -13.3699999       1.98849666E-15
  -13.3649998      -1.54438882E-15
  -13.3599997      -5.51496587E-15
  -13.3549995      -9.33993415E-15
  -13.3500004      -1.23561914E-14
  -13.3450003      -1.39222240E-14
  -13.3400002      -1.35318104E-14
  -13.3350000      -1.09216979E-14
  -13.3299999      -6.15313363E-15
  -13.3249998       3.50506310E-16
  -13.3199997       7.82238823E-15
  -13.3149996       1.52311415E-14
  -13.3100004       2.14137146E-14
  -13.3050003       2.52461439E-14
  -13.3000002       2.58275304E-14
  -13.2950001       2.26481347E-14
  -13.2900000       1.57124561E-14
  -13.2849998       5.59286495E-15
  -13.2799997      -6.60066475E-15
  -13.2749996      -1.93366848E-14
  -13.2700005      -3.08522603E-14
  -13.2650003      -3.93923243E-14
  -13.2600002      -4.34642590E-14
  -13.2550001      -4.20700123E-14
  -13.2500000      -3.48800985E-14
  -13.2449999      -2.23216424E-14
  -13.2399998      -5.56503399E-15
  -13.2349997       1.35906013E-14
  -13.2299995       3.29187971E-14
  -13.2250004       5.00265248E-14
  -13.2200003       6.26402549E-14
  -13.2150002       6.88794250E-14
  -13.2100000       6.74863743E-14
  -13.2049999       5.79865542E-14
  -13.1999998       4.07657137E-14
  -13.1949997       1.70625859E-14
  -13.1899996      -1.11167052E-14
  -13.1850004      -4.11500634E-14
  -13.1800003      -7.00015336E-14
  -13.1750002      -9.44602334E-14
  -13.1700001      -1.11407018E-13
  -13.1650000      -1.18099608E-13
  -13.1599998      -1.12466080E-13
  -13.1549997      -9.33985148E-14
  -13.1499996      -6.10179022E-14
  -13.1450005      -1.68870096E-14
  -13.1400003       3.58769749E-14
  -13.1350002       9.26336305E-14
  -13.1300001       1.47439014E-13
  -13.1250000       1.93482966E-13
  -13.1199999       2.23747263E-13
  -13.1149998       2.31851756E-13
  -13.1099997       2.13008539E-13
  -13.1049995       1.64973748E-13
  -13.1000004       8.88478676E-14
  -13.0950003      -1.04318562E-14
  -13.0900002      -1.24045874E-13
  -13.0850000      -2.39795136E-13
  -13.0799999      -3.43178692E-13
  -13.0749998      -4.18992179E-13
  -13.0699997      -4.53296824E-13
  -13.0649996      -4.35521817E-13
  -13.0600004      -3.60415446E-13
  -13.0550003      -2.29528202E-13
  -13.0500002      -5.19470534E-14
  -13.0450001       1.55923519E-13
  -13.0400000       3.71625473E-13
  -13.0349998       5.68890584E-13
  -13.0299997       7.20669835E-13
  -13.0249996       8.02584290E-13
  -13.0200005       7.96376094E-13
  -13.0150003       6.92882438E-13
  -13.0100002       4.94090554E-13
  -13.0050001       2.13919973E-13
  -13.0000000      -1.22443871E-13
  -12.9949999      -4.80688839E-13
  -12.9899998      -8.20786852E-13
  -12.9849997      -1.10132736E-12
  -12.9799995      -1.28427325E-12
  -12.9750004      -1.33960800E-12
  -12.9700003      -1.24928160E-12
  -12.9650002      -1.01004676E-12
  -12.9600000      -6.34788825E-13
  -12.9549999      -1.52197062E-13
  -12.9499998       3.95228961E-13
  -12.9449997       9.54669937E-13
  -12.9399996       1.46767451E-12
  -12.9350004       1.87564005E-12
  -12.9300003       2.12561435E-12
  -12.9250002       2.17594454E-12
  -12.9200001       2.00130472E-12
  -12.9150000       1.59662583E-12
  -12.9099998       9.79534921E-13
  -12.9049997       1.90991306E-13
  -12.8999996      -7.06174160E-13
  -12.8950005      -1.63094484E-12
  -12.8900003      -2.48999996E-12
  -12.8850002      -3.18562125E-12
  -12.8800001      -3.62511843E-12
  -12.8750000      -3.73115558E-12
  -12.8699999      -3.45194511E-12
  -12.8649998      -2.77027598E-12
  -12.8599997      -1.71006124E-12
  -12.8549995      -3.39335764E-13
  -12.8500004       1.23130781E-12
  -12.8450003       2.85536286E-12
  -12.8400002       4.36212524E-12
  -12.8350000       5.57283560E-12
  -12.8299999       6.31994413E-12
  -12.8249998       6.46750709E-12
  -12.8199997       5.93051346E-12
  -12.8149996       4.69047761E-12
  -12.8100004       2.80514435E-12
  -12.8050003       4.10257792E-13
  -12.8000002      -2.28745126E-12
  -12.7950001      -5.02632224E-12
  -12.7900000      -7.51364856E-12
  -12.7849998      -9.45533669E-12
  -12.7799997      -1.05884225E-11
  -12.7749996      -1.07127284E-11
  -12.7700005      -9.71816811E-12
  -12.7650003      -7.60415689E-12
  -12.7600002      -4.48857097E-12
  -12.7550001      -6.04510311E-13
  -12.7500000       3.71528979E-12
  -12.7449999       8.06558553E-12
  -12.7399998       1.20048685E-11
  -12.7349997       1.50974719E-11
  -12.7299995       1.69576644E-11
  -12.7250004       1.72912865E-11
  -12.7200003       1.59310464E-11
  -12.7150002       1.28616215E-11
  -12.7100000       8.23196979E-12
  -12.7049999       2.35300668E-12
  -12.6999998      -4.31965748E-12
  -12.6949997      -1.12174315E-11
  -12.6899996      -1.77028704E-11
  -12.6850004      -2.31231197E-11
  -12.6800003      -2.68687919E-11
  -12.6750002      -2.84336825E-11
  -12.6700001      -2.74698337E-11
  -12.6650000      -2.38332930E-11
  -12.6599998      -1.76149997E-11
  -12.6549997      -9.15305678E-12
  -12.6499996       9.76738438E-13
  -12.6450005       1.19937255E-11
  -12.6400003       2.29673589E-11
  -12.6350002       3.28918906E-11
  -12.6300001       4.07749355E-11
  -12.6250000       4.57330528E-11
  -12.6199999       4.70848915E-11
  -12.6149998       4.44322530E-11
  -12.6099997       3.77198758E-11
  -12.6049995       2.72650617E-11
  -12.6000004       1.37517610E-11
  -12.5950003      -1.81314263E-12
  -12.5900002      -1.81801813E-11
  -12.5850000      -3.39680090E-11
  -12.5799999      -4.77946085E-11
  -12.5749998      -5.84161886E-11
  -12.5699997      -6.48587642E-11
  -12.5649996      -6.65274016E-11
  -12.5600004      -6.32795066E-11
  -12.5550003      -5.54508939E-11
  -12.5500002      -4.38310083E-11
  -12.5450001      -2.95847166E-11
  -12.5400000      -1.41272480E-11
  -12.5349998       1.03543248E-12
  -12.5299997       1.44861848E-11
  -12.5249996       2.50761113E-11
  -12.5200005       3.20834852E-11
  -12.5150003       3.53329414E-11
  -12.5100002       3.52575816E-11
  -12.5050001       3.28928863E-11
  -12.5000000       2.97960094E-11
  -12.4949999       2.78924332E-11
  -12.4899998       2.92583804E-11
  -12.4849997       3.58550481E-11
  -12.4799995       4.92365003E-11
  -12.4750004       7.02580216E-11
  -12.4700003       9.88138460E-11
  -12.4650002       1.33634034E-10
  -12.4600000       1.72169806E-10
  -12.4549999       2.10589032E-10
  -12.4499998       2.43901621E-10
  -12.4449997       2.66219824E-10
  -12.4399996       2.71155792E-10
  -12.4350004       2.52339566E-10
  -12.4300003       2.04034345E-10
  -12.4250002       1.21808522E-10
  -12.4200001       3.22383895E-12
  -12.4150000      -1.51521143E-10
  -12.4099998      -3.39047651E-10
  -12.4049997      -5.52415946E-10
  -12.3999996      -7.80954912E-10
  -12.3950005      -1.01035835E-09
  -12.3900003      -1.22307497E-09
  -12.3850002      -1.39899736E-09
  -12.3800001      -1.51646329E-09
  -12.3750000      -1.55352420E-09
  -12.3699999      -1.48946666E-09
  -12.3649998      -1.30643607E-09
  -12.3599997      -9.91211446E-10
  -12.3549995      -5.36879652E-10
  -12.3500004       5.55575620E-11
  -12.3450003       7.75853826E-10
  -12.3400002       1.60350389E-09
  -12.3350000       2.50717758E-09
  -12.3299999       3.44465634E-09
  -12.3249998       4.36337011E-09
  -12.3199997       5.20154764E-09
  -12.3149996       5.89002180E-09
  -12.3100004       6.35468389E-09
  -12.3050003       6.51959953E-09
  -12.3000002       6.31063557E-09
  -12.2950001       5.65965275E-09
  -12.2900000       4.50906290E-09
  -12.2849998       2.81661339E-09
  -12.2799997       5.60294700E-10
  -12.2749996      -2.25686714E-09
  -12.2700005      -5.60237945E-09
  -12.2650003      -9.41039868E-09
  -12.2600002      -1.35786919E-08
  -12.2550001      -1.79667481E-08
  -12.2500000      -2.23951400E-08
  -12.2449999      -2.66467843E-08
  -12.2399998      -3.04695504E-08
  -12.2349997      -3.35815287E-08
  -12.2299995      -3.56779388E-08
  -12.2250004      -3.64404968E-08
  -12.2200003      -3.55489433E-08
  -12.2150002      -3.26942882E-08
  -12.2100000      -2.75944387E-08
  -12.2049999      -2.00108570E-08
  -12.1999998      -9.76630421E-09
  -12.1949997       3.23714522E-09
  -12.1899996       1.89998524E-08
  -12.1850004       3.74079967E-08
  -12.1800003       5.82182622E-08
  -12.1750002       8.10458047E-08
  -12.1700001       1.05355049E-07
  -12.1650000       1.30455888E-07
  -12.1599998       1.55504466E-07
  -12.1549997       1.79510579E-07
  -12.1499996       2.01350602E-07
  -12.1450005       2.19788944E-07
  -12.1400003       2.33504522E-07
  -12.1350002       2.41126912E-07
  -12.1300001       2.41277206E-07
  -12.1250000       2.32613587E-07
  -12.1199999       2.13886835E-07
  -12.1149998       1.83993549E-07
  -12.1099997       1.42036086E-07
  -12.1049995       8.73821335E-08
  -12.1000004       1.97204972E-08
  -12.0950003      -6.08827975E-08
  -12.0900002      -1.53935787E-07
  -12.0850000      -2.58480014E-07
  -12.0799999      -3.73058526E-07
  -12.0749998      -4.95694962E-07
  -12.0699997      -6.23887445E-07
  -12.0649996      -7.54617076E-07
  -12.0600004      -8.84368774E-07
  -12.0550003      -1.00917748E-06
  -12.0500002      -1.12467876E-06
  -12.0450001      -1.22619122E-06
  -12.0400000      -1.30879857E-06
  -12.0349998      -1.36746667E-06
  -12.0299997      -1.39715519E-06
  -12.0249996      -1.39295446E-06
  -12.0200005      -1.35022640E-06
  -12.0150003      -1.26476175E-06
  -12.0100002      -1.13291344E-06
  -12.0050001      -9.51779214E-07
  -12.0000000      -7.19326579E-07
  -11.9949999      -4.34550600E-07
  -11.9899998      -9.76138139E-08
  -11.9849997       2.90055482E-07
  -11.9799995       7.25638301E-07
  -11.9750004       1.20486209E-06
  -11.9700003       1.72193768E-06
  -11.9650002       2.26953784E-06
  -11.9600000       2.83879785E-06
  -11.9549999       3.41935811E-06
  -11.9499998       3.99944247E-06
  -11.9449997       4.56595944E-06
  -11.9399996       5.10466134E-06
  -11.9350004       5.60032868E-06
  -11.9300003       6.03698663E-06
  -11.9250002       6.39818700E-06
  -11.9200001       6.66725691E-06
  -11.9150000       6.82767541E-06
  -11.9099998       6.86339718E-06
  -11.9049997       6.75918818E-06
  -11.8999996       6.50108723E-06
  -11.8950005       6.07672428E-06
  -11.8900003       5.47578884E-06
  -11.8850002       4.69037877E-06
  -11.8800001       3.71536316E-06
  -11.8750000       2.54884753E-06
  -11.8699999       1.19235426E-06
  -11.8649998      -3.48735909E-07
  -11.8599997      -2.06504387E-06
  -11.8549995      -3.94290964E-06
  -11.8500004      -5.96431619E-06
  -11.8450003      -8.10679649E-06
  -11.8400002      -1.03434377E-05
  -11.8350000      -1.26429777E-05
  -11.8299999      -1.49699772E-05
  -11.8249998      -1.72850687E-05
  -11.8199997      -1.95453140E-05
  -11.8149996      -2.17046381E-05
  -11.8100004      -2.37144050E-05
  -11.8050003      -2.55239356E-05
  -11.8000002      -2.70813580E-05
  -11.7950001      -2.83342324E-05
  -11.7900000      -2.92305140E-05
  -11.7849998      -2.97194219E-05
  -11.7799997      -2.97524093E-05
  -11.7749996      -2.92841669E-05
  -11.7700005      -2.82736000E-05
  -11.7650003      -2.66850238E-05
  -11.7600002      -2.44890125E-05
  -11.7550001      -2.16633562E-05
  -11.7500000      -1.81943287E-05
  -11.7449999      -1.40772881E-05
  -11.7399998      -9.31755676E-06
  -11.7349997      -3.93128221E-06
  -11.7299995       2.05415063E-06
  -11.7250004       8.59952070E-06
  -11.7200003       1.56535170E-05