  -16.0000000       0.00000000    
  -15.9949999       0.00000000    
  -15.9899998       0.00000000    
  -15.9849997       0.00000000    
  -15.9799995       0.00000000    
  -15.9750004       0.00000000    
  -15.9700003       0.00000000    
  -15.9650002       0.00000000    
  -15.9600000       0.00000000    
  -15.9549999       0.00000000    
  -15.9499998       0.00000000    
  -15.9449997       0.00000000    
  -15.9399996       0.00000000    
  -15.9350004       0.00000000    
  -15.9300003       0.00000000    
  -15.9250002       0.00000000    
  -15.9200001       0.00000000    
  -15.9150000       0.00000000    
  -15.9099998       0.00000000    
  -15.9049997       0.00000000    
  -15.8999996       0.00000000    
  -15.8950005       0.00000000    
  -15.8900003       0.00000000    
  -15.8850002       0.00000000    
  -15.8800001       0.00000000    
  -15.8750000       0.00000000    
  -15.8699999       0.00000000    
  -15.8649998       0.00000000    
  -15.8599997       0.00000000    
  -15.8549995       0.00000000    
  -15.8500004       0.00000000    
  -15.8450003       0.00000000    
  -15.8400002       0.00000000    
  -15.8350000       0.00000000    
  -15.8299999       0.00000000    
  -15.8249998       0.00000000    
  -15.8199997       0.00000000    
  -15.8149996       0.00000000    
  -15.8100004       0.00000000    
  -15.8050003       0.00000000    
  -15.8000002       0.00000000    
  -15.7950001       0.00000000    
  -15.7900000       0.00000000    
  -15.7849998       0.00000000    
  -15.7799997       0.00000000    
  -15.7749996       0.00000000    
  -15.7700005       0.00000000    
  -15.7650003       0.00000000    
  -15.7600002       0.00000000    
  -15.7550001       0.00000000    
  -15.7500000       0.00000000    
  -15.7449999       0.00000000    
  -15.7399998       0.00000000    
  -15.7349997       0.00000000    
  -15.7299995       0.00000000    
  -15.7250004       0.00000000    
  -15.7200003       0.00000000    
  -15.7150002       0.00000000    
  -15.7100000       0.00000000    
  -15.7049999       0.00000000    
  -15.6999998       0.00000000    
  -15.6949997       0.00000000    
  -15.6899996       0.00000000    
  -15.6850004       0.00000000    
  -15.6800003       0.00000000    
  -15.6750002       0.00000000    
  -15.6700001       0.00000000    
  -15.6650000       0.00000000    
  -15.6599998       0.00000000    
  -15.6549997       0.00000000    
  -15.6499996       0.00000000    
  -15.6450005       0.00000000    
  -15.6400003       0.00000000    
  -15.6350002       0.00000000    
  -15.6300001       0.00000000    
  -15.6250000       0.00000000    
  -15.6199999       0.00000000    
  -15.6149998       0.00000000    
  -15.6099997       0.00000000    
  -15.6049995       0.00000000    
  -15.6000004       0.00000000    
  -15.5950003       0.00000000    
  -15.5900002       0.00000000    
  -15.5850000       0.00000000    
  -15.5799999       0.00000000    
  -15.5749998       0.00000000    
  -15.5699997       0.00000000    
  -15.5649996       0.00000000    
  -15.5600004       0.00000000    
  -15.5550003       0.00000000    
  -15.5500002       0.00000000    
  -15.5450001       0.00000000    
  -15.5400000       0.00000000    
  -15.5349998       0.00000000    
  -15.5299997       0.00000000    
  -15.5249996       0.00000000    
  -15.5200005       0.00000000    
  -15.5150003       0.00000000    
  -15.5100002       0.00000000    
  -15.5050001       0.00000000    
  -15.5000000       0.00000000    
  -15.4949999       0.00000000    
  -15.4899998       0.00000000    
  -15.4849997       0.00000000    
  -15.4799995       0.00000000    
  -15.4750004       0.00000000    
  -15.4700003       0.00000000    
  -15.4650002       0.00000000    
  -15.4600000       0.00000000    
  -15.4549999       0.00000000    
  -15.4499998       0.00000000    
  -15.4449997       0.00000000    
  -15.4399996       0.00000000    
  -15.4350004       0.00000000    
  -15.4300003       0.00000000    
  -15.4250002       0.00000000    
  -15.4200001       0.00000000    
  -15.4150000       0.00000000    
  -15.4099998       0.00000000    
  -15.4049997       0.00000000    
  -15.3999996       0.00000000    
  -15.3950005       0.00000000    
  -15.3900003       0.00000000    
  -15.3850002       0.00000000    
  -15.3800001       0.00000000    
  -15.3750000       0.00000000    
  -15.3699999       0.00000000    
  -15.3649998       0.00000000    
  -15.3599997       0.00000000    
  -15.3549995       0.00000000    
  -15.3500004       0.00000000    
  -15.3450003       0.00000000    
  -15.3400002       0.00000000    
  -15.3350000       0.00000000    
  -15.3299999       0.00000000    
  -15.3249998       0.00000000    
  -15.3199997       0.00000000    
  -15.3149996       0.00000000    
  -15.3100004       0.00000000    
  -15.3050003       0.00000000    
  -15.3000002       0.00000000    
  -15.2950001       0.00000000    
  -15.2900000       0.00000000    
  -15.2849998       0.00000000    
  -15.2799997       0.00000000    
  -15.2749996       0.00000000    
  -15.2700005       0.00000000    
  -15.2650003       0.00000000    
  -15.2600002       0.00000000    
  -15.2550001       0.00000000    
  -15.2500000       0.00000000    
  -15.2449999       0.00000000    
  -15.2399998       0.00000000    
  -15.2349997       0.00000000    
  -15.2299995       0.00000000    
  -15.2250004       0.00000000    
  -15.2200003       0.00000000    
  -15.2150002       0.00000000    
  -15.2100000       0.00000000    
  -15.2049999       0.00000000    
  -15.1999998       0.00000000    
  -15.1949997       0.00000000    
  -15.1899996       0.00000000    
  -15.1850004       0.00000000    
  -15.1800003       0.00000000    
  -15.1750002       0.00000000    
  -15.1700001       0.00000000    
  -15.1650000       0.00000000    
  -15.1599998       0.00000000    
  -15.1549997       0.00000000    
  -15.1499996       0.00000000    
  -15.1450005       0.00000000    
  -15.1400003       0.00000000    
  -15.1350002       0.00000000    
  -15.1300001       0.00000000    
  -15.1250000       0.00000000    
  -15.1199999       0.00000000    
  -15.1149998       0.00000000    
  -15.1099997       0.00000000    
  -15.1049995       0.00000000    
  -15.1000004       0.00000000    
  -15.0950003       0.00000000    
  -15.0900002       0.00000000    
  -15.0850000       0.00000000    
  -15.0799999       0.00000000    
  -15.0749998       0.00000000    
  -15.0699997       0.00000000    
  -15.0649996       0.00000000    
  -15.0600004       0.00000000    
  -15.0550003       0.00000000    
  -15.0500002       0.00000000    
  -15.0450001       0.00000000    
  -15.0400000       0.00000000    
  -15.0349998       0.00000000    
  -15.0299997       0.00000000    
  -15.0249996       0.00000000    
  -15.0200005       0.00000000    
  -15.0150003       0.00000000    
  -15.0100002       0.00000000    
  -15.0050001       0.00000000    
  -15.0000000       0.00000000    
  -14.9949999       0.00000000    
  -14.9899998       0.00000000    
  -14.9849997       0.00000000    
  -14.9799995       0.00000000    
  -14.9750004       0.00000000    
  -14.9700003       0.00000000    
  -14.9650002       0.00000000    
  -14.9600000       0.00000000    
  -14.9549999       0.00000000    
  -14.9499998       0.00000000    
  -14.9449997       0.00000000    
  -14.9399996       0.00000000    
  -14.9350004       0.00000000    
  -14.9300003       0.00000000    
  -14.9250002       0.00000000    
  -14.9200001       0.00000000    
  -14.9150000       0.00000000    
  -14.9099998       0.00000000    
  -14.9049997       0.00000000    
  -14.8999996       0.00000000    
  -14.8950005       0.00000000    
  -14.8900003       0.00000000    
  -14.8850002       0.00000000    
  -14.8800001       0.00000000    
  -14.8750000       0.00000000    
  -14.8699999       0.00000000    
  -14.8649998       0.00000000    
  -14.8599997       0.00000000    
  -14.8549995       0.00000000    
  -14.8500004       0.00000000    
  -14.8450003       0.00000000    
  -14.8400002       0.00000000    
  -14.8350000       0.00000000    
  -14.8299999       0.00000000    
  -14.8249998       0.00000000    
  -14.8199997       0.00000000    
  -14.8149996       0.00000000    
  -14.8100004       0.00000000    
  -14.8050003       0.00000000    
  -14.8000002       0.00000000    
  -14.7950001       0.00000000    
  -14.7900000       0.00000000    
  -14.7849998       0.00000000    
  -14.7799997       0.00000000    
  -14.7749996       0.00000000    
  -14.7700005       0.00000000    
  -14.7650003       0.00000000    
  -14.7600002       0.00000000    
  -14.7550001       0.00000000    
  -14.7500000       0.00000000    
  -14.7449999       0.00000000    
  -14.7399998       0.00000000    
  -14.7349997       0.00000000    
  -14.7299995       0.00000000    
  -14.7250004       0.00000000    
  -14.7200003       0.00000000    
  -14.7150002       0.00000000    
  -14.7100000       0.00000000    
  -14.7049999       0.00000000    
  -14.6999998       0.00000000    
  -14.6949997       0.00000000    
  -14.6899996       0.00000000    
  -14.6850004       0.00000000    
  -14.6800003       0.00000000    
  -14.6750002       0.00000000    
  -14.6700001       0.00000000    
  -14.6650000       0.00000000    
  -14.6599998       0.00000000    
  -14.6549997       0.00000000    
  -14.6499996       0.00000000    
  -14.6450005       0.00000000    
  -14.6400003       0.00000000    
  -14.6350002       0.00000000    
  -14.6300001       0.00000000    
  -14.6250000       0.00000000    
  -14.6199999       0.00000000    
  -14.6149998       0.00000000    
  -14.6099997       0.00000000    
  -14.6049995       0.00000000    
  -14.6000004       0.00000000    
  -14.5950003       0.00000000    
  -14.5900002       0.00000000    
  -14.5850000       0.00000000    
  -14.5799999       0.00000000    
  -14.5749998       0.00000000    
  -14.5699997       0.00000000    
  -14.5649996       0.00000000    
  -14.5600004       0.00000000    
  -14.5550003       0.00000000    
  -14.5500002       0.00000000    
  -14.5450001       0.00000000    
  -14.5400000       0.00000000    
  -14.5349998       0.00000000    
  -14.5299997       0.00000000    
  -14.5249996       0.00000000    
  -14.5200005       0.00000000    
  -14.5150003       0.00000000    
  -14.5100002       0.00000000    
  -14.5050001       0.00000000    
  -14.5000000       0.00000000    
  -14.4949999       0.00000000    
  -14.4899998       0.00000000    
  -14.4849997       0.00000000    
  -14.4799995       0.00000000    
  -14.4750004       0.00000000    
  -14.4700003       0.00000000    
  -14.4650002       0.00000000    
  -14.4600000       0.00000000    
  -14.4549999       0.00000000    
  -14.4499998       0.00000000    
  -14.4449997       0.00000000    
  -14.4399996       0.00000000    
  -14.4350004       0.00000000    
  -14.4300003       0.00000000    
  -14.4250002       0.00000000    
  -14.4200001       0.00000000    
  -14.4150000       0.00000000    
  -14.4099998       0.00000000    
  -14.4049997       0.00000000    
  -14.3999996       0.00000000    
  -14.3950005       0.00000000    
  -14.3900003       0.00000000    
  -14.3850002       0.00000000    
  -14.3800001       0.00000000    
  -14.3750000       0.00000000    
  -14.3699999       0.00000000    
  -14.3649998       0.00000000    
  -14.3599997       0.00000000    
  -14.3549995       0.00000000    
  -14.3500004       0.00000000    
  -14.3450003       0.00000000    
  -14.3400002       0.00000000    
  -14.3350000       0.00000000    
  -14.3299999       0.00000000    
  -14.3249998       0.00000000    
  -14.3199997       0.00000000    
  -14.3149996       0.00000000    
  -14.3100004       0.00000000    
  -14.3050003       0.00000000    
  -14.3000002       0.00000000    
  -14.2950001       0.00000000    
  -14.2900000       0.00000000    
  -14.2849998       0.00000000    
  -14.2799997       0.00000000    
  -14.2749996       0.00000000    
  -14.2700005       0.00000000    
  -14.2650003       0.00000000    
  -14.2600002       0.00000000    
  -14.2550001       0.00000000    
  -14.2500000       0.00000000    
  -14.2449999       0.00000000    
  -14.2399998       0.00000000    
  -14.2349997       0.00000000    
  -14.2299995       0.00000000    
  -14.2250004       0.00000000    
  -14.2200003       0.00000000    
  -14.2150002       0.00000000    
  -14.2100000       0.00000000    
  -14.2049999       0.00000000    
  -14.1999998       0.00000000    
  -14.1949997       0.00000000    
  -14.1899996       0.00000000    
  -14.1850004       0.00000000    
  -14.1800003       0.00000000    
  -14.1750002       0.00000000    
  -14.1700001       0.00000000    
  -14.1650000       0.00000000    
  -14.1599998       0.00000000    
  -14.1549997       0.00000000    
  -14.1499996       0.00000000    
  -14.1450005       0.00000000    
  -14.1400003       0.00000000    
  -14.1350002       0.00000000    
  -14.1300001       0.00000000    
  -14.1250000       0.00000000    
  -14.1199999       0.00000000    
  -14.1149998       0.00000000    
  -14.1099997       0.00000000    
  -14.1049995       0.00000000    
  -14.1000004       0.00000000    
  -14.0950003       0.00000000    
  -14.0900002       0.00000000    
  -14.0850000       0.00000000    
  -14.0799999       0.00000000    
  -14.0749998       0.00000000    
  -14.0699997       0.00000000    
  -14.0649996       0.00000000    
  -14.0600004       0.00000000    
  -14.0550003       0.00000000    
  -14.0500002       0.00000000    
  -14.0450001       0.00000000    
  -14.0400000       0.00000000    
  -14.0349998       0.00000000    
  -14.0299997       0.00000000    
  -14.0249996       0.00000000    
  -14.0200005       0.00000000    
  -14.0150003       0.00000000    
  -14.0100002       0.00000000    
  -14.0050001       0.00000000    
  -14.0000000       0.00000000    
  -13.9949999       0.00000000    
  -13.9899998       0.00000000    
  -13.9849997       0.00000000    
  -13.9799995       0.00000000    
  -13.9750004       0.00000000    
  -13.9700003       0.00000000    
  -13.9650002       0.00000000    
  -13.9600000       0.00000000    
  -13.9549999       0.00000000    
  -13.9499998       0.00000000    
  -13.9449997       0.00000000    
  -13.9399996       0.00000000    
  -13.9350004       0.00000000    
  -13.9300003       0.00000000    
  -13.9250002       0.00000000    
  -13.9200001       0.00000000    
  -13.9150000       0.00000000    
  -13.9099998       0.00000000    
  -13.9049997       0.00000000    
  -13.8999996       0.00000000    
  -13.8950005       0.00000000    
  -13.8900003       0.00000000    
  -13.8850002       0.00000000    
  -13.8800001       0.00000000    
  -13.8750000       0.00000000    
  -13.8699999       0.00000000    
  -13.8649998       0.00000000    
  -13.8599997       0.00000000    
  -13.8549995       0.00000000    
  -13.8500004       0.00000000    
  -13.8450003       0.00000000    
  -13.8400002       0.00000000    
  -13.8350000       0.00000000    
  -13.8299999       0.00000000    
  -13.8249998       0.00000000    
  -13.8199997       0.00000000    
  -13.8149996       0.00000000    
  -13.8100004       0.00000000    
  -13.8050003       0.00000000    
  -13.8000002       0.00000000    
  -13.7950001       0.00000000    
  -13.7900000       0.00000000    
  -13.7849998       0.00000000    
  -13.7799997       0.00000000    
  -13.7749996       0.00000000    
  -13.7700005       0.00000000    
  -13.7650003       0.00000000    
  -13.7600002       0.00000000    
  -13.7550001       0.00000000    
  -13.7500000       0.00000000    
  -13.7449999       0.00000000    
  -13.7399998       0.00000000    
  -13.7349997       0.00000000    
  -13.7299995       0.00000000    
  -13.7250004       0.00000000    
  -13.7200003       0.00000000    
  -13.7150002       0.00000000    
  -13.7100000       0.00000000    
  -13.7049999       0.00000000    
  -13.6999998       0.00000000    
  -13.6949997       0.00000000    
  -13.6899996       0.00000000    
  -13.6850004       0.00000000    
  -13.6800003       0.00000000    
  -13.6750002       0.00000000    
  -13.6700001       0.00000000    
  -13.6650000       0.00000000    
  -13.6599998       0.00000000    
  -13.6549997       0.00000000    
  -13.6499996       0.00000000    
  -13.6450005       0.00000000    
  -13.6400003       0.00000000    
  -13.6350002       0.00000000    
  -13.6300001       0.00000000    
  -13.6250000       0.00000000    
  -13.6199999       0.00000000    
  -13.6149998       0.00000000    
  -13.6099997       0.00000000    
  -13.6049995       0.00000000    
  -13.6000004       0.00000000    
  -13.5950003       0.00000000    
  -13.5900002       0.00000000    
  -13.5850000       0.00000000    
  -13.5799999       0.00000000    
  -13.5749998       0.00000000    
  -13.5699997       0.00000000    
  -13.5649996       0.00000000    
  -13.5600004       0.00000000    
  -13.5550003       0.00000000    
  -13.5500002       0.00000000    
  -13.5450001       0.00000000    
  -13.5400000       0.00000000    
  -13.5349998       0.00000000    
  -13.5299997       0.00000000    
  -13.5249996       0.00000000    
  -13.5200005       0.00000000    
  -13.5150003       0.00000000    
  -13.5100002       0.00000000    
  -13.5050001       0.00000000    
  -13.5000000       0.00000000    
  -13.4949999       0.00000000    
  -13.4899998       0.00000000    
  -13.4849997       0.00000000    
  -13.4799995       0.00000000    
  -13.4750004       0.00000000    
  -13.4700003       0.00000000    
  -13.4650002       0.00000000    
  -13.4600000       0.00000000    
  -13.4549999       0.00000000    
  -13.4499998       0.00000000    
  -13.4449997       0.00000000    
  -13.4399996       0.00000000    
  -13.4350004       0.00000000    
  -13.4300003       0.00000000    
  -13.4250002      -0.00000000    
  -13.4200001       0.00000000    
  -13.4150000       0.00000000    
  -13.4099998       0.00000000    
  -13.4049997      -0.00000000    
  -13.3999996      -0.00000000    
  -13.3950005       0.00000000    
  -13.3900003       0.00000000    
  -13.3850002      -0.00000000    
  -13.3800001      -0.00000000    
  -13.3750000      -0.00000000    
  -13.3699999      -0.00000000    
  -13.3649998      -1.40129846E-45
  -13.3599997      -1.40129846E-45
  -13.3549995       0.00000000    
  -13.3500004       0.00000000    
  -13.3450003       0.00000000    
  -13.3400002       1.40129846E-45
  -13.3350000       1.40129846E-45
  -13.3299999      -0.00000000    
  -13.3249998      -0.00000000    
  -13.3199997      -1.40129846E-45
  -13.3149996      -1.40129846E-45
  -13.3100004      -2.80259693E-45
  -13.3050003      -4.20389539E-45
  -13.3000002      -4.20389539E-45
  -13.2950001      -1.40129846E-45
  -13.2900000       0.00000000    
  -13.2849998       2.80259693E-45
  -13.2799997       5.60519386E-45
  -13.2749996       8.40779079E-45
  -13.2700005       1.12103877E-44
  -13.2650003       9.80908925E-45
  -13.2600002       7.00649232E-45
  -13.2550001       2.80259693E-45
  -13.2500000      -2.80259693E-45
  -13.2449999      -2.80259693E-45
  -13.2399998      -8.40779079E-45
  -13.2349997      -1.68155816E-44
  -13.2299995      -1.68155816E-44
  -13.2250004      -5.60519386E-45
  -13.2200003       1.12103877E-44
  -13.2150002       1.54142831E-44
  -13.2100000       3.22298647E-44
  -13.2049999       4.90454463E-44
  -13.1999998       5.04467447E-44
  -13.1949997       3.78350585E-44
  -13.1899996       1.26116862E-44
  -13.1850004      -1.54142831E-44
  -13.1800003      -4.48415509E-44
  -13.1750002      -4.20389539E-44
  -13.1700001      -8.40779079E-45
  -13.1650000       4.20389539E-45
  -13.1599998       1.54142831E-44
  -13.1549997       1.96181785E-44
  -13.1499996       4.20389539E-45
  -13.1450005      -8.40779079E-45
  -13.1400003      -1.40129846E-44
  -13.1350002      -2.10194770E-44
  -13.1300001      -1.68155816E-44
  -13.1250000      -1.40129846E-44
  -13.1199999      -5.60519386E-45
  -13.1149998       0.00000000    
  -13.1099997      -5.60519386E-45
  -13.1049995      -1.12103877E-44
  -13.1000004      -2.24207754E-44
  -13.0950003      -1.40129846E-44
  -13.0900002       4.20389539E-45
  -13.0850000       1.12103877E-44
  -13.0799999       2.66246708E-44
  -13.0749998       4.48415509E-44
  -13.0699997       6.58610278E-44
  -13.0649996       9.10844002E-44
  -13.0600004       1.27518160E-43
  -13.0550003       1.61149323E-43
  -13.0500002       1.89175293E-43
  -13.0450001       2.41023336E-43
  -13.0400000       2.98476573E-43
  -13.0349998       3.50324616E-43
  -13.0299997       3.95166167E-43
  -13.0249996       4.80645373E-43
  -13.0200005       5.81538863E-43
  -13.0150003       6.95044038E-43
  -13.0100002       8.42180377E-43
  -13.0050001       9.78106328E-43
  -13.0000000       1.10562449E-42
  -12.9949999       1.27097771E-42
  -12.9899998       1.45314651E-42
  -12.9849997       1.63951920E-42
  -12.9799995       1.84130618E-42
  -12.9750004       2.04449446E-42
  -12.9700003       2.26870221E-42
  -12.9650002       2.53214633E-42
  -12.9600000       2.82361641E-42
  -12.9549999       3.14871765E-42
  -12.9499998       3.49203577E-42
  -12.9449997       3.89000454E-42
  -12.9399996       4.38886679E-42
  -12.9350004       4.92836670E-42
  -12.9300003       5.50289907E-42
  -12.9250002       6.10265481E-42
  -12.9200001       6.76546899E-42
  -12.9150000       7.50955847E-42
  -12.9099998       8.29008171E-42
  -12.9049997       9.12945950E-42
  -12.8999996       1.00304944E-41
  -12.8950005       1.10086007E-41
  -12.8900003       1.20637785E-41
  -12.8850002       1.32030341E-41
  -12.8800001       1.44642027E-41
  -12.8750000       1.58346726E-41
  -12.8699999       1.73396672E-41
  -12.8649998       1.89679760E-41
  -12.8599997       2.07167965E-41
  -12.8549995       2.26057468E-41
  -12.8500004       2.46390309E-41
  -12.8450003       2.67844188E-41
  -12.8400002       2.90531211E-41
  -12.8350000       3.15095973E-41
  -12.8299999       3.41664592E-41
  -12.8249998       3.70363184E-41
  -12.8199997       4.00911491E-41
  -12.8149996       4.33015238E-41
  -12.8100004       4.66954687E-41
  -12.8050003       5.03486538E-41
  -12.8000002       5.42246454E-41
  -12.7950001       5.82898122E-41
  -12.7900000       6.26016076E-41
  -12.7849998       6.71614328E-41
  -12.7799997       7.19132359E-41
  -12.7749996       7.69018584E-41
  -12.7700005       8.21637342E-41
  -12.7650003       8.76764423E-41
  -12.7600002       9.34764167E-41
  -12.7550001       9.95230195E-41
  -12.7500000       1.05805041E-40
  -12.7449999       1.12321078E-40
  -12.7399998       1.19061324E-40
  -12.7349997       1.26115460E-40
  -12.7299995       1.33417627E-40
  -12.7250004       1.40958014E-40
  -12.7200003       1.48739424E-40
  -12.7150002       1.56690392E-40
  -12.7100000       1.64789897E-40
  -12.7049999       1.73033736E-40
  -12.6999998       1.81363054E-40
  -12.6949997       1.89787660E-40
  -12.6899996       1.98234687E-40
  -12.6850004       2.06685918E-40
  -12.6800003       2.15135748E-40
  -12.6750002       2.23430034E-40
  -12.6700001       2.31557565E-40
  -12.6650000       2.39460888E-40
  -12.6599998       2.47025097E-40
  -12.6549997       2.54188535E-40
  -12.6499996       2.60854512E-40
  -12.6450005       2.66916529E-40
  -12.6400003       2.72296114E-40
  -12.6350002       2.76864347E-40
  -12.6300001       2.80469888E-40
  -12.6250000       2.82941778E-40
  -12.6199999       2.84186131E-40
  -12.6149998       2.84012370E-40
  -12.6099997       2.82262148E-40
  -12.6049995       2.78788329E-40
  -12.6000004       2.73303647E-40
  -12.5950003       2.65592302E-40
  -12.5900002       2.55472124E-40
  -12.5850000       2.42704894E-40
  -12.5799999       2.26987930E-40
  -12.5749998       2.07997534E-40
  -12.5699997       1.85467457E-40
  -12.5649996       1.59107632E-40
  -12.5600004       1.28620982E-40
  -12.5550003       9.36838088E-41
  -12.5500002       5.38799260E-41
  -12.5450001       8.82397643E-42
  -12.5400000      -4.18609890E-41
  -12.5349998      -9.86093729E-41
  -12.5299997      -1.61819144E-40
  -12.5249996      -2.31940119E-40
  -12.5200005      -3.09406701E-40
  -12.5150003      -3.94709344E-40
  -12.5100002      -4.88377738E-40
  -12.5050001      -5.90902339E-40
  -12.5000000      -7.02794620E-40
  -12.4949999      -8.24564654E-40
  -12.4899998      -9.56788375E-40
  -12.4849997      -1.10001089E-39
  -12.4799995      -1.25474927E-39
  -12.4750004      -1.42162570E-39
  -12.4700003      -1.60116566E-39
  -12.4650002      -1.79391847E-39
  -12.4600000      -2.00053292E-39
  -12.4549999      -2.22150648E-39
  -12.4499998      -2.45738285E-39
  -12.4449997      -2.70877019E-39
  -12.4399996      -2.97622622E-39
  -12.4350004      -3.26022878E-39
  -12.4300003      -3.56125291E-39
  -12.4250002      -3.87973862E-39
  -12.4200001      -4.21611051E-39
  -12.4150000      -4.57082680E-39
  -12.4099998      -4.94421679E-39
  -12.4049997      -5.33656354E-39
  -12.3999996      -5.74814312E-39
  -12.3950005      -6.17914749E-39
  -12.3900003      -6.62966495E-39
  -12.3850002      -7.09975854E-39
  -12.3800001      -7.58937503E-39
  -12.3750000      -8.09837568E-39
  -12.3699999      -8.62653908E-39
  -12.3649998      -9.17351211E-39
  -12.3599997      -9.73883235E-39
  -12.3549995      -1.03219379E-38
  -12.3500004      -1.09220664E-38
  -12.3450003      -1.15383112E-38
  -12.3400002      -1.21696494E-38
  -12.3350000      -1.28149305E-38
  -12.3299999      -1.34727855E-38
  -12.3249998      -1.41415678E-38
  -12.3199997      -1.48195202E-38
  -12.3149996      -1.55046416E-38
  -12.3100004      -1.61946956E-38
  -12.3050003      -1.68872580E-38
  -12.3000002      -1.75795709E-38
  -12.2950001      -1.82687071E-38
  -12.2900000      -1.89513398E-38
  -12.2849998      -1.96239561E-38
  -12.2799997      -2.02827345E-38
  -12.2749996      -2.09235623E-38
  -12.2700005      -2.15420142E-38
  -12.2650003      -2.21332808E-38
  -12.2600002      -2.26922420E-38
  -12.2550001      -2.32134017E-38
  -12.2500000      -2.36909124E-38
  -12.2449999      -2.41185886E-38
  -12.2399998      -2.44899131E-38
  -12.2349997      -2.47979578E-38
  -12.2299995      -2.50352592E-38
  -12.2250004      -2.51942085E-38
  -12.2200003      -2.52667313E-38
  -12.2150002      -2.52443582E-38
  -12.2100000      -2.51181685E-38
  -12.2049999      -2.48789500E-38
  -12.1999998      -2.45170311E-38
  -12.1949997      -2.40224315E-38
  -12.1899996      -2.33848267E-38
  -12.1850004      -2.25934378E-38
  -12.1800003      -2.16371889E-38
  -12.1750002      -2.05047394E-38
  -12.1700001      -1.91843673E-38
  -12.1650000      -1.76641196E-38
  -12.1599998      -1.59318303E-38
  -12.1549997      -1.39750081E-38
  -12.1499996      -1.17810035E-38
  -12.1450005      -9.33714874E-39
  -12.1400003      -6.63048050E-39
  -12.1350002      -3.64799048E-39
  -12.1300001      -3.76726480E-40
  -12.1250000       3.19623568E-39
  -12.1199999       7.08380756E-39
  -12.1149998       1.12986639E-38
  -12.1099997       1.58532286E-38
  -12.1049995       2.07598220E-38
  -12.1000004       2.60302260E-38
  -12.0950003       3.16758697E-38
  -12.0900002       3.77075936E-38
  -12.0850000       4.41355206E-38
  -12.0799999       5.09692048E-38
  -12.0749998       5.82172866E-38
  -12.0699997       6.58874283E-38
  -12.0649996       7.39863224E-38
  -12.0600004       8.25194229E-38
  -12.0550003       9.14910122E-38
  -12.0500002       1.00903758E-37
  -12.0450001       1.10758844E-37
  -12.0400000       1.21055663E-37
  -12.0349998       1.31791840E-37
  -12.0299997       1.42963048E-37
  -12.0249996       1.54562716E-37
  -12.0200005       1.66581866E-37
  -12.0150003       1.79009186E-37
  -12.0100002       1.91830652E-37
  -12.0050001       2.05029359E-37
  -12.0000000       2.18585476E-37
  -11.9949999       2.32475931E-37
  -11.9899998       2.46674223E-37
  -11.9849997       2.61150488E-37
  -11.9799995       2.75871185E-37
  -11.9750004       2.90798354E-37
  -11.9700003       3.05890720E-37
  -11.9650002       3.21102319E-37
  -11.9600000       3.36382773E-37
  -11.9549999       3.51676992E-37
  -11.9499998       3.66925115E-37
  -11.9449997       3.82062434E-37
  -11.9399996       3.97019289E-37
  -11.9350004       4.11720502E-37
  -11.9300003       4.26085358E-37
  -11.9250002       4.40027986E-37
  -11.9200001       4.53456192E-37
  -11.9150000       4.66272580E-37
  -11.9099998       4.78373790E-37
  -11.9049997       4.89650857E-37
  -11.8999996       4.99987462E-37
  -11.8950005       5.09262534E-37
  -11.8900003       5.17348138E-37
  -11.8850002       5.24110289E-37
  -11.8800001       5.29409394E-37
  -11.8750000       5.33098867E-37
  -11.8699999       5.35027233E-37
  -11.8649998       5.35035708E-37
  -11.8599997       5.32961607E-37
  -11.8549995       5.28633994E-37
  -11.8500004       5.21878794E-37
  -11.8450003       5.12516012E-37
  -11.8400002       5.00359019E-37
  -11.8350000       4.85219481E-37
  -11.8299999       4.66902828E-37
  -11.8249998       4.45211625E-37
  -11.8199997       4.19943276E-37
  -11.8149996       3.90892902E-37
  -11.8100004       3.57854364E-37
  -11.8050003       3.20618927E-37
  -11.8000002       2.78974893E-37
  -11.7950001       2.32712672E-37
  -11.7900000       1.81622462E-37
  -11.7849998       1.25493329E-37
  -11.7799997       6.41187934E-38
  -11.7749996      -2.70681818E-39
  -11.7700005      -7.51839562E-38
  -11.7650003      -1.53508760E-37
  -11.7600002      -2.37871266E-37
  -11.7550001      -3.28454495E-37
  -11.7500000      -4.25432465E-37
  -11.7449999      -5.28969409E-37
  -11.7399998      -6.39218863E-37
  -11.7349997      -7.56321273E-37
  -11.7299995      -8.80403136E-37
  -11.7250004      -1.01157481E-36
  -11.7200003      -1.14992902E-36