  -16.0000000       0.00000000    
  -15.9949999       0.00000000    
  -15.9899998       0.00000000    
  -15.9849997       0.00000000    
  -15.9799995       0.00000000    
  -15.9750004       0.00000000    
  -15.9700003       0.00000000    
  -15.9650002       0.00000000    
  -15.9600000       0.00000000    
  -15.9549999       0.00000000    
  -15.9499998       0.00000000    
  -15.9449997       0.00000000    
  -15.9399996       0.00000000    
  -15.9350004       0.00000000    
  -15.9300003       0.00000000    
  -15.9250002       0.00000000    
  -15.9200001       0.00000000    
  -15.9150000       0.00000000    
  -15.9099998       0.00000000    
  -15.9049997       0.00000000    
  -15.8999996       0.00000000    
  -15.8950005       0.00000000    
  -15.8900003       0.00000000    
  -15.8850002       0.00000000    
  -15.8800001       0.00000000    
  -15.8750000       0.00000000    
  -15.8699999       0.00000000    
  -15.8649998       0.00000000    
  -15.8599997       0.00000000    
  -15.8549995       0.00000000    
  -15.8500004       0.00000000    
  -15.8450003       0.00000000    
  -15.8400002       0.00000000    
  -15.8350000       0.00000000    
  -15.8299999       0.00000000    
  -15.8249998       0.00000000    
  -15.8199997       0.00000000    
  -15.8149996       0.00000000    
  -15.8100004       0.00000000    
  -15.8050003       0.00000000    
  -15.8000002       0.00000000    
  -15.7950001       0.00000000    
  -15.7900000       0.00000000    
  -15.7849998       0.00000000    
  -15.7799997       0.00000000    
  -15.7749996       0.00000000    
  -15.7700005       0.00000000    
  -15.7650003       0.00000000    
  -15.7600002       0.00000000    
  -15.7550001       0.00000000    
  -15.7500000       0.00000000    
  -15.7449999       0.00000000    
  -15.7399998       0.00000000    
  -15.7349997       0.00000000    
  -15.7299995       0.00000000    
  -15.7250004       0.00000000    
  -15.7200003       0.00000000    
  -15.7150002       0.00000000    
  -15.7100000       0.00000000    
  -15.7049999       0.00000000    
  -15.6999998       0.00000000    
  -15.6949997       0.00000000    
  -15.6899996       0.00000000    
  -15.6850004       0.00000000    
  -15.6800003       0.00000000    
  -15.6750002       0.00000000    
  -15.6700001       0.00000000    
  -15.6650000       0.00000000    
  -15.6599998       0.00000000    
  -15.6549997       0.00000000    
  -15.6499996       0.00000000    
  -15.6450005       0.00000000    
  -15.6400003       0.00000000    
  -15.6350002       0.00000000    
  -15.6300001       0.00000000    
  -15.6250000       0.00000000    
  -15.6199999       0.00000000    
  -15.6149998       0.00000000    
  -15.6099997       0.00000000    
  -15.6049995       0.00000000    
  -15.6000004       0.00000000    
  -15.5950003       0.00000000    
  -15.5900002       0.00000000    
  -15.5850000       0.00000000    
  -15.5799999       0.00000000    
  -15.5749998       0.00000000    
  -15.5699997       0.00000000    
  -15.5649996       0.00000000    
  -15.5600004       0.00000000    
  -15.5550003       0.00000000    
  -15.5500002       0.00000000    
  -15.5450001       0.00000000    
  -15.5400000       0.00000000    
  -15.5349998       0.00000000    
  -15.5299997       0.00000000    
  -15.5249996       0.00000000    
  -15.5200005       0.00000000    
  -15.5150003       0.00000000    
  -15.5100002       0.00000000    
  -15.5050001       0.00000000    
  -15.5000000       0.00000000    
  -15.4949999       0.00000000    
  -15.4899998       0.00000000    
  -15.4849997       0.00000000    
  -15.4799995       0.00000000    
  -15.4750004       0.00000000    
  -15.4700003       0.00000000    
  -15.4650002       0.00000000    
  -15.4600000       0.00000000    
  -15.4549999       0.00000000    
  -15.4499998       0.00000000    
  -15.4449997       0.00000000    
  -15.4399996       0.00000000    
  -15.4350004       0.00000000    
  -15.4300003       0.00000000    
  -15.4250002       0.00000000    
  -15.4200001       0.00000000    
  -15.4150000       0.00000000    
  -15.4099998       0.00000000    
  -15.4049997       0.00000000    
  -15.3999996       0.00000000    
  -15.3950005       0.00000000    
  -15.3900003       0.00000000    
  -15.3850002       0.00000000    
  -15.3800001       0.00000000    
  -15.3750000       0.00000000    
  -15.3699999       0.00000000    
  -15.3649998       0.00000000    
  -15.3599997       0.00000000    
  -15.3549995       0.00000000    
  -15.3500004       0.00000000    
  -15.3450003       0.00000000    
  -15.3400002       0.00000000    
  -15.3350000       0.00000000    
  -15.3299999       0.00000000    
  -15.3249998       0.00000000    
  -15.3199997       0.00000000    
  -15.3149996       0.00000000    
  -15.3100004       0.00000000    
  -15.3050003       0.00000000    
  -15.3000002       0.00000000    
  -15.2950001       0.00000000    
  -15.2900000       0.00000000    
  -15.2849998       0.00000000    
  -15.2799997       0.00000000    
  -15.2749996       0.00000000    
  -15.2700005       0.00000000    
  -15.2650003       0.00000000    
  -15.2600002       0.00000000    
  -15.2550001       0.00000000    
  -15.2500000       0.00000000    
  -15.2449999       0.00000000    
  -15.2399998       0.00000000    
  -15.2349997       0.00000000    
  -15.2299995       0.00000000    
  -15.2250004       0.00000000    
  -15.2200003       0.00000000    
  -15.2150002       0.00000000    
  -15.2100000       0.00000000    
  -15.2049999       0.00000000    
  -15.1999998       0.00000000    
  -15.1949997       0.00000000    
  -15.1899996       0.00000000    
  -15.1850004       0.00000000    
  -15.1800003       0.00000000    
  -15.1750002       0.00000000    
  -15.1700001       0.00000000    
  -15.1650000       0.00000000    
  -15.1599998       0.00000000    
  -15.1549997       0.00000000    
  -15.1499996       0.00000000    
  -15.1450005       0.00000000    
  -15.1400003       0.00000000    
  -15.1350002       0.00000000    
  -15.1300001       0.00000000    
  -15.1250000       0.00000000    
  -15.1199999       0.00000000    
  -15.1149998       0.00000000    
  -15.1099997       0.00000000    
  -15.1049995       0.00000000    
  -15.1000004       0.00000000    
  -15.0950003       0.00000000    
  -15.0900002       0.00000000    
  -15.0850000       0.00000000    
  -15.0799999       0.00000000    
  -15.0749998       0.00000000    
  -15.0699997       0.00000000    
  -15.0649996       0.00000000    
  -15.0600004       0.00000000    
  -15.0550003       0.00000000    
  -15.0500002       0.00000000    
  -15.0450001       0.00000000    
  -15.0400000       0.00000000    
  -15.0349998       0.00000000    
  -15.0299997       0.00000000    
  -15.0249996       0.00000000    
  -15.0200005       0.00000000    
  -15.0150003       0.00000000    
  -15.0100002       0.00000000    
  -15.0050001       0.00000000    
  -15.0000000       0.00000000    
  -14.9949999       0.00000000    
  -14.9899998       0.00000000    
  -14.9849997       0.00000000    
  -14.9799995       0.00000000    
  -14.9750004       0.00000000    
  -14.9700003       0.00000000    
  -14.9650002       0.00000000    
  -14.9600000       0.00000000    
  -14.9549999       0.00000000    
  -14.9499998       0.00000000    
  -14.9449997       0.00000000    
  -14.9399996       0.00000000    
  -14.9350004       0.00000000    
  -14.9300003       0.00000000    
  -14.9250002       0.00000000    
  -14.9200001       0.00000000    
  -14.9150000       0.00000000    
  -14.9099998       0.00000000    
  -14.9049997       0.00000000    
  -14.8999996       0.00000000    
  -14.8950005       0.00000000    
  -14.8900003       0.00000000    
  -14.8850002       0.00000000    
  -14.8800001       0.00000000    
  -14.8750000       0.00000000    
  -14.8699999       0.00000000    
  -14.8649998       0.00000000    
  -14.8599997       0.00000000    
  -14.8549995       0.00000000    
  -14.8500004       0.00000000    
  -14.8450003       0.00000000    
  -14.8400002       0.00000000    
  -14.8350000       0.00000000    
  -14.8299999       0.00000000    
  -14.8249998       0.00000000    
  -14.8199997       0.00000000    
  -14.8149996       0.00000000    
  -14.8100004       0.00000000    
  -14.8050003       0.00000000    
  -14.8000002       0.00000000    
  -14.7950001       0.00000000    
  -14.7900000       0.00000000    
  -14.7849998       0.00000000    
  -14.7799997       0.00000000    
  -14.7749996       0.00000000    
  -14.7700005       0.00000000    
  -14.7650003       0.00000000    
  -14.7600002       0.00000000    
  -14.7550001       0.00000000    
  -14.7500000       0.00000000    
  -14.7449999       0.00000000    
  -14.7399998       0.00000000    
  -14.7349997       0.00000000    
  -14.7299995       0.00000000    
  -14.7250004       0.00000000    
  -14.7200003       0.00000000    
  -14.7150002       0.00000000    
  -14.7100000       0.00000000    
  -14.7049999       0.00000000    
  -14.6999998       0.00000000    
  -14.6949997       0.00000000    
  -14.6899996       0.00000000    
  -14.6850004       0.00000000    
  -14.6800003       0.00000000    
  -14.6750002       0.00000000    
  -14.6700001       0.00000000    
  -14.6650000       0.00000000    
  -14.6599998       0.00000000    
  -14.6549997       0.00000000    
  -14.6499996       0.00000000    
  -14.6450005       0.00000000    
  -14.6400003       0.00000000    
  -14.6350002       0.00000000    
  -14.6300001       0.00000000    
  -14.6250000       0.00000000    
  -14.6199999       0.00000000    
  -14.6149998       0.00000000    
  -14.6099997       0.00000000    
  -14.6049995       0.00000000    
  -14.6000004       0.00000000    
  -14.5950003       0.00000000    
  -14.5900002       0.00000000    
  -14.5850000       0.00000000    
  -14.5799999       0.00000000    
  -14.5749998       0.00000000    
  -14.5699997       0.00000000    
  -14.5649996       0.00000000    
  -14.5600004       0.00000000    
  -14.5550003       0.00000000    
  -14.5500002       0.00000000    
  -14.5450001       0.00000000    
  -14.5400000       0.00000000    
  -14.5349998       0.00000000    
  -14.5299997       0.00000000    
  -14.5249996       0.00000000    
  -14.5200005       0.00000000    
  -14.5150003       0.00000000    
  -14.5100002       0.00000000    
  -14.5050001       0.00000000    
  -14.5000000       0.00000000    
  -14.4949999       0.00000000    
  -14.4899998       0.00000000    
  -14.4849997       0.00000000    
  -14.4799995       0.00000000    
  -14.4750004       0.00000000    
  -14.4700003       0.00000000    
  -14.4650002       0.00000000    
  -14.4600000       0.00000000    
  -14.4549999       0.00000000    
  -14.4499998       0.00000000    
  -14.4449997       0.00000000    
  -14.4399996       0.00000000    
  -14.4350004       0.00000000    
  -14.4300003       0.00000000    
  -14.4250002       0.00000000    
  -14.4200001       0.00000000    
  -14.4150000       0.00000000    
  -14.4099998       0.00000000    
  -14.4049997       0.00000000    
  -14.3999996       0.00000000    
  -14.3950005       0.00000000    
  -14.3900003       0.00000000    
  -14.3850002       0.00000000    
  -14.3800001       0.00000000    
  -14.3750000       0.00000000    
  -14.3699999       0.00000000    
  -14.3649998       0.00000000    
  -14.3599997       0.00000000    
  -14.3549995       0.00000000    
  -14.3500004       0.00000000    
  -14.3450003       0.00000000    
  -14.3400002       0.00000000    
  -14.3350000       0.00000000    
  -14.3299999       0.00000000    
  -14.3249998       0.00000000    
  -14.3199997       0.00000000    
  -14.3149996       0.00000000    
  -14.3100004       0.00000000    
  -14.3050003       0.00000000    
  -14.3000002       0.00000000    
  -14.2950001       0.00000000    
  -14.2900000       0.00000000    
  -14.2849998       0.00000000    
  -14.2799997       0.00000000    
  -14.2749996       0.00000000    
  -14.2700005       0.00000000    
  -14.2650003       0.00000000    
  -14.2600002       0.00000000    
  -14.2550001       0.00000000    
  -14.2500000       0.00000000    
  -14.2449999       0.00000000    
  -14.2399998       0.00000000    
  -14.2349997       0.00000000    
  -14.2299995       0.00000000    
  -14.2250004       0.00000000    
  -14.2200003       0.00000000    
  -14.2150002       0.00000000    
  -14.2100000       0.00000000    
  -14.2049999       0.00000000    
  -14.1999998       0.00000000    
  -14.1949997       0.00000000    
  -14.1899996       0.00000000    
  -14.1850004       0.00000000    
  -14.1800003       0.00000000    
  -14.1750002       0.00000000    
  -14.1700001       0.00000000    
  -14.1650000       0.00000000    
  -14.1599998       0.00000000    
  -14.1549997       0.00000000    
  -14.1499996       0.00000000    
  -14.1450005       0.00000000    
  -14.1400003       0.00000000    
  -14.1350002       0.00000000    
  -14.1300001       0.00000000    
  -14.1250000       0.00000000    
  -14.1199999       0.00000000    
  -14.1149998       0.00000000    
  -14.1099997       0.00000000    
  -14.1049995       0.00000000    
  -14.1000004       0.00000000    
  -14.0950003       0.00000000    
  -14.0900002       0.00000000    
  -14.0850000       0.00000000    
  -14.0799999       0.00000000    
  -14.0749998       0.00000000    
  -14.0699997       0.00000000    
  -14.0649996       0.00000000    
  -14.0600004       0.00000000    
  -14.0550003       0.00000000    
  -14.0500002       0.00000000    
  -14.0450001       0.00000000    
  -14.0400000       0.00000000    
  -14.0349998       0.00000000    
  -14.0299997       0.00000000    
  -14.0249996       0.00000000    
  -14.0200005       0.00000000    
  -14.0150003       0.00000000    
  -14.0100002       0.00000000    
  -14.0050001       0.00000000    
  -14.0000000       0.00000000    
  -13.9949999       0.00000000    
  -13.9899998       0.00000000    
  -13.9849997       0.00000000    
  -13.9799995       0.00000000    
  -13.9750004       0.00000000    
  -13.9700003       0.00000000    
  -13.9650002       0.00000000    
  -13.9600000       0.00000000    
  -13.9549999       0.00000000    
  -13.9499998       0.00000000    
  -13.9449997       0.00000000    
  -13.9399996       0.00000000    
  -13.9350004       0.00000000    
  -13.9300003       0.00000000    
  -13.9250002       0.00000000    
  -13.9200001       0.00000000    
  -13.9150000       0.00000000    
  -13.9099998       0.00000000    
  -13.9049997       0.00000000    
  -13.8999996       0.00000000    
  -13.8950005       0.00000000    
  -13.8900003       0.00000000    
  -13.8850002       0.00000000    
  -13.8800001       0.00000000    
  -13.8750000       0.00000000    
  -13.8699999       0.00000000    
  -13.8649998       0.00000000    
  -13.8599997       0.00000000    
  -13.8549995       0.00000000    
  -13.8500004       0.00000000    
  -13.8450003       0.00000000    
  -13.8400002       0.00000000    
  -13.8350000       0.00000000    
  -13.8299999       0.00000000    
  -13.8249998       0.00000000    
  -13.8199997       0.00000000    
  -13.8149996       0.00000000    
  -13.8100004       0.00000000    
  -13.8050003       0.00000000    
  -13.8000002       0.00000000    
  -13.7950001       0.00000000    
  -13.7900000       0.00000000    
  -13.7849998       0.00000000    
  -13.7799997       0.00000000    
  -13.7749996       0.00000000    
  -13.7700005       0.00000000    
  -13.7650003       0.00000000    
  -13.7600002       0.00000000    
  -13.7550001       0.00000000    
  -13.7500000       0.00000000    
  -13.7449999       0.00000000    
  -13.7399998       0.00000000    
  -13.7349997       0.00000000    
  -13.7299995       0.00000000    
  -13.7250004       0.00000000    
  -13.7200003       0.00000000    
  -13.7150002       0.00000000    
  -13.7100000       0.00000000    
  -13.7049999       0.00000000    
  -13.6999998       0.00000000    
  -13.6949997       0.00000000    
  -13.6899996      -2.80259693E-45
  -13.6850004       5.60519386E-45
  -13.6800003       5.60519386E-45
  -13.6750002       1.54142831E-44
  -13.6700001      -2.80259693E-45
  -13.6650000      -2.94272678E-44
  -13.6599998      -3.22298647E-44
  -13.6549997       2.80259693E-44
  -13.6499996       8.82818033E-44
  -13.6450005       1.72359711E-43
  -13.6400003       1.63951920E-43
  -13.6350002      -4.62428493E-44
  -13.6300001      -2.66246708E-43
  -13.6250000      -2.11596068E-43
  -13.6199999      -1.37327250E-43
  -13.6149998      -9.80908925E-44
  -13.6099997      -3.33509035E-43
  -13.6049995      -5.91347952E-43
  -13.6000004      -7.34280395E-43
  -13.5950003      -1.35925951E-43
  -13.5900002      -1.59748025E-43
  -13.5850000       2.47048919E-42
  -13.5799999       2.70870993E-42
  -13.5749998       2.31494506E-42
  -13.5699997       1.70958413E-42
  -13.5649996       1.41951534E-42
  -13.5600004      -3.86758376E-42
  -13.5550003      -6.53565604E-42
  -13.5500002      -1.38658483E-41
  -13.5450001      -1.41475093E-41
  -13.5400000      -3.10513727E-41
  -13.5349998      -2.13768081E-41
  -13.5299997      -2.12282704E-41
  -13.5249996      -1.91123098E-41
  -13.5200005      -2.47371218E-41
  -13.5150003      -2.72258279E-41
  -13.5100002      -7.18431710E-41
  -13.5050001      -5.66572995E-41
  -13.5000000      -4.18988241E-43
  -13.4949999       2.97467638E-41
  -13.4899998      -1.79450281E-41
  -13.4849997      -8.85620629E-42
  -13.4799995      -1.24509572E-40
  -13.4750004      -1.65720359E-40
  -13.4700003      -3.78423453E-40
  -13.4650002      -3.25902786E-40
  -13.4600000      -7.70013506E-41
  -13.4549999      -1.25790359E-40
  -13.4499998       2.06547190E-40
  -13.4449997       8.50293895E-41
  -13.4399996       3.63566887E-41
  -13.4350004      -1.95137818E-40
  -13.4300003      -1.38113378E-40
  -13.4250002      -2.03884723E-40
  -13.4200001      -5.07676421E-41
  -13.4150000      -4.57180630E-40
  -13.4099998      -1.54658509E-40
  -13.4049997      -3.78155805E-40
  -13.3999996      -2.39124576E-40
  -13.3950005      -1.69802341E-40
  -13.3900003      -4.58507660E-40
  -13.3850002      -6.97602809E-40
  -13.3800001      -2.29115102E-40
  -13.3750000      -7.90797565E-40
  -13.3699999      -8.05505594E-40
  -13.3649998      -7.33725481E-40
  -13.3599997      -7.94178898E-40
  -13.3549995      -7.82521496E-40
  -13.3500004      -8.39145165E-40
  -13.3450003      -1.26859270E-39
  -13.3400002      -1.30136066E-39
  -13.3350000      -1.80262614E-39
  -13.3299999      -1.95605431E-39
  -13.3249998      -2.01968587E-39
  -13.3199997      -2.47137201E-39
  -13.3149996      -2.71121685E-39
  -13.3100004      -2.82484114E-39
  -13.3050003      -3.26259277E-39
  -13.3000002      -3.57431441E-39
  -13.2950001      -4.17746831E-39
  -13.2900000      -4.65080451E-39
  -13.2849998      -5.22626874E-39
  -13.2799997      -5.96817640E-39
  -13.2749996      -6.51936454E-39
  -13.2700005      -7.21988345E-39
  -13.2650003      -8.05947703E-39
  -13.2600002      -9.17960636E-39
  -13.2550001      -9.97541357E-39
  -13.2500000      -1.12910815E-38
  -13.2449999      -1.25862792E-38
  -13.2399998      -1.39770329E-38
  -13.2349997      -1.56010636E-38
  -13.2299995      -1.73058258E-38
  -13.2250004      -1.89834828E-38
  -13.2200003      -2.07228725E-38
  -13.2150002      -2.29644148E-38
  -13.2100000      -2.52122348E-38
  -13.2049999      -2.82547369E-38
  -13.1999998      -3.12151088E-38
  -13.1949997      -3.43694653E-38
  -13.1899996      -3.77745841E-38
  -13.1850004      -4.14364937E-38
  -13.1800003      -4.56964915E-38
  -13.1750002      -4.99554887E-38
  -13.1700001      -5.52929393E-38
  -13.1650000      -6.02404701E-38
  -13.1599998      -6.61556200E-38
  -13.1549997      -7.23363047E-38
  -13.1499996      -7.88957660E-38
  -13.1450005      -8.60547869E-38
  -13.1400003      -9.39281392E-38
  -13.1350002      -1.01754032E-37
  -13.1300001      -1.11379193E-37
  -13.1250000      -1.21559503E-37
  -13.1199999      -1.31963314E-37
  -13.1149998      -1.43536627E-37
  -13.1099997      -1.55902402E-37
  -13.1049995      -1.68119931E-37
  -13.1000004      -1.82671026E-37
  -13.0950003      -1.97731352E-37
  -13.0900002      -2.13813326E-37
  -13.0850000      -2.30544112E-37
  -13.0799999      -2.48649785E-37
  -13.0749998      -2.68276259E-37
  -13.0699997      -2.89237891E-37
  -13.0649996      -3.11042229E-37
  -13.0600004      -3.35024881E-37
  -13.0550003      -3.59965639E-37
  -13.0500002      -3.85701371E-37
  -13.0450001      -4.13847605E-37
  -13.0400000      -4.42880357E-37
  -13.0349998      -4.73936763E-37
  -13.0299997      -5.07021084E-37
  -13.0249996      -5.41496120E-37
  -13.0200005      -5.78138662E-37
  -13.0150003      -6.15420511E-37
  -13.0100002      -6.54967934E-37
  -13.0050001      -6.96690396E-37
  -13.0000000      -7.39943704E-37
  -12.9949999      -7.85473214E-37
  -12.9899998      -8.32059908E-37
  -12.9849997      -8.81022308E-37
  -12.9799995      -9.31901773E-37
  -12.9750004      -9.85071207E-37
  -12.9700003      -1.03874269E-36
  -12.9650002      -1.09349368E-36
  -12.9600000      -1.15075787E-36
  -12.9549999      -1.20926955E-36
  -12.9499998      -1.26868577E-36
  -12.9449997      -1.33031581E-36
  -12.9399996      -1.39236926E-36
  -12.9350004      -1.45447749E-36
  -12.9300003      -1.51713226E-36
  -12.9250002      -1.57954148E-36
  -12.9200001      -1.64362256E-36
  -12.9150000      -1.70493962E-36
  -12.9099998      -1.76658168E-36
  -12.9049997      -1.82672568E-36
  -12.8999996      -1.88524337E-36
  -12.8950005      -1.94072743E-36
  -12.8900003      -1.99333500E-36
  -12.8850002      -2.04316993E-36
  -12.8800001      -2.08925861E-36
  -12.8750000      -2.12870824E-36
  -12.8699999      -2.16259769E-36
  -12.8649998      -2.19090114E-36
  -12.8599997      -2.21101490E-36
  -12.8549995      -2.22213399E-36
  -12.8500004      -2.22442629E-36
  -12.8450003      -2.21446196E-36
  -12.8400002      -2.19359378E-36
  -12.8350000      -2.15826079E-36
  -12.8299999      -2.10815448E-36
  -12.8249998      -2.04244924E-36
  -12.8199997      -1.95748257E-36
  -12.8149996      -1.85348784E-36
  -12.8100004      -1.72734604E-36
  -12.8050003      -1.57752988E-36
  -12.8000002      -1.40286944E-36
  -12.7950001      -1.20046338E-36
  -12.7900000      -9.68111146E-37
  -12.7849998      -7.03192959E-37
  -12.7799997      -4.04512626E-37
  -12.7749996      -6.76557100E-38
  -12.7700005       3.07865766E-37
  -12.7650003       7.26069593E-37
  -12.7600002       1.19006023E-36
  -12.7550001       1.70146422E-36
  -12.7500000       2.26414102E-36
  -12.7449999       2.88042267E-36
  -12.7399998       3.55519061E-36
  -12.7349997       4.28939532E-36
  -12.7299995       5.08756452E-36
  -12.7250004       5.95344733E-36
  -12.7200003       6.89013244E-36
  -12.7150002       7.89967001E-36
  -12.7100000       8.98715654E-36
  -12.7049999       1.01556613E-35
  -12.6999998       1.14078606E-35
  -12.6949997       1.27491402E-35
  -12.6899996       1.41805930E-35
  -12.6850004       1.57062619E-35
  -12.6800003       1.73297513E-35
  -12.6750002       1.90538982E-35
  -12.6700001       2.08829484E-35
  -12.6650000       2.28173814E-35
  -12.6599998       2.48615477E-35
  -12.6549997       2.70168608E-35
  -12.6499996       2.92864717E-35
  -12.6450005       3.16718729E-35
  -12.6400003       3.41752052E-35
  -12.6350002       3.67960468E-35
  -12.6300001       3.95365098E-35
  -12.6250000       4.23961696E-35
  -12.6199999       4.53756919E-35
  -12.6149998       4.84735472E-35
  -12.6099997       5.16901772E-35
  -12.6049995       5.50214410E-35
  -12.6000004       5.84660986E-35
  -12.5950003       6.20199429E-35
  -12.5900002       6.56798113E-35
  -12.5850000       6.94394073E-35
  -12.5799999       7.32939382E-35
  -12.5749998       7.72354890E-35
  -12.5699997       8.12557715E-35
  -12.5649996       8.53474389E-35
  -12.5600004       8.94978236E-35
  -12.5550003       9.36968352E-35
  -12.5500002       9.79302277E-35
  -12.5450001       1.02185288E-34
  -12.5400000       1.06444767E-34
  -12.5349998       1.10691883E-34
  -12.5299997       1.14907420E-34
  -12.5249996       1.19071092E-34
  -12.5200005       1.23158988E-34
  -12.5150003       1.27147966E-34
  -12.5100002       1.31012163E-34
  -12.5050001       1.34723086E-34
  -12.5000000       1.38250040E-34
  -12.4949999       1.41562007E-34
  -12.4899998       1.44624089E-34
  -12.4849997       1.47398118E-34
  -12.4799995       1.49848301E-34
  -12.4750004       1.51932851E-34
  -12.4700003       1.53607345E-34
  -12.4650002       1.54826955E-34
  -12.4600000       1.55543938E-34
  -12.4549999       1.55707991E-34
  -12.4499998       1.55266778E-34
  -12.4449997       1.54165602E-34
  -12.4399996       1.52346674E-34
  -12.4350004       1.49750679E-34
  -12.4300003       1.46316261E-34
  -12.4250002       1.41979089E-34
  -12.4200001       1.36673787E-34
  -12.4150000       1.30332201E-34
  -12.4099998       1.22885330E-34
  -12.4049997       1.14260347E-34
  -12.3999996       1.04384426E-34
  -12.3950005       9.31833370E-35
  -12.3900003       8.05807462E-35
  -12.3850002       6.64989667E-35
  -12.3800001       5.08611036E-35
  -12.3750000       3.35875729E-35
  -12.3699999       1.46013331E-35
  -12.3649998      -6.17882778E-36
  -12.3599997      -2.88306233E-35
  -12.3549995      -5.34321933E-35
  -12.3500004      -8.00595625E-35
  -12.3450003      -1.08790441E-34
  -12.3400002      -1.39697138E-34
  -12.3350000      -1.72851256E-34
  -12.3299999      -2.08321683E-34
  -12.3249998      -2.46173588E-34
  -12.3199997      -2.86467973E-34
  -12.3149996      -3.29263429E-34
  -12.3100004      -3.74610259E-34
  -12.3050003      -4.22554174E-34
  -12.3000002      -4.73135742E-34
  -12.2950001      -5.26385911E-34
  -12.2900000      -5.82329294E-34
  -12.2849998      -6.40983340E-34
  -12.2799997      -7.02352640E-34
  -12.2749996      -7.66431408E-34
  -12.2700005      -8.33205365E-34
  -12.2650003      -9.02647786E-34
  -12.2600002      -9.74715140E-34
  -12.2550001      -1.04935123E-33
  -12.2500000      -1.12648974E-33
  -12.2449999      -1.20603939E-33
  -12.2399998      -1.28789824E-33
  -12.2349997      -1.37194701E-33
  -12.2299995      -1.45803847E-33
  -12.2250004      -1.54601715E-33
  -12.2200003      -1.63569561E-33
  -12.2150002      -1.72686824E-33
  -12.2100000      -1.81930434E-33
  -12.2049999      -1.91275339E-33
  -12.1999998      -2.00693418E-33
  -12.1949997      -2.10153466E-33
  -12.1899996      -2.19622293E-33
  -12.1850004      -2.29063478E-33
  -12.1800003      -2.38437586E-33
  -12.1750002      -2.47701804E-33
  -12.1700001      -2.56810398E-33
  -12.1650000      -2.65714345E-33
  -12.1599998      -2.74360951E-33
  -12.1549997      -2.82694563E-33
  -12.1499996      -2.90655286E-33
  -12.1450005      -2.98180507E-33
  -12.1400003      -3.05203314E-33
  -12.1350002      -3.11652940E-33
  -12.1300001      -3.17455915E-33
  -12.1250000      -3.22533683E-33
  -12.1199999      -3.26804291E-33
  -12.1149998      -3.30183286E-33
  -12.1099997      -3.32580266E-33
  -12.1049995      -3.33902844E-33
  -12.1000004      -3.34053564E-33
  -12.0950003      -3.32934200E-33
  -12.0900002      -3.30438699E-33
  -12.0850000      -3.26461377E-33
  -12.0799999      -3.20890121E-33
  -12.0749998      -3.13613003E-33
  -12.0699997      -3.04512344E-33
  -12.0649996      -2.93468373E-33
  -12.0600004      -2.80360031E-33
  -12.0550003      -2.65062276E-33
  -12.0500002      -2.47449385E-33
  -12.0450001      -2.27393376E-33
  -12.0400000      -2.04764008E-33
  -12.0349998      -1.79431260E-33
  -12.0299997      -1.51264413E-33
  -12.0249996      -1.20131950E-33
  -12.0200005      -8.59024088E-34
  -12.0150003      -4.84471043E-34
  -12.0100002      -7.63590799E-35
  -12.0050001       3.66570291E-34
  -12.0000000       8.45564494E-34
  -11.9949999       1.36183050E-33
  -11.9899998       1.91653848E-33
  -11.9849997       2.51081369E-33
  -11.9799995       3.14572353E-33
  -11.9750004       3.82227380E-33
  -11.9700003       4.54140120E-33
  -11.9650002       5.30395541E-33
  -11.9600000       6.11070232E-33
  -11.9549999       6.96230390E-33
  -11.9499998       7.85931703E-33
  -11.9449997       8.80216121E-33
  -11.9399996       9.79115089E-33
  -11.9350004       1.08264293E-32
  -11.9300003       1.19080054E-32
  -11.9250002       1.30357078E-32
  -11.9200001       1.42091920E-32
  -11.9150000       1.54278946E-32
  -11.9099998       1.66910897E-32
  -11.9049997       1.79978045E-32
  -11.8999996       1.93468282E-32
  -11.8950005       2.07367136E-32
  -11.8900003       2.21657518E-32
  -11.8850002       2.36319019E-32
  -11.8800001       2.51329626E-32
  -11.8750000       2.66663009E-32
  -11.8699999       2.82290119E-32
  -11.8649998       2.98178953E-32
  -11.8599997       3.14292747E-32
  -11.8549995       3.30593004E-32
  -11.8500004       3.47035173E-32
  -11.8450003       3.63572615E-32
  -11.8400002       3.80153844E-32
  -11.8350000       3.96723995E-32
  -11.8299999       4.13222264E-32
  -11.8249998       4.29584734E-32
  -11.8199997       4.45742080E-32
  -11.8149996       4.61621863E-32
  -11.8100004       4.77144118E-32
  -11.8050003       4.92227122E-32
  -11.8000002       5.06781711E-32
  -11.7950001       5.20714669E-32
  -11.7900000       5.33927108E-32
  -11.7849998       5.46316348E-32
  -11.7799997       5.57772951E-32
  -11.7749996       5.68182541E-32
  -11.7700005       5.77427922E-32
  -11.7650003       5.85380788E-32
  -11.7600002       5.91914362E-32
  -11.7550001       5.96891875E-32
  -11.7500000       6.00173973E-32
  -11.7449999       6.01614659E-32
  -11.7399998       6.01063704E-32
  -11.7349997       5.98367473E-32
  -11.7299995       5.93363629E-32
  -11.7250004       5.85890365E-32
  -11.7200003       5.75779174E-32