  -16.0000000       0.00000000    
  -15.9949999       0.00000000    
  -15.9899998       0.00000000    
  -15.9849997       0.00000000    
  -15.9799995       0.00000000    
  -15.9750004       0.00000000    
  -15.9700003       0.00000000    
  -15.9650002       0.00000000    
  -15.9600000       0.00000000    
  -15.9549999       0.00000000    
  -15.9499998       0.00000000    
  -15.9449997       0.00000000    
  -15.9399996       0.00000000    
  -15.9350004       0.00000000    
  -15.9300003       0.00000000    
  -15.9250002       0.00000000    
  -15.9200001       0.00000000    
  -15.9150000       0.00000000    
  -15.9099998       0.00000000    
  -15.9049997       0.00000000    
  -15.8999996       0.00000000    
  -15.8950005       0.00000000    
  -15.8900003       0.00000000    
  -15.8850002       0.00000000    
  -15.8800001       0.00000000    
  -15.8750000       0.00000000    
  -15.8699999       0.00000000    
  -15.8649998       0.00000000    
  -15.8599997       0.00000000    
  -15.8549995       0.00000000    
  -15.8500004       0.00000000    
  -15.8450003       0.00000000    
  -15.8400002       0.00000000    
  -15.8350000       0.00000000    
  -15.8299999       0.00000000    
  -15.8249998       0.00000000    
  -15.8199997       0.00000000    
  -15.8149996       0.00000000    
  -15.8100004       0.00000000    
  -15.8050003       0.00000000    
  -15.8000002       0.00000000    
  -15.7950001       0.00000000    
  -15.7900000       0.00000000    
  -15.7849998       0.00000000    
  -15.7799997       0.00000000    
  -15.7749996       0.00000000    
  -15.7700005       0.00000000    
  -15.7650003       0.00000000    
  -15.7600002       0.00000000    
  -15.7550001       0.00000000    
  -15.7500000       0.00000000    
  -15.7449999       0.00000000    
  -15.7399998       0.00000000    
  -15.7349997       0.00000000    
  -15.7299995       0.00000000    
  -15.7250004       0.00000000    
  -15.7200003       0.00000000    
  -15.7150002       0.00000000    
  -15.7100000       0.00000000    
  -15.7049999       0.00000000    
  -15.6999998       0.00000000    
  -15.6949997       0.00000000    
  -15.6899996       0.00000000    
  -15.6850004       0.00000000    
  -15.6800003       0.00000000    
  -15.6750002       0.00000000    
  -15.6700001       0.00000000    
  -15.6650000       0.00000000    
  -15.6599998       0.00000000    
  -15.6549997       0.00000000    
  -15.6499996       0.00000000    
  -15.6450005       0.00000000    
  -15.6400003       0.00000000    
  -15.6350002       0.00000000    
  -15.6300001       0.00000000    
  -15.6250000       0.00000000    
  -15.6199999       0.00000000    
  -15.6149998       0.00000000    
  -15.6099997       0.00000000    
  -15.6049995       0.00000000    
  -15.6000004       0.00000000    
  -15.5950003       0.00000000    
  -15.5900002       0.00000000    
  -15.5850000       0.00000000    
  -15.5799999       0.00000000    
  -15.5749998       0.00000000    
  -15.5699997       0.00000000    
  -15.5649996       0.00000000    
  -15.5600004       0.00000000    
  -15.5550003       0.00000000    
  -15.5500002       0.00000000    
  -15.5450001       0.00000000    
  -15.5400000       0.00000000    
  -15.5349998       0.00000000    
  -15.5299997       0.00000000    
  -15.5249996       0.00000000    
  -15.5200005       0.00000000    
  -15.5150003       0.00000000    
  -15.5100002       0.00000000    
  -15.5050001       0.00000000    
  -15.5000000       0.00000000    
  -15.4949999       0.00000000    
  -15.4899998       0.00000000    
  -15.4849997       0.00000000    
  -15.4799995       0.00000000    
  -15.4750004       0.00000000    
  -15.4700003       0.00000000    
  -15.4650002       0.00000000    
  -15.4600000       0.00000000    
  -15.4549999       0.00000000    
  -15.4499998       0.00000000    
  -15.4449997       0.00000000    
  -15.4399996       0.00000000    
  -15.4350004       0.00000000    
  -15.4300003       0.00000000    
  -15.4250002       0.00000000    
  -15.4200001       0.00000000    
  -15.4150000       0.00000000    
  -15.4099998       0.00000000    
  -15.4049997       0.00000000    
  -15.3999996       0.00000000    
  -15.3950005       0.00000000    
  -15.3900003       0.00000000    
  -15.3850002       0.00000000    
  -15.3800001       0.00000000    
  -15.3750000       0.00000000    
  -15.3699999       0.00000000    
  -15.3649998       0.00000000    
  -15.3599997       0.00000000    
  -15.3549995       0.00000000    
  -15.3500004       0.00000000    
  -15.3450003       0.00000000    
  -15.3400002       0.00000000    
  -15.3350000       0.00000000    
  -15.3299999       0.00000000    
  -15.3249998       0.00000000    
  -15.3199997       0.00000000    
  -15.3149996       0.00000000    
  -15.3100004       0.00000000    
  -15.3050003       0.00000000    
  -15.3000002       0.00000000    
  -15.2950001       0.00000000    
  -15.2900000       0.00000000    
  -15.2849998       0.00000000    
  -15.2799997       0.00000000    
  -15.2749996       0.00000000    
  -15.2700005       0.00000000    
  -15.2650003       0.00000000    
  -15.2600002       0.00000000    
  -15.2550001       0.00000000    
  -15.2500000       0.00000000    
  -15.2449999       0.00000000    
  -15.2399998       0.00000000    
  -15.2349997       0.00000000    
  -15.2299995       0.00000000    
  -15.2250004       0.00000000    
  -15.2200003       0.00000000    
  -15.2150002       0.00000000    
  -15.2100000       0.00000000    
  -15.2049999       0.00000000    
  -15.1999998       0.00000000    
  -15.1949997       0.00000000    
  -15.1899996       0.00000000    
  -15.1850004       0.00000000    
  -15.1800003       0.00000000    
  -15.1750002       0.00000000    
  -15.1700001       0.00000000    
  -15.1650000       0.00000000    
  -15.1599998       0.00000000    
  -15.1549997       0.00000000    
  -15.1499996       0.00000000    
  -15.1450005       0.00000000    
  -15.1400003       0.00000000    
  -15.1350002       0.00000000    
  -15.1300001       0.00000000    
  -15.1250000       0.00000000    
  -15.1199999       0.00000000    
  -15.1149998       0.00000000    
  -15.1099997       0.00000000    
  -15.1049995       0.00000000    
  -15.1000004       0.00000000    
  -15.0950003       0.00000000    
  -15.0900002       0.00000000    
  -15.0850000       0.00000000    
  -15.0799999       0.00000000    
  -15.0749998       0.00000000    
  -15.0699997       0.00000000    
  -15.0649996       0.00000000    
  -15.0600004       0.00000000    
  -15.0550003       0.00000000    
  -15.0500002       0.00000000    
  -15.0450001       0.00000000    
  -15.0400000       0.00000000    
  -15.0349998       0.00000000    
  -15.0299997       0.00000000    
  -15.0249996       0.00000000    
  -15.0200005       0.00000000    
  -15.0150003       0.00000000    
  -15.0100002       0.00000000    
  -15.0050001       0.00000000    
  -15.0000000       0.00000000    
  -14.9949999       0.00000000    
  -14.9899998       0.00000000    
  -14.9849997       0.00000000    
  -14.9799995       0.00000000    
  -14.9750004       0.00000000    
  -14.9700003       0.00000000    
  -14.9650002       0.00000000    
  -14.9600000       0.00000000    
  -14.9549999       0.00000000    
  -14.9499998       0.00000000    
  -14.9449997       0.00000000    
  -14.9399996       0.00000000    
  -14.9350004       0.00000000    
  -14.9300003       0.00000000    
  -14.9250002       0.00000000    
  -14.9200001       0.00000000    
  -14.9150000       0.00000000    
  -14.9099998       0.00000000    
  -14.9049997       0.00000000    
  -14.8999996       0.00000000    
  -14.8950005       0.00000000    
  -14.8900003       0.00000000    
  -14.8850002       0.00000000    
  -14.8800001       0.00000000    
  -14.8750000       0.00000000    
  -14.8699999       0.00000000    
  -14.8649998       0.00000000    
  -14.8599997       0.00000000    
  -14.8549995       0.00000000    
  -14.8500004       0.00000000    
  -14.8450003       0.00000000    
  -14.8400002       0.00000000    
  -14.8350000       0.00000000    
  -14.8299999       0.00000000    
  -14.8249998       0.00000000    
  -14.8199997       0.00000000    
  -14.8149996       0.00000000    
  -14.8100004       0.00000000    
  -14.8050003       0.00000000    
  -14.8000002       0.00000000    
  -14.7950001       0.00000000    
  -14.7900000       0.00000000    
  -14.7849998       0.00000000    
  -14.7799997       0.00000000    
  -14.7749996       0.00000000    
  -14.7700005       0.00000000    
  -14.7650003       0.00000000    
  -14.7600002       0.00000000    
  -14.7550001       0.00000000    
  -14.7500000       0.00000000    
  -14.7449999       0.00000000    
  -14.7399998       0.00000000    
  -14.7349997       0.00000000    
  -14.7299995       0.00000000    
  -14.7250004       0.00000000    
  -14.7200003       0.00000000    
  -14.7150002       0.00000000    
  -14.7100000       0.00000000    
  -14.7049999       0.00000000    
  -14.6999998       0.00000000    
  -14.6949997       0.00000000    
  -14.6899996       0.00000000    
  -14.6850004       0.00000000    
  -14.6800003       0.00000000    
  -14.6750002       0.00000000    
  -14.6700001       0.00000000    
  -14.6650000       0.00000000    
  -14.6599998       0.00000000    
  -14.6549997       0.00000000    
  -14.6499996       0.00000000    
  -14.6450005       0.00000000    
  -14.6400003       0.00000000    
  -14.6350002       0.00000000    
  -14.6300001       0.00000000    
  -14.6250000       0.00000000    
  -14.6199999       0.00000000    
  -14.6149998       0.00000000    
  -14.6099997       0.00000000    
  -14.6049995       0.00000000    
  -14.6000004       0.00000000    
  -14.5950003       0.00000000    
  -14.5900002       0.00000000    
  -14.5850000       0.00000000    
  -14.5799999       0.00000000    
  -14.5749998       0.00000000    
  -14.5699997       0.00000000    
  -14.5649996       0.00000000    
  -14.5600004       0.00000000    
  -14.5550003       0.00000000    
  -14.5500002       0.00000000    
  -14.5450001       0.00000000    
  -14.5400000       0.00000000    
  -14.5349998       0.00000000    
  -14.5299997       0.00000000    
  -14.5249996       0.00000000    
  -14.5200005       0.00000000    
  -14.5150003       0.00000000    
  -14.5100002       0.00000000    
  -14.5050001       0.00000000    
  -14.5000000       0.00000000    
  -14.4949999       0.00000000    
  -14.4899998       0.00000000    
  -14.4849997       0.00000000    
  -14.4799995       0.00000000    
  -14.4750004       0.00000000    
  -14.4700003       0.00000000    
  -14.4650002       0.00000000    
  -14.4600000       0.00000000    
  -14.4549999       0.00000000    
  -14.4499998       0.00000000    
  -14.4449997       0.00000000    
  -14.4399996       0.00000000    
  -14.4350004       0.00000000    
  -14.4300003       0.00000000    
  -14.4250002       0.00000000    
  -14.4200001       0.00000000    
  -14.4150000       0.00000000    
  -14.4099998       0.00000000    
  -14.4049997       0.00000000    
  -14.3999996       0.00000000    
  -14.3950005       0.00000000    
  -14.3900003       0.00000000    
  -14.3850002       0.00000000    
  -14.3800001       0.00000000    
  -14.3750000       0.00000000    
  -14.3699999       0.00000000    
  -14.3649998       0.00000000    
  -14.3599997       0.00000000    
  -14.3549995       0.00000000    
  -14.3500004       0.00000000    
  -14.3450003       0.00000000    
  -14.3400002       0.00000000    
  -14.3350000       0.00000000    
  -14.3299999       0.00000000    
  -14.3249998       0.00000000    
  -14.3199997       0.00000000    
  -14.3149996       0.00000000    
  -14.3100004       0.00000000    
  -14.3050003       0.00000000    
  -14.3000002       0.00000000    
  -14.2950001       0.00000000    
  -14.2900000       0.00000000    
  -14.2849998       0.00000000    
  -14.2799997       0.00000000    
  -14.2749996       0.00000000    
  -14.2700005       0.00000000    
  -14.2650003       0.00000000    
  -14.2600002       0.00000000    
  -14.2550001       0.00000000    
  -14.2500000       0.00000000    
  -14.2449999       0.00000000    
  -14.2399998       0.00000000    
  -14.2349997       0.00000000    
  -14.2299995       0.00000000    
  -14.2250004       0.00000000    
  -14.2200003       0.00000000    
  -14.2150002       0.00000000    
  -14.2100000       0.00000000    
  -14.2049999       0.00000000    
  -14.1999998       0.00000000    
  -14.1949997       0.00000000    
  -14.1899996       0.00000000    
  -14.1850004       0.00000000    
  -14.1800003       0.00000000    
  -14.1750002       0.00000000    
  -14.1700001       0.00000000    
  -14.1650000       0.00000000    
  -14.1599998       0.00000000    
  -14.1549997       0.00000000    
  -14.1499996       0.00000000    
  -14.1450005       0.00000000    
  -14.1400003       0.00000000    
  -14.1350002       0.00000000    
  -14.1300001       0.00000000    
  -14.1250000       0.00000000    
  -14.1199999       0.00000000    
  -14.1149998       0.00000000    
  -14.1099997       0.00000000    
  -14.1049995       0.00000000    
  -14.1000004       0.00000000    
  -14.0950003       0.00000000    
  -14.0900002       0.00000000    
  -14.0850000       0.00000000    
  -14.0799999       0.00000000    
  -14.0749998       0.00000000    
  -14.0699997       0.00000000    
  -14.0649996       0.00000000    
  -14.0600004       0.00000000    
  -14.0550003       0.00000000    
  -14.0500002       0.00000000    
  -14.0450001       0.00000000    
  -14.0400000       0.00000000    
  -14.0349998       0.00000000    
  -14.0299997       0.00000000    
  -14.0249996       0.00000000    
  -14.0200005       0.00000000    
  -14.0150003       0.00000000    
  -14.0100002       0.00000000    
  -14.0050001       0.00000000    
  -14.0000000       0.00000000    
  -13.9949999       0.00000000    
  -13.9899998       0.00000000    
  -13.9849997       0.00000000    
  -13.9799995       0.00000000    
  -13.9750004       0.00000000    
  -13.9700003       0.00000000    
  -13.9650002       0.00000000    
  -13.9600000       0.00000000    
  -13.9549999       0.00000000    
  -13.9499998       0.00000000    
  -13.9449997       0.00000000    
  -13.9399996       0.00000000    
  -13.9350004       0.00000000    
  -13.9300003       0.00000000    
  -13.9250002       0.00000000    
  -13.9200001       0.00000000    
  -13.9150000       0.00000000    
  -13.9099998       0.00000000    
  -13.9049997       0.00000000    
  -13.8999996       0.00000000    
  -13.8950005       0.00000000    
  -13.8900003       0.00000000    
  -13.8850002       0.00000000    
  -13.8800001       0.00000000    
  -13.8750000       0.00000000    
  -13.8699999       0.00000000    
  -13.8649998       0.00000000    
  -13.8599997       0.00000000    
  -13.8549995       0.00000000    
  -13.8500004       0.00000000    
  -13.8450003       0.00000000    
  -13.8400002       0.00000000    
  -13.8350000       0.00000000    
  -13.8299999       0.00000000    
  -13.8249998       0.00000000    
  -13.8199997       0.00000000    
  -13.8149996       0.00000000    
  -13.8100004       0.00000000    
  -13.8050003       0.00000000    
  -13.8000002       0.00000000    
  -13.7950001       0.00000000    
  -13.7900000       0.00000000    
  -13.7849998       0.00000000    
  -13.7799997       0.00000000    
  -13.7749996       0.00000000    
  -13.7700005       0.00000000    
  -13.7650003       0.00000000    
  -13.7600002       0.00000000    
  -13.7550001       0.00000000    
  -13.7500000       0.00000000    
  -13.7449999       0.00000000    
  -13.7399998       0.00000000    
  -13.7349997       0.00000000    
  -13.7299995       0.00000000    
  -13.7250004       0.00000000    
  -13.7200003       0.00000000    
  -13.7150002       0.00000000    
  -13.7100000       0.00000000    
  -13.7049999       0.00000000    
  -13.6999998       0.00000000    
  -13.6949997       0.00000000    
  -13.6899996       0.00000000    
  -13.6850004       0.00000000    
  -13.6800003       0.00000000    
  -13.6750002       0.00000000    
  -13.6700001       0.00000000    
  -13.6650000       0.00000000    
  -13.6599998       0.00000000    
  -13.6549997       0.00000000    
  -13.6499996       0.00000000    
  -13.6450005       0.00000000    
  -13.6400003       0.00000000    
  -13.6350002       0.00000000    
  -13.6300001       0.00000000    
  -13.6250000       0.00000000    
  -13.6199999       0.00000000    
  -13.6149998       0.00000000    
  -13.6099997       0.00000000    
  -13.6049995       0.00000000    
  -13.6000004       0.00000000    
  -13.5950003       0.00000000    
  -13.5900002       0.00000000    
  -13.5850000       0.00000000    
  -13.5799999       0.00000000    
  -13.5749998       0.00000000    
  -13.5699997       0.00000000    
  -13.5649996       0.00000000    
  -13.5600004       0.00000000    
  -13.5550003       0.00000000    
  -13.5500002       0.00000000    
  -13.5450001       0.00000000    
  -13.5400000       0.00000000    
  -13.5349998       0.00000000    
  -13.5299997       0.00000000    
  -13.5249996       0.00000000    
  -13.5200005       0.00000000    
  -13.5150003       0.00000000    
  -13.5100002       0.00000000    
  -13.5050001       0.00000000    
  -13.5000000       0.00000000    
  -13.4949999       0.00000000    
  -13.4899998       0.00000000    
  -13.4849997       0.00000000    
  -13.4799995       0.00000000    
  -13.4750004       0.00000000    
  -13.4700003       0.00000000    
  -13.4650002       0.00000000    
  -13.4600000       0.00000000    
  -13.4549999       0.00000000    
  -13.4499998       0.00000000    
  -13.4449997       0.00000000    
  -13.4399996       0.00000000    
  -13.4350004       0.00000000    
  -13.4300003       0.00000000    
  -13.4250002       0.00000000    
  -13.4200001       0.00000000    
  -13.4150000       0.00000000    
  -13.4099998       0.00000000    
  -13.4049997       0.00000000    
  -13.3999996       0.00000000    
  -13.3950005       0.00000000    
  -13.3900003       0.00000000    
  -13.3850002       0.00000000    
  -13.3800001       0.00000000    
  -13.3750000       0.00000000    
  -13.3699999       0.00000000    
  -13.3649998       0.00000000    
  -13.3599997       0.00000000    
  -13.3549995       0.00000000    
  -13.3500004       0.00000000    
  -13.3450003       0.00000000    
  -13.3400002       0.00000000    
  -13.3350000       0.00000000    
  -13.3299999       0.00000000    
  -13.3249998       0.00000000    
  -13.3199997       0.00000000    
  -13.3149996       0.00000000    
  -13.3100004       0.00000000    
  -13.3050003       0.00000000    
  -13.3000002       0.00000000    
  -13.2950001       0.00000000    
  -13.2900000       0.00000000    
  -13.2849998       0.00000000    
  -13.2799997       0.00000000    
  -13.2749996       0.00000000    
  -13.2700005       0.00000000    
  -13.2650003       0.00000000    
  -13.2600002       0.00000000    
  -13.2550001       0.00000000    
  -13.2500000       0.00000000    
  -13.2449999       0.00000000    
  -13.2399998       0.00000000    
  -13.2349997       0.00000000    
  -13.2299995       0.00000000    
  -13.2250004       0.00000000    
  -13.2200003       0.00000000    
  -13.2150002       0.00000000    
  -13.2100000       0.00000000    
  -13.2049999       0.00000000    
  -13.1999998       0.00000000    
  -13.1949997       0.00000000    
  -13.1899996       0.00000000    
  -13.1850004       0.00000000    
  -13.1800003       0.00000000    
  -13.1750002       0.00000000    
  -13.1700001       0.00000000    
  -13.1650000       0.00000000    
  -13.1599998       0.00000000    
  -13.1549997       0.00000000    
  -13.1499996       0.00000000    
  -13.1450005       0.00000000    
  -13.1400003       0.00000000    
  -13.1350002       0.00000000    
  -13.1300001       0.00000000    
  -13.1250000       0.00000000    
  -13.1199999       0.00000000    
  -13.1149998       0.00000000    
  -13.1099997       0.00000000    
  -13.1049995       0.00000000    
  -13.1000004       0.00000000    
  -13.0950003       0.00000000    
  -13.0900002       0.00000000    
  -13.0850000       0.00000000    
  -13.0799999       0.00000000    
  -13.0749998       0.00000000    
  -13.0699997       0.00000000    
  -13.0649996       0.00000000    
  -13.0600004       0.00000000    
  -13.0550003       0.00000000    
  -13.0500002       0.00000000    
  -13.0450001       0.00000000    
  -13.0400000       0.00000000    
  -13.0349998       0.00000000    
  -13.0299997       0.00000000    
  -13.0249996       0.00000000    
  -13.0200005       0.00000000    
  -13.0150003       0.00000000    
  -13.0100002       0.00000000    
  -13.0050001       0.00000000    
  -13.0000000       0.00000000    
  -12.9949999       0.00000000    
  -12.9899998       0.00000000    
  -12.9849997       0.00000000    
  -12.9799995       0.00000000    
  -12.9750004       0.00000000    
  -12.9700003       0.00000000    
  -12.9650002       0.00000000    
  -12.9600000       0.00000000    
  -12.9549999       0.00000000    
  -12.9499998       0.00000000    
  -12.9449997       0.00000000    
  -12.9399996       0.00000000    
  -12.9350004       0.00000000    
  -12.9300003       0.00000000    
  -12.9250002       0.00000000    
  -12.9200001       0.00000000    
  -12.9150000       0.00000000    
  -12.9099998       0.00000000    
  -12.9049997       0.00000000    
  -12.8999996       0.00000000    
  -12.8950005       0.00000000    
  -12.8900003       0.00000000    
  -12.8850002       0.00000000    
  -12.8800001       0.00000000    
  -12.8750000       0.00000000    
  -12.8699999       0.00000000    
  -12.8649998      -4.62428493E-44
  -12.8599997      -4.62428493E-44
  -12.8549995      -4.62428493E-44
  -12.8500004       1.65353219E-43
  -12.8450003       1.65353219E-43
  -12.8400002       1.65353219E-43
  -12.8350000       1.65353219E-43
  -12.8299999       4.17586942E-43
  -12.8249998       5.53512893E-43
  -12.8199997       6.86636248E-43
  -12.8149996       8.98232316E-43
  -12.8100004       8.51989466E-43
  -12.8050003       1.62550622E-43
  -12.8000002       1.16307773E-43
  -12.7950001       3.54528511E-43
  -12.7900000       1.20511668E-43
  -12.7849998      -1.08180241E-42
  -12.7799997      -1.63671661E-42
  -12.7749996      -1.07479592E-42
  -12.7700005       1.52321143E-42
  -12.7650003       1.74461659E-42
  -12.7600002       5.59118087E-43
  -12.7550001       2.62042813E-42
  -12.7500000       4.26555253E-42
  -12.7449999       7.08356374E-42
  -12.7399998       5.36136792E-42
  -12.7349997       5.51971465E-42
  -12.7299995       2.94132548E-42
  -12.7250004       6.62954303E-42
  -12.7200003      -6.27641582E-42
  -12.7150002      -3.40375397E-42
  -12.7100000      -6.32826386E-42
  -12.7049999      -6.57769499E-42
  -12.6999998       4.59065377E-42
  -12.6949997       2.86285276E-42
  -12.6899996       8.00281553E-42
  -12.6850004       8.88983746E-42
  -12.6800003       6.95604558E-42
  -12.6750002       2.95099444E-41
  -12.6700001       2.73813720E-41
  -12.6650000       1.93589383E-41
  -12.6599998       4.46327574E-41
  -12.6549997       8.33730547E-41
  -12.6499996       5.61023853E-41
  -12.6450005       8.17097135E-42
  -12.6400003      -3.61913354E-41
  -12.6350002       1.91459409E-41
  -12.6300001       4.07077204E-42
  -12.6250000      -5.36725338E-41
  -12.6199999       5.02659772E-41
  -12.6149998      -7.58943248E-41
  -12.6099997      -8.53979310E-41
  -12.6049995      -4.78641516E-41
  -12.6000004      -3.18094751E-42
  -12.5950003      -1.98517750E-40
  -12.5900002      -6.22064414E-41
  -12.5850000      -1.44581772E-40
  -12.5799999       2.27294815E-40
  -12.5749998       2.41887937E-40
  -12.5699997       1.36871828E-40
  -12.5649996      -2.75789551E-40
  -12.5600004      -2.15827989E-40
  -12.5550003      -1.29634121E-40
  -12.5500002      -3.96721608E-40
  -12.5450001       1.74838608E-40
  -12.5400000       3.67102363E-40
  -12.5349998      -9.63210525E-41
  -12.5299997      -3.03720232E-40
  -12.5249996       1.70249356E-40
  -12.5200005      -3.09356254E-40
  -12.5150003       3.06057598E-41
  -12.5100002      -1.52061903E-40
  -12.5050001      -6.56718525E-41
  -12.5000000       6.92255454E-41
  -12.4949999      -2.39755161E-40
  -12.4899998      -8.40092442E-41
  -12.4849997      -2.70765896E-40
  -12.4799995      -2.07413192E-40
  -12.4750004      -3.88979434E-40
  -12.4700003      -6.59886861E-40
  -12.4650002      -3.06829713E-40
  -12.4600000      -5.40897003E-40
  -12.4549999      -7.10448512E-40
  -12.4499998      -8.12540112E-40
  -12.4449997      -1.16616198E-39
  -12.4399996      -1.21995082E-39
  -12.4350004      -1.09942234E-39
  -12.4300003      -1.70051773E-39
  -12.4250002      -1.57337371E-39
  -12.4200001      -1.89119381E-39
  -12.4150000      -2.29841535E-39
  -12.4099998      -2.33259442E-39
  -12.4049997      -2.66018016E-39
  -12.3999996      -2.88926864E-39
  -12.3950005      -3.32862055E-39
  -12.3900003      -3.58456771E-39
  -12.3850002      -4.09392990E-39
  -12.3800001      -4.72938932E-39
  -12.3750000      -5.00177792E-39
  -12.3699999      -5.79372175E-39
  -12.3649998      -6.46939003E-39
  -12.3599997      -7.09848476E-39
  -12.3549995      -7.47347644E-39
  -12.3500004      -8.49372261E-39
  -12.3450003      -9.44424018E-39
  -12.3400002      -9.99962240E-39
  -12.3350000      -1.12534468E-38
  -12.3299999      -1.27062206E-38
  -12.3249998      -1.33310427E-38
  -12.3199997      -1.41476130E-38
  -12.3149996      -1.57992506E-38
  -12.3100004      -1.69878208E-38
  -12.3050003      -1.84348506E-38
  -12.3000002      -2.05060118E-38
  -12.2950001      -2.16610811E-38
  -12.2900000      -2.34780607E-38
  -12.2849998      -2.57124928E-38
  -12.2799997      -2.74214687E-38
  -12.2749996      -2.88630209E-38
  -12.2700005      -3.08634782E-38
  -12.2650003      -3.32631597E-38
  -12.2600002      -3.51751054E-38
  -12.2550001      -3.79274854E-38
  -12.2500000      -4.02899485E-38
  -12.2449999      -4.25216956E-38
  -12.2399998      -4.49301409E-38
  -12.2349997      -4.76447756E-38
  -12.2299995      -4.98184585E-38
  -12.2250004      -5.30090414E-38
  -12.2200003      -5.54524799E-38
  -12.2150002      -5.76076657E-38
  -12.2100000      -6.01691440E-38
  -12.2049999      -6.24990045E-38
  -12.1999998      -6.45744453E-38
  -12.1949997      -6.64976489E-38
  -12.1899996      -6.86412040E-38
  -12.1850004      -7.05070273E-38
  -12.1800003      -7.14673764E-38
  -12.1750002      -7.24398551E-38
  -12.1700001      -7.37769292E-38
  -12.1650000      -7.40593805E-38
  -12.1599998      -7.32594409E-38
  -12.1549997      -7.30956459E-38
  -12.1499996      -7.17389200E-38
  -12.1450005      -6.94328031E-38
  -12.1400003      -6.63287869E-38
  -12.1350002      -6.21401096E-38
  -12.1300001      -5.79446108E-38
  -12.1250000      -5.15342420E-38
  -12.1199999      -4.41106308E-38
  -12.1149998      -3.64111263E-38
  -12.1099997      -2.62523346E-38
  -12.1049995      -1.42001561E-38
  -12.1000004      -2.39955546E-40
  -12.0950003       1.48545933E-38
  -12.0900002       3.22410022E-38
  -12.0850000       5.18964104E-38
  -12.0799999       7.37558313E-38
  -12.0749998       9.86818929E-38
  -12.0699997       1.26988593E-37
  -12.0649996       1.57216204E-37
  -12.0600004       1.90994604E-37
  -12.0550003       2.28822398E-37
  -12.0500002       2.69043072E-37
  -12.0450001       3.14276359E-37
  -12.0400000       3.62783325E-37
  -12.0349998       4.15840454E-37
  -12.0299997       4.72957648E-37
  -12.0249996       5.35850883E-37
  -12.0200005       6.02640803E-37
  -12.0150003       6.74976682E-37
  -12.0100002       7.52972955E-37
  -12.0050001       8.37200633E-37
  -12.0000000       9.25480463E-37
  -11.9949999       1.02094983E-36
  -11.9899998       1.12229048E-36
  -11.9849997       1.22991809E-36
  -11.9799995       1.34425042E-36
  -11.9750004       1.46427779E-36
  -11.9700003       1.59224616E-36
  -11.9650002       1.72668024E-36
  -11.9600000       1.86774512E-36
  -11.9549999       2.01490056E-36
  -11.9499998       2.16962579E-36
  -11.9449997       2.33048427E-36
  -11.9399996       2.49859381E-36
  -11.9350004       2.67223590E-36
  -11.9300003       2.85336725E-36
  -11.9250002       3.03894132E-36
  -11.9200001       3.23088217E-36
  -11.9150000       3.42797908E-36
  -11.9099998       3.63003977E-36
  -11.9049997       3.83523040E-36
  -11.8999996       4.04455614E-36
  -11.8950005       4.25557618E-36
  -11.8900003       4.46964400E-36
  -11.8850002       4.68366806E-36
  -11.8800001       4.89799704E-36
  -11.8750000       5.11028448E-36
  -11.8699999       5.32028714E-36
  -11.8649998       5.52585193E-36
  -11.8599997       5.72614551E-36
  -11.8549995       5.91875181E-36
  -11.8500004       6.10196793E-36
  -11.8450003       6.27410567E-36
  -11.8400002       6.43375523E-36
  -11.8350000       6.57619710E-36
  -11.8299999       6.70222339E-36
  -11.8249998       6.80705217E-36
  -11.8199997       6.88787171E-36
  -11.8149996       6.94278216E-36
  -11.8100004       6.96828947E-36
  -11.8050003       6.96168019E-36
  -11.8000002       6.91820684E-36
  -11.7950001       6.83595309E-36
  -11.7900000       6.70970224E-36
  -11.7849998       6.53687932E-36
  -11.7799997       6.31257757E-36
  -11.7749996       6.03289113E-36
  -11.7700005       5.69406551E-36
  -11.7650003       5.29086212E-36
  -11.7600002       4.81957168E-36
  -11.7550001       4.27454918E-36
  -11.7500000       3.65275865E-36
  -11.7449999       2.94720035E-36
  -11.7399998       2.15632633E-36
  -11.7349997       1.27213973E-36
  -11.7299995       2.92025107E-37
  -11.7250004      -7.90224714E-37
  -11.7200003      -1.97809264E-36