  -16.0000000       0.00000000    
  -15.9949999       0.00000000    
  -15.9899998       0.00000000    
  -15.9849997       0.00000000    
  -15.9799995       0.00000000    
  -15.9750004       0.00000000    
  -15.9700003       0.00000000    
  -15.9650002       0.00000000    
  -15.9600000       0.00000000    
  -15.9549999       0.00000000    
  -15.9499998       0.00000000    
  -15.9449997       0.00000000    
  -15.9399996       0.00000000    
  -15.9350004       0.00000000    
  -15.9300003       0.00000000    
  -15.9250002       0.00000000    
  -15.9200001       0.00000000    
  -15.9150000       0.00000000    
  -15.9099998       0.00000000    
  -15.9049997       0.00000000    
  -15.8999996       0.00000000    
  -15.8950005       0.00000000    
  -15.8900003       0.00000000    
  -15.8850002       0.00000000    
  -15.8800001       0.00000000    
  -15.8750000       0.00000000    
  -15.8699999       0.00000000    
  -15.8649998       0.00000000    
  -15.8599997       0.00000000    
  -15.8549995       0.00000000    
  -15.8500004       0.00000000    
  -15.8450003       0.00000000    
  -15.8400002       0.00000000    
  -15.8350000       0.00000000    
  -15.8299999       0.00000000    
  -15.8249998       0.00000000    
  -15.8199997       0.00000000    
  -15.8149996       0.00000000    
  -15.8100004       0.00000000    
  -15.8050003       0.00000000    
  -15.8000002       0.00000000    
  -15.7950001       0.00000000    
  -15.7900000       0.00000000    
  -15.7849998       0.00000000    
  -15.7799997       0.00000000    
  -15.7749996       0.00000000    
  -15.7700005       0.00000000    
  -15.7650003       0.00000000    
  -15.7600002       0.00000000    
  -15.7550001       0.00000000    
  -15.7500000       0.00000000    
  -15.7449999       0.00000000    
  -15.7399998       0.00000000    
  -15.7349997       0.00000000    
  -15.7299995       0.00000000    
  -15.7250004       0.00000000    
  -15.7200003       0.00000000    
  -15.7150002       0.00000000    
  -15.7100000       0.00000000    
  -15.7049999       0.00000000    
  -15.6999998       0.00000000    
  -15.6949997       0.00000000    
  -15.6899996       0.00000000    
  -15.6850004       0.00000000    
  -15.6800003       0.00000000    
  -15.6750002       0.00000000    
  -15.6700001       0.00000000    
  -15.6650000       0.00000000    
  -15.6599998       0.00000000    
  -15.6549997       0.00000000    
  -15.6499996       0.00000000    
  -15.6450005       0.00000000    
  -15.6400003       0.00000000    
  -15.6350002       0.00000000    
  -15.6300001       0.00000000    
  -15.6250000       0.00000000    
  -15.6199999       0.00000000    
  -15.6149998       0.00000000    
  -15.6099997       0.00000000    
  -15.6049995       0.00000000    
  -15.6000004       0.00000000    
  -15.5950003       0.00000000    
  -15.5900002       0.00000000    
  -15.5850000       0.00000000    
  -15.5799999       0.00000000    
  -15.5749998       0.00000000    
  -15.5699997       0.00000000    
  -15.5649996       0.00000000    
  -15.5600004       0.00000000    
  -15.5550003       0.00000000    
  -15.5500002       0.00000000    
  -15.5450001       0.00000000    
  -15.5400000       0.00000000    
  -15.5349998       0.00000000    
  -15.5299997       0.00000000    
  -15.5249996       0.00000000    
  -15.5200005       0.00000000    
  -15.5150003       0.00000000    
  -15.5100002       0.00000000    
  -15.5050001       0.00000000    
  -15.5000000       0.00000000    
  -15.4949999       0.00000000    
  -15.4899998       0.00000000    
  -15.4849997       0.00000000    
  -15.4799995       0.00000000    
  -15.4750004       0.00000000    
  -15.4700003       0.00000000    
  -15.4650002       0.00000000    
  -15.4600000       0.00000000    
  -15.4549999       0.00000000    
  -15.4499998       0.00000000    
  -15.4449997       0.00000000    
  -15.4399996       0.00000000    
  -15.4350004       0.00000000    
  -15.4300003       0.00000000    
  -15.4250002       0.00000000    
  -15.4200001       0.00000000    
  -15.4150000       0.00000000    
  -15.4099998       0.00000000    
  -15.4049997       0.00000000    
  -15.3999996       0.00000000    
  -15.3950005       0.00000000    
  -15.3900003       0.00000000    
  -15.3850002       0.00000000    
  -15.3800001       0.00000000    
  -15.3750000       0.00000000    
  -15.3699999       0.00000000    
  -15.3649998       0.00000000    
  -15.3599997       0.00000000    
  -15.3549995       0.00000000    
  -15.3500004       0.00000000    
  -15.3450003       0.00000000    
  -15.3400002       0.00000000    
  -15.3350000       0.00000000    
  -15.3299999       0.00000000    
  -15.3249998       0.00000000    
  -15.3199997       0.00000000    
  -15.3149996       0.00000000    
  -15.3100004       0.00000000    
  -15.3050003       0.00000000    
  -15.3000002       0.00000000    
  -15.2950001       0.00000000    
  -15.2900000       0.00000000    
  -15.2849998       0.00000000    
  -15.2799997       0.00000000    
  -15.2749996       0.00000000    
  -15.2700005       0.00000000    
  -15.2650003       0.00000000    
  -15.2600002       0.00000000    
  -15.2550001       0.00000000    
  -15.2500000       0.00000000    
  -15.2449999       0.00000000    
  -15.2399998       0.00000000    
  -15.2349997       0.00000000    
  -15.2299995       0.00000000    
  -15.2250004       0.00000000    
  -15.2200003       0.00000000    
  -15.2150002       0.00000000    
  -15.2100000       0.00000000    
  -15.2049999       0.00000000    
  -15.1999998       0.00000000    
  -15.1949997       0.00000000    
  -15.1899996       0.00000000    
  -15.1850004       0.00000000    
  -15.1800003       0.00000000    
  -15.1750002       0.00000000    
  -15.1700001       0.00000000    
  -15.1650000       0.00000000    
  -15.1599998       0.00000000    
  -15.1549997       0.00000000    
  -15.1499996       0.00000000    
  -15.1450005       0.00000000    
  -15.1400003       0.00000000    
  -15.1350002       0.00000000    
  -15.1300001       0.00000000    
  -15.1250000       0.00000000    
  -15.1199999       0.00000000    
  -15.1149998       0.00000000    
  -15.1099997       0.00000000    
  -15.1049995       0.00000000    
  -15.1000004       0.00000000    
  -15.0950003       0.00000000    
  -15.0900002       0.00000000    
  -15.0850000       0.00000000    
  -15.0799999       0.00000000    
  -15.0749998       0.00000000    
  -15.0699997       0.00000000    
  -15.0649996       0.00000000    
  -15.0600004       0.00000000    
  -15.0550003       0.00000000    
  -15.0500002       0.00000000    
  -15.0450001       0.00000000    
  -15.0400000       0.00000000    
  -15.0349998       0.00000000    
  -15.0299997       0.00000000    
  -15.0249996       0.00000000    
  -15.0200005       0.00000000    
  -15.0150003       0.00000000    
  -15.0100002       0.00000000    
  -15.0050001       0.00000000    
  -15.0000000       0.00000000    
  -14.9949999       0.00000000    
  -14.9899998       0.00000000    
  -14.9849997       0.00000000    
  -14.9799995       0.00000000    
  -14.9750004       0.00000000    
  -14.9700003       0.00000000    
  -14.9650002       0.00000000    
  -14.9600000       0.00000000    
  -14.9549999       0.00000000    
  -14.9499998       0.00000000    
  -14.9449997       0.00000000    
  -14.9399996       0.00000000    
  -14.9350004       0.00000000    
  -14.9300003       0.00000000    
  -14.9250002       0.00000000    
  -14.9200001       0.00000000    
  -14.9150000       0.00000000    
  -14.9099998       0.00000000    
  -14.9049997       0.00000000    
  -14.8999996       0.00000000    
  -14.8950005       0.00000000    
  -14.8900003       0.00000000    
  -14.8850002       0.00000000    
  -14.8800001       0.00000000    
  -14.8750000       0.00000000    
  -14.8699999       0.00000000    
  -14.8649998       0.00000000    
  -14.8599997       0.00000000    
  -14.8549995       0.00000000    
  -14.8500004       0.00000000    
  -14.8450003       0.00000000    
  -14.8400002       0.00000000    
  -14.8350000       0.00000000    
  -14.8299999       0.00000000    
  -14.8249998       0.00000000    
  -14.8199997       0.00000000    
  -14.8149996       0.00000000    
  -14.8100004       0.00000000    
  -14.8050003       0.00000000    
  -14.8000002       0.00000000    
  -14.7950001       0.00000000    
  -14.7900000       0.00000000    
  -14.7849998       0.00000000    
  -14.7799997       0.00000000    
  -14.7749996       0.00000000    
  -14.7700005       0.00000000    
  -14.7650003       0.00000000    
  -14.7600002       0.00000000    
  -14.7550001       0.00000000    
  -14.7500000       0.00000000    
  -14.7449999       0.00000000    
  -14.7399998       0.00000000    
  -14.7349997       0.00000000    
  -14.7299995       0.00000000    
  -14.7250004       0.00000000    
  -14.7200003       0.00000000    
  -14.7150002       0.00000000    
  -14.7100000       0.00000000    
  -14.7049999       0.00000000    
  -14.6999998       0.00000000    
  -14.6949997       0.00000000    
  -14.6899996       0.00000000    
  -14.6850004       0.00000000    
  -14.6800003       0.00000000    
  -14.6750002       0.00000000    
  -14.6700001       0.00000000    
  -14.6650000       0.00000000    
  -14.6599998       0.00000000    
  -14.6549997       0.00000000    
  -14.6499996       0.00000000    
  -14.6450005       0.00000000    
  -14.6400003       0.00000000    
  -14.6350002       0.00000000    
  -14.6300001       0.00000000    
  -14.6250000       0.00000000    
  -14.6199999       0.00000000    
  -14.6149998       0.00000000    
  -14.6099997       0.00000000    
  -14.6049995       0.00000000    
  -14.6000004       0.00000000    
  -14.5950003       0.00000000    
  -14.5900002       0.00000000    
  -14.5850000       0.00000000    
  -14.5799999       0.00000000    
  -14.5749998       0.00000000    
  -14.5699997       0.00000000    
  -14.5649996       0.00000000    
  -14.5600004       0.00000000    
  -14.5550003       0.00000000    
  -14.5500002       0.00000000    
  -14.5450001       0.00000000    
  -14.5400000       0.00000000    
  -14.5349998       0.00000000    
  -14.5299997       0.00000000    
  -14.5249996       0.00000000    
  -14.5200005       0.00000000    
  -14.5150003       0.00000000    
  -14.5100002       0.00000000    
  -14.5050001       0.00000000    
  -14.5000000       0.00000000    
  -14.4949999       0.00000000    
  -14.4899998       0.00000000    
  -14.4849997       0.00000000    
  -14.4799995       0.00000000    
  -14.4750004       0.00000000    
  -14.4700003       0.00000000    
  -14.4650002       0.00000000    
  -14.4600000       0.00000000    
  -14.4549999       0.00000000    
  -14.4499998       0.00000000    
  -14.4449997       0.00000000    
  -14.4399996       0.00000000    
  -14.4350004       0.00000000    
  -14.4300003       0.00000000    
  -14.4250002       0.00000000    
  -14.4200001       0.00000000    
  -14.4150000       0.00000000    
  -14.4099998       0.00000000    
  -14.4049997       0.00000000    
  -14.3999996       0.00000000    
  -14.3950005       0.00000000    
  -14.3900003       0.00000000    
  -14.3850002       0.00000000    
  -14.3800001       0.00000000    
  -14.3750000       0.00000000    
  -14.3699999       0.00000000    
  -14.3649998       0.00000000    
  -14.3599997       0.00000000    
  -14.3549995       0.00000000    
  -14.3500004       0.00000000    
  -14.3450003       0.00000000    
  -14.3400002       0.00000000    
  -14.3350000       0.00000000    
  -14.3299999       0.00000000    
  -14.3249998       0.00000000    
  -14.3199997       0.00000000    
  -14.3149996       0.00000000    
  -14.3100004       0.00000000    
  -14.3050003       0.00000000    
  -14.3000002       0.00000000    
  -14.2950001       0.00000000    
  -14.2900000       0.00000000    
  -14.2849998       0.00000000    
  -14.2799997       0.00000000    
  -14.2749996       0.00000000    
  -14.2700005       0.00000000    
  -14.2650003       0.00000000    
  -14.2600002       0.00000000    
  -14.2550001       0.00000000    
  -14.2500000       0.00000000    
  -14.2449999       0.00000000    
  -14.2399998       0.00000000    
  -14.2349997       0.00000000    
  -14.2299995       0.00000000    
  -14.2250004       0.00000000    
  -14.2200003       0.00000000    
  -14.2150002       0.00000000    
  -14.2100000       0.00000000    
  -14.2049999       0.00000000    
  -14.1999998       0.00000000    
  -14.1949997       0.00000000    
  -14.1899996       0.00000000    
  -14.1850004       0.00000000    
  -14.1800003       0.00000000    
  -14.1750002       0.00000000    
  -14.1700001       0.00000000    
  -14.1650000       0.00000000    
  -14.1599998       0.00000000    
  -14.1549997       0.00000000    
  -14.1499996       0.00000000    
  -14.1450005       0.00000000    
  -14.1400003       0.00000000    
  -14.1350002       0.00000000    
  -14.1300001       0.00000000    
  -14.1250000       0.00000000    
  -14.1199999       0.00000000    
  -14.1149998       0.00000000    
  -14.1099997       0.00000000    
  -14.1049995       0.00000000    
  -14.1000004       0.00000000    
  -14.0950003       0.00000000    
  -14.0900002       0.00000000    
  -14.0850000       0.00000000    
  -14.0799999       0.00000000    
  -14.0749998       0.00000000    
  -14.0699997       0.00000000    
  -14.0649996       0.00000000    
  -14.0600004       0.00000000    
  -14.0550003       0.00000000    
  -14.0500002       0.00000000    
  -14.0450001       0.00000000    
  -14.0400000       0.00000000    
  -14.0349998       0.00000000    
  -14.0299997       0.00000000    
  -14.0249996       0.00000000    
  -14.0200005       0.00000000    
  -14.0150003       0.00000000    
  -14.0100002       0.00000000    
  -14.0050001       0.00000000    
  -14.0000000       0.00000000    
  -13.9949999       0.00000000    
  -13.9899998       0.00000000    
  -13.9849997       0.00000000    
  -13.9799995       0.00000000    
  -13.9750004       0.00000000    
  -13.9700003       0.00000000    
  -13.9650002       0.00000000    
  -13.9600000       0.00000000    
  -13.9549999       0.00000000    
  -13.9499998       0.00000000    
  -13.9449997       0.00000000    
  -13.9399996       0.00000000    
  -13.9350004       0.00000000    
  -13.9300003       0.00000000    
  -13.9250002       0.00000000    
  -13.9200001       0.00000000    
  -13.9150000       0.00000000    
  -13.9099998       0.00000000    
  -13.9049997       0.00000000    
  -13.8999996       0.00000000    
  -13.8950005       0.00000000    
  -13.8900003       0.00000000    
  -13.8850002       0.00000000    
  -13.8800001       0.00000000    
  -13.8750000       0.00000000    
  -13.8699999       0.00000000    
  -13.8649998       0.00000000    
  -13.8599997       0.00000000    
  -13.8549995       0.00000000    
  -13.8500004       0.00000000    
  -13.8450003       0.00000000    
  -13.8400002       0.00000000    
  -13.8350000       0.00000000    
  -13.8299999       0.00000000    
  -13.8249998       0.00000000    
  -13.8199997       0.00000000    
  -13.8149996       0.00000000    
  -13.8100004       0.00000000    
  -13.8050003       0.00000000    
  -13.8000002       0.00000000    
  -13.7950001       0.00000000    
  -13.7900000       0.00000000    
  -13.7849998       0.00000000    
  -13.7799997       0.00000000    
  -13.7749996       0.00000000    
  -13.7700005       0.00000000    
  -13.7650003       0.00000000    
  -13.7600002       0.00000000    
  -13.7550001       0.00000000    
  -13.7500000       0.00000000    
  -13.7449999       0.00000000    
  -13.7399998       0.00000000    
  -13.7349997       0.00000000    
  -13.7299995       0.00000000    
  -13.7250004       0.00000000    
  -13.7200003       0.00000000    
  -13.7150002       0.00000000    
  -13.7100000       0.00000000    
  -13.7049999       0.00000000    
  -13.6999998       0.00000000    
  -13.6949997       0.00000000    
  -13.6899996       0.00000000    
  -13.6850004       0.00000000    
  -13.6800003       0.00000000    
  -13.6750002       0.00000000    
  -13.6700001       0.00000000    
  -13.6650000       0.00000000    
  -13.6599998       0.00000000    
  -13.6549997       0.00000000    
  -13.6499996       0.00000000    
  -13.6450005       0.00000000    
  -13.6400003      -0.00000000    
  -13.6350002      -0.00000000    
  -13.6300001      -0.00000000    
  -13.6250000      -0.00000000    
  -13.6199999       0.00000000    
  -13.6149998       0.00000000    
  -13.6099997       0.00000000    
  -13.6049995       0.00000000    
  -13.6000004       0.00000000    
  -13.5950003       0.00000000    
  -13.5900002       0.00000000    
  -13.5850000       0.00000000    
  -13.5799999       0.00000000    
  -13.5749998       0.00000000    
  -13.5699997       0.00000000    
  -13.5649996       0.00000000    
  -13.5600004      -0.00000000    
  -13.5550003      -0.00000000    
  -13.5500002      -0.00000000    
  -13.5450001       0.00000000    
  -13.5400000       0.00000000    
  -13.5349998       0.00000000    
  -13.5299997       0.00000000    
  -13.5249996       1.40129846E-45
  -13.5200005       0.00000000    
  -13.5150003       0.00000000    
  -13.5100002       1.40129846E-45
  -13.5050001      -0.00000000    
  -13.5000000       1.40129846E-45
  -13.4949999       1.40129846E-45
  -13.4899998       0.00000000    
  -13.4849997       0.00000000    
  -13.4799995       0.00000000    
  -13.4750004       1.40129846E-45
  -13.4700003      -2.80259693E-45
  -13.4650002      -4.20389539E-45
  -13.4600000      -5.60519386E-45
  -13.4549999      -5.60519386E-45
  -13.4499998      -8.40779079E-45
  -13.4449997      -5.60519386E-45
  -13.4399996      -2.80259693E-45
  -13.4350004      -2.80259693E-45
  -13.4300003      -2.80259693E-45
  -13.4250002      -4.20389539E-45
  -13.4200001      -1.40129846E-45
  -13.4150000      -1.40129846E-45
  -13.4099998       1.40129846E-45
  -13.4049997       4.20389539E-45
  -13.3999996       2.80259693E-45
  -13.3950005       4.20389539E-45
  -13.3900003       2.80259693E-45
  -13.3850002       4.20389539E-45
  -13.3800001       0.00000000    
  -13.3750000      -4.20389539E-45
  -13.3699999      -1.12103877E-44
  -13.3649998      -1.82168800E-44
  -13.3599997      -2.66246708E-44
  -13.3549995      -4.06376555E-44
  -13.3500004      -5.74532370E-44
  -13.3450003      -7.28675201E-44
  -13.3400002      -9.38869971E-44
  -13.3350000      -1.26116862E-43
  -13.3299999      -1.69557114E-43
  -13.3249998      -2.22806456E-43
  -13.3199997      -2.87266185E-43
  -13.3149996      -3.71344093E-43
  -13.3100004      -4.66632389E-43
  -13.3050003      -5.80137564E-43
  -13.3000002      -7.14662217E-43
  -13.2950001      -8.77212839E-43
  -13.2900000      -1.07199333E-42
  -13.2849998      -1.29760238E-42
  -13.2799997      -1.56384909E-42
  -13.2749996      -1.88895033E-42
  -13.2700005      -2.27010351E-42
  -13.2650003      -2.72552551E-42
  -13.2600002      -3.26782802E-42
  -13.2550001      -3.92083310E-42
  -13.2500000      -4.68173817E-42
  -13.2449999      -5.57296399E-42
  -13.2399998      -6.63234563E-42
  -13.2349997      -7.87389607E-42
  -13.2299995      -9.30181921E-42
  -13.2250004      -1.09665618E-41
  -13.2200003      -1.29115641E-41
  -13.2150002      -1.51662533E-41
  -13.2100000      -1.77586554E-41
  -13.2049999      -2.07602367E-41
  -13.1999998      -2.42564764E-41
  -13.1949997      -2.82627887E-41
  -13.1899996      -3.28814685E-41
  -13.1850004      -3.82316260E-41
  -13.1800003      -4.43847276E-41
  -13.1750002      -5.14150420E-41
  -13.1700001      -5.94416796E-41
  -13.1650000      -6.86299936E-41
  -13.1599998      -7.90752723E-41
  -13.1549997      -9.09442703E-41
  -13.1499996      -1.04504636E-40
  -13.1450005      -1.19927326E-40
  -13.1400003      -1.37384703E-40
  -13.1350002      -1.57151419E-40
  -13.1300001      -1.79503531E-40
  -13.1250000      -2.04747923E-40
  -13.1199999      -2.33247531E-40
  -13.1149998      -2.65341469E-40
  -13.1099997      -3.01457135E-40
  -13.1049995      -3.42077975E-40
  -13.1000004      -3.87672023E-40
  -13.0950003      -4.38757760E-40
  -13.0900002      -4.95937743E-40
  -13.0850000      -5.59859374E-40
  -13.0799999      -6.31227505E-40
  -13.0749998      -7.10842277E-40
  -13.0699997      -7.99545871E-40
  -13.0649996      -8.98242125E-40
  -13.0600004      -1.00798481E-39
  -13.0550003      -1.12985014E-39
  -13.0500002      -1.26495913E-39
  -13.0450001      -1.41457997E-39
  -13.0400000      -1.58012517E-39
  -13.0349998      -1.76303526E-39
  -13.0299997      -1.96490351E-39
  -13.0249996      -2.18747455E-39
  -13.0200005      -2.43255604E-39
  -13.0150003      -2.70216166E-39
  -13.0100002      -2.99839336E-39
  -13.0050001      -3.32346938E-39
  -13.0000000      -3.67984760E-39
  -12.9949999      -4.07008540E-39
  -12.9899998      -4.49689569E-39
  -12.9849997      -4.96318616E-39
  -12.9799995      -5.47203547E-39
  -12.9750004      -6.02673106E-39
  -12.9700003      -6.63073554E-39
  -12.9650002      -7.28764324E-39
  -12.9600000      -8.00129512E-39
  -12.9549999      -8.77571711E-39
  -12.9499998      -9.61510190E-39
  -12.9449997      -1.05238734E-38
  -12.9399996      -1.15066292E-38
  -12.9350004      -1.25681226E-38
  -12.9300003      -1.37133282E-38
  -12.9250002      -1.49474083E-38
  -12.9200001      -1.62756893E-38
  -12.9150000      -1.77036741E-38
  -12.9099998      -1.92369847E-38
  -12.9049997      -2.08813426E-38
  -12.8999996      -2.26426248E-38
  -12.8950005      -2.45267701E-38
  -12.8900003      -2.65397774E-38
  -12.8850002      -2.86876876E-38
  -12.8800001      -3.09765349E-38
  -12.8750000      -3.34123392E-38
  -12.8699999      -3.60009943E-38
  -12.8649998      -3.87482371E-38
  -12.8599997      -4.16596477E-38
  -12.8549995      -4.47405761E-38
  -12.8500004      -4.79960082E-38
  -12.8450003      -5.14305571E-38
  -12.8400002      -5.50484351E-38
  -12.8350000      -5.88532015E-38
  -12.8299999      -6.28477709E-38
  -12.8249998      -6.70343743E-38
  -12.8199997      -7.14143624E-38
  -12.8149996      -7.59880717E-38
  -12.8100004      -8.07546557E-38
  -12.8050003      -8.57121245E-38
  -12.8000002      -9.08571320E-38
  -12.7950001      -9.61845885E-38
  -12.7900000      -1.01687790E-37
  -12.7849998      -1.07358139E-37
  -12.7799997      -1.13184884E-37
  -12.7749996      -1.19154987E-37
  -12.7700005      -1.25252989E-37
  -12.7650003      -1.31460596E-37
  -12.7600002      -1.37756551E-37
  -12.7550001      -1.44116428E-37
  -12.7500000      -1.50512414E-37
  -12.7449999      -1.56912817E-37
  -12.7399998      -1.63281920E-37
  -12.7349997      -1.69579927E-37
  -12.7299995      -1.75762266E-37
  -12.7250004      -1.81779621E-37
  -12.7200003      -1.87577319E-37
  -12.7150002      -1.93095363E-37
  -12.7100000      -1.98267747E-37
  -12.7049999      -2.03022341E-37
  -12.6999998      -2.07280629E-37
  -12.6949997      -2.10957098E-37
  -12.6899996      -2.13959195E-37
  -12.6850004      -2.16186834E-37
  -12.6800003      -2.17532081E-37
  -12.6750002      -2.17878930E-37
  -12.6700001      -2.17102790E-37
  -12.6650000      -2.15070414E-37
  -12.6599998      -2.11639363E-37
  -12.6549997      -2.06658027E-37
  -12.6499996      -1.99965067E-37
  -12.6450005      -1.91389344E-37
  -12.6400003      -1.80749722E-37
  -12.6350002      -1.67854895E-37
  -12.6300001      -1.52503088E-37
  -12.6250000      -1.34482087E-37
  -12.6199999      -1.13569344E-37
  -12.6149998      -8.95315597E-38
  -12.6099997      -6.21252110E-38
  -12.6049995      -3.10962058E-38
  -12.6000004       3.81959069E-39
  -12.5950003       4.28962823E-38
  -12.5900002       8.64177007E-38
  -12.5850000       1.34676800E-37
  -12.5799999       1.87975221E-37
  -12.5749998       2.46622812E-37
  -12.5699997       3.10936896E-37
  -12.5649996       3.81241161E-37
  -12.5600004       4.57865596E-37
  -12.5550003       5.41144159E-37
  -12.5500002       6.31414595E-37
  -12.5450001       7.29016490E-37
  -12.5400000       8.34290775E-37
  -12.5349998       9.47576676E-37
  -12.5299997       1.06921109E-36
  -12.5249996       1.19952610E-36
  -12.5200005       1.33884719E-36
  -12.5150003       1.48749002E-36
  -12.5100002       1.64575935E-36
  -12.5050001       1.81394530E-36
  -12.5000000       1.99232015E-36
  -12.4949999       2.18113680E-36
  -12.4899998       2.38062394E-36
  -12.4849997       2.59098337E-36
  -12.4799995       2.81238512E-36
  -12.4750004       3.04496479E-36
  -12.4700003       3.28881853E-36
  -12.4650002       3.54399888E-36
  -12.4600000       3.81051123E-36
  -12.4549999       4.08830607E-36
  -12.4499998       4.37727758E-36
  -12.4449997       4.67725392E-36
  -12.4399996       4.98799726E-36
  -12.4350004       5.30919119E-36
  -12.4300003       5.64044254E-36
  -12.4250002       5.98126954E-36
  -12.4200001       6.33109606E-36
  -12.4150000       6.68924875E-36
  -12.4099998       7.05494559E-36
  -12.4049997       7.42729620E-36
  -12.3999996       7.80528321E-36
  -12.3950005       8.18777016E-36
  -12.3900003       8.57348283E-36
  -12.3850002       8.96100781E-36
  -12.3800001       9.34878176E-36
  -12.3750000       9.73508778E-36
  -12.3699999       1.01180518E-35
  -12.3649998       1.04956285E-35
  -12.3599997       1.08655942E-35
  -12.3549995       1.12255492E-35
  -12.3500004       1.15729055E-35
  -12.3450003       1.19048779E-35
  -12.3400002       1.22184860E-35
  -12.3350000       1.25105459E-35
  -12.3299999       1.27776623E-35
  -12.3249998       1.30162266E-35
  -12.3199997       1.32224188E-35
  -12.3149996       1.33921953E-35
  -12.3100004       1.35212931E-35
  -12.3050003       1.36052264E-35
  -12.3000002       1.36392831E-35
  -12.2950001       1.36185383E-35
  -12.2900000       1.35378378E-35
  -12.2849998       1.33918137E-35
  -12.2799997       1.31748796E-35
  -12.2749996       1.28812528E-35
  -12.2700005       1.25049382E-35
  -12.2650003       1.20397541E-35
  -12.2600002       1.14793373E-35
  -12.2550001       1.08171510E-35
  -12.2500000       1.00465055E-35
  -12.2449999       9.16056994E-36
  -12.2399998       8.15238981E-36
  -12.2349997       7.01490818E-36
  -12.2299995       5.74098699E-36
  -12.2250004       4.32343328E-36
  -12.2200003       2.75502722E-36
  -12.2150002       1.02854644E-36
  -12.2100000      -8.63196267E-37
  -12.2049999      -2.92731886E-36
  -12.1999998      -5.17083313E-36
  -12.1949997      -7.60060987E-36
  -12.1899996      -1.02233211E-35
  -12.1850004      -1.30454059E-35
  -12.1800003      -1.60730141E-35
  -12.1750002      -1.93119573E-35
  -12.1700001      -2.27676524E-35
  -12.1650000      -2.64450499E-35
  -12.1599998      -3.03486009E-35
  -12.1549997      -3.44821453E-35
  -12.1499996      -3.88489002E-35
  -12.1450005      -4.34513336E-35
  -12.1400003      -4.82911332E-35
  -12.1350002      -5.33690736E-35
  -12.1300001      -5.86850000E-35
  -12.1250000      -6.42377070E-35
  -12.1199999      -7.00248413E-35
  -12.1149998      -7.60428386E-35
  -12.1099997      -8.22868086E-35
  -12.1049995      -8.87504319E-35
  -12.1000004      -9.54259312E-35
  -12.0950003      -1.02303893E-34
  -12.0900002      -1.09373183E-34
  -12.0850000      -1.16620863E-34
  -12.0799999      -1.24032103E-34
  -12.0749998      -1.31589992E-34
  -12.0699997      -1.39275590E-34
  -12.0649996      -1.47067648E-34
  -12.0600004      -1.54942634E-34
  -12.0550003      -1.62874569E-34
  -12.0500002      -1.70834892E-34
  -12.0450001      -1.78792473E-34
  -12.0400000      -1.86713445E-34
  -12.0349998      -1.94561052E-34
  -12.0299997      -2.02295667E-34
  -12.0249996      -2.09874713E-34
  -12.0200005      -2.17252386E-34
  -12.0150003      -2.24379854E-34
  -12.0100002      -2.31204999E-34
  -12.0050001      -2.37672445E-34
  -12.0000000      -2.43723486E-34
  -11.9949999      -2.49295972E-34
  -11.9899998      -2.54324425E-34
  -11.9849997      -2.58739875E-34
  -11.9799995      -2.62469935E-34
  -11.9750004      -2.65438839E-34
  -11.9700003      -2.67567241E-34
  -11.9650002      -2.68772651E-34
  -11.9600000      -2.68968995E-34
  -11.9549999      -2.68067125E-34
  -11.9499998      -2.65974630E-34
  -11.9449997      -2.62596071E-34
  -11.9399996      -2.57832977E-34
  -11.9350004      -2.51584145E-34
  -11.9300003      -2.43745802E-34
  -11.9250002      -2.34211762E-34
  -11.9200001      -2.22873499E-34
  -11.9150000      -2.09620673E-34
  -11.9099998      -1.94341221E-34
  -11.9049997      -1.76921726E-34
  -11.8999996      -1.57247796E-34
  -11.8950005      -1.35204281E-34
  -11.8900003      -1.10675881E-34
  -11.8850002      -8.35474459E-35
  -11.8800001      -5.37044568E-35
  -11.8750000      -2.10335601E-35
  -11.8699999       1.45769091E-35
  -11.8649998       5.32363082E-35
  -11.8599997       9.50511620E-35
  -11.8549995       1.40124425E-34
  -11.8500004       1.88554838E-34
  -11.8450003       2.40436234E-34
  -11.8400002       2.95856523E-34
  -11.8350000       3.54897334E-34
  -11.8299999       4.17632801E-34
  -11.8249998       4.84128864E-34
  -11.8199997       5.54442298E-34
  -11.8149996       6.28619527E-34
  -11.8100004       7.06696046E-34
  -11.8050003       7.88695271E-34
  -11.8000002       8.74627031E-34
  -11.7950001       9.64487054E-34
  -11.7900000       1.05825578E-33
  -11.7849998       1.15589620E-33
  -11.7799997       1.25735468E-33
  -11.7749996       1.36255738E-33
  -11.7700005       1.47141091E-33
  -11.7650003       1.58380029E-33
  -11.7600002       1.69958685E-33
  -11.7550001       1.81860860E-33
  -11.7500000       1.94067781E-33
  -11.7449999       2.06558014E-33
  -11.7399998       2.19307261E-33
  -11.7349997       2.32288355E-33
  -11.7299995       2.45470900E-33
  -11.7250004       2.58821558E-33
  -11.7200003       2.72303395E-33