  -16.0000000       0.00000000    
  -15.9949999       0.00000000    
  -15.9899998       0.00000000    
  -15.9849997       0.00000000    
  -15.9799995       0.00000000    
  -15.9750004       0.00000000    
  -15.9700003       0.00000000    
  -15.9650002       0.00000000    
  -15.9600000       0.00000000    
  -15.9549999       0.00000000    
  -15.9499998       0.00000000    
  -15.9449997       0.00000000    
  -15.9399996       0.00000000    
  -15.9350004       0.00000000    
  -15.9300003       0.00000000    
  -15.9250002       0.00000000    
  -15.9200001       0.00000000    
  -15.9150000       0.00000000    
  -15.9099998       0.00000000    
  -15.9049997       0.00000000    
  -15.8999996       0.00000000    
  -15.8950005       0.00000000    
  -15.8900003       0.00000000    
  -15.8850002       0.00000000    
  -15.8800001       0.00000000    
  -15.8750000       0.00000000    
  -15.8699999       0.00000000    
  -15.8649998       0.00000000    
  -15.8599997       0.00000000    
  -15.8549995       0.00000000    
  -15.8500004       0.00000000    
  -15.8450003       0.00000000    
  -15.8400002       0.00000000    
  -15.8350000       0.00000000    
  -15.8299999       0.00000000    
  -15.8249998       0.00000000    
  -15.8199997       0.00000000    
  -15.8149996       0.00000000    
  -15.8100004       0.00000000    
  -15.8050003       0.00000000    
  -15.8000002       0.00000000    
  -15.7950001       0.00000000    
  -15.7900000       0.00000000    
  -15.7849998       0.00000000    
  -15.7799997       0.00000000    
  -15.7749996       0.00000000    
  -15.7700005       0.00000000    
  -15.7650003       0.00000000    
  -15.7600002       0.00000000    
  -15.7550001       0.00000000    
  -15.7500000       0.00000000    
  -15.7449999       0.00000000    
  -15.7399998       0.00000000    
  -15.7349997       0.00000000    
  -15.7299995       0.00000000    
  -15.7250004       0.00000000    
  -15.7200003       0.00000000    
  -15.7150002       0.00000000    
  -15.7100000       0.00000000    
  -15.7049999       0.00000000    
  -15.6999998       0.00000000    
  -15.6949997       0.00000000    
  -15.6899996       0.00000000    
  -15.6850004       0.00000000    
  -15.6800003       0.00000000    
  -15.6750002       0.00000000    
  -15.6700001       0.00000000    
  -15.6650000       0.00000000    
  -15.6599998       0.00000000    
  -15.6549997       0.00000000    
  -15.6499996       0.00000000    
  -15.6450005       0.00000000    
  -15.6400003       0.00000000    
  -15.6350002       0.00000000    
  -15.6300001       0.00000000    
  -15.6250000       0.00000000    
  -15.6199999       0.00000000    
  -15.6149998       0.00000000    
  -15.6099997       0.00000000    
  -15.6049995       0.00000000    
  -15.6000004       0.00000000    
  -15.5950003       0.00000000    
  -15.5900002       0.00000000    
  -15.5850000       0.00000000    
  -15.5799999       0.00000000    
  -15.5749998       0.00000000    
  -15.5699997       0.00000000    
  -15.5649996       0.00000000    
  -15.5600004       0.00000000    
  -15.5550003       0.00000000    
  -15.5500002       0.00000000    
  -15.5450001       0.00000000    
  -15.5400000       0.00000000    
  -15.5349998       0.00000000    
  -15.5299997       0.00000000    
  -15.5249996       0.00000000    
  -15.5200005       0.00000000    
  -15.5150003       0.00000000    
  -15.5100002       0.00000000    
  -15.5050001       0.00000000    
  -15.5000000       0.00000000    
  -15.4949999       0.00000000    
  -15.4899998       0.00000000    
  -15.4849997       0.00000000    
  -15.4799995       0.00000000    
  -15.4750004       0.00000000    
  -15.4700003       0.00000000    
  -15.4650002       0.00000000    
  -15.4600000       0.00000000    
  -15.4549999       0.00000000    
  -15.4499998       0.00000000    
  -15.4449997       0.00000000    
  -15.4399996       0.00000000    
  -15.4350004       0.00000000    
  -15.4300003       0.00000000    
  -15.4250002       0.00000000    
  -15.4200001       0.00000000    
  -15.4150000       0.00000000    
  -15.4099998       0.00000000    
  -15.4049997       0.00000000    
  -15.3999996       0.00000000    
  -15.3950005       0.00000000    
  -15.3900003       0.00000000    
  -15.3850002       0.00000000    
  -15.3800001       0.00000000    
  -15.3750000       0.00000000    
  -15.3699999       0.00000000    
  -15.3649998       0.00000000    
  -15.3599997       0.00000000    
  -15.3549995       0.00000000    
  -15.3500004       0.00000000    
  -15.3450003       0.00000000    
  -15.3400002       0.00000000    
  -15.3350000       0.00000000    
  -15.3299999       0.00000000    
  -15.3249998       0.00000000    
  -15.3199997       0.00000000    
  -15.3149996       0.00000000    
  -15.3100004       0.00000000    
  -15.3050003       0.00000000    
  -15.3000002       0.00000000    
  -15.2950001       0.00000000    
  -15.2900000       0.00000000    
  -15.2849998       0.00000000    
  -15.2799997       0.00000000    
  -15.2749996       0.00000000    
  -15.2700005       0.00000000    
  -15.2650003       0.00000000    
  -15.2600002       0.00000000    
  -15.2550001       0.00000000    
  -15.2500000       0.00000000    
  -15.2449999       0.00000000    
  -15.2399998       0.00000000    
  -15.2349997       0.00000000    
  -15.2299995       0.00000000    
  -15.2250004       0.00000000    
  -15.2200003       0.00000000    
  -15.2150002       0.00000000    
  -15.2100000       0.00000000    
  -15.2049999       0.00000000    
  -15.1999998       0.00000000    
  -15.1949997       0.00000000    
  -15.1899996       0.00000000    
  -15.1850004       0.00000000    
  -15.1800003       0.00000000    
  -15.1750002       0.00000000    
  -15.1700001       0.00000000    
  -15.1650000       0.00000000    
  -15.1599998       0.00000000    
  -15.1549997       0.00000000    
  -15.1499996       0.00000000    
  -15.1450005       0.00000000    
  -15.1400003       0.00000000    
  -15.1350002       0.00000000    
  -15.1300001       0.00000000    
  -15.1250000       0.00000000    
  -15.1199999       0.00000000    
  -15.1149998       0.00000000    
  -15.1099997       0.00000000    
  -15.1049995       0.00000000    
  -15.1000004       0.00000000    
  -15.0950003       0.00000000    
  -15.0900002       0.00000000    
  -15.0850000       0.00000000    
  -15.0799999       0.00000000    
  -15.0749998       0.00000000    
  -15.0699997       0.00000000    
  -15.0649996       0.00000000    
  -15.0600004       0.00000000    
  -15.0550003       0.00000000    
  -15.0500002       0.00000000    
  -15.0450001       0.00000000    
  -15.0400000       0.00000000    
  -15.0349998       0.00000000    
  -15.0299997       0.00000000    
  -15.0249996       0.00000000    
  -15.0200005       0.00000000    
  -15.0150003       0.00000000    
  -15.0100002       0.00000000    
  -15.0050001       0.00000000    
  -15.0000000       0.00000000    
  -14.9949999       0.00000000    
  -14.9899998       0.00000000    
  -14.9849997       0.00000000    
  -14.9799995       0.00000000    
  -14.9750004       0.00000000    
  -14.9700003       0.00000000    
  -14.9650002       0.00000000    
  -14.9600000       0.00000000    
  -14.9549999       0.00000000    
  -14.9499998       0.00000000    
  -14.9449997       0.00000000    
  -14.9399996       0.00000000    
  -14.9350004       0.00000000    
  -14.9300003       0.00000000    
  -14.9250002       0.00000000    
  -14.9200001       0.00000000    
  -14.9150000       0.00000000    
  -14.9099998       0.00000000    
  -14.9049997       0.00000000    
  -14.8999996       0.00000000    
  -14.8950005       0.00000000    
  -14.8900003       0.00000000    
  -14.8850002       0.00000000    
  -14.8800001       0.00000000    
  -14.8750000       0.00000000    
  -14.8699999       0.00000000    
  -14.8649998       0.00000000    
  -14.8599997       0.00000000    
  -14.8549995       0.00000000    
  -14.8500004       0.00000000    
  -14.8450003       0.00000000    
  -14.8400002       0.00000000    
  -14.8350000       0.00000000    
  -14.8299999       0.00000000    
  -14.8249998       0.00000000    
  -14.8199997       0.00000000    
  -14.8149996       0.00000000    
  -14.8100004       0.00000000    
  -14.8050003       0.00000000    
  -14.8000002       0.00000000    
  -14.7950001       0.00000000    
  -14.7900000       0.00000000    
  -14.7849998       0.00000000    
  -14.7799997       0.00000000    
  -14.7749996       0.00000000    
  -14.7700005       0.00000000    
  -14.7650003       0.00000000    
  -14.7600002       0.00000000    
  -14.7550001       0.00000000    
  -14.7500000       0.00000000    
  -14.7449999       0.00000000    
  -14.7399998       0.00000000    
  -14.7349997       0.00000000    
  -14.7299995       0.00000000    
  -14.7250004       0.00000000    
  -14.7200003       0.00000000    
  -14.7150002       0.00000000    
  -14.7100000       0.00000000    
  -14.7049999       0.00000000    
  -14.6999998       0.00000000    
  -14.6949997       0.00000000    
  -14.6899996       0.00000000    
  -14.6850004       0.00000000    
  -14.6800003       0.00000000    
  -14.6750002       0.00000000    
  -14.6700001       0.00000000    
  -14.6650000       0.00000000    
  -14.6599998       0.00000000    
  -14.6549997       0.00000000    
  -14.6499996       0.00000000    
  -14.6450005       0.00000000    
  -14.6400003       0.00000000    
  -14.6350002       0.00000000    
  -14.6300001       0.00000000    
  -14.6250000       0.00000000    
  -14.6199999       0.00000000    
  -14.6149998       0.00000000    
  -14.6099997       0.00000000    
  -14.6049995       0.00000000    
  -14.6000004       0.00000000    
  -14.5950003       0.00000000    
  -14.5900002       0.00000000    
  -14.5850000       0.00000000    
  -14.5799999       0.00000000    
  -14.5749998       0.00000000    
  -14.5699997       0.00000000    
  -14.5649996       0.00000000    
  -14.5600004       0.00000000    
  -14.5550003       0.00000000    
  -14.5500002       0.00000000    
  -14.5450001       0.00000000    
  -14.5400000       0.00000000    
  -14.5349998       0.00000000    
  -14.5299997       0.00000000    
  -14.5249996       0.00000000    
  -14.5200005       0.00000000    
  -14.5150003       0.00000000    
  -14.5100002       0.00000000    
  -14.5050001       0.00000000    
  -14.5000000       0.00000000    
  -14.4949999       0.00000000    
  -14.4899998       0.00000000    
  -14.4849997       0.00000000    
  -14.4799995       0.00000000    
  -14.4750004       0.00000000    
  -14.4700003       0.00000000    
  -14.4650002       0.00000000    
  -14.4600000       0.00000000    
  -14.4549999       0.00000000    
  -14.4499998       0.00000000    
  -14.4449997       0.00000000    
  -14.4399996       0.00000000    
  -14.4350004       0.00000000    
  -14.4300003       0.00000000    
  -14.4250002       0.00000000    
  -14.4200001       0.00000000    
  -14.4150000       0.00000000    
  -14.4099998       0.00000000    
  -14.4049997       0.00000000    
  -14.3999996       0.00000000    
  -14.3950005       0.00000000    
  -14.3900003       0.00000000    
  -14.3850002       0.00000000    
  -14.3800001       0.00000000    
  -14.3750000       0.00000000    
  -14.3699999       0.00000000    
  -14.3649998       0.00000000    
  -14.3599997       0.00000000    
  -14.3549995       0.00000000    
  -14.3500004       0.00000000    
  -14.3450003       0.00000000    
  -14.3400002       0.00000000    
  -14.3350000       0.00000000    
  -14.3299999       0.00000000    
  -14.3249998       0.00000000    
  -14.3199997       0.00000000    
  -14.3149996       0.00000000    
  -14.3100004       0.00000000    
  -14.3050003       0.00000000    
  -14.3000002       0.00000000    
  -14.2950001       0.00000000    
  -14.2900000       0.00000000    
  -14.2849998       0.00000000    
  -14.2799997       0.00000000    
  -14.2749996       0.00000000    
  -14.2700005       0.00000000    
  -14.2650003       0.00000000    
  -14.2600002       0.00000000    
  -14.2550001       0.00000000    
  -14.2500000       0.00000000    
  -14.2449999       0.00000000    
  -14.2399998       0.00000000    
  -14.2349997       0.00000000    
  -14.2299995       0.00000000    
  -14.2250004       0.00000000    
  -14.2200003       0.00000000    
  -14.2150002       0.00000000    
  -14.2100000       0.00000000    
  -14.2049999       0.00000000    
  -14.1999998       0.00000000    
  -14.1949997       0.00000000    
  -14.1899996       0.00000000    
  -14.1850004       0.00000000    
  -14.1800003       0.00000000    
  -14.1750002       0.00000000    
  -14.1700001       0.00000000    
  -14.1650000       0.00000000    
  -14.1599998       0.00000000    
  -14.1549997       1.40129846E-45
  -14.1499996      -0.00000000    
  -14.1450005      -0.00000000    
  -14.1400003       0.00000000    
  -14.1350002       0.00000000    
  -14.1300001       0.00000000    
  -14.1250000       0.00000000    
  -14.1199999       1.40129846E-45
  -14.1149998      -1.40129846E-45
  -14.1099997       0.00000000    
  -14.1049995       1.40129846E-45
  -14.1000004       1.40129846E-45
  -14.0950003       2.80259693E-45
  -14.0900002       0.00000000    
  -14.0850000      -2.80259693E-45
  -14.0799999      -2.80259693E-45
  -14.0749998       1.40129846E-45
  -14.0699997       2.80259693E-45
  -14.0649996      -1.40129846E-45
  -14.0600004      -4.20389539E-45
  -14.0550003      -8.40779079E-45
  -14.0500002      -1.12103877E-44
  -14.0450001      -1.26116862E-44
  -14.0400000      -9.80908925E-45
  -14.0349998      -7.00649232E-45
  -14.0299997      -5.60519386E-45
  -14.0249996      -8.40779079E-45
  -14.0200005      -8.40779079E-45
  -14.0150003      -9.80908925E-45
  -14.0100002      -1.96181785E-44
  -14.0050001      -2.80259693E-44
  -14.0000000      -3.36311631E-44
  -13.9949999      -4.06376555E-44
  -13.9899998      -4.90454463E-44
  -13.9849997      -5.04467447E-44
  -13.9799995      -3.78350585E-44
  -13.9750004      -2.80259693E-44
  -13.9700003      -2.38220739E-44
  -13.9650002      -2.10194770E-44
  -13.9600000      -3.36311631E-44
  -13.9549999      -4.34402524E-44
  -13.9499998      -4.48415509E-44
  -13.9449997      -5.18480432E-44
  -13.9399996      -6.86636248E-44
  -13.9350004      -8.12753109E-44
  -13.9300003      -8.96831017E-44
  -13.9250002      -1.06498683E-43
  -13.9200001      -1.21912966E-43
  -13.9150000      -1.41531145E-43
  -13.9099998      -1.61149323E-43
  -13.9049997      -1.80767502E-43
  -13.8999996      -2.08793471E-43
  -13.8950005      -2.50832425E-43
  -13.8900003      -2.94272678E-43
  -13.8850002      -3.26502542E-43
  -13.8800001      -3.62936302E-43
  -13.8750000      -4.13383047E-43
  -13.8699999      -4.73638881E-43
  -13.8649998      -5.43703804E-43
  -13.8599997      -6.27781712E-43
  -13.8549995      -7.23070008E-43
  -13.8500004      -8.19759602E-43
  -13.8450003      -9.12245300E-43
  -13.8400002      -1.02575048E-42
  -13.8350000      -1.16307773E-42
  -13.8299999      -1.31441796E-42
  -13.8249998      -1.47977118E-42
  -13.8199997      -1.64932829E-42
  -13.8149996      -1.83570099E-42
  -13.8100004      -2.04869835E-42
  -13.8050003      -2.28271520E-42
  -13.8000002      -2.53635022E-42
  -13.7950001      -2.82782030E-42
  -13.7900000      -3.16413193E-42
  -13.7849998      -3.54108122E-42
  -13.7799997      -3.96147076E-42
  -13.7749996      -4.41549146E-42
  -13.7700005      -4.90874852E-42
  -13.7650003      -5.43563674E-42
  -13.7600002      -6.02278080E-42
  -13.7550001      -6.68699627E-42
  -13.7500000      -7.40726368E-42
  -13.7449999      -8.18918823E-42
  -13.7399998      -9.05659197E-42
  -13.7349997      -1.00066723E-41
  -13.7299995      -1.10338241E-41
  -13.7250004      -1.21492577E-41
  -13.7200003      -1.33557757E-41
  -13.7150002      -1.46814040E-41
  -13.7100000      -1.61275440E-41
  -13.7049999      -1.77138139E-41
  -13.6999998      -1.94388123E-41
  -13.6949997      -2.12927302E-41
  -13.6899996      -2.33176064E-41
  -13.6850004      -2.55162437E-41
  -13.6800003      -2.78844381E-41
  -13.6750002      -3.04544195E-41
  -13.6700001      -3.32345957E-41
  -13.6650000      -3.62263679E-41
  -13.6599998      -3.94465518E-41
  -13.6549997      -4.29371862E-41
  -13.6499996      -4.67164882E-41
  -13.6450005      -5.07802538E-41
  -13.6400003      -5.51396933E-41
  -13.6350002      -5.98088198E-41
  -13.6300001      -6.48296722E-41
  -13.6250000      -7.02274738E-41
  -13.6199999      -7.60162378E-41
  -13.6149998      -8.22141809E-41
  -13.6099997      -8.88381187E-41
  -13.6049995      -9.59160773E-41
  -13.6000004      -1.03471879E-40
  -13.5950003      -1.11523740E-40
  -13.5900002      -1.20110897E-40
  -13.5850000      -1.29247363E-40
  -13.5799999      -1.38955558E-40
  -13.5749998      -1.49278924E-40
  -13.5699997      -1.60239881E-40
  -13.5649996      -1.71873461E-40
  -13.5600004      -1.84196479E-40
  -13.5550003      -1.97220147E-40
  -13.5500002      -2.11000516E-40
  -13.5450001      -2.25569816E-40
  -13.5400000      -2.40929449E-40
  -13.5349998      -2.57131262E-40
  -13.5299997      -2.74193472E-40
  -13.5249996      -2.92145506E-40
  -13.5200005      -3.10997175E-40
  -13.5150003      -3.30747075E-40
  -13.5100002      -3.51440050E-40
  -13.5050001      -3.73118137E-40
  -13.5000000      -3.95781337E-40
  -13.4949999      -4.19426847E-40
  -13.4899998      -4.44088299E-40
  -13.4849997      -4.69782508E-40
  -13.4799995      -4.96496861E-40
  -13.4750004      -5.24224354E-40
  -13.4700003      -5.52988808E-40
  -13.4650002      -5.82791624E-40
  -13.4600000      -6.13587960E-40
  -13.4549999      -6.45362403E-40
  -13.4499998      -6.78110748E-40
  -13.4449997      -7.11782548E-40
  -13.4399996      -7.46332963E-40
  -13.4350004      -7.81721355E-40
  -13.4300003      -8.17905684E-40
  -13.4250002      -8.54814484E-40
  -13.4200001      -8.92346862E-40
  -13.4150000      -9.30431352E-40
  -13.4099998      -9.68978270E-40
  -13.4049997      -1.00786710E-39
  -13.3999996      -1.04696053E-39
  -13.3950005      -1.08612822E-39
  -13.3900003      -1.12521184E-39
  -13.3850002      -1.16404462E-39
  -13.3800001      -1.20244861E-39
  -13.3750000      -1.24021080E-39
  -13.3699999      -1.27709017E-39
  -13.3649998      -1.31283589E-39
  -13.3599997      -1.34719713E-39
  -13.3549995      -1.37988242E-39
  -13.3500004      -1.41058627E-39
  -13.3450003      -1.43898499E-39
  -13.3400002      -1.46471423E-39
  -13.3350000      -1.48738724E-39
  -13.3299999      -1.50657381E-39
  -13.3249998      -1.52184376E-39
  -13.3199997      -1.53273746E-39
  -13.3149996      -1.53874482E-39
  -13.3100004      -1.53932076E-39
  -13.3050003      -1.53392296E-39
  -13.3000002      -1.52193905E-39
  -13.2950001      -1.50271604E-39
  -13.2900000      -1.47562754E-39
  -13.2849998      -1.43997290E-39
  -13.2799997      -1.39502065E-39
  -13.2749996      -1.34000006E-39
  -13.2700005      -1.27408158E-39
  -13.2650003      -1.19642022E-39
  -13.2600002      -1.10611494E-39
  -13.2550001      -1.00225631E-39
  -13.2500000      -8.83891427E-40
  -13.2449999      -7.50023984E-40
  -13.2399998      -5.99612810E-40
  -13.2349997      -4.31555085E-40
  -13.2299995      -2.44767605E-40
  -13.2250004      -3.80704767E-41
  -13.2200003       1.89717595E-40
  -13.2150002       4.39773701E-40
  -13.2100000       7.13391239E-40
  -13.2049999       1.01186501E-39
  -13.1999998       1.33648140E-39
  -13.1949997       1.68860529E-39
  -13.1899996       2.06964637E-39
  -13.1850004       2.48096950E-39
  -13.1800003       2.92399001E-39
  -13.1750002       3.40016665E-39
  -13.1700001       3.91095675E-39
  -13.1650000       4.45782048E-39
  -13.1599998       5.04221099E-39
  -13.1549997       5.66564868E-39
  -13.1499996       6.32960631E-39
  -13.1450005       7.03554684E-39
  -13.1400003       7.78494585E-39
  -13.1350002       8.57923825E-39
  -13.1300001       9.41985758E-39
  -13.1250000       1.03081995E-38
  -13.1199999       1.12456206E-38
  -13.1149998       1.22334323E-38
  -13.1099997       1.32729113E-38
  -13.1049995       1.43652711E-38
  -13.1000004       1.55116663E-38
  -13.0950003       1.67131761E-38
  -13.0900002       1.79707574E-38
  -13.0850000       1.92853267E-38
  -13.0799999       2.06576729E-38
  -13.0749998       2.20884547E-38
  -13.0699997       2.35782171E-38
  -13.0649996       2.51273834E-38
  -13.0600004       2.67361890E-38
  -13.0550003       2.84047627E-38
  -13.0500002       3.01330261E-38
  -13.0450001       3.19207158E-38
  -13.0400000       3.37673778E-38
  -13.0349998       3.56723589E-38
  -13.0299997       3.76347794E-38
  -13.0249996       3.96535011E-38
  -13.0200005       4.17271454E-38
  -13.0150003       4.38540306E-38
  -13.0100002       4.60322314E-38
  -13.0050001       4.82594972E-38
  -13.0000000       5.05332833E-38
  -12.9949999       5.28507507E-38
  -12.9899998       5.52086652E-38
  -12.9849997       5.76034618E-38
  -12.9799995       6.00312058E-38
  -12.9750004       6.24875475E-38
  -12.9700003       6.49677561E-38
  -12.9650002       6.74667029E-38
  -12.9600000       6.99787770E-38
  -12.9549999       7.24979585E-38
  -12.9499998       7.50177566E-38
  -12.9449997       7.75312320E-38
  -12.9399996       8.00309691E-38
  -12.9350004       8.25089693E-38
  -12.9300003       8.49568471E-38
  -12.9250002       8.73656063E-38
  -12.9200001       8.97257965E-38
  -12.9150000       9.20273171E-38
  -12.9099998       9.42595856E-38
  -12.9049997       9.64115204E-38
  -12.8999996       9.84713731E-38
  -12.8950005       1.00426924E-37
  -12.8900003       1.02265327E-37
  -12.8850002       1.03973185E-37
  -12.8800001       1.05536428E-37
  -12.8750000       1.06940608E-37
  -12.8699999       1.08170500E-37
  -12.8649998       1.09210510E-37
  -12.8599997       1.10044271E-37
  -12.8549995       1.10654968E-37
  -12.8500004       1.11025225E-37
  -12.8450003       1.11137093E-37
  -12.8400002       1.10972110E-37
  -12.8350000       1.10511363E-37
  -12.8299999       1.09735380E-37
  -12.8249998       1.08624061E-37
  -12.8199997       1.07157058E-37
  -12.8149996       1.05313521E-37
  -12.8100004       1.03072340E-37
  -12.8050003       1.00411622E-37
  -12.8000002       9.73094836E-38
  -12.7950001       9.37434985E-38
  -12.7900000       8.96909938E-38
  -12.7849998       8.51290274E-38
  -12.7799997       8.00346069E-38
  -12.7749996       7.43843865E-38
  -12.7700005       6.81549814E-38
  -12.7650003       6.13229059E-38
  -12.7600002       5.38646574E-38
  -12.7550001       4.57564026E-38
  -12.7500000       3.69749443E-38
  -12.7449999       2.74968866E-38
  -12.7399998       1.72992159E-38
  -12.7349997       6.35898593E-39
  -12.7299995      -5.34639645E-39
  -12.7250004      -1.78393576E-38
  -12.7200003      -3.11413192E-38
  -12.7150002      -4.52737197E-38
  -12.7100000      -6.02572072E-38
  -12.7049999      -7.61119465E-38
  -12.6999998      -9.28569923E-38
  -12.6949997      -1.10510433E-37
  -12.6899996      -1.29090574E-37
  -12.6850004      -1.48613262E-37
  -12.6800003      -1.69094630E-37
  -12.6750002      -1.90548543E-37
  -12.6700001      -2.12988555E-37
  -12.6650000      -2.36426202E-37
  -12.6599998      -2.60871888E-37
  -12.6549997      -2.86334781E-37
  -12.6499996      -3.12822147E-37
  -12.6450005      -3.40339569E-37
  -12.6400003      -3.68891058E-37
  -12.6350002      -3.98478837E-37
  -12.6300001      -4.29103060E-37
  -12.6250000      -4.60761553E-37
  -12.6199999      -4.93450416E-37
  -12.6149998      -5.27163370E-37
  -12.6099997      -5.61891896E-37
  -12.6049995      -5.97625365E-37
  -12.6000004      -6.34350147E-37
  -12.5950003      -6.72050143E-37
  -12.5900002      -7.10706833E-37
  -12.5850000      -7.50298784E-37
  -12.5799999      -7.90802632E-37
  -12.5749998      -8.32190397E-37
  -12.5699997      -8.74431586E-37
  -12.5649996      -9.17493376E-37
  -12.5600004      -9.61340072E-37
  -12.5550003      -1.00593141E-36
  -12.5500002      -1.05122433E-36
  -12.5450001      -1.09717275E-36
  -12.5400000      -1.14372644E-36
  -12.5349998      -1.19083240E-36
  -12.5299997      -1.23843234E-36
  -12.5249996      -1.28646580E-36
  -12.5200005      -1.33486876E-36
  -12.5150003      -1.38357116E-36
  -12.5100002      -1.43250217E-36
  -12.5050001      -1.48158556E-36
  -12.5000000      -1.53073916E-36
  -12.4949999      -1.57987779E-36
  -12.4899998      -1.62891167E-36
  -12.4849997      -1.67774645E-36
  -12.4799995      -1.72628850E-36
  -12.4750004      -1.77442913E-36
  -12.4700003      -1.82206252E-36
  -12.4650002      -1.86907512E-36
  -12.4600000      -1.91535250E-36
  -12.4549999      -1.96077376E-36
  -12.4499998      -2.00520958E-36
  -12.4449997      -2.04852455E-36
  -12.4399996      -2.09058341E-36
  -12.4350004      -2.13124358E-36
  -12.4300003      -2.17035276E-36
  -12.4250002      -2.20776012E-36
  -12.4200001      -2.24330172E-36
  -12.4150000      -2.27681091E-36
  -12.4099998      -2.30811390E-36
  -12.4049997      -2.33703347E-36
  -12.3999996      -2.36338398E-36
  -12.3950005      -2.38697028E-36
  -12.3900003      -2.40759255E-36
  -12.3850002      -2.42504632E-36
  -12.3800001      -2.43911490E-36
  -12.3750000      -2.44957877E-36
  -12.3699999      -2.45620761E-36
  -12.3649998      -2.45876411E-36
  -12.3599997      -2.45699951E-36
  -12.3549995      -2.45065658E-36
  -12.3500004      -2.43947364E-36
  -12.3450003      -2.42317929E-36
  -12.3400002      -2.40148639E-36
  -12.3350000      -2.37410470E-36
  -12.3299999      -2.34072626E-36
  -12.3249998      -2.30105172E-36
  -12.3199997      -2.25474438E-36
  -12.3149996      -2.20147334E-36
  -12.3100004      -2.14090048E-36
  -12.3050003      -2.07265666E-36
  -12.3000002      -1.99637795E-36
  -12.2950001      -1.91168464E-36
  -12.2900000      -1.81817870E-36
  -12.2849998      -1.71546483E-36
  -12.2799997      -1.60311898E-36
  -12.2749996      -1.48070953E-36
  -12.2700005      -1.34779541E-36
  -12.2650003      -1.20391932E-36
  -12.2600002      -1.04860917E-36
  -12.2550001      -8.81386870E-37
  -12.2500000      -7.01754263E-37
  -12.2449999      -5.09205092E-37
  -12.2399998      -3.03218589E-37
  -12.2349997      -8.32545385E-38
  -12.2299995       1.51229083E-37
  -12.2250004       4.00780553E-37
  -12.2200003       6.65971288E-37
  -12.2150002       9.47384395E-37
  -12.2100000       1.24560412E-36
  -12.2049999       1.56122873E-36
  -12.1999998       1.89486188E-36
  -12.1949997       2.24711020E-36
  -12.1899996       2.61858693E-36
  -12.1850004       3.00990336E-36
  -12.1800003       3.42169229E-36
  -12.1750002       3.85457433E-36
  -12.1700001       4.30915609E-36
  -12.1650000       4.78605352E-36
  -12.1599998       5.28585708E-36
  -12.1549997       5.80915368E-36
  -12.1499996       6.35657323E-36
  -12.1450005       6.92860865E-36
  -12.1400003       7.52581560E-36
  -12.1350002       8.14869989E-36
  -12.1300001       8.79781542E-36
  -12.1250000       9.47353670E-36
  -12.1199999       1.01762748E-35
  -12.1149998       1.09064237E-35
  -12.1099997       1.16642868E-35
  -12.1049995       1.24501396E-35
  -12.1000004       1.32641164E-35
  -12.0950003       1.41063699E-35
  -12.0900002       1.49769015E-35
  -12.0850000       1.58756955E-35
  -12.0799999       1.68026170E-35
  -12.0749998       1.77574048E-35
  -12.0699997       1.87396500E-35
  -12.0649996       1.97488977E-35
  -12.0600004       2.07845123E-35
  -12.0550003       2.18456571E-35
  -12.0500002       2.29314540E-35
  -12.0450001       2.40407464E-35
  -12.0400000       2.51722186E-35
  -12.0349998       2.63243666E-35
  -12.0299997       2.74955734E-35
  -12.0249996       2.86838185E-35
  -12.0200005       2.98869094E-35
  -12.0150003       3.11024010E-35
  -12.0100002       3.23276099E-35
  -12.0050001       3.35595458E-35
  -12.0000000       3.47947734E-35
  -11.9949999       3.60296595E-35
  -11.9899998       3.72603298E-35
  -11.9849997       3.84823847E-35
  -11.9799995       3.96909456E-35
  -11.9750004       4.08810073E-35
  -11.9700003       4.20468389E-35
  -11.9650002       4.31824565E-35
  -11.9600000       4.42812797E-35
  -11.9549999       4.53365069E-35
  -11.9499998       4.63405731E-35
  -11.9449997       4.72853537E-35
  -11.9399996       4.81622994E-35
  -11.9350004       4.89622784E-35
  -11.9300003       4.96755303E-35
  -11.9250002       5.02917120E-35
  -11.9200001       5.07996542E-35
  -11.9150000       5.11878543E-35
  -11.9099998       5.14440007E-35
  -11.9049997       5.15549208E-35
  -11.8999996       5.15067244E-35
  -11.8950005       5.12851425E-35
  -11.8900003       5.08747756E-35
  -11.8850002       5.02596213E-35
  -11.8800001       4.94228105E-35
  -11.8750000       4.83466822E-35
  -11.8699999       4.70128146E-35
  -11.8649998       4.54018622E-35
  -11.8599997       4.34937358E-35
  -11.8549995       4.12675171E-35
  -11.8500004       3.87014841E-35
  -11.8450003       3.57727440E-35
  -11.8400002       3.24579188E-35
  -11.8350000       2.87326377E-35
  -11.8299999       2.45716201E-35
  -11.8249998       1.99487676E-35
  -11.8199997       1.48373001E-35
  -11.8149996       9.20944220E-36
  -11.8100004       3.03678103E-36
  -11.8050003      -3.71003172E-36
  -11.8000002      -1.10608695E-35
  -11.7950001      -1.90464437E-35
  -11.7900000      -2.76981453E-35
  -11.7849998      -3.70483849E-35
  -11.7799997      -4.71290267E-35
  -11.7749996      -5.79736078E-35
  -11.7700005      -6.96153985E-35
  -11.7650003      -8.20884038E-35
  -11.7600002      -9.54272742E-35
  -11.7550001      -1.09666081E-34
  -11.7500000      -1.24839658E-34
  -11.7449999      -1.40983041E-34
  -11.7399998      -1.58130335E-34
  -11.7349997      -1.76316576E-34
  -11.7299995      -1.95575513E-34
  -11.7250004      -2.15942169E-34
  -11.7200003      -2.37449078E-34