  -16.0000000       0.00000000    
  -15.9949999       0.00000000    
  -15.9899998       0.00000000    
  -15.9849997       0.00000000    
  -15.9799995       0.00000000    
  -15.9750004       0.00000000    
  -15.9700003       0.00000000    
  -15.9650002       0.00000000    
  -15.9600000       0.00000000    
  -15.9549999       0.00000000    
  -15.9499998       0.00000000    
  -15.9449997       0.00000000    
  -15.9399996       0.00000000    
  -15.9350004       0.00000000    
  -15.9300003       0.00000000    
  -15.9250002       0.00000000    
  -15.9200001       0.00000000    
  -15.9150000       0.00000000    
  -15.9099998       0.00000000    
  -15.9049997       0.00000000    
  -15.8999996       0.00000000    
  -15.8950005       0.00000000    
  -15.8900003       0.00000000    
  -15.8850002       0.00000000    
  -15.8800001       0.00000000    
  -15.8750000       0.00000000    
  -15.8699999       0.00000000    
  -15.8649998       0.00000000    
  -15.8599997       0.00000000    
  -15.8549995       0.00000000    
  -15.8500004       0.00000000    
  -15.8450003       0.00000000    
  -15.8400002       0.00000000    
  -15.8350000       0.00000000    
  -15.8299999       0.00000000    
  -15.8249998       0.00000000    
  -15.8199997       0.00000000    
  -15.8149996       0.00000000    
  -15.8100004       0.00000000    
  -15.8050003       0.00000000    
  -15.8000002       0.00000000    
  -15.7950001       0.00000000    
  -15.7900000       0.00000000    
  -15.7849998       0.00000000    
  -15.7799997       0.00000000    
  -15.7749996       0.00000000    
  -15.7700005       0.00000000    
  -15.7650003       0.00000000    
  -15.7600002       0.00000000    
  -15.7550001       0.00000000    
  -15.7500000       0.00000000    
  -15.7449999       0.00000000    
  -15.7399998       0.00000000    
  -15.7349997       0.00000000    
  -15.7299995       0.00000000    
  -15.7250004       0.00000000    
  -15.7200003       0.00000000    
  -15.7150002       0.00000000    
  -15.7100000       0.00000000    
  -15.7049999       0.00000000    
  -15.6999998       0.00000000    
  -15.6949997       0.00000000    
  -15.6899996       0.00000000    
  -15.6850004       0.00000000    
  -15.6800003       0.00000000    
  -15.6750002       0.00000000    
  -15.6700001       0.00000000    
  -15.6650000       0.00000000    
  -15.6599998       0.00000000    
  -15.6549997       0.00000000    
  -15.6499996       0.00000000    
  -15.6450005       0.00000000    
  -15.6400003       0.00000000    
  -15.6350002       0.00000000    
  -15.6300001       0.00000000    
  -15.6250000       0.00000000    
  -15.6199999       0.00000000    
  -15.6149998       0.00000000    
  -15.6099997       0.00000000    
  -15.6049995       0.00000000    
  -15.6000004       0.00000000    
  -15.5950003       0.00000000    
  -15.5900002       0.00000000    
  -15.5850000       0.00000000    
  -15.5799999       0.00000000    
  -15.5749998       0.00000000    
  -15.5699997       0.00000000    
  -15.5649996       0.00000000    
  -15.5600004       0.00000000    
  -15.5550003       0.00000000    
  -15.5500002       0.00000000    
  -15.5450001       0.00000000    
  -15.5400000       0.00000000    
  -15.5349998       0.00000000    
  -15.5299997       0.00000000    
  -15.5249996       0.00000000    
  -15.5200005       0.00000000    
  -15.5150003       0.00000000    
  -15.5100002       0.00000000    
  -15.5050001       0.00000000    
  -15.5000000       0.00000000    
  -15.4949999       0.00000000    
  -15.4899998       0.00000000    
  -15.4849997       0.00000000    
  -15.4799995       0.00000000    
  -15.4750004       0.00000000    
  -15.4700003       0.00000000    
  -15.4650002       0.00000000    
  -15.4600000       0.00000000    
  -15.4549999       0.00000000    
  -15.4499998       0.00000000    
  -15.4449997       0.00000000    
  -15.4399996       0.00000000    
  -15.4350004       0.00000000    
  -15.4300003       0.00000000    
  -15.4250002       0.00000000    
  -15.4200001       0.00000000    
  -15.4150000       0.00000000    
  -15.4099998       0.00000000    
  -15.4049997       0.00000000    
  -15.3999996       0.00000000    
  -15.3950005       0.00000000    
  -15.3900003       0.00000000    
  -15.3850002       0.00000000    
  -15.3800001       0.00000000    
  -15.3750000       0.00000000    
  -15.3699999       0.00000000    
  -15.3649998       0.00000000    
  -15.3599997       0.00000000    
  -15.3549995       0.00000000    
  -15.3500004       0.00000000    
  -15.3450003       0.00000000    
  -15.3400002       0.00000000    
  -15.3350000       0.00000000    
  -15.3299999       0.00000000    
  -15.3249998       0.00000000    
  -15.3199997       0.00000000    
  -15.3149996       0.00000000    
  -15.3100004       0.00000000    
  -15.3050003       0.00000000    
  -15.3000002       0.00000000    
  -15.2950001       0.00000000    
  -15.2900000       0.00000000    
  -15.2849998       0.00000000    
  -15.2799997       0.00000000    
  -15.2749996       0.00000000    
  -15.2700005       0.00000000    
  -15.2650003       0.00000000    
  -15.2600002       0.00000000    
  -15.2550001       0.00000000    
  -15.2500000       0.00000000    
  -15.2449999       0.00000000    
  -15.2399998       0.00000000    
  -15.2349997       0.00000000    
  -15.2299995       0.00000000    
  -15.2250004       0.00000000    
  -15.2200003       0.00000000    
  -15.2150002       0.00000000    
  -15.2100000       0.00000000    
  -15.2049999       0.00000000    
  -15.1999998       0.00000000    
  -15.1949997       0.00000000    
  -15.1899996       0.00000000    
  -15.1850004       0.00000000    
  -15.1800003       0.00000000    
  -15.1750002       0.00000000    
  -15.1700001       0.00000000    
  -15.1650000       0.00000000    
  -15.1599998       0.00000000    
  -15.1549997       0.00000000    
  -15.1499996       0.00000000    
  -15.1450005       0.00000000    
  -15.1400003       0.00000000    
  -15.1350002       0.00000000    
  -15.1300001       0.00000000    
  -15.1250000       0.00000000    
  -15.1199999       0.00000000    
  -15.1149998       0.00000000    
  -15.1099997       0.00000000    
  -15.1049995       0.00000000    
  -15.1000004       0.00000000    
  -15.0950003       0.00000000    
  -15.0900002       0.00000000    
  -15.0850000       0.00000000    
  -15.0799999       0.00000000    
  -15.0749998       0.00000000    
  -15.0699997       0.00000000    
  -15.0649996       0.00000000    
  -15.0600004       0.00000000    
  -15.0550003       0.00000000    
  -15.0500002       0.00000000    
  -15.0450001       0.00000000    
  -15.0400000       0.00000000    
  -15.0349998       0.00000000    
  -15.0299997       0.00000000    
  -15.0249996       0.00000000    
  -15.0200005       0.00000000    
  -15.0150003       0.00000000    
  -15.0100002       0.00000000    
  -15.0050001       0.00000000    
  -15.0000000       0.00000000    
  -14.9949999       0.00000000    
  -14.9899998       0.00000000    
  -14.9849997       0.00000000    
  -14.9799995       0.00000000    
  -14.9750004       0.00000000    
  -14.9700003       0.00000000    
  -14.9650002       0.00000000    
  -14.9600000       0.00000000    
  -14.9549999       0.00000000    
  -14.9499998       0.00000000    
  -14.9449997       0.00000000    
  -14.9399996       0.00000000    
  -14.9350004       0.00000000    
  -14.9300003       0.00000000    
  -14.9250002       0.00000000    
  -14.9200001       0.00000000    
  -14.9150000       0.00000000    
  -14.9099998       0.00000000    
  -14.9049997       0.00000000    
  -14.8999996       0.00000000    
  -14.8950005       0.00000000    
  -14.8900003       0.00000000    
  -14.8850002       0.00000000    
  -14.8800001       0.00000000    
  -14.8750000       0.00000000    
  -14.8699999       0.00000000    
  -14.8649998       0.00000000    
  -14.8599997       0.00000000    
  -14.8549995       0.00000000    
  -14.8500004       0.00000000    
  -14.8450003       0.00000000    
  -14.8400002       0.00000000    
  -14.8350000       0.00000000    
  -14.8299999       0.00000000    
  -14.8249998       0.00000000    
  -14.8199997       0.00000000    
  -14.8149996       0.00000000    
  -14.8100004       0.00000000    
  -14.8050003       0.00000000    
  -14.8000002       0.00000000    
  -14.7950001       0.00000000    
  -14.7900000       0.00000000    
  -14.7849998       0.00000000    
  -14.7799997       0.00000000    
  -14.7749996       0.00000000    
  -14.7700005       0.00000000    
  -14.7650003       0.00000000    
  -14.7600002       0.00000000    
  -14.7550001       0.00000000    
  -14.7500000       0.00000000    
  -14.7449999       0.00000000    
  -14.7399998       0.00000000    
  -14.7349997       0.00000000    
  -14.7299995       0.00000000    
  -14.7250004       0.00000000    
  -14.7200003       0.00000000    
  -14.7150002       0.00000000    
  -14.7100000       0.00000000    
  -14.7049999       0.00000000    
  -14.6999998       0.00000000    
  -14.6949997       0.00000000    
  -14.6899996       0.00000000    
  -14.6850004       0.00000000    
  -14.6800003       0.00000000    
  -14.6750002       0.00000000    
  -14.6700001       0.00000000    
  -14.6650000       0.00000000    
  -14.6599998       0.00000000    
  -14.6549997       0.00000000    
  -14.6499996       0.00000000    
  -14.6450005       0.00000000    
  -14.6400003       0.00000000    
  -14.6350002       0.00000000    
  -14.6300001       0.00000000    
  -14.6250000       0.00000000    
  -14.6199999       0.00000000    
  -14.6149998       0.00000000    
  -14.6099997       0.00000000    
  -14.6049995       0.00000000    
  -14.6000004       0.00000000    
  -14.5950003       0.00000000    
  -14.5900002       0.00000000    
  -14.5850000       0.00000000    
  -14.5799999       0.00000000    
  -14.5749998       0.00000000    
  -14.5699997       0.00000000    
  -14.5649996       0.00000000    
  -14.5600004       0.00000000    
  -14.5550003       0.00000000    
  -14.5500002       0.00000000    
  -14.5450001       0.00000000    
  -14.5400000       0.00000000    
  -14.5349998       0.00000000    
  -14.5299997       0.00000000    
  -14.5249996       0.00000000    
  -14.5200005       0.00000000    
  -14.5150003       0.00000000    
  -14.5100002       0.00000000    
  -14.5050001       0.00000000    
  -14.5000000       0.00000000    
  -14.4949999       0.00000000    
  -14.4899998       0.00000000    
  -14.4849997       0.00000000    
  -14.4799995       0.00000000    
  -14.4750004       0.00000000    
  -14.4700003       0.00000000    
  -14.4650002       0.00000000    
  -14.4600000       0.00000000    
  -14.4549999       0.00000000    
  -14.4499998       0.00000000    
  -14.4449997       0.00000000    
  -14.4399996       0.00000000    
  -14.4350004       0.00000000    
  -14.4300003       0.00000000    
  -14.4250002       0.00000000    
  -14.4200001       0.00000000    
  -14.4150000       0.00000000    
  -14.4099998       0.00000000    
  -14.4049997       0.00000000    
  -14.3999996       0.00000000    
  -14.3950005       0.00000000    
  -14.3900003       0.00000000    
  -14.3850002       0.00000000    
  -14.3800001       0.00000000    
  -14.3750000       0.00000000    
  -14.3699999       0.00000000    
  -14.3649998       0.00000000    
  -14.3599997       0.00000000    
  -14.3549995       0.00000000    
  -14.3500004       0.00000000    
  -14.3450003       0.00000000    
  -14.3400002       0.00000000    
  -14.3350000       0.00000000    
  -14.3299999       0.00000000    
  -14.3249998       0.00000000    
  -14.3199997       0.00000000    
  -14.3149996       0.00000000    
  -14.3100004       0.00000000    
  -14.3050003       0.00000000    
  -14.3000002       0.00000000    
  -14.2950001       0.00000000    
  -14.2900000       0.00000000    
  -14.2849998       0.00000000    
  -14.2799997       0.00000000    
  -14.2749996       0.00000000    
  -14.2700005       0.00000000    
  -14.2650003       0.00000000    
  -14.2600002       0.00000000    
  -14.2550001       0.00000000    
  -14.2500000       0.00000000    
  -14.2449999       0.00000000    
  -14.2399998       0.00000000    
  -14.2349997       0.00000000    
  -14.2299995       0.00000000    
  -14.2250004       0.00000000    
  -14.2200003       0.00000000    
  -14.2150002       0.00000000    
  -14.2100000       0.00000000    
  -14.2049999       0.00000000    
  -14.1999998       0.00000000    
  -14.1949997       0.00000000    
  -14.1899996       0.00000000    
  -14.1850004       0.00000000    
  -14.1800003       0.00000000    
  -14.1750002       0.00000000    
  -14.1700001       0.00000000    
  -14.1650000       0.00000000    
  -14.1599998       0.00000000    
  -14.1549997       0.00000000    
  -14.1499996       0.00000000    
  -14.1450005       0.00000000    
  -14.1400003       0.00000000    
  -14.1350002       0.00000000    
  -14.1300001       0.00000000    
  -14.1250000       0.00000000    
  -14.1199999       0.00000000    
  -14.1149998       0.00000000    
  -14.1099997       0.00000000    
  -14.1049995       0.00000000    
  -14.1000004       0.00000000    
  -14.0950003       0.00000000    
  -14.0900002       0.00000000    
  -14.0850000       0.00000000    
  -14.0799999       0.00000000    
  -14.0749998       0.00000000    
  -14.0699997       0.00000000    
  -14.0649996       0.00000000    
  -14.0600004       0.00000000    
  -14.0550003       0.00000000    
  -14.0500002       0.00000000    
  -14.0450001      -0.00000000    
  -14.0400000      -0.00000000    
  -14.0349998      -0.00000000    
  -14.0299997      -0.00000000    
  -14.0249996       0.00000000    
  -14.0200005       1.40129846E-45
  -14.0150003       2.80259693E-45
  -14.0100002       7.00649232E-45
  -14.0050001       7.00649232E-45
  -14.0000000       9.80908925E-45
  -13.9949999       1.12103877E-44
  -13.9899998       1.54142831E-44
  -13.9849997       1.54142831E-44
  -13.9799995       1.40129846E-44
  -13.9750004       9.80908925E-45
  -13.9700003       7.00649232E-45
  -13.9650002       5.60519386E-45
  -13.9600000       8.40779079E-45
  -13.9549999       1.82168800E-44
  -13.9499998       3.50324616E-44
  -13.9449997       6.16571324E-44
  -13.9399996       8.12753109E-44
  -13.9350004       8.68805048E-44
  -13.9300003       8.12753109E-44
  -13.9250002       6.16571324E-44
  -13.9200001       4.06376555E-44
  -13.9150000       2.52233724E-44
  -13.9099998       1.82168800E-44
  -13.9049997       1.96181785E-44
  -13.8999996       2.80259693E-44
  -13.8950005       4.76441478E-44
  -13.8900003       6.16571324E-44
  -13.8850002       7.28675201E-44
  -13.8800001       9.24856986E-44
  -13.8750000       1.05097385E-43
  -13.8699999       1.13505176E-43
  -13.8649998       1.24715563E-43
  -13.8599997       1.44333742E-43
  -13.8549995       1.72359711E-43
  -13.8500004       2.12997367E-43
  -13.8450003       2.56437619E-43
  -13.8400002       3.01279170E-43
  -13.8350000       3.44719422E-43
  -13.8299999       3.93764868E-43
  -13.8249998       4.45612912E-43
  -13.8199997       4.98862253E-43
  -13.8149996       5.61920684E-43
  -13.8100004       6.29183010E-43
  -13.8050003       6.99247934E-43
  -13.8000002       7.87529737E-43
  -13.7950001       8.77212839E-43
  -13.7900000       9.66895940E-43
  -13.7849998       1.08040112E-42
  -13.7799997       1.21352447E-42
  -13.7749996       1.37046990E-42
  -13.7700005       1.54703350E-42
  -13.7650003       1.75162308E-42
  -13.7600002       1.97723213E-42
  -13.7550001       2.21545287E-42
  -13.7500000       2.48870607E-42
  -13.7449999       2.79979433E-42
  -13.7399998       3.12909947E-42
  -13.7349997       3.51585785E-42
  -13.7299995       3.96847725E-42
  -13.7250004       4.47014210E-42
  -13.7200003       5.00824071E-42
  -13.7150002       5.57716789E-42
  -13.7100000       6.22036388E-42
  -13.7049999       6.93082220E-42
  -13.6999998       7.69733246E-42
  -13.6949997       8.54231544E-42
  -13.6899996       9.48959320E-42
  -13.6850004       1.05391658E-41
  -13.6800003       1.17050461E-41
  -13.6750002       1.29956420E-41
  -13.6700001       1.44095521E-41
  -13.6650000       1.59607895E-41
  -13.6599998       1.76507555E-41
  -13.6549997       1.94934629E-41
  -13.6499996       2.15225431E-41
  -13.6450005       2.37492064E-41
  -13.6400003       2.61566371E-41
  -13.6350002       2.87854731E-41
  -13.6300001       3.16777531E-41
  -13.6250000       3.48530954E-41
  -13.6199999       3.82806714E-41
  -13.6149998       4.20053228E-41
  -13.6099997       4.61027195E-41
  -13.6049995       5.05714603E-41
  -13.6000004       5.54199530E-41
  -13.5950003       6.06706183E-41
  -13.5900002       6.63416732E-41
  -13.5850000       7.24975774E-41
  -13.5799999       7.91761658E-41
  -13.5749998       8.64250828E-41
  -13.5699997       9.42681503E-41
  -13.5649996       1.02703967E-40
  -13.5600004       1.11806802E-40
  -13.5550003       1.21625700E-40
  -13.5500002       1.32219517E-40
  -13.5450001       1.43649908E-40
  -13.5400000       1.55942098E-40
  -13.5349998       1.69175961E-40
  -13.5299997       1.83428568E-40
  -13.5249996       1.98725142E-40
  -13.5200005       2.15102117E-40
  -13.5150003       2.32615545E-40
  -13.5100002       2.51366320E-40
  -13.5050001       2.71462341E-40
  -13.5000000       2.92933036E-40
  -13.4949999       3.15826049E-40
  -13.4899998       3.40245076E-40
  -13.4849997       3.66284004E-40
  -13.4799995       3.94036720E-40
  -13.4750004       4.23573289E-40
  -13.4700003       4.54952566E-40
  -13.4650002       4.88303469E-40
  -13.4600000       5.23733900E-40
  -13.4549999       5.61281692E-40
  -13.4499998       6.01070161E-40
  -13.4449997       6.43207206E-40
  -13.4399996       6.87760089E-40
  -13.4350004       7.34808685E-40
  -13.4300003       7.84493123E-40
  -13.4250002       8.36905890E-40
  -13.4200001       8.92077813E-40
  -13.4150000       9.50136411E-40
  -13.4099998       1.01116156E-39
  -13.4049997       1.07525555E-39
  -13.3999996       1.14251227E-39
  -13.3950005       1.21300739E-39
  -13.3900003       1.28679276E-39
  -13.3850002       1.36392724E-39
  -13.3800001       1.44450190E-39
  -13.3750000       1.52856159E-39
  -13.3699999       1.61614554E-39
  -13.3649998       1.70729440E-39
  -13.3599997       1.80203339E-39
  -13.3549995       1.90036531E-39
  -13.3500004       2.00230417E-39
  -13.3450003       2.10784856E-39
  -13.3400002       2.21692564E-39
  -13.3350000       2.32948774E-39
  -13.3299999       2.44544939E-39
  -13.3249998       2.56475314E-39
  -13.3199997       2.68725185E-39
  -13.3149996       2.81280259E-39
  -13.3100004       2.94127783E-39
  -13.3050003       3.07244077E-39
  -13.3000002       3.20603496E-39
  -13.2950001       3.34180957E-39
  -13.2900000       3.47948014E-39
  -13.2849998       3.61869494E-39
  -13.2799997       3.75909103E-39
  -13.2749996       3.90025083E-39
  -13.2700005       4.04167127E-39
  -13.2650003       4.18283668E-39
  -13.2600002       4.32320194E-39
  -13.2550001       4.46214769E-39
  -13.2500000       4.59898028E-39
  -13.2449999       4.73296824E-39
  -13.2399998       4.86327919E-39
  -13.2349997       4.98905273E-39
  -13.2299995       5.10939765E-39
  -13.2250004       5.22331901E-39
  -13.2200003       5.32971960E-39
  -13.2150002       5.42742934E-39
  -13.2100000       5.51524591E-39
  -13.2049999       5.59187592E-39
  -13.1999998       5.65588583E-39
  -13.1949997       5.70585613E-39
  -13.1899996       5.74020056E-39
  -13.1850004       5.75722773E-39
  -13.1800003       5.75525190E-39
  -13.1750002       5.73243596E-39
  -13.1700001       5.68680968E-39
  -13.1650000       5.61639584E-39
  -13.1599998       5.51911349E-39
  -13.1549997       5.39274019E-39
  -13.1499996       5.23494558E-39
  -13.1450005       5.04331942E-39
  -13.1400003       4.81541364E-39
  -13.1350002       4.54866246E-39
  -13.1300001       4.24038100E-39
  -13.1250000       3.88775966E-39
  -13.1199999       3.48798602E-39
  -13.1149998       3.03814259E-39
  -13.1099997       2.53521937E-39
  -13.1049995       1.97613772E-39
  -13.1000004       1.35772789E-39
  -13.0950003       6.76772508E-40
  -13.0900002      -6.99934570E-41
  -13.0850000      -8.85907896E-40
  -13.0799999      -1.77427507E-39
  -13.0749998      -2.73843287E-39
  -13.0699997      -3.78182430E-39
  -13.0649996      -4.90786290E-39
  -13.0600004      -6.11991741E-39
  -13.0550003      -7.42137756E-39
  -13.0500002      -8.81560227E-39
  -13.0450001      -1.03058678E-38
  -13.0400000      -1.18953900E-38
  -13.0349998      -1.35872828E-38
  -13.0299997      -1.53846078E-38
  -13.0249996      -1.72902812E-38
  -13.0200005      -1.93070034E-38
  -13.0150003      -2.14373624E-38
  -13.0100002      -2.36838050E-38
  -13.0050001      -2.60484597E-38
  -13.0000000      -2.85331973E-38
  -12.9949999      -3.11396741E-38
  -12.9899998      -3.38692101E-38
  -12.9849997      -3.67228311E-38
  -12.9799995      -3.97011369E-38
  -12.9750004      -4.28042955E-38
  -12.9700003      -4.60320548E-38
  -12.9650002      -4.93837029E-38
  -12.9600000      -5.28580935E-38
  -12.9549999      -5.64533153E-38
  -12.9499998      -6.01670421E-38
  -12.9449997      -6.39962135E-38
  -12.9399996      -6.79371524E-38
  -12.9350004      -7.19854868E-38
  -12.9300003      -7.61359423E-38
  -12.9250002      -8.03825885E-38
  -12.9200001      -8.47185591E-38
  -12.9150000      -8.91360740E-38
  -12.9099998      -9.36265238E-38
  -12.9049997      -9.81801832E-38
  -12.8999996      -1.02786307E-37
  -12.8950005      -1.07433204E-37
  -12.8900003      -1.12107913E-37
  -12.8850002      -1.16796456E-37
  -12.8800001      -1.21483474E-37
  -12.8750000      -1.26152477E-37
  -12.8699999      -1.30785585E-37
  -12.8649998      -1.35363728E-37
  -12.8599997      -1.39866391E-37
  -12.8549995      -1.44271625E-37
  -12.8500004      -1.48556033E-37
  -12.8450003      -1.52695010E-37
  -12.8400002      -1.56662209E-37
  -12.8350000      -1.60429830E-37
  -12.8299999      -1.63968568E-37
  -12.8249998      -1.67247662E-37
  -12.8199997      -1.70234513E-37
  -12.8149996      -1.72895399E-37
  -12.8100004      -1.75194706E-37
  -12.8050003      -1.77095573E-37
  -12.8000002      -1.78559336E-37
  -12.7950001      -1.79545973E-37
  -12.7900000      -1.80013973E-37
  -12.7849998      -1.79920389E-37
  -12.7799997      -1.79220816E-37
  -12.7749996      -1.77869617E-37
  -12.7700005      -1.75819887E-37
  -12.7650003      -1.73023445E-37
  -12.7600002      -1.69430807E-37
  -12.7550001      -1.64991852E-37
  -12.7500000      -1.59655472E-37
  -12.7449999      -1.53369639E-37
  -12.7399998      -1.46081565E-37
  -12.7349997      -1.37738155E-37
  -12.7299995      -1.28285612E-37
  -12.7250004      -1.17670294E-37
  -12.7200003      -1.05838414E-37
  -12.7150002      -9.27362396E-38
  -12.7100000      -7.83106230E-38
  -12.7049999      -6.25090490E-38
  -12.6999998      -4.52795968E-38
  -12.6949997      -2.65716261E-38
  -12.6899996      -6.33588553E-39
  -12.6850004       1.54751765E-38
  -12.6800003       3.89070547E-38
  -12.6750002       6.40030966E-38
  -12.6700001       9.08037762E-38
  -12.6650000       1.19346808E-37
  -12.6599998       1.49666221E-37
  -12.6549997       1.81792479E-37
  -12.6499996       2.15751871E-37
  -12.6450005       2.51565988E-37
  -12.6400003       2.89251410E-37
  -12.6350002       3.28819169E-37
  -12.6300001       3.70274084E-37
  -12.6250000       4.13615237E-37
  -12.6199999       4.58833905E-37
  -12.6149998       5.05914305E-37
  -12.6099997       5.54832984E-37
  -12.6049995       6.05557343E-37
  -12.6000004       6.58045947E-37
  -12.5950003       7.12248306E-37
  -12.5900002       7.68102853E-37
  -12.5850000       8.25537346E-37
  -12.5799999       8.84468919E-37
  -12.5749998       9.44802508E-37
  -12.5699997       1.00643005E-36
  -12.5649996       1.06923037E-36
  -12.5600004       1.13307021E-36
  -12.5550003       1.19779988E-36
  -12.5500002       1.26325725E-36
  -12.5450001       1.32926500E-36
  -12.5400000       1.39562664E-36
  -12.5349998       1.46213195E-36
  -12.5299997       1.52855323E-36
  -12.5249996       1.59464537E-36
  -12.5200005       1.66014596E-36
  -12.5150003       1.72477375E-36
  -12.5100002       1.78822903E-36
  -12.5050001       1.85019270E-36
  -12.5000000       1.91033078E-36
  -12.4949999       1.96828275E-36
  -12.4899998       2.02366870E-36
  -12.4849997       2.07609493E-36
  -12.4799995       2.12514387E-36
  -12.4750004       2.17037626E-36
  -12.4700003       2.21133436E-36
  -12.4650002       2.24753978E-36
  -12.4600000       2.27849588E-36
  -12.4549999       2.30368553E-36
  -12.4499998       2.32257082E-36
  -12.4449997       2.33459481E-36
  -12.4399996       2.33918138E-36
  -12.4350004       2.33574042E-36
  -12.4300003       2.32366083E-36
  -12.4250002       2.30231571E-36
  -12.4200001       2.27106025E-36
  -12.4150000       2.22924102E-36
  -12.4099998       2.17618934E-36
  -12.4049997       2.11122129E-36
  -12.3999996       2.03364684E-36
  -12.3950005       1.94275840E-36
  -12.3900003       1.83784836E-36
  -12.3850002       1.71820626E-36
  -12.3800001       1.58311033E-36
  -12.3750000       1.43184139E-36
  -12.3699999       1.26368082E-36
  -12.3649998       1.07791645E-36
  -12.3599997       8.73835014E-37
  -12.3549995       6.50740093E-37
  -12.3500004       4.07945157E-37
  -12.3450003       1.44775173E-37
  -12.3400002      -1.39422706E-37
  -12.3350000      -4.45284089E-37
  -12.3299999      -7.73406173E-37
  -12.3249998      -1.12437050E-36
  -12.3199997      -1.49871745E-36
  -12.3149996      -1.89694917E-36
  -12.3100004      -2.31952877E-36
  -12.3050003      -2.76687256E-36
  -12.3000002      -3.23933893E-36
  -12.2950001      -3.73723260E-36
  -12.2900000      -4.26079681E-36
  -12.2849998      -4.81020697E-36
  -12.2799997      -5.38556460E-36
  -12.2749996      -5.98688980E-36
  -12.2700005      -6.61412516E-36
  -12.2650003      -7.26711859E-36
  -12.2600002      -7.94562004E-36
  -12.2550001      -8.64927796E-36
  -12.2500000      -9.37763676E-36
  -12.2449999      -1.01301139E-35
  -12.2399998      -1.09060269E-35
  -12.2349997      -1.17045509E-35
  -12.2299995      -1.25247144E-35
  -12.2250004      -1.33654239E-35
  -12.2200003      -1.42254274E-35
  -12.2150002      -1.51033331E-35
  -12.2100000      -1.59975770E-35
  -12.2049999      -1.69064241E-35
  -12.1999998      -1.78279517E-35
  -12.1949997      -1.87601078E-35
  -12.1899996      -1.97005994E-35
  -12.1850004      -2.06469900E-35
  -12.1800003      -2.15966207E-35
  -12.1750002      -2.25465814E-35
  -12.1700001      -2.34938531E-35
  -12.1650000      -2.44351038E-35
  -12.1599998      -2.53668381E-35
  -12.1549997      -2.62853222E-35
  -12.1499996      -2.71866129E-35
  -12.1450005      -2.80665204E-35
  -12.1400003      -2.89206163E-35
  -12.1350002      -2.97442286E-35
  -12.1300001      -3.05324326E-35
  -12.1250000      -3.12801199E-35
  -12.1199999      -3.19819325E-35
  -12.1149998      -3.26321910E-35
  -12.1099997      -3.32250408E-35
  -12.1049995      -3.37543662E-35
  -12.1000004      -3.42138048E-35
  -12.0950003      -3.45967732E-35
  -12.0900002      -3.48965070E-35
  -12.0850000      -3.51058977E-35
  -12.0799999      -3.52176873E-35
  -12.0749998      -3.52244086E-35
  -12.0699997      -3.51183529E-35
  -12.0649996      -3.48916283E-35
  -12.0600004      -3.45361073E-35
  -12.0550003      -3.40436566E-35
  -12.0500002      -3.34057529E-35
  -12.0450001      -3.26138727E-35
  -12.0400000      -3.16592455E-35
  -12.0349998      -3.05330812E-35
  -12.0299997      -2.92264171E-35
  -12.0249996      -2.77301987E-35
  -12.0200005      -2.60354349E-35
  -12.0150003      -2.41329765E-35
  -12.0100002      -2.20136931E-35
  -12.0050001      -1.96684168E-35
  -12.0000000      -1.70881378E-35
  -11.9949999      -1.42637673E-35
  -11.9899998      -1.11864502E-35
  -11.9849997      -7.84733167E-36
  -11.9799995      -4.23790215E-36
  -11.9750004      -3.49725331E-37
  -11.9700003       3.82546355E-36
  -11.9650002       8.29554342E-36
  -11.9600000       1.30681136E-35
  -11.9549999       1.81503746E-35
  -11.9499998       2.35490462E-35
  -11.9449997       2.92706129E-35
  -11.9399996       3.53208530E-35
  -11.9350004       4.17051821E-35
  -11.9300003       4.84281804E-35
  -11.9250002       5.54939346E-35
  -11.9200001       6.29058053E-35
  -11.9150000       7.06664041E-35
  -11.9099998       7.87774988E-35
  -11.9049997       8.72399274E-35
  -11.8999996       9.60536440E-35
  -11.8950005       1.05217604E-34
  -11.8900003       1.14729695E-34
  -11.8850002       1.24586583E-34
  -11.8800001       1.34784007E-34
  -11.8750000       1.45316265E-34
  -11.8699999       1.56176260E-34
  -11.8649998       1.67355705E-34
  -11.8599997       1.78844784E-34
  -11.8549995       1.90632192E-34
  -11.8500004       2.02704932E-34
  -11.8450003       2.15048472E-34
  -11.8400002       2.27646626E-34
  -11.8350000       2.40481372E-34
  -11.8299999       2.53532940E-34
  -11.8249998       2.66779637E-34
  -11.8199997       2.80197813E-34
  -11.8149996       2.93761617E-34
  -11.8100004       3.07443568E-34
  -11.8050003       3.21213796E-34
  -11.8000002       3.35040341E-34
  -11.7950001       3.48888468E-34
  -11.7900000       3.62722016E-34
  -11.7849998       3.76502461E-34
  -11.7799997       3.90188268E-34
  -11.7749996       4.03736392E-34
  -11.7700005       4.17100431E-34
  -11.7650003       4.30232448E-34
  -11.7600002       4.43081657E-34
  -11.7550001       4.55594840E-34
  -11.7500000       4.67716024E-34
  -11.7449999       4.79387351E-34
  -11.7399998       4.90548349E-34
  -11.7349997       5.01135833E-34
  -11.7299995       5.11084189E-34
  -11.7250004       5.20324906E-34
  -11.7200003       5.28788236E-34