  -16.0000000       0.00000000    
  -15.9949999       0.00000000    
  -15.9899998       0.00000000    
  -15.9849997       0.00000000    
  -15.9799995       0.00000000    
  -15.9750004       0.00000000    
  -15.9700003       0.00000000    
  -15.9650002       0.00000000    
  -15.9600000       0.00000000    
  -15.9549999       0.00000000    
  -15.9499998      -0.00000000    
  -15.9449997      -0.00000000    
  -15.9399996      -0.00000000    
  -15.9350004      -0.00000000    
  -15.9300003      -1.40129846E-45
  -15.9250002      -5.60519386E-45
  -15.9200001      -2.94272678E-44
  -15.9150000      -1.56945428E-43
  -15.9099998      -7.65108962E-43
  -15.9049997      -3.11508649E-42
  -15.8999996      -9.42233087E-42
  -15.8950005      -1.45398729E-41
  -15.8900003       4.38368199E-41
  -15.8850002       4.74607178E-40
  -15.8800001       2.38220178E-39
  -15.8750000       8.93557304E-39
  -15.8699999       2.76872166E-38
  -15.8649998       7.35986841E-38
  -15.8599997       1.70283659E-37
  -15.8549995       3.42288853E-37
  -15.8500004       5.83171364E-37
  -15.8450003       7.73199453E-37
  -15.8400002       5.10682486E-37
  -15.8350000      -1.17658301E-36
  -15.8299999      -6.23412710E-36
  -15.8249998      -1.79745785E-35
  -15.8199997      -4.10874822E-35
  -15.8149996      -8.04754051E-35
  -15.8100004      -1.37646543E-34
  -15.8050003      -2.03217099E-34
  -15.8000002      -2.45042565E-34
  -15.7950001      -1.94778587E-34
  -15.7900000       5.77488921E-35
  -15.7849998       6.43909540E-34
  -15.7799997       1.64402840E-33
  -15.7749996       2.94395452E-33
  -15.7700005       4.03391531E-33
  -15.7650003       3.83506979E-33
  -15.7600002       7.42025758E-34
  -15.7550001      -6.84401684E-33
  -15.7500000      -1.92472506E-32
  -15.7449999      -3.35505190E-32
  -15.7399998      -4.15923520E-32
  -15.7349997      -2.94852099E-32
  -15.7299995       1.90196617E-32
  -15.7250004       1.13141049E-31
  -15.7200003       2.39520798E-31
  -15.7150002       3.44991981E-31
  -15.7100000       3.28672053E-31
  -15.7049999       6.00662391E-32
  -15.6999998      -5.60591422E-31
  -15.6949997      -1.49650493E-30
  -15.6899996      -2.44916242E-30
  -15.6850004      -2.78193189E-30
  -15.6800003      -1.59779681E-30
  -15.6750002       1.92174556E-30
  -15.6700001       7.88075562E-30
  -15.6650000       1.48665632E-29
  -15.6599998       1.93533962E-29
  -15.6549997       1.59094212E-29
  -15.6499996      -1.15101774E-30
  -15.6450005      -3.43626918E-29
  -15.6400003      -7.84861170E-29
  -15.6350002      -1.16466208E-28
  -15.6300001      -1.19033557E-28
  -15.6250000      -5.14783380E-29
  -15.6199999       1.10182151E-28
  -15.6149998       3.55203689E-28
  -15.6099997       6.13881214E-28
  -15.6049995       7.47220518E-28
  -15.6000004       5.68225986E-28
  -15.5950003      -9.13377512E-29
  -15.5900002      -1.26980336E-27
  -15.5850000      -2.74723834E-27
  -15.5799999      -3.95800482E-27
  -15.5749998      -4.02463121E-27
  -15.5699997      -1.98799824E-27
  -15.5649996       2.74161251E-27
  -15.5600004       9.78870765E-27
  -15.5550003       1.72809780E-26
  -15.5500002       2.17076017E-26
  -15.5450001       1.85211460E-26
  -15.5400000       3.70021871E-27
  -15.5349998      -2.38520137E-26
  -15.5299997      -5.97074275E-26
  -15.5249996      -9.22728074E-26
  -15.5200005      -1.03565049E-25
  -15.5150003      -7.36175905E-26
  -15.5100002       1.12583917E-26
  -15.5050001       1.47859860E-25
  -15.5000000       3.06707123E-25
  -15.4949999       4.29105179E-25
  -15.4899998       4.36019693E-25
  -15.4849997       2.51834328E-25
  -15.4799995      -1.59045033E-25
  -15.4750004      -7.51920225E-25
  -15.4700003      -1.37408565E-24
  -15.4650002      -1.76952387E-24
  -15.4600000      -1.63250712E-24
  -15.4549999      -7.13900680E-25
  -15.4499998       1.03746726E-24
  -15.4449997       3.34129767E-24
  -15.4399996       5.52305107E-24
  -15.4350004       6.58774074E-24
  -15.4300003       5.47183112E-24
  -15.4250002       1.45968367E-24
  -15.4200001      -5.32687635E-24
  -15.4150000      -1.35359586E-23
  -15.4099998      -2.05064045E-23
  -15.4049997      -2.26962745E-23
  -15.3999996      -1.66984783E-23
  -15.3950005      -7.18035050E-25
  -15.3900003       2.38680516E-23
  -15.3850002       5.14675542E-23
  -15.3800001       7.24264304E-23
  -15.3750000       7.49013900E-23
  -15.3699999       4.85307418E-23
  -15.3649998      -1.07006173E-23
  -15.3599997      -9.57648614E-23
  -15.3549995      -1.85996627E-22
  -15.3500004      -2.48601096E-22
  -15.3450003      -2.45585400E-22
  -15.3400002      -1.45937235E-22
  -15.3350000       5.92195862E-23
  -15.3299999       3.42904936E-22
  -15.3249998       6.35820577E-22
  -15.3199997       8.32790234E-22
  -15.3149996       8.15389755E-22
  -15.3100004       4.89492912E-22
  -15.3050003      -1.69548827E-22
  -15.3000002      -1.07720272E-21
  -15.2950001      -2.02212177E-21
  -15.2900000      -2.68611637E-21
  -15.2849998      -2.71025768E-21
  -15.2799997      -1.80286014E-21
  -15.2749996       1.31219413E-22
  -15.2700005       2.87600804E-21
  -15.2650003       5.84960561E-21
  -15.2600002       8.15122436E-21
  -15.2550001       8.73382123E-21
  -15.2500000       6.69294250E-21
  -15.2449999       1.62033040E-21
  -15.2399998      -6.06950358E-21
  -15.2349997      -1.49561525E-20
  -15.2299995      -2.26854558E-20
  -15.2250004      -2.63664580E-20
  -15.2200003      -2.32835348E-20
  -15.2150002      -1.18106641E-20
  -15.2100000       7.68744584E-21
  -15.2049999       3.22519950E-20
  -15.1999998       5.63125368E-20
  -15.1949997       7.24591088E-20
  -15.1899996       7.30339218E-20
  -15.1850004       5.23338077E-20
  -15.1800003       8.96397697E-21
  -15.1750002      -5.23077548E-20
  -15.1700001      -1.19903242E-19
  -15.1650000      -1.76564468E-19
  -15.1599998      -2.02488644E-19
  -15.1549997      -1.80180940E-19
  -15.1499996      -1.00155959E-19
  -15.1450005       3.38837542E-20
  -15.1400003       2.02016040E-19
  -15.1350002       3.68703092E-19
  -15.1300001       4.87923600E-19
  -15.1250000       5.12710790E-19
  -15.1199999       4.07715592E-19
  -15.1149998       1.62188947E-19
  -15.1099997      -2.00046665E-19
  -15.1049995      -6.17183753E-19
  -15.1000004      -9.95281808E-19
  -15.0950003      -1.22430661E-18
  -15.0900002      -1.20277396E-18
  -15.0850000      -8.66698339E-19
  -15.0799999      -2.16295103E-19
  -15.0749998       6.67182996E-19
  -15.0699997       1.62139384E-18
  -15.0649996       2.42385509E-18
  -15.0600004       2.83363457E-18
  -15.0550003       2.64805909E-18
  -15.0500002       1.76343140E-18
  -15.0450001       2.25129973E-19
  -15.0400000      -1.74820921E-18
  -15.0349998      -3.77856724E-18
  -15.0299997      -5.38562573E-18
  -15.0249996      -6.08232605E-18
  -15.0200005      -5.49334657E-18
  -15.0150003      -3.47174031E-18
  -15.0100002      -1.84159976E-19
  -15.0050001       3.86318658E-18
  -15.0000000       7.87658750E-18
  -14.9949999       1.09078380E-17
  -14.9899998       1.20514549E-17
  -14.9849997       1.06700409E-17
  -14.9799995       6.59767446E-18
  -14.9750004       2.67178252E-19
  -14.9700003      -7.28396222E-18
  -14.9650002      -1.45524396E-17
  -14.9600000      -1.98442035E-17
  -14.9549999      -2.16418506E-17
  -14.9499998      -1.89900204E-17
  -14.9449997      -1.18072133E-17
  -14.9399996      -1.03591571E-18
  -14.9350004       1.14310380E-17
  -14.9300003       2.30635971E-17
  -14.9250002       3.12051041E-17
  -14.9200001       3.36820435E-17
  -14.9150000       2.93749438E-17
  -14.9099998       1.86019685E-17
  -14.9049997       3.19376151E-18
  -14.8999996      -1.37994588E-17
  -14.8950005      -2.87398411E-17
  -14.8900003      -3.82509425E-17
  -14.8850002      -4.00871842E-17
  -14.8800001      -3.37942720E-17
  -14.8750000      -2.09555306E-17
  -14.8699999      -4.90347290E-18
  -14.8649998       1.00924406E-17
  -14.8599997       2.00020792E-17
  -14.8549995       2.22862690E-17
  -14.8500004       1.68660373E-17
  -14.8450003       6.47345261E-18
  -14.8400002      -3.83114160E-18
  -14.8350000      -7.98526663E-18
  -14.8299999      -8.56592105E-19
  -14.8249998       1.96820530E-17
  -14.8199997       5.11376124E-17
  -14.8149996       8.58381667E-17
  -14.8100004       1.11850648E-16
  -14.8050003       1.15463429E-16
  -14.8000002       8.48947837E-17
  -14.7950001       1.44660820E-17
  -14.7900000      -9.18227986E-17
  -14.7849998      -2.18456388E-16
  -14.7799997      -3.39229734E-16
  -14.7749996      -4.21157407E-16
  -14.7700005      -4.31164969E-16
  -14.7650003      -3.44476150E-16
  -14.7600002      -1.52944848E-16
  -14.7550001       1.28768132E-16
  -14.7500000       4.61159571E-16
  -14.7449999       7.83347505E-16
  -14.7399998       1.02232049E-15
  -14.7349997       1.10691631E-15
  -14.7299995       9.84167687E-16
  -14.7250004       6.34675699E-16
  -14.7200003       8.33342446E-17
  -14.7150002      -5.97807214E-16
  -14.7100000      -1.29648557E-15
  -14.7049999      -1.87699494E-15
  -14.6999998      -2.20462114E-15
  -14.6949997      -2.17357654E-15
  -14.6899996      -1.73292872E-15
  -14.6850004      -9.04724785E-16
  -14.6800003       2.10526174E-16
  -14.6750002       1.44373155E-15
  -14.6700001       2.58220704E-15
  -14.6650000       3.40631314E-15
  -14.6599998       3.73144271E-15
  -14.6549997       3.44729259E-15
  -14.6499996       2.54615584E-15
  -14.6450005       1.13347387E-15
  -14.6400003      -5.83029718E-16
  -14.6350002      -2.32519078E-15
  -14.6300001      -3.79242273E-15
  -14.6250000      -4.71739584E-15
  -14.6199999      -4.91868263E-15
  -14.6149998      -4.33950183E-15
  -14.6099997      -3.06386217E-15
  -14.6049995      -1.30548053E-15
  -14.6000004       6.29794619E-16
  -14.5950003       2.40177653E-15
  -14.5900002       3.70304297E-15
  -14.5850000       4.32183188E-15
  -14.5799999       4.18726460E-15
  -14.5749998       3.38633417E-15
  -14.5699997       2.14743964E-15
  -14.5649996       7.92104872E-16
  -14.5600004      -3.36515549E-16
  -14.5550003      -9.54087853E-16
  -14.5500002      -9.07217073E-16
  -14.5450001      -2.20432887E-16
  -14.5400000       8.94619152E-16
  -14.5349998       2.07320652E-15
  -14.5299997       2.87113019E-15
  -14.5249996       2.86524522E-15
  -14.5200005       1.76105762E-15
  -14.5150003      -5.15975943E-16
  -14.5100002      -3.76752632E-15
  -14.5050001      -7.52383961E-15
  -14.5000000      -1.11052838E-14
  -14.4949999      -1.37372354E-14
  -14.4899998      -1.46993081E-14
  -14.4849997      -1.34804819E-14
  -14.4799995      -9.90762665E-15
  -14.4750004      -4.21727413E-15
  -14.4700003       2.95006520E-15
  -14.4650002       1.06391311E-14
  -14.4600000       1.77411508E-14
  -14.4549999       2.31987620E-14
  -14.4499998       2.62139740E-14
  -14.4449997       2.64140652E-14
  -14.4399996       2.39350589E-14
  -14.4350004       1.93969512E-14
  -14.4300003       1.37664860E-14
  -14.4250002       8.12818661E-15
  -14.4200001       3.40745473E-15
  -14.4150000       1.05377192E-16
  -14.4099998      -1.89066457E-15
  -14.4049997      -3.36582433E-15
  -14.3999996      -5.67374559E-15
  -14.3950005      -1.04692874E-14
  -14.3900003      -1.93136489E-14
  -14.3850002      -3.32195480E-14
  -14.3800001      -5.22254257E-14
  -14.3750000      -7.50926692E-14
  -14.3699999      -9.92053052E-14
  -14.3649998      -1.20720193E-13
  -14.3599997      -1.34971312E-13
  -14.3549995      -1.37083026E-13
  -14.3500004      -1.22704906E-13
  -14.3450003      -8.87519970E-14
  -14.3400002      -3.40289693E-14
  -14.3350000       4.03670424E-14
  -14.3299999       1.30930436E-13
  -14.3249998       2.31931716E-13
  -14.3199997       3.35859595E-13
  -14.3149996       4.34032747E-13
  -14.3100004       5.17265701E-13
  -14.3050003       5.76473873E-13
  -14.3000002       6.03131585E-13
  -14.2950001       5.89547454E-13
  -14.2900000       5.28984246E-13
  -14.2849998       4.15709920E-13
  -14.2799997       2.45111657E-13
  -14.2749996       1.40107720E-14
  -14.2700005      -2.78702381E-13
  -14.2650003      -6.31062368E-13
  -14.2600002      -1.03669211E-12
  -14.2550001      -1.48327921E-12
  -14.2500000      -1.95110941E-12
  -14.2449999      -2.41197795E-12
  -14.2399998      -2.82883330E-12
  -14.2349997      -3.15647573E-12
  -14.2299995      -3.34358409E-12
  -14.2250004      -3.33620154E-12
  -14.2200003      -3.08268276E-12
  -14.2150002      -2.53993441E-12
  -14.2100000      -1.68066602E-12
  -14.2049999      -5.01238103E-13
  -14.1999998       9.70356499E-13
  -14.1949997       2.66683008E-12
  -14.1899996       4.47469492E-12
  -14.1850004       6.22846436E-12
  -14.1800003       7.70621154E-12
  -14.1750002       8.62669311E-12
  -14.1700001       8.64809613E-12
  -14.1650000       7.36856236E-12
  -14.1599998       4.32852148E-12
  -14.1549997      -9.85009708E-13
  -14.1499996      -9.13205709E-12
  -14.1450005      -2.07109573E-11
  -14.1400003      -3.63470504E-11
  -14.1350002      -5.66787277E-11
  -14.1300001      -8.23405649E-11
  -14.1250000      -1.13943570E-10
  -14.1199999      -1.52052759E-10
  -14.1149998      -1.97162620E-10
  -14.1099997      -2.49670812E-10
  -14.1049995      -3.09850728E-10
  -14.1000004      -3.77824577E-10
  -14.0950003      -4.53536569E-10
  -14.0900002      -5.36728995E-10
  -14.0850000      -6.26919849E-10
  -14.0799999      -7.23385185E-10
  -14.0749998      -8.25143343E-10
  -14.0699997      -9.30946209E-10
  -14.0649996      -1.03927178E-09
  -14.0600004      -1.14832388E-09
  -14.0550003      -1.25603550E-09
  -14.0500002      -1.36007650E-09
  -14.0450001      -1.45786661E-09
  -14.0400000      -1.54659352E-09
  -14.0349998      -1.62323599E-09
  -14.0299997      -1.68459124E-09
  -14.0249996      -1.72730974E-09
  -14.0200005      -1.74793391E-09
  -14.0150003      -1.74294157E-09
  -14.0100002      -1.70879400E-09
  -14.0050001      -1.64198855E-09
  -14.0000000      -1.53911206E-09
  -13.9949999      -1.39689815E-09
  -13.9899998      -1.21228338E-09
  -13.9849997      -9.82464887E-10
  -13.9799995      -7.04955427E-10
  -13.9750004      -3.77638365E-10
  -13.9700003       1.17877973E-12
  -13.9650002       4.32713254E-10
  -13.9600000       9.17657506E-10
  -13.9549999       1.45613022E-09
  -13.9499998       2.04762940E-09
  -13.9449997       2.69098899E-09
  -13.9399996       3.38433459E-09
  -13.9350004       4.12504564E-09
  -13.9300003       4.90972196E-09
  -13.9250002       5.73415404E-09
  -13.9200001       6.59330146E-09
  -13.9150000       7.48128137E-09
  -13.9099998       8.39136316E-09
  -13.9049997       9.31597732E-09
  -13.8999996       1.02467288E-08
  -13.8950005       1.11744294E-08
  -13.8900003       1.20891226E-08
  -13.8850002       1.29801494E-08
  -13.8800001       1.38361793E-08
  -13.8750000       1.46452823E-08
  -13.8699999       1.53949919E-08
  -13.8649998       1.60723754E-08
  -13.8599997       1.66641154E-08
  -13.8549995       1.71565890E-08
  -13.8500004       1.75359620E-08
  -13.8450003       1.77882811E-08
  -13.8400002       1.78995929E-08
  -13.8350000       1.78560366E-08
  -13.8299999       1.76439983E-08
  -13.8249998       1.72502173E-08
  -13.8199997       1.66619429E-08
  -13.8149996       1.58670677E-08
  -13.8100004       1.48542929E-08
  -13.8050003       1.36132714E-08
  -13.8000002       1.21347670E-08
  -13.7950001       1.04108020E-08
  -13.7900000       8.43481818E-09
  -13.7849998       6.20182439E-09
  -13.7799997       3.70854192E-09
  -13.7749996       9.53547241E-10
  -13.7700005      -2.06259010E-09
  -13.7650003      -5.33717337E-09
  -13.7600002      -8.86525253E-09
  -13.7550001      -1.26395037E-08
  -13.7500000      -1.66501337E-08
  -13.7449999      -2.08847641E-08
  -13.7399998      -2.53283670E-08
  -13.7349997      -2.99631857E-08
  -13.7299995      -3.47686999E-08
  -13.7250004      -3.97215913E-08
  -13.7200003      -4.47957227E-08
  -13.7150002      -4.99621962E-08
  -13.7100000      -5.51893322E-08
  -13.7049999      -6.04427655E-08
  -13.6999998      -6.56855406E-08
  -13.6949997      -7.08781727E-08
  -13.6899996      -7.59787895E-08
  -13.6850004      -8.09433587E-08
  -13.6800003      -8.57257305E-08
  -13.6750002      -9.02779576E-08
  -13.6700001      -9.45504439E-08
  -13.6650000      -9.84922650E-08
  -13.6599998      -1.02051338E-07
  -13.6549997      -1.05174855E-07
  -13.6499996      -1.07809491E-07
  -13.6450005      -1.09901762E-07
  -13.6400003      -1.11398478E-07
  -13.6350002      -1.12246994E-07
  -13.6300001      -1.12395689E-07
  -13.6250000      -1.11794336E-07
  -13.6199999      -1.10394545E-07
  -13.6149998      -1.08150189E-07
  -13.6099997      -1.05017797E-07
  -13.6049995      -1.00957038E-07
  -13.6000004      -9.59311279E-08
  -13.5950003      -8.99072745E-08
  -13.5900002      -8.28570847E-08
  -13.5850000      -7.47570610E-08
  -13.5799999      -6.55889636E-08
  -13.5749998      -5.53402266E-08
  -13.5699997      -4.40043877E-08
  -13.5649996      -3.15814503E-08
  -13.5600004      -1.80782838E-08
  -13.5550003      -3.50893670E-09
  -13.5500002       1.21050308E-08
  -13.5450001       2.87342807E-08
  -13.5400000       4.63414089E-08
  -13.5349998       6.48807799E-08
  -13.5299997       8.42983710E-08
  -13.5249996       1.04531637E-07
  -13.5200005       1.25509430E-07
  -13.5150003       1.47152051E-07
  -13.5100002       1.69371191E-07
  -13.5050001       1.92070090E-07
  -13.5000000       2.15143686E-07
  -13.4949999       2.38478691E-07
  -13.4899998       2.61954028E-07
  -13.4849997       2.85440990E-07
  -13.4799995       3.08803607E-07
  -13.4750004       3.31899173E-07
  -13.4700003       3.54578731E-07
  -13.4650002       3.76687467E-07
  -13.4600000       3.98065509E-07
  -13.4549999       4.18548638E-07
  -13.4499998       4.37968680E-07
  -13.4449997       4.56154680E-07
  -13.4399996       4.72933607E-07
  -13.4350004       4.88131150E-07
  -13.4300003       5.01572856E-07
  -13.4250002       5.13084842E-07
  -13.4200001       5.22495100E-07
  -13.4150000       5.29634519E-07
  -13.4099998       5.34337630E-07
  -13.4049997       5.36444475E-07
  -13.3999996       5.35800837E-07
  -13.3950005       5.32260231E-07
  -13.3900003       5.25684470E-07
  -13.3850002       5.15944805E-07
  -13.3800001       5.02923569E-07
  -13.3750000       4.86514750E-07
  -13.3699999       4.66625238E-07
  -13.3649998       4.43175736E-07
  -13.3599997       4.16102097E-07
  -13.3549995       3.85356145E-07
  -13.3500004       3.50906362E-07
  -13.3450003       3.12739303E-07
  -13.3400002       2.70860028E-07
  -13.3350000       2.25293007E-07
  -13.3299999       1.76082906E-07
  -13.3249998       1.23295010E-07
  -13.3199997       6.70158116E-08
  -13.3149996       7.35345296E-09
  -13.3100004      -5.55619302E-08
  -13.3050003      -1.21578154E-07
  -13.3000002      -1.90520851E-07
  -13.2950001      -2.62193396E-07
  -13.2900000      -3.36377013E-07
  -13.2849998      -4.12831270E-07
  -13.2799997      -4.91293861E-07
  -13.2749996      -5.71481507E-07
  -13.2700005      -6.53090353E-07
  -13.2650003      -7.35796561E-07
  -13.2600002      -8.19256968E-07
  -13.2550001      -9.03110276E-07
  -13.2500000      -9.86978080E-07
  -13.2449999      -1.07046549E-06
  -13.2399998      -1.15316323E-06
  -13.2349997      -1.23464872E-06
  -13.2299995      -1.31448758E-06
  -13.2250004      -1.39223505E-06
  -13.2200003      -1.46743844E-06
  -13.2150002      -1.53963822E-06
  -13.2100000      -1.60837044E-06
  -13.2049999      -1.67316864E-06
  -13.1999998      -1.73356545E-06
  -13.1949997      -1.78909602E-06
  -13.1899996      -1.83929853E-06
  -13.1850004      -1.88371848E-06
  -13.1800003      -1.92190873E-06
  -13.1750002      -1.95343364E-06
  -13.1700001      -1.97787108E-06
  -13.1650000      -1.99481383E-06
  -13.1599998      -2.00387331E-06
  -13.1549997      -2.00468116E-06
  -13.1499996      -1.99689202E-06
  -13.1450005      -1.98018438E-06
  -13.1400003      -1.95426628E-06
  -13.1350002      -1.91887352E-06
  -13.1300001      -1.87377350E-06
  -13.1250000      -1.81876817E-06
  -13.1199999      -1.75369485E-06
  -13.1149998      -1.67842802E-06
  -13.1099997      -1.59288220E-06
  -13.1049995      -1.49701179E-06
  -13.1000004      -1.39081476E-06
  -13.0950003      -1.27433168E-06
  -13.0900002      -1.14764930E-06
  -13.0850000      -1.01089927E-06
  -13.0799999      -8.64261324E-07
  -13.0749998      -7.07961703E-07
  -13.0699997      -5.42275529E-07
  -13.0649996      -3.67526013E-07
  -13.0600004      -1.84084911E-07
  -13.0550003       7.62695951E-09
  -13.0500002       2.07141241E-07
  -13.0450001       4.13941592E-07
  -13.0400000       6.27464146E-07
  -13.0349998       8.47099670E-07
  -13.0299997       1.07219296E-06
  -13.0249996       1.30204603E-06
  -13.0200005       1.53591827E-06
  -13.0150003       1.77302888E-06
  -13.0100002       2.01255898E-06
  -13.0050001       2.25365307E-06
  -13.0000000       2.49542245E-06
  -12.9949999       2.73694718E-06
  -12.9899998       2.97727911E-06
  -12.9849997       3.21544417E-06
  -12.9799995       3.45044782E-06
  -12.9750004       3.68127530E-06
  -12.9700003       3.90689729E-06
  -12.9650002       4.12627378E-06
  -12.9600000       4.33835567E-06
  -12.9549999       4.54209157E-06
  -12.9499998       4.73643013E-06
  -12.9449997       4.92032495E-06
  -12.9399996       5.09273877E-06
  -12.9350004       5.25264750E-06
  -12.9300003       5.39904613E-06
  -12.9250002       5.53094969E-06
  -12.9200001       5.64740321E-06
  -12.9150000       5.74747946E-06
  -12.9099998       5.83029214E-06
  -12.9049997       5.89499177E-06
  -12.8999996       5.94077255E-06
  -12.8950005       5.96688187E-06
  -12.8900003       5.97261806E-06
  -12.8850002       5.95733718E-06
  -12.8800001       5.92045944E-06
  -12.8750000       5.86146734E-06
  -12.8699999       5.77991295E-06
  -12.8649998       5.67542384E-06
  -12.8599997       5.54770031E-06
  -12.8549995       5.39652501E-06
  -12.8500004       5.22175742E-06
  -12.8450003       5.02334342E-06
  -12.8400002       4.80131575E-06
  -12.8350000       4.55579311E-06
  -12.8299999       4.28698149E-06
  -12.8249998       3.99518058E-06
  -12.8199997       3.68077849E-06
  -12.8149996       3.34425408E-06
  -12.8100004       2.98617783E-06
  -12.8050003       2.60721072E-06
  -12.8000002       2.20810330E-06
  -12.7950001       1.78969481E-06
  -12.7900000       1.35291111E-06
  -12.7849998       8.98762949E-07
  -12.7799997       4.28345345E-07
  -12.7749996      -5.71701122E-08
  -12.7700005      -5.56531745E-07
  -12.7650003      -1.06841583E-06
  -12.7600002      -1.59142940E-06
  -12.7550001      -2.12411396E-06
  -12.7500000      -2.66495044E-06
  -12.7449999      -3.21236212E-06
  -12.7399998      -3.76472281E-06
  -12.7349997      -4.32035904E-06
  -12.7299995      -4.87755824E-06
  -12.7250004      -5.43457190E-06
  -12.7200003      -5.98962424E-06
  -12.7150002      -6.54091536E-06
  -12.7100000      -7.08663219E-06
  -12.7049999      -7.62494710E-06
  -12.6999998      -8.15403291E-06
  -12.6949997      -8.67206563E-06
  -12.6899996      -9.17722991E-06
  -12.6850004      -9.66772404E-06
  -12.6800003      -1.01417772E-05
  -12.6750002      -1.05976396E-05
  -12.6700001      -1.10336023E-05
  -12.6650000      -1.14479944E-05
  -12.6599998      -1.18392018E-05
  -12.6549997      -1.22056545E-05
  -12.6499996      -1.25458510E-05
  -12.6450005      -1.28583497E-05
  -12.6400003      -1.31417910E-05
  -12.6350002      -1.33948788E-05
  -12.6300001      -1.36164108E-05
  -12.6250000      -1.38052656E-05
  -12.6199999      -1.39604108E-05
  -12.6149998      -1.40809179E-05
  -12.6099997      -1.41659511E-05
  -12.6049995      -1.42147765E-05
  -12.6000004      -1.42267700E-05
  -12.5950003      -1.42014151E-05
  -12.5900002      -1.41383052E-05
  -12.5850000      -1.40371440E-05
  -12.5799999      -1.38977548E-05
  -12.5749998      -1.37200723E-05
  -12.5699997      -1.35041491E-05
  -12.5649996      -1.32501582E-05
  -12.5600004      -1.29583832E-05
  -12.5550003      -1.26292271E-05
  -12.5500002      -1.22632082E-05
  -12.5450001      -1.18609623E-05
  -12.5400000      -1.14232307E-05
  -12.5349998      -1.09508774E-05
  -12.5299997      -1.04448636E-05
  -12.5249996      -9.90626359E-06
  -12.5200005      -9.33625051E-06
  -12.5150003      -8.73610225E-06
  -12.5100002      -8.10718302E-06
  -12.5050001      -7.45096168E-06
  -12.5000000      -6.76898662E-06
  -12.4949999      -6.06289132E-06
  -12.4899998      -5.33438515E-06
  -12.4849997      -4.58525528E-06
  -12.4799995      -3.81735208E-06
  -12.4750004      -3.03259026E-06
  -12.4700003      -2.23294114E-06
  -12.4650002      -1.42042359E-06
  -12.4600000      -5.97103508E-07
  -12.4549999       2.34915234E-07
  -12.4499998       1.07350047E-06
  -12.4449997       1.91649247E-06
  -12.4399996       2.76171590E-06
  -12.4350004       3.60698209E-06
  -12.4300003       4.45009846E-06
  -12.4250002       5.28887722E-06
  -12.4200001       6.12113627E-06
  -12.4150000       6.94471009E-06
  -12.4099998       7.75745866E-06
  -12.4049997       8.55727012E-06
  -12.3999996       9.34206673E-06
  -12.3950005       1.01098185E-05
  -12.3900003       1.08585364E-05
  -12.3850002       1.15862977E-05
  -12.3800001       1.22912297E-05
  -12.3750000       1.29715363E-05
  -12.3699999       1.36254876E-05
  -12.3649998       1.42514309E-05
  -12.3599997       1.48478039E-05
  -12.3549995       1.54131285E-05
  -12.3500004       1.59460178E-05
  -12.3450003       1.64451867E-05
  -12.3400002       1.69094437E-05
  -12.3350000       1.73377066E-05
  -12.3299999       1.77289985E-05
  -12.3249998       1.80824482E-05
  -12.3199997       1.83973061E-05
  -12.3149996       1.86729321E-05
  -12.3100004       1.89087932E-05
  -12.3050003       1.91044837E-05
  -12.3000002       1.92597108E-05
  -12.2950001       1.93743035E-05
  -12.2900000       1.94482000E-05
  -12.2849998       1.94814620E-05
  -12.2799997       1.94742643E-05
  -12.2749996       1.94268978E-05
  -12.2700005       1.93397555E-05
  -12.2650003       1.92133521E-05
  -12.2600002       1.90483024E-05
  -12.2550001       1.88453287E-05
  -12.2500000       1.86052384E-05
  -12.2449999       1.83289558E-05
  -12.2399998       1.80174793E-05
  -12.2349997       1.76719004E-05
  -12.2299995       1.72933906E-05
  -12.2250004       1.68831903E-05
  -12.2200003       1.64426165E-05
  -12.2150002       1.59730498E-05
  -12.2100000       1.54759200E-05
  -12.2049999       1.49527086E-05
  -12.1999998       1.44049518E-05
  -12.1949997       1.38342084E-05
  -12.1899996       1.32420791E-05
  -12.1850004       1.26301829E-05
  -12.1800003       1.20001459E-05
  -12.1750002       1.13536171E-05
  -12.1700001       1.06922471E-05
  -12.1650000       1.00176603E-05
  -12.1599998       9.33149204E-06
  -12.1549997       8.63535206E-06
  -12.1499996       7.93081563E-06
  -12.1450005       7.21943752E-06
  -12.1400003       6.50273341E-06
  -12.1350002       5.78216896E-06
  -12.1300001       5.05917023E-06
  -12.1250000       4.33510468E-06
  -12.1199999       3.61127104E-06
  -12.1149998       2.88891465E-06
  -12.1099997       2.16921399E-06
  -12.1049995       1.45327374E-06
  -12.1000004       7.42121642E-07
  -12.0950003       3.66988004E-08
  -12.0900002      -6.62116008E-07
  -12.0850000      -1.35353150E-06
  -12.0799999      -2.03683749E-06
  -12.0749998      -2.71140493E-06
  -12.0699997      -3.37669803E-06
  -12.0649996      -4.03225204E-06
  -12.0600004      -4.67768405E-06
  -12.0550003      -5.31269689E-06
  -12.0500002      -5.93707955E-06
  -12.0450001      -6.55069289E-06
  -12.0400000      -7.15346368E-06
  -12.0349998      -7.74537966E-06
  -12.0299997      -8.32650949E-06
  -12.0249996      -8.89698549E-06
  -12.0200005      -9.45698139E-06
  -12.0150003      -1.00067364E-05
  -12.0100002      -1.05465106E-05
  -12.0050001      -1.10766305E-05
  -12.0000000      -1.15974317E-05
  -11.9949999      -1.21092926E-05
  -11.9899998      -1.26126015E-05
  -11.9849997      -1.31077604E-05
  -11.9799995      -1.35951814E-05
  -11.9750004      -1.40752600E-05
  -11.9700003      -1.45483991E-05
  -11.9650002      -1.50149544E-05
  -11.9600000      -1.54752870E-05
  -11.9549999      -1.59296960E-05
  -11.9499998      -1.63784680E-05
  -11.9449997      -1.68217939E-05
  -11.9399996      -1.72598466E-05
  -11.9350004      -1.76927260E-05
  -11.9300003      -1.81204596E-05
  -11.9250002      -1.85429762E-05
  -11.9200001      -1.89601633E-05
  -11.9150000      -1.93717588E-05
  -11.9099998      -1.97774534E-05
  -11.9049997      -2.01768053E-05
  -11.8999996      -2.05692868E-05
  -11.8950005      -2.09542359E-05
  -11.8900003      -2.13308849E-05
  -11.8850002      -2.16983208E-05
  -11.8800001      -2.20555412E-05
  -11.8750000      -2.24013802E-05
  -11.8699999      -2.27345718E-05
  -11.8649998      -2.30536898E-05
  -11.8599997      -2.33572136E-05
  -11.8549995      -2.36434425E-05
  -11.8500004      -2.39105702E-05
  -11.8450003      -2.41566649E-05
  -11.8400002      -2.43796239E-05
  -11.8350000      -2.45772735E-05
  -11.8299999      -2.47472308E-05
  -11.8249998      -2.48870874E-05
  -11.8199997      -2.49942022E-05
  -11.8149996      -2.50659232E-05
  -11.8100004      -2.50994344E-05
  -11.8050003      -2.50917856E-05
  -11.8000002      -2.50399680E-05
  -11.7950001      -2.49408713E-05
  -11.7900000      -2.47912812E-05
  -11.7849998      -2.45879382E-05
  -11.7799997      -2.43274844E-05
  -11.7749996      -2.40065019E-05
  -11.7700005      -2.36215492E-05
  -11.7650003      -2.31690938E-05
  -11.7600002      -2.26456232E-05
  -11.7550001      -2.20475285E-05
  -11.7500000      -2.13712719E-05
  -11.7449999      -2.06132918E-05
  -11.7399998      -1.97700210E-05
  -11.7349997      -1.88379108E-05
  -11.7299995      -1.78135069E-05
  -11.7250004      -1.66933551E-05
  -11.7200003      -1.54740865E-05