  -16.0000000       0.00000000    
  -15.9949999       0.00000000    
  -15.9899998       0.00000000    
  -15.9849997       0.00000000    
  -15.9799995       0.00000000    
  -15.9750004       0.00000000    
  -15.9700003       0.00000000    
  -15.9650002       0.00000000    
  -15.9600000       0.00000000    
  -15.9549999       0.00000000    
  -15.9499998       0.00000000    
  -15.9449997      -0.00000000    
  -15.9399996      -0.00000000    
  -15.9350004       0.00000000    
  -15.9300003      -1.40129846E-45
  -15.9250002      -3.64337601E-44
  -15.9200001       4.06376555E-44
  -15.9150000       2.42424634E-43
  -15.9099998      -1.13925565E-42
  -15.9049997      -1.99404771E-42
  -15.8999996      -1.53105870E-41
  -15.8950005      -4.04274607E-41
  -15.8900003      -4.81037737E-41
  -15.8850002       2.80612820E-40
  -15.8800001       2.42004385E-39
  -15.8750000       1.15695377E-38
  -15.8699999       4.28346168E-38
  -15.8649998       1.31629133E-37
  -15.8599997       3.50947958E-37
  -15.8549995       8.24416128E-37
  -15.8500004       1.70086962E-36
  -15.8450003       3.03952713E-36
  -15.8400002       4.47292569E-36
  -15.8350000       4.47940403E-36
  -15.8299999      -9.51496455E-37
  -15.8249998      -2.03789165E-35
  -15.8199997      -6.95022916E-35
  -15.8149996      -1.73162819E-34
  -15.8100004      -3.63950615E-34
  -15.8050003      -6.72048258E-34
  -15.8000002      -1.09827567E-33
  -15.7950001      -1.56255801E-33
  -15.7900000      -1.82800429E-33
  -15.7849998      -1.42333246E-33
  -15.7799997       3.72617934E-34
  -15.7749996       4.36932977E-33
  -15.7700005       1.09822925E-32
  -15.7650003       1.93398032E-32
  -15.7600002       2.61095163E-32
  -15.7550001       2.45988723E-32
  -15.7500000       5.25602132E-33
  -15.7449999      -4.09085317E-32
  -15.7399998      -1.14775139E-31
  -15.7349997      -1.97985152E-31
  -15.7299995      -2.42320778E-31
  -15.7250004      -1.68468383E-31
  -15.7200003       1.13298577E-31
  -15.7150002       6.49586595E-31
  -15.7100000       1.35851431E-30
  -15.7049999       1.93851639E-30
  -15.6999998       1.83132729E-30
  -15.6949997       3.27073521E-31
  -15.6899996      -3.10642080E-30
  -15.6850004      -8.25817545E-30
  -15.6800003      -1.35143437E-29
  -15.6750002      -1.54594923E-29
  -15.6700001      -9.28097365E-30
  -15.6650000       9.47540154E-30
  -15.6599998       4.16119644E-29
  -15.6549997       8.00885870E-29
  -15.6499996       1.06787062E-28
  -15.6450005       9.32181450E-29
  -15.6400003       8.45127325E-30
  -15.6350002      -1.63993513E-28
  -15.6300001      -4.02530360E-28
  -15.6250000      -6.25558657E-28
  -15.6199999      -6.85945276E-28
  -15.6149998      -3.99607834E-28
  -15.6099997       3.79233951E-28
  -15.6049995       1.64043009E-27
  -15.6000004       3.09028151E-27
  -15.5950003       4.07850332E-27
  -15.5900002       3.66551346E-27
  -15.5850000       9.04502021E-28
  -15.5799999      -4.64713414E-27
  -15.5749998      -1.22886194E-26
  -15.5699997      -1.96554725E-26
  -15.5649996      -2.26860681E-26
  -15.5600004      -1.64552302E-26
  -15.5550003       2.92637621E-27
  -15.5500002       3.55601733E-26
  -15.5450001       7.49597203E-26
  -15.5400000       1.06592537E-25
  -15.5349998       1.09424375E-25
  -15.5299997       6.17459673E-26
  -15.5249996      -4.87194825E-26
  -15.5200005      -2.12538751E-25
  -15.5150003      -3.88662918E-25
  -15.5100002      -5.03197953E-25
  -15.5050001      -4.62956186E-25
  -15.5000000      -1.86640238E-25
  -15.4949999       3.50064028E-25
  -15.4899998       1.06807004E-24
  -15.4849997       1.75781876E-24
  -15.4799995       2.09560170E-24
  -15.4750004       1.72134577E-24
  -15.4700003       3.78304262E-25
  -15.4650002      -1.91282657E-24
  -15.4600000      -4.70387305E-24
  -15.4549999      -7.07393898E-24
  -15.4499998      -7.76714735E-24
  -15.4449997      -5.55373066E-24
  -15.4399996       2.22257739E-25
  -15.4350004       9.04701658E-24
  -15.4300003       1.88256906E-23
  -15.4250002       2.59323366E-23
  -15.4200001       2.59424561E-23
  -15.4150000       1.50919962E-23
  -15.4099998      -7.78169947E-24
  -15.4049997      -3.93909016E-23
  -15.3999996      -7.10682202E-23
  -15.3950005      -8.96139867E-23
  -15.3900003      -8.04654216E-23
  -15.3850002      -3.30380753E-23
  -15.3800001       5.28776273E-23
  -15.3750000       1.61769648E-22
  -15.3699999       2.60795396E-22
  -15.3649998       3.04398628E-22
  -15.3599997       2.46316125E-22
  -15.3549995       5.77549429E-23
  -15.3500004      -2.52512154E-22
  -15.3450003      -6.23121052E-22
  -15.3400002      -9.38421562E-22
  -15.3350000      -1.04702860E-21
  -15.3299999      -8.02881122E-22
  -15.3249998      -1.23576209E-22
  -15.3199997       9.48195359E-22
  -15.3149996       2.20170882E-21
  -15.3100004       3.25801180E-21
  -15.3050003       3.63157007E-21
  -15.3000002       2.85849446E-21
  -15.2950001       6.73959591E-22
  -15.2900000      -2.80348857E-21
  -15.2849998      -6.94335083E-21
  -15.2799997      -1.05991321E-20
  -15.2749996      -1.22823477E-20
  -15.2700005      -1.05279631E-20
  -15.2650003      -4.40452310E-21
  -15.2600002       5.94634414E-21
  -15.2550001       1.89104119E-20
  -15.2500000       3.13307711E-20
  -15.2449999       3.89187153E-20
  -15.2399998       3.71967612E-20
  -15.2349997       2.28702175E-20
  -15.2299995      -4.65337360E-21
  -15.2250004      -4.20283845E-20
  -15.2200003      -8.15152502E-20
  -15.2150002      -1.11732778E-19
  -15.2100000      -1.19818792E-19
  -15.2049999      -9.48307707E-20
  -15.1999998      -3.17791191E-20
  -15.1949997       6.47187339E-20
  -15.1899996       1.78398831E-19
  -15.1850004       2.82085805E-19
  -15.1800003       3.41917795E-19
  -15.1750002       3.24966279E-19
  -15.1700001       2.09126407E-19
  -15.1650000      -6.87037234E-21
  -15.1599998      -2.96184400E-19
  -15.1549997      -6.02296364E-19
  -15.1499996      -8.45375071E-19
  -15.1450005      -9.37227170E-19
  -15.1400003      -8.03243195E-19
  -15.1350002      -4.07307766E-19
  -15.1300001       2.26386512E-19
  -15.1250000       1.00157355E-18
  -15.1199999       1.75436157E-18
  -15.1149998       2.27738705E-18
  -15.1099997       2.36269894E-18
  -15.1049995       1.85708830E-18
  -15.1000004       7.18435520E-19
  -15.0950003      -9.41716693E-19
  -15.0900002      -2.84445823E-18
  -15.0850000      -4.57003350E-18
  -15.0799999      -5.62836850E-18
  -15.0749998      -5.56658762E-18
  -15.0699997      -4.09515325E-18
  -15.0649996      -1.20457918E-18
  -15.0600004       2.75979940E-18
  -15.0550003       7.09466938E-18
  -15.0500002       1.08257015E-17
  -15.0450001       1.28842529E-17
  -15.0400000       1.23504915E-17
  -15.0349998       8.71708489E-18
  -15.0299997       2.11192114E-18
  -15.0249996      -6.58556867E-18
  -15.0200005      -1.57873392E-17
  -15.0150003      -2.34237416E-17
  -15.0100002      -2.73384913E-17
  -15.0050001      -2.57896022E-17
  -15.0000000      -1.79557717E-17
  -14.9949999      -4.32448287E-18
  -14.9899998       1.31572068E-17
  -14.9849997       3.12530375E-17
  -14.9799995       4.59505382E-17
  -14.9750004       5.32568723E-17
  -14.9700003       5.01382591E-17
  -14.9650002       3.54003590E-17
  -14.9600000       1.02880671E-17
  -14.9549999      -2.13902372E-17
  -14.9499998      -5.37234584E-17
  -14.9449997      -7.97279225E-17
  -14.9399996      -9.27907719E-17
  -14.9350004      -8.82412653E-17
  -14.9300003      -6.46895672E-17
  -14.9250002      -2.47757170E-17
  -14.9200001       2.49344067E-17
  -14.9150000       7.49969390E-17
  -14.9099998       1.14947427E-16
  -14.9049997       1.35608440E-16
  -14.8999996       1.31331029E-16
  -14.8950005       1.01598644E-16
  -14.8900003       5.15163321E-17
  -14.8850002      -9.06518731E-18
  -14.8800001      -6.77044089E-17
  -14.8750000      -1.12367086E-16
  -14.8699999      -1.34543190E-16
  -14.8649998      -1.31632493E-16
  -14.8599997      -1.07829868E-16
  -14.8549995      -7.30738632E-17
  -14.8500004      -4.01146499E-17
  -14.8450003      -2.03159049E-17
  -14.8400002      -1.92961103E-17
  -14.8350000      -3.37687585E-17
  -14.8299999      -5.08228040E-17
  -14.8249998      -5.04180248E-17
  -14.8199997      -1.10386120E-17
  -14.8149996       8.25039141E-17
  -14.8100004       2.31021725E-16
  -14.8050003       4.15069120E-16
  -14.8000002       5.93619007E-16
  -14.7950001       7.08926184E-16
  -14.7900000       6.97872245E-16
  -14.7849998       5.08340100E-16
  -14.7799997       1.17420829E-16
  -14.7749996      -4.52977868E-16
  -14.7700005      -1.12796148E-15
  -14.7650003      -1.78290144E-15
  -14.7600002      -2.26008105E-15
  -14.7550001      -2.39778214E-15
  -14.7500000      -2.06754136E-15
  -14.7449999      -1.21238557E-15
  -14.7399998       1.22792275E-16
  -14.7349997       1.77756894E-15
  -14.7299995       3.48551792E-15
  -14.7250004       4.90934579E-15
  -14.7200003       5.69863777E-15
  -14.7150002       5.56138032E-15
  -14.7100000       4.33614419E-15
  -14.7049999       2.04918043E-15
  -14.6999998      -1.05815644E-15
  -14.6949997      -4.54220402E-15
  -14.6899996      -7.81329618E-15
  -14.6850004      -1.02300997E-14
  -14.6800003      -1.12175851E-14
  -14.6750002      -1.03875970E-14
  -14.6700001      -7.63766729E-15
  -14.6650000      -3.20560720E-15
  -14.6599998       2.33611517E-15
  -14.6549997       8.15152067E-15
  -14.6499996       1.32700484E-14
  -14.6450005       1.67535494E-14
  -14.6400003       1.78712686E-14
  -14.6350002       1.62496630E-14
  -14.6300001       1.19652298E-14
  -14.6250000       5.55834667E-15
  -14.6199999      -2.03984338E-15
  -14.6149998      -9.65846089E-15
  -14.6099997      -1.60905614E-14
  -14.6049995      -2.03114689E-14
  -14.6000004      -2.16696574E-14
  -14.5950003      -2.00099303E-14
  -14.5900002      -1.57021138E-14
  -14.5850000      -9.56534063E-15
  -14.5799999      -2.70000858E-15
  -14.5749998       3.74010193E-15
  -14.5699997       8.78926956E-15
  -14.5649996       1.18727744E-14
  -14.5600004       1.29244844E-14
  -14.5550003       1.23888191E-14
  -14.5500002       1.11000263E-14
  -14.5450001       1.00592167E-14
  -14.5400000       1.01540040E-14
  -14.5349998       1.18825111E-14
  -14.5299997       1.51480154E-14
  -14.5249996       1.91805376E-14
  -14.5200005       2.26188087E-14
  -14.5150003       2.37524911E-14
  -14.5100002       2.08892995E-14
  -14.5050001       1.27786541E-14
  -14.5000000      -9.95765686E-16
  -14.4949999      -1.97455069E-14
  -14.4899998      -4.16039680E-14
  -14.4849997      -6.36893221E-14
  -14.4799995      -8.24976684E-14
  -14.4750004      -9.44698624E-14
  -14.4700003      -9.66324731E-14
  -14.4650002      -8.71877576E-14
  -14.4600000      -6.59288366E-14
  -14.4549999      -3.43795732E-14
  -14.4499998       4.38943654E-15
  -14.4449997       4.62507602E-14
  -14.4399996       8.67320471E-14
  -14.4350004       1.21808095E-13
  -14.4300003       1.48602376E-13
  -14.4250002       1.65834062E-13
  -14.4200001       1.73886188E-13
  -14.4150000       1.74449661E-13
  -14.4099998       1.69792091E-13
  -14.4049997       1.61788280E-13
  -14.3999996       1.50933668E-13
  -14.3950005       1.35585851E-13
  -14.3900003       1.11668907E-13
  -14.3850002       7.30042044E-14
  -14.3800001       1.23135170E-14
  -14.3750000      -7.71877814E-14
  -14.3699999      -1.99840578E-13
  -14.3649998      -3.55556079E-13
  -14.3599997      -5.38183810E-13
  -14.3549995      -7.34587738E-13
  -14.3500004      -9.24712997E-13
  -14.3450003      -1.08275303E-12
  -14.3400002      -1.17937572E-12
  -14.3350000      -1.18476637E-12
  -14.3299999      -1.07213435E-12
  -14.3249998      -8.21189579E-13
  -14.3199997      -4.21218507E-13
  -14.3149996       1.26642105E-13
  -14.3100004       8.08113938E-13
  -14.3050003       1.59547386E-12
  -14.3000002       2.44811354E-12
  -14.2950001       3.31369307E-12
  -14.2900000       4.12961202E-12
  -14.2849998       4.82456696E-12
  -14.2799997       5.32016271E-12
  -14.2749996       5.53270320E-12
  -14.2700005       5.37550516E-12
  -14.2650003       4.76227608E-12
  -14.2600002       3.61203688E-12
  -14.2550001       1.85614696E-12
  -14.2500000      -5.52502597E-13
  -14.2449999      -3.62825763E-12
  -14.2399998      -7.34007473E-12
  -14.2349997      -1.15989735E-11
  -14.2299995      -1.62468251E-11
  -14.2250004      -2.10489525E-11
  -14.2200003      -2.56923476E-11
  -14.2150002      -2.97918634E-11
  -14.2100000      -3.29058378E-11
  -14.2049999      -3.45627277E-11
  -14.1999998      -3.42991052E-11
  -14.1949997      -3.17089723E-11
  -14.1899996      -2.65037280E-11
  -14.1850004      -1.85813673E-11
  -14.1800003      -8.10244493E-12
  -14.1750002       4.42842247E-12
  -14.1700001       1.80791701E-11
  -14.1650000       3.14068944E-11
  -14.1599998       4.23770255E-11
  -14.1549997       4.82899103E-11
  -14.1499996       4.57137141E-11
  -14.1450005       3.04321776E-11
  -14.1400003      -2.59211446E-12
  -14.1350002      -5.92365046E-11
  -14.1300001      -1.46210724E-10
  -14.1250000      -2.71021761E-10
  -14.1199999      -4.41909564E-10
  -14.1149998      -6.67737698E-10
  -14.1099997      -9.57863122E-10
  -14.1049995      -1.32193589E-09
  -14.1000004      -1.76970516E-09
  -14.0950003      -2.31072517E-09
  -14.0900002      -2.95408187E-09
  -14.0850000      -3.70803810E-09
  -14.0799999      -4.57969529E-09
  -14.0749998      -5.57461233E-09
  -14.0699997      -6.69637368E-09
  -14.0649996      -7.94624899E-09
  -14.0600004      -9.32271504E-09
  -14.0550003      -1.08211538E-08
  -14.0500002      -1.24333930E-08
  -14.0450001      -1.41473935E-08
  -14.0400000      -1.59469753E-08
  -14.0349998      -1.78114803E-08
  -14.0299997      -1.97154790E-08
  -14.0249996      -2.16288676E-08
  -14.0200005      -2.35165025E-08
  -14.0150003      -2.53381760E-08
  -14.0100002      -2.70489444E-08
  -14.0050001      -2.85990289E-08
  -14.0000000      -2.99340606E-08
  -13.9949999      -3.09954373E-08
  -13.9899998      -3.17210507E-08
  -13.9849997      -3.20453353E-08
  -13.9799995      -3.18999902E-08
  -13.9750004      -3.12152153E-08
  -13.9700003      -2.99196081E-08
  -13.9650002      -2.79417964E-08
  -13.9600000      -2.52110457E-08
  -13.9549999      -2.16583373E-08
  -13.9499998      -1.72173831E-08
  -13.9449997      -1.18258878E-08
  -13.9399996      -5.42666267E-09
  -13.9350004       2.03102690E-09
  -13.9300003       1.05903872E-08
  -13.9250002       2.02856416E-08
  -13.9200001       3.11406936E-08
  -13.9150000       4.31678124E-08
  -13.9099998       5.63666731E-08
  -13.9049997       7.07224501E-08
  -13.8999996       8.62052687E-08
  -13.8950005       1.02768730E-07
  -13.8900003       1.20348886E-07
  -13.8850002       1.38863555E-07
  -13.8800001       1.58211236E-07
  -13.8750000       1.78270653E-07
  -13.8699999       1.98900182E-07
  -13.8649998       2.19937007E-07
  -13.8599997       2.41198563E-07
  -13.8549995       2.62480256E-07
  -13.8500004       2.83557370E-07
  -13.8450003       3.04185249E-07
  -13.8400002       3.24098409E-07
  -13.8350000       3.43013966E-07
  -13.8299999       3.60630253E-07
  -13.8249998       3.76629288E-07
  -13.8199997       3.90678338E-07
  -13.8149996       4.02431425E-07
  -13.8100004       4.11531374E-07
  -13.8050003       4.17614245E-07
  -13.8000002       4.20307174E-07
  -13.7950001       4.19235306E-07
  -13.7900000       4.14024953E-07
  -13.7849998       4.04303591E-07
  -13.7799997       3.89707537E-07
  -13.7749996       3.69881917E-07
  -13.7700005       3.44488200E-07
  -13.7650003       3.13205732E-07
  -13.7600002       2.75736056E-07
  -13.7550001       2.31809238E-07
  -13.7500000       1.81187886E-07
  -13.7449999       1.23669452E-07
  -13.7399998       5.90941305E-08
  -13.7349997      -1.26521362E-08
  -13.7299995      -9.16344476E-08
  -13.7250004      -1.77861196E-07
  -13.7200003      -2.71281806E-07
  -13.7150002      -3.71782988E-07
  -13.7100000      -4.79181551E-07
  -13.7049999      -5.93224968E-07
  -13.6999998      -7.13584143E-07
  -13.6949997      -8.39852191E-07
  -13.6899996      -9.71541226E-07
  -13.6850004      -1.10808048E-06
  -13.6800003      -1.24881308E-06
  -13.6750002      -1.39299766E-06
  -13.6700001      -1.53980352E-06
  -13.6650000      -1.68831377E-06
  -13.6599998      -1.83752377E-06
  -13.6549997      -1.98634712E-06
  -13.6499996      -2.13360704E-06
  -13.6450005      -2.27805344E-06
  -13.6400003      -2.41835141E-06
  -13.6350002      -2.55310192E-06
  -13.6300001      -2.68082817E-06
  -13.6250000      -2.79999904E-06
  -13.6199999      -2.90902017E-06
  -13.6149998      -3.00625902E-06
  -13.6099997      -3.09003872E-06
  -13.6049995      -3.15864827E-06
  -13.6000004      -3.21036373E-06
  -13.5950003      -3.24344956E-06
  -13.5900002      -3.25616702E-06
  -13.5850000      -3.24680059E-06
  -13.5799999      -3.21366429E-06
  -13.5749998      -3.15509055E-06
  -13.5699997      -3.06949664E-06
  -13.5649996      -2.95535415E-06
  -13.5600004      -2.81121288E-06
  -13.5550003      -2.63573997E-06
  -13.5500002      -2.42770670E-06
  -13.5450001      -2.18601599E-06
  -13.5400000      -1.90972310E-06
  -13.5349998      -1.59803858E-06
  -13.5299997      -1.25036365E-06
  -13.5249996      -8.66297341E-07
  -13.5200005      -4.45621538E-07
  -13.5150003       1.16196830E-08
  -13.5100002       5.05167179E-07
  -13.5050001       1.03450225E-06
  -13.5000000       1.59883450E-06
  -13.4949999       2.19711501E-06
  -13.4899998       2.82797509E-06
  -13.4849997       3.48978006E-06
  -13.4799995       4.18056970E-06
  -13.4750004       4.89807599E-06
  -13.4700003       5.63972344E-06
  -13.4650002       6.40260032E-06
  -13.4600000       7.18347837E-06
  -13.4549999       7.97880875E-06
  -13.4499998       8.78472292E-06
  -13.4449997       9.59703266E-06
  -13.4399996       1.04112451E-05
  -13.4350004       1.12225598E-05
  -13.4300003       1.20258965E-05
  -13.4250002       1.28158881E-05
  -13.4200001       1.35869132E-05
  -13.4150000       1.43331063E-05
  -13.4099998       1.50483875E-05
  -13.4049997       1.57264676E-05
  -13.3999996       1.63608838E-05
  -13.3950005       1.69450450E-05
  -13.3900003       1.74722372E-05
  -13.3850002       1.79356393E-05
  -13.3800001       1.83284483E-05
  -13.3750000       1.86437574E-05
  -13.3699999       1.88747781E-05
  -13.3649998       1.90147275E-05
  -13.3599997       1.90569608E-05
  -13.3549995       1.89949787E-05
  -13.3500004       1.88224985E-05
  -13.3450003       1.85334375E-05
  -13.3400002       1.81220348E-05
  -13.3350000       1.75828773E-05
  -13.3299999       1.69109389E-05
  -13.3249998       1.61015669E-05
  -13.3199997       1.51506783E-05
  -13.3149996       1.40546636E-05
  -13.3100004       1.28105130E-05
  -13.3050003       1.14158311E-05
  -13.3000002       9.86891337E-06
  -13.2950001       8.16873307E-06
  -13.2900000       6.31499142E-06
  -13.2849998       4.30830914E-06
  -13.2799997       2.15000773E-06
  -13.2749996      -1.57669646E-07
  -13.2700005      -2.61157857E-06
  -13.2650003      -5.20766298E-06
  -13.2600002      -7.94093739E-06
  -13.2550001      -1.08053919E-05
  -13.2500000      -1.37940060E-05
  -13.2449999      -1.68988299E-05
  -13.2399998      -2.01108578E-05
  -13.2349997      -2.34200470E-05
  -13.2299995      -2.68153926E-05
  -13.2250004      -3.02848002E-05
  -13.2200003      -3.38152167E-05
  -13.2150002      -3.73926050E-05
  -13.2100000      -4.10019384E-05
  -13.2049999      -4.46272970E-05
  -13.1999998      -4.82518335E-05
  -13.1949997      -5.18577981E-05
  -13.1899996      -5.54266953E-05
  -13.1850004      -5.89392257E-05
  -13.1800003      -6.23753731E-05
  -13.1750002      -6.57145065E-05
  -13.1700001      -6.89353910E-05
  -13.1650000      -7.20163007E-05
  -13.1599998      -7.49350729E-05
  -13.1549997      -7.76692250E-05
  -13.1499996      -8.01960487E-05
  -13.1450005      -8.24926319E-05
  -13.1400003      -8.45360410E-05
  -13.1350002      -8.63033929E-05
  -13.1300001      -8.77719649E-05
  -13.1250000      -8.89193034E-05
  -13.1199999      -8.97233695E-05
  -13.1149998      -9.01625754E-05
  -13.1099997      -9.02161482E-05
  -13.1049995      -8.98636426E-05
  -13.1000004      -8.90859228E-05
  -13.0950003      -8.78647043E-05
  -13.0900002      -8.61827284E-05
  -13.0850000      -8.40240755E-05
  -13.0799999      -8.13740990E-05
  -13.0749998      -7.82198913E-05
  -13.0699997      -7.45499201E-05
  -13.0649996      -7.03544429E-05
  -13.0600004      -6.56256670E-05
  -13.0550003      -6.03576809E-05
  -13.0500002      -5.45465846E-05
  -13.0450001      -4.81908319E-05
  -13.0400000      -4.12909467E-05
  -13.0349998      -3.38500577E-05
  -13.0299997      -2.58734108E-05
  -13.0249996      -1.73690187E-05
  -13.0200005      -8.34768707E-06
  -13.0150003       1.17761840E-06
  -13.0100002       1.11909367E-05
  -13.0050001       2.16735116E-05
  -13.0000000       3.26039990E-05
  -12.9949999       4.39578034E-05
  -12.9899998       5.57082240E-05
  -12.9849997       6.78251163E-05
  -12.9799995       8.02757495E-05
  -12.9750004       9.30247334E-05
  -12.9700003       1.06033622E-04
  -12.9650002       1.19261538E-04
  -12.9600000       1.32664922E-04
  -12.9549999       1.46197621E-04
  -12.9499998       1.59810981E-04
  -12.9449997       1.73453955E-04
  -12.9399996       1.87073325E-04
  -12.9350004       2.00613722E-04
  -12.9300003       2.14017680E-04
  -12.9250002       2.27226032E-04
  -12.9200001       2.40178008E-04
  -12.9150000       2.52811064E-04
  -12.9099998       2.65061622E-04
  -12.9049997       2.76864972E-04
  -12.8999996       2.88155308E-04
  -12.8950005       2.98866478E-04
  -12.8900003       3.08931834E-04
  -12.8850002       3.18284379E-04
  -12.8800001       3.26857349E-04
  -12.8750000       3.34584387E-04
  -12.8699999       3.41399602E-04
  -12.8649998       3.47238180E-04
  -12.8599997       3.52036062E-04
  -12.8549995       3.55731172E-04
  -12.8500004       3.58263118E-04
  -12.8450003       3.59573081E-04
  -12.8400002       3.59604979E-04
  -12.8350000       3.58305144E-04
  -12.8299999       3.55623342E-04
  -12.8249998       3.51511873E-04
  -12.8199997       3.45926877E-04
  -12.8149996       3.38828133E-04
  -12.8100004       3.30179639E-04
  -12.8050003       3.19949555E-04
  -12.8000002       3.08110524E-04
  -12.7950001       2.94640573E-04
  -12.7900000       2.79521861E-04
  -12.7849998       2.62742804E-04
  -12.7799997       2.44296301E-04
  -12.7749996       2.24182178E-04
  -12.7700005       2.02404975E-04
  -12.7650003       1.78975548E-04
  -12.7600002       1.53911926E-04
  -12.7550001       1.27237363E-04
  -12.7500000       9.89813852E-05
  -12.7449999       6.91807654E-05
  -12.7399998       3.78785189E-05
  -12.7349997       5.12467568E-06
  -12.7299995      -2.90247899E-05
  -12.7250004      -6.45070322E-05
  -12.7200003      -1.01251950E-04
  -12.7150002      -1.39184049E-04
  -12.7100000      -1.78220289E-04
  -12.7049999      -2.18271831E-04
  -12.6999998      -2.59243068E-04
  -12.6949997      -3.01032938E-04
  -12.6899996      -3.43534077E-04
  -12.6850004      -3.86633241E-04
  -12.6800003      -4.30211716E-04
  -12.6750002      -4.74145694E-04
  -12.6700001      -5.18306275E-04
  -12.6650000      -5.62559755E-04
  -12.6599998      -6.06767891E-04
  -12.6549997      -6.50788366E-04
  -12.6499996      -6.94475428E-04
  -12.6450005      -7.37679889E-04
  -12.6400003      -7.80249131E-04
  -12.6350002      -8.22028378E-04
  -12.6300001      -8.62860878E-04
  -12.6250000      -9.02587897E-04
  -12.6199999      -9.41049249E-04
  -12.6149998      -9.78084281E-04
  -12.6099997      -1.01353205E-03
  -12.6049995      -1.04723161E-03
  -12.6000004      -1.07902300E-03
  -12.5950003      -1.10874709E-03
  -12.5900002      -1.13624695E-03
  -12.5850000      -1.16136705E-03
  -12.5799999      -1.18395523E-03
  -12.5749998      -1.20386260E-03
  -12.5699997      -1.22094341E-03
  -12.5649996      -1.23505725E-03
  -12.5600004      -1.24606746E-03
  -12.5550003      -1.25384296E-03
  -12.5500002      -1.25825929E-03
  -12.5450001      -1.25919702E-03
  -12.5400000      -1.25654414E-03
  -12.5349998      -1.25019613E-03
  -12.5299997      -1.24005508E-03
  -12.5249996      -1.22603273E-03
  -12.5200005      -1.20804831E-03
  -12.5150003      -1.18603033E-03
  -12.5100002      -1.15991686E-03
  -12.5050001      -1.12965493E-03
  -12.5000000      -1.09520287E-03
  -12.4949999      -1.05652853E-03
  -12.4899998      -1.01360993E-03
  -12.4849997      -9.66437277E-04
  -12.4799995      -9.15012322E-04
  -12.4750004      -8.59346706E-04
  -12.4700003      -7.99463887E-04
  -12.4650002      -7.35401234E-04
  -12.4600000      -6.67205139E-04
  -12.4549999      -5.94935671E-04
  -12.4499998      -5.18665882E-04
  -12.4449997      -4.38479474E-04
  -12.4399996      -3.54471704E-04
  -12.4350004      -2.66752264E-04
  -12.4300003      -1.75441222E-04
  -12.4250002      -8.06722819E-05
  -12.4200001       1.74114612E-05
  -12.4150000       1.18652148E-04
  -12.4099998       2.22883507E-04
  -12.4049997       3.29925097E-04
  -12.3999996       4.39585914E-04
  -12.3950005       5.51665900E-04
  -12.3900003       6.65951346E-04
  -12.3850002       7.82222196E-04
  -12.3800001       9.00245504E-04
  -12.3750000       1.01978041E-03
  -12.3699999       1.14057632E-03
  -12.3649998       1.26237341E-03
  -12.3599997       1.38490659E-03
  -12.3549995       1.50790019E-03
  -12.3500004       1.63107296E-03
  -12.3450003       1.75413652E-03
  -12.3400002       1.87679753E-03
  -12.3350000       1.99875678E-03
  -12.3299999       2.11970881E-03
  -12.3249998       2.23934883E-03
  -12.3199997       2.35736324E-03
  -12.3149996       2.47343746E-03
  -12.3100004       2.58725788E-03
  -12.3050003       2.69850460E-03
  -12.3000002       2.80686072E-03
  -12.2950001       2.91200751E-03
  -12.2900000       3.01362900E-03
  -12.2849998       3.11140600E-03
  -12.2799997       3.20502720E-03
  -12.2749996       3.29418248E-03
  -12.2700005       3.37856100E-03
  -12.2650003       3.45786125E-03
  -12.2600002       3.53178522E-03
  -12.2550001       3.60004185E-03
  -12.2500000       3.66234197E-03
  -12.2449999       3.71840736E-03
  -12.2399998       3.76796629E-03
  -12.2349997       3.81075544E-03
  -12.2299995       3.84652219E-03
  -12.2250004       3.87501763E-03
  -12.2200003       3.89601104E-03
  -12.2150002       3.90927587E-03
  -12.2100000       3.91459931E-03
  -12.2049999       3.91178019E-03
  -12.1999998       3.90063133E-03
  -12.1949997       3.88097484E-03
  -12.1899996       3.85264843E-03
  -12.1850004       3.81550076E-03
  -12.1800003       3.76939937E-03
  -12.1750002       3.71422037E-03
  -12.1700001       3.64986015E-03
  -12.1650000       3.57622630E-03
  -12.1599998       3.49324057E-03
  -12.1549997       3.40084685E-03
  -12.1499996       3.29899695E-03
  -12.1450005       3.18766432E-03
  -12.1400003       3.06683592E-03
  -12.1350002       2.93651619E-03
  -12.1300001       2.79672351E-03
  -12.1250000       2.64749955E-03
  -12.1199999       2.48889392E-03
  -12.1149998       2.32097879E-03
  -12.1099997       2.14384217E-03
  -12.1049995       1.95758743E-03
  -12.1000004       1.76233496E-03
  -12.0950003       1.55822141E-03
  -12.0900002       1.34540361E-03
  -12.0850000       1.12405012E-03
  -12.0799999       8.94348603E-04
  -12.0749998       6.56504999E-04
  -12.0699997       4.10733308E-04
  -12.0649996       1.57275965E-04
  -12.0600004      -1.03618331E-04
  -12.0550003      -3.71681788E-04
  -12.0500002      -6.46626402E-04
  -12.0450001      -9.28157009E-04
  -12.0400000      -1.21596199E-03
  -12.0349998      -1.50970928E-03
  -12.0299997      -1.80905114E-03
  -12.0249996      -2.11363402E-03
  -12.0200005      -2.42308038E-03
  -12.0150003      -2.73700408E-03
  -12.0100002      -3.05500138E-03
  -12.0050001      -3.37666110E-03
  -12.0000000      -3.70155415E-03
  -11.9949999      -4.02923534E-03
  -11.9899998      -4.35924809E-03
  -11.9849997      -4.69112443E-03
  -11.9799995      -5.02438517E-03
  -11.9750004      -5.35853440E-03
  -11.9700003      -5.69306826E-03
  -11.9650002      -6.02746755E-03
  -11.9600000      -6.36120420E-03
  -11.9549999      -6.69373525E-03
  -11.9499998      -7.02451169E-03
  -11.9449997      -7.35296682E-03
  -11.9399996      -7.67852832E-03
  -11.9350004      -8.00061598E-03
  -11.9300003      -8.31862446E-03
  -11.9250002      -8.63196235E-03
  -11.9200001      -8.94000288E-03
  -11.9150000      -9.24212392E-03
  -11.9099998      -9.53770243E-03
  -11.9049997      -9.82608553E-03
  -11.8999996      -1.01066194E-02
  -11.8950005      -1.03786606E-02
  -11.8900003      -1.06415311E-02
  -11.8850002      -1.08945556E-02
  -11.8800001      -1.11370534E-02
  -11.8750000      -1.13683427E-02
  -11.8699999      -1.15877101E-02
  -11.8649998      -1.17944647E-02
  -11.8599997      -1.19878966E-02
  -11.8549995      -1.21672964E-02
  -11.8500004      -1.23319319E-02
  -11.8450003      -1.24810925E-02
  -11.8400002      -1.26140481E-02
  -11.8350000      -1.27300611E-02
  -11.8299999      -1.28284059E-02
  -11.8249998      -1.29083395E-02
  -11.8199997      -1.29691157E-02
  -11.8149996      -1.30100111E-02
  -11.8100004      -1.30302692E-02
  -11.8050003      -1.30291590E-02
  -11.8000002      -1.30059393E-02
  -11.7950001      -1.29598593E-02
  -11.7900000      -1.28901824E-02
  -11.7849998      -1.27961840E-02
  -11.7799997      -1.26771228E-02
  -11.7749996      -1.25322873E-02
  -11.7700005      -1.23609388E-02
  -11.7650003      -1.21623743E-02
  -11.7600002      -1.19358664E-02
  -11.7550001      -1.16807306E-02
  -11.7500000      -1.13962684E-02
  -11.7449999      -1.10818082E-02
  -11.7399998      -1.07366703E-02
  -11.7349997      -1.03601953E-02
  -11.7299995      -9.95174423E-03
  -11.7250004      -9.51068383E-03
  -11.7200003      -9.03639663E-03