  -16.0000000       0.00000000    
  -15.9949999       0.00000000    
  -15.9899998       0.00000000    
  -15.9849997       0.00000000    
  -15.9799995       0.00000000    
  -15.9750004       0.00000000    
  -15.9700003       0.00000000    
  -15.9650002       0.00000000    
  -15.9600000       0.00000000    
  -15.9549999       0.00000000    
  -15.9499998       0.00000000    
  -15.9449997       0.00000000    
  -15.9399996       0.00000000    
  -15.9350004       0.00000000    
  -15.9300003       0.00000000    
  -15.9250002      -0.00000000    
  -15.9200001      -0.00000000    
  -15.9150000      -1.40129846E-45
  -15.9099998      -8.40779079E-45
  -15.9049997      -4.62428493E-44
  -15.8999996      -1.77964905E-43
  -15.8950005      -5.81538863E-43
  -15.8900003      -1.75162308E-42
  -15.8850002      -5.30811858E-42
  -15.8800001      -1.70594075E-41
  -15.8750000      -5.71869903E-41
  -15.8699999      -1.89060386E-40
  -15.8649998      -5.89160525E-40
  -15.8599997      -1.69297173E-39
  -15.8549995      -4.45550414E-39
  -15.8500004      -1.07409331E-38
  -15.8450003      -2.37822854E-38
  -15.8400002      -4.85267136E-38
  -15.8350000      -9.15602139E-38
  -15.8299999      -1.60330718E-37
  -15.8249998      -2.61773808E-37
  -15.8199997      -4.01331118E-37
  -15.8149996      -5.84525400E-37
  -15.8100004      -8.23798839E-37
  -15.8050003      -1.15148609E-36
  -15.8000002      -1.63356353E-36
  -15.7950001      -2.36755801E-36
  -15.7900000      -3.43516377E-36
  -15.7849998      -4.77566176E-36
  -15.7799997      -5.96660313E-36
  -15.7749996      -5.96002074E-36
  -15.7700005      -2.92871540E-36
  -15.7650003       5.50182404E-36
  -15.7600002       2.13023654E-35
  -15.7550001       4.41609322E-35
  -15.7500000       6.88906500E-35
  -15.7449999       8.30858750E-35
  -15.7399998       6.68733743E-35
  -15.7349997      -2.83789046E-36
  -15.7299995      -1.41685399E-34
  -15.7250004      -3.41042870E-34
  -15.7200003      -5.49481390E-34
  -15.7150002      -6.62086540E-34
  -15.7100000      -5.31121133E-34
  -15.7049999      -1.06447040E-35
  -15.6999998       9.61471727E-34
  -15.6949997       2.25949943E-33
  -15.6899996       3.48421191E-33
  -15.6850004       3.95769773E-33
  -15.6800003       2.86376395E-33
  -15.6750002      -4.32042525E-34
  -15.6700001      -5.92158255E-33
  -15.6650000      -1.24951347E-32
  -15.6599998      -1.77265988E-32
  -15.6549997      -1.81833371E-32
  -15.6499996      -1.04557585E-32
  -15.6450005       7.14274081E-33
  -15.6400003       3.26324931E-32
  -15.6350002       5.90042740E-32
  -15.6300001       7.44806915E-32
  -15.6250000       6.52711929E-32
  -15.6199999       2.09680788E-32
  -15.6149998      -5.84918289E-32
  -15.6099997      -1.56776493E-31
  -15.6049995      -2.39474812E-31
  -15.6000004      -2.60070179E-31
  -15.5950003      -1.75000346E-31
  -15.5900002       3.43420439E-32
  -15.5850000       3.39287660E-31
  -15.5799999       6.51565328E-31
  -15.5749998       8.32052988E-31
  -15.5699997       7.27641583E-31
  -15.5649996       2.33884632E-31
  -15.5600004      -6.31850642E-31
  -15.5550003      -1.67439804E-30
  -15.5500002      -2.51549791E-30
  -15.5450001      -2.66643195E-30
  -15.5400000      -1.68462522E-30
  -15.5349998       6.13151160E-31
  -15.5299997       3.94474576E-30
  -15.5249996       7.45255369E-30
  -15.5200005       9.77660946E-30
  -15.5150003       9.35992399E-30
  -15.5100002       4.96234884E-30
  -15.5050001      -3.73132000E-30
  -15.5000000      -1.56012302E-29
  -15.4949999      -2.79028700E-29
  -15.4899998      -3.65758381E-29
  -15.4849997      -3.71047557E-29
  -15.4799995      -2.58082106E-29
  -15.4750004      -1.25473734E-30
  -15.4700003       3.46039386E-29
  -15.4650002       7.59777377E-29
  -15.4600000       1.13703955E-28
  -15.4549999       1.36627866E-28
  -15.4499998       1.33636800E-28
  -15.4449997       9.59346752E-29
  -15.4399996       1.91704283E-29
  -15.4350004      -9.47699811E-29
  -15.4300003      -2.36248674E-28
  -15.4250002      -3.86472967E-28
  -15.4200001      -5.16268777E-28
  -15.4150000      -5.85730137E-28
  -15.4099998      -5.46312418E-28
  -15.4049997      -3.47600599E-28
  -15.3999996       4.91987862E-29
  -15.3950005       6.50591413E-28
  -15.3900003       1.40572327E-27
  -15.3850002       2.18401053E-27
  -15.3800001       2.76665653E-27
  -15.3750000       2.86503438E-27
  -15.3699999       2.17621359E-27
  -15.3649998       4.77353822E-28
  -15.3599997      -2.25345109E-27
  -15.3549995      -5.71919496E-27
  -15.3500004      -9.23263775E-27
  -15.3450003      -1.17407856E-26
  -15.3400002      -1.19842555E-26
  -15.3350000      -8.80191431E-27
  -15.3299999      -1.54608812E-27
  -15.3249998       9.47909439E-27
  -15.3199997       2.26886057E-26
  -15.3149996       3.51481260E-26
  -15.3100004       4.28949034E-26
  -15.3050003       4.17030270E-26
  -15.3000002       2.82306232E-26
  -15.2950001       1.34578688E-27
  -15.2900000      -3.66985057E-26
  -15.2849998      -7.96405066E-26
  -15.2799997      -1.17509916E-25
  -15.2749996      -1.38080956E-25
  -15.2700005      -1.29451150E-25
  -15.2650003      -8.33927111E-26
  -15.2600002       1.19784927E-27
  -15.2550001       1.15656229E-25
  -15.2500000       2.40662061E-25
  -15.2449999       3.47860197E-25
  -15.2399998       4.04299029E-25
  -15.2349997       3.79351549E-25
  -15.2299995       2.53061254E-25
  -15.2250004       2.42251619E-26
  -15.2200003      -2.83848399E-25
  -15.2150002      -6.21921865E-25
  -15.2100000      -9.19225692E-25
  -15.2049999      -1.09412621E-24
  -15.1999998      -1.07016289E-24
  -15.1949997      -7.95083933E-25
  -15.1899996      -2.59267148E-25
  -15.1850004       4.90812985E-25
  -15.1800003       1.34830430E-24
  -15.1750002       2.15405412E-24
  -15.1700001       2.71822121E-24
  -15.1650000       2.85388182E-24
  -15.1599998       2.41813773E-24
  -15.1549997       1.35357763E-24
  -15.1499996      -2.78714517E-25
  -15.1450005      -2.28355471E-24
  -15.1400003      -4.34063732E-24
  -15.1350002      -6.04161904E-24
  -15.1300001      -6.95362823E-24
  -15.1250000      -6.70168499E-24
  -15.1199999      -5.05707211E-24
  -15.1149998      -2.01491996E-24
  -15.1099997       2.15664474E-24
  -15.1049995       6.91100608E-24
  -15.1000004       1.14704336E-23
  -15.0950003       1.49267377E-23
  -15.0900002       1.63854725E-23
  -15.0850000       1.51342160E-23
  -15.0799999       1.08081959E-23
  -15.0749998       3.52317468E-24
  -15.0699997      -6.05275657E-24
  -15.0649996      -1.67101487E-23
  -15.0600004      -2.68027199E-23
  -15.0550003      -3.44428504E-23
  -15.0500002      -3.77712187E-23
  -15.0450001      -3.52709082E-23
  -15.0400000      -2.60857258E-23
  -15.0349998      -1.02960761E-23
  -15.0299997       1.08964836E-23
  -15.0249996       3.51218893E-23
  -15.0200005       5.89682362E-23
  -15.0150003       7.83036524E-23
  -15.0100002       8.87911858E-23
  -15.0050001       8.65641368E-23
  -15.0000000       6.89932636E-23
  -14.9949999       3.54410214E-23
  -14.9899998      -1.21325127E-23
  -14.9849997      -6.88616690E-23
  -14.9799995      -1.27105157E-22
  -14.9750004      -1.77111769E-22
  -14.9700003      -2.08243224E-22
  -14.9650002      -2.10671906E-22
  -14.9600000      -1.77353892E-22
  -14.9549999      -1.05967988E-22
  -14.9499998      -4.38775282E-25
  -14.9449997       1.28350623E-22
  -14.9399996       2.62983128E-22
  -14.9350004       3.81245621E-22
  -14.9300003       4.59135475E-22
  -14.9250002       4.74829793E-22
  -14.9200001       4.13062388E-22
  -14.9150000       2.69163557E-22
  -14.9099998       5.19416218E-23
  -14.9049997      -2.15344108E-22
  -14.8999996      -4.96438675E-22
  -14.8950005      -7.46132564E-22
  -14.8900003      -9.16591244E-22
  -14.8850002      -9.65213045E-22
  -14.8800001      -8.62862571E-22
  -14.8750000      -6.01088331E-22
  -14.8699999      -1.96915800E-22
  -14.8649998       3.05974533E-22
  -14.8599997       8.40411716E-22
  -14.8549995       1.32333106E-21
  -14.8500004       1.66716384E-21
  -14.8450003       1.79365472E-21
  -14.8400002       1.64817807E-21
  -14.8350000       1.21227610E-21
  -14.8299999       5.12128803E-22
  -14.8249998      -3.78977437E-22
  -14.8199997      -1.34543300E-21
  -14.8149996      -2.24159968E-21
  -14.8100004      -2.91073831E-21
  -14.8050003      -3.20851647E-21
  -14.8000002      -3.02804529E-21
  -14.7950001      -2.32271347E-21
  -14.7900000      -1.12290424E-21
  -14.7849998       4.56930602E-22
  -14.7799997       2.22338071E-21
  -14.7749996       3.92236364E-21
  -14.7700005       5.26966678E-21
  -14.7650003       5.99080954E-21
  -14.7600002       5.86537091E-21
  -14.7550001       4.76959329E-21
  -14.7500000       2.71041904E-21
  -14.7449999      -1.55437266E-22
  -14.7399998      -3.52240929E-21
  -14.7349997      -6.95958910E-21
  -14.7299995      -9.95631178E-21
  -14.7250004      -1.19859246E-20
  -14.7200003      -1.25806077E-20
  -14.7150002      -1.14076333E-20
  -14.7100000      -8.33615092E-21
  -14.7049999      -3.48379111E-21
  -14.6999998       2.76583206E-21
  -14.6949997       9.78032911E-21
  -14.6899996       1.67316230E-20
  -14.6850004       2.26811631E-20
  -14.6800003       2.66887078E-20
  -14.6750002       2.79322769E-20
  -14.6700001       2.58243768E-20
  -14.6650000       2.01093892E-20
  -14.6599998       1.09285212E-20
  -14.6549997      -1.15739966E-21
  -14.6499996      -1.51919862E-20
  -14.6450005      -2.98929535E-20
  -14.6400003      -4.37602778E-20
  -14.6350002      -5.52111329E-20
  -14.6300001      -6.27266827E-20
  -14.6250000      -6.49953224E-20
  -14.6199999      -6.10384200E-20
  -14.6149998      -5.03084108E-20
  -14.6099997      -3.27540420E-20
  -14.6049995      -8.85250630E-21
  -14.6000004       2.03870601E-20
  -14.5950003       5.34422298E-20
  -14.5900002       8.83115147E-20
  -14.5850000       1.22560973E-19
  -14.5799999       1.53384359E-19
  -14.5749998       1.77684832E-19
  -14.5699997       1.92191680E-19
  -14.5649996       1.93627394E-19
  -14.5600004       1.78940428E-19
  -14.5550003       1.45611951E-19
  -14.5500002       9.20326126E-20
  -14.5450001       1.79301366E-20
  -14.5400000      -7.51899551E-20
  -14.5349998      -1.83644992E-19
  -14.5299997      -3.01284098E-19
  -14.5249996      -4.19375194E-19
  -14.5200005      -5.26736982E-19
  -14.5150003      -6.10161817E-19
  -14.5100002      -6.55153515E-19
  -14.5050001      -6.46965202E-19
  -14.5000000      -5.71889980E-19
  -14.4949999      -4.18720170E-19
  -14.4899998      -1.80262831E-19
  -14.4849997       1.45217631E-19
  -14.4799995       5.52764478E-19
  -14.4750004       1.02983211E-18
  -14.4700003       1.55584091E-18
  -14.4650002       2.10227332E-18
  -14.4600000       2.63337890E-18
  -14.4549999       3.10753269E-18
  -14.4499998       3.47926517E-18
  -14.4449997       3.70197032E-18
  -14.4399996       3.73127567E-18
  -14.4350004       3.52904490E-18
  -14.4300003       3.06795437E-18
  -14.4250002       2.33655610E-18
  -14.4200001       1.34469872E-18
  -14.4150000       1.29143340E-19
  -14.4099998      -1.24086222E-18
  -14.4049997      -2.65829276E-18
  -14.3999996      -3.97362512E-18
  -14.3950005      -4.99099978E-18
  -14.3900003      -5.46552311E-18
  -14.3850002      -5.10197020E-18
  -14.3800001      -3.55504402E-18
  -14.3750000      -4.31322810E-19
  -14.3699999       4.70710726E-18
  -14.3649998       1.23373451E-17
  -14.3599997       2.29688286E-17
  -14.3549995       3.71350394E-17
  -14.3500004       5.53839176E-17
  -14.3450003       7.82670355E-17
  -14.3400002       1.06327682E-16
  -14.3350000       1.40088040E-16
  -14.3299999       1.80034894E-16
  -14.3249998       2.26604580E-16
  -14.3199997       2.80166603E-16
  -14.3149996       3.41006491E-16
  -14.3100004       4.09306755E-16
  -14.3050003       4.85127639E-16
  -14.3000002       5.68388701E-16
  -14.2950001       6.58845996E-16
  -14.2900000       7.56073361E-16
  -14.2849998       8.59441980E-16
  -14.2799997       9.68099684E-16
  -14.2749996       1.08095602E-15
  -14.2700005       1.19666570E-15
  -14.2650003       1.31361671E-15
  -14.2600002       1.42991528E-15
  -14.2550001       1.54338382E-15
  -14.2500000       1.65155119E-15
  -14.2449999       1.75165704E-15
  -14.2399998       1.84065045E-15
  -14.2349997       1.91519676E-15
  -14.2299995       1.97169598E-15
  -14.2250004       2.00629262E-15
  -14.2200003       2.01488979E-15
  -14.2150002       1.99318944E-15
  -14.2100000       1.93671500E-15
  -14.2049999       1.84084336E-15
  -14.1999998       1.70084872E-15
  -14.1949997       1.51194947E-15
  -14.1899996       1.26935415E-15
  -14.1850004       9.68328489E-16
  -14.1800003       6.04256417E-16
  -14.1750002       1.72703520E-16
  -14.1700001      -3.30495580E-16
  -14.1650000      -9.09183778E-16
  -14.1599998      -1.56677527E-15
  -14.1549997      -2.30618209E-15
  -14.1499996      -3.12973232E-15
  -14.1450005      -4.03906433E-15
  -14.1400003      -5.03505225E-15
  -14.1350002      -6.11772892E-15
  -14.1300001      -7.28616217E-15
  -14.1250000      -8.53840128E-15
  -14.1199999      -9.87137279E-15
  -14.1149998      -1.12808136E-14
  -14.1099997      -1.27611646E-14
  -14.1049995      -1.43055242E-14
  -14.1000004      -1.59055423E-14
  -14.0950003      -1.75513561E-14
  -14.0900002      -1.92315443E-14
  -14.0850000      -2.09330708E-14
  -14.0799999      -2.26412110E-14
  -14.0749998      -2.43395256E-14
  -14.0699997      -2.60098390E-14
  -14.0649996      -2.76322696E-14
  -14.0600004      -2.91851910E-14
  -14.0550003      -3.06452895E-14
  -14.0500002      -3.19876233E-14
  -14.0450001      -3.31857446E-14
  -14.0400000      -3.42116743E-14
  -14.0349998      -3.50361592E-14
  -14.0299997      -3.56287401E-14
  -14.0249996      -3.59580970E-14
  -14.0200005      -3.59920359E-14
  -14.0150003      -3.56978681E-14
  -14.0100002      -3.50426034E-14
  -14.0050001      -3.39933668E-14
  -14.0000000      -3.25174085E-14
  -13.9949999      -3.05829479E-14
  -13.9899998      -2.81590513E-14
  -13.9849997      -2.52161895E-14
  -13.9799995      -2.17267051E-14
  -13.9750004      -1.76650754E-14
  -13.9700003      -1.30084694E-14
  -13.9650002      -7.73712335E-15
  -13.9600000      -1.83462508E-15
  -13.9549999       4.71148694E-15
  -13.9499998       1.19090469E-14
  -13.9449997       1.97613244E-14
  -13.9399996       2.82662772E-14
  -13.9350004       3.74161626E-14
  -13.9300003       4.71971535E-14
  -13.9250002       5.75889502E-14
  -13.9200001       6.85644507E-14
  -13.9150000       8.00892826E-14
  -13.9099998       9.21216635E-14
  -13.9049997       1.04612113E-13
  -13.8999996       1.17503433E-13
  -13.8950005       1.30730035E-13
  -13.8900003       1.44218459E-13
  -13.8850002       1.57886955E-13
  -13.8800001       1.71645819E-13
  -13.8750000       1.85397230E-13
  -13.8699999       1.99035612E-13
  -13.8649998       2.12447966E-13
  -13.8599997       2.25513971E-13
  -13.8549995       2.38106681E-13
  -13.8500004       2.50092888E-13
  -13.8450003       2.61333652E-13
  -13.8400002       2.71685072E-13
  -13.8350000       2.80998857E-13
  -13.8299999       2.89123380E-13
  -13.8249998       2.95903791E-13
  -13.8199997       3.01184858E-13
  -13.8149996       3.04809400E-13
  -13.8100004       3.06621211E-13
  -13.8050003       3.06465899E-13
  -13.8000002       3.04191297E-13
  -13.7950001       2.99649682E-13
  -13.7900000       2.92697995E-13
  -13.7849998       2.83200031E-13
  -13.7799997       2.71027666E-13
  -13.7749996       2.56062559E-13
  -13.7700005       2.38195775E-13
  -13.7650003       2.17331646E-13
  -13.7600002       1.93387027E-13
  -13.7550001       1.66293073E-13
  -13.7500000       1.35996913E-13
  -13.7449999       1.02463096E-13
  -13.7399998       6.56754043E-14
  -13.7349997       2.56350490E-14
  -13.7299995      -1.76346229E-14
  -13.7250004      -6.40900364E-14
  -13.7200003      -1.13664767E-13
  -13.7150002      -1.66267905E-13
  -13.7100000      -2.21787690E-13
  -13.7049999      -2.80084495E-13
  -13.6999998      -3.40995651E-13
  -13.6949997      -4.04332356E-13
  -13.6899996      -4.69880428E-13
  -13.6850004      -5.37399227E-13
  -13.6800003      -6.06623475E-13
  -13.6750002      -6.77260385E-13
  -13.6700001      -7.48993424E-13
  -13.6650000      -8.21480416E-13
  -13.6599998      -8.94355878E-13
  -13.6549997      -9.67229118E-13
  -13.6499996      -1.03968841E-12
  -13.6450005      -1.11129964E-12
  -13.6400003      -1.18160928E-12
  -13.6350002      -1.25014506E-12
  -13.6300001      -1.31641714E-12
  -13.6250000      -1.37992016E-12
  -13.6199999      -1.44013675E-12
  -13.6149998      -1.49653618E-12
  -13.6099997      -1.54858006E-12
  -13.6049995      -1.59572344E-12
  -13.6000004      -1.63741742E-12
  -13.5950003      -1.67310783E-12
  -13.5900002      -1.70224631E-12
  -13.5850000      -1.72428630E-12
  -13.5799999      -1.73868819E-12
  -13.5749998      -1.74492278E-12
  -13.5699997      -1.74247021E-12
  -13.5649996      -1.73083206E-12
  -13.5600004      -1.70952391E-12
  -13.5550003      -1.67809028E-12
  -13.5500002      -1.63609599E-12
  -13.5450001      -1.58313824E-12
  -13.5400000      -1.51884267E-12
  -13.5349998      -1.44287208E-12
  -13.5299997      -1.35493407E-12
  -13.5249996      -1.25477124E-12
  -13.5200005      -1.14217175E-12
  -13.5150003      -1.01697394E-12
  -13.5100002      -8.79067381E-13
  -13.5050001      -7.28401172E-13
  -13.5000000      -5.64976993E-13
  -13.4949999      -3.88857430E-13
  -13.4899998      -2.00167967E-13
  -13.4849997       9.00765965E-16
  -13.4799995       2.14090884E-13
  -13.4750004       4.39069896E-13
  -13.4700003       6.75443208E-13
  -13.4650002       9.22730533E-13
  -13.4600000       1.18039042E-12
  -13.4549999       1.44779620E-12
  -13.4499998       1.72424802E-12
  -13.4449997       2.00896960E-12
  -13.4399996       2.30110939E-12
  -13.4350004       2.59972859E-12
  -13.4300003       2.90381824E-12
  -13.4250002       3.21229480E-12
  -13.4200001       3.52399772E-12
  -13.4150000       3.83769145E-12
  -13.4099998       4.15207018E-12
  -13.4049997       4.46575676E-12
  -13.3999996       4.77730962E-12
  -13.3950005       5.08522564E-12
  -13.3900003       5.38793836E-12
  -13.3850002       5.68382971E-12
  -13.3800001       5.97123045E-12
  -13.3750000       6.24842149E-12
  -13.3699999       6.51365246E-12
  -13.3649998       6.76512752E-12
  -13.3599997       7.00103517E-12
  -13.3549995       7.21953703E-12
  -13.3500004       7.41877913E-12
  -13.3450003       7.59690227E-12
  -13.3400002       7.75205768E-12
  -13.3350000       7.88239526E-12
  -13.3299999       7.98609442E-12
  -13.3249998       8.06135540E-12
  -13.3199997       8.10642612E-12
  -13.3149996       8.11959354E-12
  -13.3100004       8.09918799E-12
  -13.3050003       8.04362132E-12
  -13.3000002       7.95140603E-12
  -13.2950001       7.82108059E-12
  -13.2900000       7.65133616E-12
  -13.2849998       7.44095410E-12
  -13.2799997       7.18880684E-12
  -13.2749996       6.89391339E-12
  -13.2700005       6.55542591E-12
  -13.2650003       6.17264529E-12
  -13.2600002       5.74500473E-12
  -13.2550001       5.27213342E-12
  -13.2500000       4.75379848E-12
  -13.2449999       4.18996218E-12
  -13.2399998       3.58076698E-12
  -13.2349997       2.92657673E-12
  -13.2299995       2.22789647E-12
  -13.2250004       1.48546746E-12
  -13.2200003       7.00237665E-13
  -13.2150002      -1.26612777E-13
  -13.2100000      -9.93710756E-13
  -13.2049999      -1.89947927E-12
  -13.1999998      -2.84208898E-12
  -13.1949997      -3.81951372E-12
  -13.1899996      -4.82945845E-12
  -13.1850004      -5.86946420E-12
  -13.1800003      -6.93683522E-12
  -13.1750002      -8.02861857E-12
  -13.1700001      -9.14170475E-12
  -13.1650000      -1.02727575E-11
  -13.1599998      -1.14182006E-11
  -13.1549997      -1.25743053E-11
  -13.1499996      -1.37371390E-11
  -13.1450005      -1.49025722E-11
  -13.1400003      -1.60663184E-11
  -13.1350002      -1.72239358E-11
  -13.1300001      -1.83708136E-11
  -13.1250000      -1.95022106E-11
  -13.1199999      -2.06132594E-11
  -13.1149998      -2.16989898E-11
  -13.1099997      -2.27543019E-11
  -13.1049995      -2.37740556E-11
  -13.1000004      -2.47530208E-11
  -13.0950003      -2.56859187E-11
  -13.0900002      -2.65674392E-11
  -13.0850000      -2.73922864E-11
  -13.0799999      -2.81551119E-11
  -13.0749998      -2.88506632E-11
  -13.0699997      -2.94736631E-11
  -13.0649996      -3.00189353E-11
  -13.0600004      -3.04814160E-11
  -13.0550003      -3.08560885E-11
  -13.0500002      -3.11381268E-11
  -13.0450001      -3.13228089E-11
  -13.0400000      -3.14056003E-11
  -13.0349998      -3.13821330E-11
  -13.0299997      -3.12483234E-11
  -13.0249996      -3.10002406E-11
  -13.0200005      -3.06342451E-11
  -13.0150003      -3.01470168E-11
  -13.0100002      -2.95354678E-11
  -13.0050001      -2.87969162E-11
  -13.0000000      -2.79288970E-11
  -12.9949999      -2.69293789E-11
  -12.9899998      -2.57967432E-11
  -12.9849997      -2.45297498E-11
  -12.9799995      -2.31275190E-11
  -12.9750004      -2.15897022E-11
  -12.9700003      -1.99162006E-11
  -12.9650002      -1.81076387E-11
  -12.9600000      -1.61649340E-11
  -12.9549999      -1.40895802E-11
  -12.9499998      -1.18835549E-11
  -12.9449997      -9.54928064E-12
  -12.9399996      -7.08976584E-12
  -12.9350004      -4.50853330E-12
  -12.9300003      -1.80956086E-12
  -12.9250002       1.00254624E-12
  -12.9200001       3.92274624E-12
  -12.9150000       6.94537049E-12
  -12.9099998       1.00641995E-11
  -12.9049997       1.32726651E-11
  -12.8999996       1.65635873E-11
  -12.8950005       1.99292458E-11
  -12.8900003       2.33614673E-11
  -12.8850002       2.68515730E-11
  -12.8800001       3.03904575E-11
  -12.8750000       3.39684184E-11
  -12.8699999       3.75755538E-11
  -12.8649998       4.12013999E-11
  -12.8599997       4.48351876E-11
  -12.8549995       4.84656863E-11
  -12.8500004       5.20814919E-11
  -12.8450003       5.56707423E-11
  -12.8400002       5.92214403E-11
  -12.8350000       6.27212657E-11
  -12.8299999       6.61578084E-11
  -12.8249998       6.95183563E-11
  -12.8199997       7.27902461E-11
  -12.8149996       7.59605712E-11
  -12.8100004       7.90165086E-11
  -12.8050003       8.19452284E-11
  -12.8000002       8.47339282E-11
  -12.7950001       8.73699238E-11
  -12.7900000       8.98406419E-11
  -12.7849998       9.21337520E-11
  -12.7799997       9.42371667E-11
  -12.7749996       9.61390620E-11
  -12.7700005       9.78279124E-11
  -12.7650003       9.92926852E-11
  -12.7600002       1.00522660E-10
  -12.7550001       1.01507643E-10
  -12.7500000       1.02237968E-10
  -12.7449999       1.02704484E-10
  -12.7399998       1.02898863E-10
  -12.7349997       1.02812987E-10
  -12.7299995       1.02439945E-10
  -12.7250004       1.01773097E-10
  -12.7200003       1.00806870E-10
  -12.7150002       9.95362265E-11
  -12.7100000       9.79573644E-11
  -12.7049999       9.60666685E-11
  -12.6999998       9.38621403E-11
  -12.6949997       9.13421630E-11
  -12.6899996       8.85063065E-11
  -12.6850004       8.53550564E-11
  -12.6800003       8.18894536E-11
  -12.6750002       7.81122181E-11
  -12.6700001       7.40261324E-11
  -12.6650000       6.96358041E-11
  -12.6599998       6.49460485E-11
  -12.6549997       5.99636035E-11
  -12.6499996       5.46946030E-11
  -12.6450005       4.91478178E-11
  -12.6400003       4.33318381E-11
  -12.6350002       3.72567255E-11
  -12.6300001       3.09329055E-11
  -12.6250000       2.43719888E-11
  -12.6199999       1.75862415E-11
  -12.6149998       1.05887096E-11
  -12.6099997       3.39321995E-12
  -12.6049995      -3.98583163E-12
  -12.6000004      -1.15329838E-11
  -12.5950003      -1.92326120E-11
  -12.5900002      -2.70689495E-11
  -12.5850000      -3.50245805E-11
  -12.5799999      -4.30826971E-11
  -12.5749998      -5.12255655E-11
  -12.5699997      -5.94350402E-11
  -12.5649996      -6.76930387E-11
  -12.5600004      -7.59809368E-11
  -12.5550003      -8.42807629E-11
  -12.5500002      -9.25734975E-11
  -12.5450001      -1.00840482E-10
  -12.5400000      -1.09063203E-10
  -12.5349998      -1.17223189E-10
  -12.5299997      -1.25302005E-10
  -12.5249996      -1.33281497E-10
  -12.5200005      -1.41143597E-10
  -12.5150003      -1.48870902E-10
  -12.5100002      -1.56446398E-10
  -12.5050001      -1.63853250E-10
  -12.5000000      -1.71075390E-10
  -12.4949999      -1.78097148E-10
  -12.4899998      -1.84903343E-10
  -12.4849997      -1.91479499E-10
  -12.4799995      -1.97811781E-10
  -12.4750004      -2.03887102E-10
  -12.4700003      -2.09692999E-10
  -12.4650002      -2.15217816E-10
  -12.4600000      -2.20450602E-10
  -12.4549999      -2.25381172E-10
  -12.4499998      -2.30000158E-10
  -12.4449997      -2.34299025E-10
  -12.4399996      -2.38269904E-10
  -12.4350004      -2.41905745E-10
  -12.4300003      -2.45200166E-10
  -12.4250002      -2.48147836E-10
  -12.4200001      -2.50743759E-10
  -12.4150000      -2.52984189E-10
  -12.4099998      -2.54865129E-10
  -12.4049997      -2.56384330E-10
  -12.3999996      -2.57539545E-10
  -12.3950005      -2.58328692E-10
  -12.3900003      -2.58751104E-10
  -12.3850002      -2.58805449E-10
  -12.3800001      -2.58492061E-10
  -12.3750000      -2.57810773E-10
  -12.3699999      -2.56762167E-10
  -12.3649998      -2.55346355E-10
  -12.3599997      -2.53564475E-10
  -12.3549995      -2.51416887E-10
  -12.3500004      -2.48904064E-10
  -12.3450003      -2.46027254E-10
  -12.3400002      -2.42786985E-10
  -12.3350000      -2.39183395E-10
  -12.3299999      -2.35217512E-10
  -12.3249998      -2.30888059E-10
  -12.3199997      -2.26194979E-10
  -12.3149996      -2.21137428E-10
  -12.3100004      -2.15714488E-10
  -12.3050003      -2.09923232E-10
  -12.3000002      -2.03761494E-10
  -12.2950001      -1.97226652E-10
  -12.2900000      -1.90314042E-10
  -12.2849998      -1.83019142E-10
  -12.2799997      -1.75336703E-10
  -12.2749996      -1.67261469E-10
  -12.2700005      -1.58786220E-10
  -12.2650003      -1.49903201E-10
  -12.2600002      -1.40605638E-10
  -12.2550001      -1.30883165E-10
  -12.2500000      -1.20727692E-10
  -12.2449999      -1.10127622E-10
  -12.2399998      -9.90732774E-11
  -12.2349997      -8.75530481E-11
  -12.2299995      -7.55541046E-11
  -12.2250004      -6.30656985E-11
  -12.2200003      -5.00747187E-11
  -12.2150002      -3.65693691E-11
  -12.2100000      -2.25350433E-11
  -12.2049999      -7.95965377E-12
  -12.1999998       7.16872395E-12
  -12.1949997       2.28653069E-11
  -12.1899996       3.91394278E-11
  -12.1850004       5.60041735E-11
  -12.1800003       7.34705699E-11
  -12.1750002       9.15489073E-11
  -12.1700001       1.10248970E-10
  -12.1650000       1.29578029E-10
  -12.1599998       1.49544307E-10
  -12.1549997       1.70151809E-10
  -12.1499996       1.91404823E-10
  -12.1450005       2.13305415E-10
  -12.1400003       2.35853392E-10
  -12.1350002       2.59045368E-10
  -12.1300001       2.82878276E-10
  -12.1250000       3.07344317E-10
  -12.1199999       3.32433692E-10
  -12.1149998       3.58132468E-10
  -12.1099997       3.84426602E-10
  -12.1049995       4.11295109E-10
  -12.1000004       4.38716063E-10
  -12.0950003       4.66663430E-10
  -12.0900002       4.95106345E-10
  -12.0850000       5.24011556E-10
  -12.0799999       5.53341650E-10
  -12.0749998       5.83054938E-10
  -12.0699997       6.13105400E-10
  -12.0649996       6.43442466E-10
  -12.0600004       6.74011791E-10
  -12.0550003       7.04754310E-10
  -12.0500002       7.35606409E-10
  -12.0450001       7.66500641E-10
  -12.0400000       7.97364730E-10
  -12.0349998       8.28121072E-10
  -12.0299997       8.58689508E-10
  -12.0249996       8.88985052E-10
  -12.0200005       9.18915832E-10
  -12.0150003       9.48388479E-10
  -12.0100002       9.77304571E-10
  -12.0050001       1.00556286E-09
  -12.0000000       1.03305575E-09
  -11.9949999       1.05967413E-09
  -11.9899998       1.08530251E-09
  -11.9849997       1.10982568E-09
  -11.9799995       1.13312348E-09
  -11.9750004       1.15507248E-09
  -11.9700003       1.17554466E-09
  -11.9650002       1.19441645E-09
  -11.9600000       1.21155319E-09
  -11.9549999       1.22682420E-09
  -11.9499998       1.24009680E-09
  -11.9449997       1.25123578E-09
  -11.9399996       1.26010380E-09
  -11.9350004       1.26656741E-09
  -11.9300003       1.27048716E-09
  -11.9250002       1.27173372E-09
  -11.9200001       1.27016309E-09
  -11.9150000       1.26564581E-09
  -11.9099998       1.25804955E-09
  -11.9049997       1.24724142E-09
  -11.8999996       1.23309207E-09
  -11.8950005       1.21547772E-09
  -11.8900003       1.19427779E-09
  -11.8850002       1.16936860E-09
  -11.8800001       1.14063747E-09
  -11.8750000       1.10797871E-09
  -11.8699999       1.07127829E-09
  -11.8649998       1.03043984E-09
  -11.8599997       9.85368898E-10
  -11.8549995       9.35980515E-10
  -11.8500004       8.82186102E-10
  -11.8450003       8.23916602E-10
  -11.8400002       7.61096020E-10
  -11.8350000       6.93674007E-10
  -11.8299999       6.21589058E-10
  -11.8249998       5.44803203E-10
  -11.8199997       4.63279942E-10
  -11.8149996       3.76989162E-10
  -11.8100004       2.85916124E-10
  -11.8050003       1.90052668E-10
  -11.8000002       8.94005078E-11
  -11.7950001      -1.60275127E-11
  -11.7900000      -1.26215399E-10
  -11.7849998      -2.41130699E-10
  -11.7799997      -3.60732860E-10
  -11.7749996      -4.84967122E-10
  -11.7700005      -6.13780138E-10
  -11.7650003      -7.47093498E-10
  -11.7600002      -8.84830487E-10
  -11.7550001      -1.02689435E-09
  -11.7500000      -1.17318721E-09
  -11.7449999      -1.32359335E-09
  -11.7399998      -1.47799861E-09
  -11.7349997      -1.63626801E-09
  -11.7299995      -1.79825843E-09
  -11.7250004      -1.96382488E-09
  -11.7200003      -2.13280837E-09